Generated by trjconv : CNT in water t= 373.00000
33518
    1C        C    1   2.843   2.769   4.745
    1C        C    2   2.896   2.716   4.865
    1C        C    3   2.837   2.770   4.981
    1C        C    4   2.849   2.776   4.257
    1C        C    5   2.899   2.729   4.381
    1C        C    6   2.837   2.767   4.502
    1C        C    7   3.006   2.637   4.620
    1C        C    8   2.890   2.718   4.623
    1C        C    9   3.071   2.602   4.741
    1C        C   10   3.010   2.632   4.864
    1C        C   11   3.179   2.494   4.971
    1C        C   12   3.059   2.564   4.976
    1C        C   13   2.851   2.775   3.772
    1C        C   14   2.899   2.724   3.894
    1C        C   15   2.846   2.776   4.014
    1C        C   16   3.017   2.647   4.136
    1C        C   17   2.900   2.727   4.135
    1C        C   18   3.078   2.614   4.259
    1C        C   19   3.016   2.649   4.380
    1C        C   20   3.208   2.560   4.503
    1C        C   21   3.074   2.605   4.501
    1C        C   22   3.277   2.537   4.624
    1C        C   23   3.203   2.549   4.744
    1C        C   24   3.412   2.487   4.862
    1C        C   25   3.270   2.503   4.860
    1C        C   26   3.488   2.485   4.979
    1C        C   27   2.853   2.769   3.283
    1C        C   28   2.910   2.727   3.406
    1C        C   29   2.856   2.777   3.526
    1C        C   30   3.014   2.639   3.648
    1C        C   31   2.906   2.730   3.649
    1C        C   32   3.076   2.606   3.771
    1C        C   33   3.015   2.643   3.893
    1C        C   34   3.209   2.554   4.013
    1C        C   35   3.080   2.611   4.014
    1C        C   36   3.274   2.539   4.137
    1C        C   37   3.210   2.563   4.261
    1C        C   38   3.418   2.514   4.380
    1C        C   39   3.279   2.540   4.382
    1C        C   40   3.487   2.499   4.502
    1C        C   41   3.415   2.504   4.623
    1C        C   42   3.631   2.485   4.741
    1C        C   43   3.489   2.488   4.742
    1C        C   44   3.704   2.485   4.862
    1C        C   45   3.627   2.472   4.978
    1C        C   46   2.836   2.753   2.794
    1C        C   47   2.897   2.712   2.914
    1C        C   48   2.845   2.761   3.036
    1C        C   49   3.018   2.642   3.161
    1C        C   50   2.901   2.721   3.159
    1C        C   51   3.085   2.610   3.282
    1C        C   52   3.026   2.647   3.405
    1C        C   53   3.211   2.550   3.526
    1C        C   54   3.080   2.603   3.528
    1C        C   55   3.276   2.526   3.649
    1C        C   56   3.206   2.550   3.769
    1C        C   57   3.414   2.507   3.893
    1C        C   58   3.275   2.530   3.890
    1C        C   59   3.485   2.503   4.015
    1C        C   60   3.413   2.512   4.136
    1C        C   61   3.627   2.501   4.258
    1C        C   62   3.485   2.499   4.257
    1C        C   63   3.700   2.510   4.378
    1C        C   64   3.629   2.501   4.500
    1C        C   65   3.840   2.536   4.619
    1C        C   66   3.703   2.501   4.620
    1C        C   67   3.904   2.569   4.741
    1C        C   68   3.837   2.530   4.859
    1C        C   69   4.050   2.585   4.976
    1C        C   70   3.921   2.531   4.971
    1C        C   71   2.820   2.733   2.307
    1C        C   72   2.881   2.693   2.428
    1C        C   73   2.831   2.744   2.550
    1C        C   74   3.007   2.625   2.673
    1C        C   75   2.889   2.703   2.673
    1C        C   76   3.073   2.592   2.794
    1C        C   77   3.014   2.632   2.916
    1C        C   78   3.205   2.543   3.033
    1C        C   79   3.079   2.607   3.039
    1C        C   80   3.275   2.526   3.155
    1C        C   81   3.212   2.550   3.279
    1C        C   82   3.414   2.497   3.401
    1C        C   83   3.276   2.523   3.403
    1C        C   84   3.484   2.489   3.524
    1C        C   85   3.414   2.496   3.648
    1C        C   86   3.625   2.500   3.769
    1C        C   87   3.484   2.493   3.771
    1C        C   88   3.696   2.515   3.890
    1C        C   89   3.626   2.509   4.013
    1C        C   90   3.833   2.550   4.134
    1C        C   91   3.697   2.513   4.136
    1C        C   92   3.902   2.575   4.254
    1C        C   93   3.836   2.549   4.376
    1C        C   94   4.032   2.631   4.498
    1C        C   95   3.905   2.567   4.498
    1C        C   96   4.093   2.671   4.619
    1C        C   97   4.030   2.635   4.740
    1C        C   98   4.194   2.764   4.863
    1C        C   99   4.100   2.656   4.862
    1C        C  100   4.218   2.840   4.977
    1C        C  101   2.821   2.731   2.073
    1C        C  102   2.988   2.587   2.192
    1C        C  103   2.876   2.676   2.190
    1C        C  104   3.062   2.570   2.313
    1C        C  105   3.001   2.618   2.431
    1C        C  106   3.198   2.533   2.550
    1C        C  107   3.067   2.587   2.551
    1C        C  108   3.271   2.513   2.669
    1C        C  109   3.202   2.535   2.790
    1C        C  110   3.410   2.491   2.915
    1C        C  111   3.271   2.513   2.912
    1C        C  112   3.481   2.492   3.037
    1C        C  113   3.412   2.495   3.160
    1C        C  114   3.628   2.497   3.278
    1C        C  115   3.487   2.489   3.280
    1C        C  116   3.695   2.508   3.402
    1C        C  117   3.625   2.497   3.524
    1C        C  118   3.832   2.543   3.644
    1C        C  119   3.694   2.510   3.647
    1C        C  120   3.898   2.567   3.766
    1C        C  121   3.833   2.549   3.890
    1C        C  122   4.026   2.637   4.009
    1C        C  123   3.900   2.573   4.012
    1C        C  124   4.087   2.673   4.131
    1C        C  125   4.028   2.640   4.255
    1C        C  126   4.196   2.767   4.375
    1C        C  127   4.091   2.672   4.377
    1C        C  128   4.247   2.817   4.497
    1C        C  129   4.199   2.765   4.619
    1C        C  130   4.328   2.934   4.739
    1C        C  131   4.243   2.820   4.741
    1C        C  132   4.361   3.001   4.859
    1C        C  133   4.290   2.959   4.972
    1C        C  134   3.174   2.471   2.080
    1C        C  135   3.038   2.505   2.086
    1C        C  136   3.260   2.481   2.190
    1C        C  137   3.197   2.523   2.309
    1C        C  138   3.406   2.478   2.428
    1C        C  139   3.267   2.505   2.430
    1C        C  140   3.480   2.474   2.548
    1C        C  141   3.410   2.486   2.670
    1C        C  142   3.622   2.490   2.790
    1C        C  143   3.480   2.484   2.792
    1C        C  144   3.692   2.499   2.912
    1C        C  145   3.622   2.489   3.034
    1C        C  146   3.834   2.526   3.155
    1C        C  147   3.696   2.495   3.155
    1C        C  148   3.900   2.554   3.277
    1C        C  149   3.833   2.538   3.400
    1C        C  150   4.027   2.624   3.519
    1C        C  151   3.901   2.560   3.522
    1C        C  152   4.083   2.670   3.641
    1C        C  153   4.024   2.633   3.763
    1C        C  154   4.194   2.761   3.888
    1C        C  155   4.083   2.673   3.885
    1C        C  156   4.245   2.811   4.009
    1C        C  157   4.196   2.763   4.133
    1C        C  158   4.348   2.915   4.253
    1C        C  159   4.251   2.812   4.253
    1C        C  160   4.380   2.980   4.374
    1C        C  161   4.334   2.928   4.498
    1C        C  162   4.444   3.113   4.613
    1C        C  163   4.375   2.989   4.618
    1C        C  164   4.475   3.181   4.732
    1C        C  165   4.438   3.120   4.854
    1C        C  166   4.513   3.321   4.971
    1C        C  167   4.479   3.186   4.970
    1C        C  168   3.478   2.432   2.074
    1C        C  169   3.399   2.453   2.188
    1C        C  170   3.617   2.464   2.304
    1C        C  171   3.475   2.457   2.306
    1C        C  172   3.691   2.485   2.422
    1C        C  173   3.621   2.480   2.545
    1C        C  174   3.826   2.535   2.665
    1C        C  175   3.691   2.494   2.667
    1C        C  176   3.895   2.559   2.786
    1C        C  177   3.828   2.536   2.909
    1C        C  178   4.022   2.618   3.030
    1C        C  179   3.895   2.557   3.032
    1C        C  180   4.081   2.661   3.151
    1C        C  181   4.025   2.620   3.275
    1C        C  182   4.192   2.752   3.398
    1C        C  183   4.086   2.659   3.396
    1C        C  184   4.245   2.803   3.519
    1C        C  185   4.194   2.757   3.643
    1C        C  186   4.337   2.915   3.764
    1C        C  187   4.244   2.809   3.764
    1C        C  188   4.375   2.977   3.886
    1C        C  189   4.336   2.920   4.009
    1C        C  190   4.442   3.105   4.129
    1C        C  191   4.378   2.979   4.130
    1C        C  192   4.473   3.173   4.249
    1C        C  193   4.443   3.106   4.370
    1C        C  194   4.508   3.313   4.489
    1C        C  195   4.467   3.177   4.489
    1C        C  196   4.526   3.385   4.609
    1C        C  197   4.517   3.317   4.733
    1C        C  198   4.556   3.534   4.849
    1C        C  199   4.527   3.394   4.852
    1C        C  200   4.579   3.616   4.964
    1C        C  201   3.616   2.414   2.072
    1C        C  202   3.826   2.512   2.182
    1C        C  203   3.692   2.463   2.183
    1C        C  204   3.899   2.540   2.301
    1C        C  205   3.830   2.512   2.421
    1C        C  206   4.017   2.618   2.541
    1C        C  207   3.892   2.551   2.541
    1C        C  208   4.082   2.658   2.660
    1C        C  209   4.021   2.622   2.782
    1C        C  210   4.189   2.746   2.906
    1C        C  211   4.079   2.657   2.907
    1C        C  212   4.243   2.793   3.027
    1C        C  213   4.191   2.750   3.151
    1C        C  214   4.330   2.909   3.271
    1C        C  215   4.242   2.798   3.274
    1C        C  216   4.370   2.967   3.393
    1C        C  217   4.334   2.913   3.519
    1C        C  218   4.437   3.097   3.637
    1C        C  219   4.379   2.968   3.640
    1C        C  220   4.467   3.164   3.758
    1C        C  221   4.442   3.101   3.882
    1C        C  222   4.504   3.304   4.000
    1C        C  223   4.466   3.168   4.005
    1C        C  224   4.515   3.376   4.121
    1C        C  225   4.505   3.310   4.246
    1C        C  226   4.517   3.524   4.366
    1C        C  227   4.512   3.383   4.367
    1C        C  228   4.510   3.597   4.487
    1C        C  229   4.526   3.526   4.608
    1C        C  230   4.501   3.741   4.730
    1C        C  231   4.537   3.603   4.726
    1C        C  232   4.497   3.820   4.847
    1C        C  233   4.545   3.752   4.960
    1C        C  234   4.015   2.608   2.061
    1C        C  235   3.895   2.537   2.062
    1C        C  236   4.081   2.650   2.177
    1C        C  237   4.020   2.614   2.299
    1C        C  238   4.194   2.738   2.418
    1C        C  239   4.080   2.654   2.420
    1C        C  240   4.243   2.795   2.538
    1C        C  241   4.192   2.747   2.660
    1C        C  242   4.327   2.907   2.783
    1C        C  243   4.243   2.793   2.784
    1C        C  244   4.370   2.963   2.906
    1C        C  245   4.330   2.904   3.028
    1C        C  246   4.434   3.092   3.148
    1C        C  247   4.371   2.966   3.149
    1C        C  248   4.457   3.159   3.271
    1C        C  249   4.432   3.094   3.394
    1C        C  250   4.499   3.298   3.512
    1C        C  251   4.458   3.163   3.514
    1C        C  252   4.512   3.370   3.633
    1C        C  253   4.501   3.301   3.756
    1C        C  254   4.518   3.514   3.876
    1C        C  255   4.518   3.373   3.877
    1C        C  256   4.515   3.586   3.998
    1C        C  257   4.522   3.517   4.121
    1C        C  258   4.489   3.729   4.242
    1C        C  259   4.520   3.591   4.241
    1C        C  260   4.465   3.799   4.363
    1C        C  261   4.477   3.734   4.488
    1C        C  262   4.422   3.939   4.603
    1C        C  263   4.468   3.805   4.609
    1C        C  264   4.399   4.011   4.722
    1C        C  265   4.437   3.948   4.842
    1C        C  266   4.317   4.126   4.958
    1C        C  267   4.394   4.010   4.960
    1C        C  268   4.262   2.775   2.060
    1C        C  269   4.199   2.728   2.176
    1C        C  270   4.343   2.890   2.298
    1C        C  271   4.250   2.782   2.296
    1C        C  272   4.381   2.954   2.418
    1C        C  273   4.337   2.900   2.541
    1C        C  274   4.443   3.086   2.659
    1C        C  275   4.374   2.962   2.662
    1C        C  276   4.469   3.152   2.782
    1C        C  277   4.441   3.085   2.903
    1C        C  278   4.506   3.288   3.023
    1C        C  279   4.469   3.151   3.024
    1C        C  280   4.512   3.361   3.144
    1C        C  281   4.494   3.295   3.268
    1C        C  282   4.517   3.508   3.388
    1C        C  283   4.508   3.367   3.389
    1C        C  284   4.515   3.580   3.509
    1C        C  285   4.515   3.511   3.633
    1C        C  286   4.486   3.723   3.750
    1C        C  287   4.513   3.584   3.753
    1C        C  288   4.473   3.790   3.873
    1C        C  289   4.494   3.726   3.997
    1C        C  290   4.429   3.929   4.116
    1C        C  291   4.473   3.795   4.119
    1C        C  292   4.392   3.995   4.235
    1C        C  293   4.417   3.932   4.359
    1C        C  294   4.328   4.126   4.477
    1C        C  295   4.394   4.002   4.480
    1C        C  296   4.285   4.187   4.597
    1C        C  297   4.323   4.131   4.721
    1C        C  298   4.194   4.309   4.838
    1C        C  299   4.277   4.192   4.841
    1C        C  300   4.172   4.400   4.945
    1C        C  301   4.345   2.886   2.061
    1C        C  302   4.473   3.065   2.174
    1C        C  303   4.396   2.944   2.178
    1C        C  304   4.483   3.141   2.294
    1C        C  305   4.449   3.078   2.416
    1C        C  306   4.512   3.284   2.536
    1C        C  307   4.473   3.148   2.536
    1C        C  308   4.523   3.356   2.657
    1C        C  309   4.503   3.289   2.780
    1C        C  310   4.529   3.500   2.898
    1C        C  311   4.517   3.359   2.902
    1C        C  312   4.515   3.571   3.019
    1C        C  313   4.519   3.502   3.143
    1C        C  314   4.489   3.714   3.261
    1C        C  315   4.515   3.575   3.263
    1C        C  316   4.472   3.785   3.382
    1C        C  317   4.490   3.719   3.505
    1C        C  318   4.419   3.921   3.628
    1C        C  319   4.472   3.790   3.626
    1C        C  320   4.385   3.983   3.750
    1C        C  321   4.414   3.919   3.873
    1C        C  322   4.316   4.108   3.989
    1C        C  323   4.390   3.988   3.993
    1C        C  324   4.274   4.167   4.111
    1C        C  325   4.323   4.118   4.235
    1C        C  326   4.184   4.281   4.353
    1C        C  327   4.286   4.184   4.354
    1C        C  328   4.135   4.337   4.473
    1C        C  329   4.191   4.292   4.595
    1C        C  330   4.024   4.434   4.712
    1C        C  331   4.138   4.348   4.713
    1C        C  332   3.971   4.490   4.830
    1C        C  333   4.053   4.475   4.942
    1C        C  334   4.552   3.269   2.060
    1C        C  335   4.540   3.129   2.064
    1C        C  336   4.537   3.349   2.174
    1C        C  337   4.518   3.278   2.295
    1C        C  338   4.532   3.495   2.411
    1C        C  339   4.526   3.354   2.414
    1C        C  340   4.531   3.566   2.533
    1C        C  341   4.534   3.496   2.656
    1C        C  342   4.497   3.708   2.773
    1C        C  343   4.529   3.571   2.776
    1C        C  344   4.477   3.780   2.893
    1C        C  345   4.494   3.711   3.015
    1C        C  346   4.419   3.909   3.137
    1C        C  347   4.475   3.780   3.137
    1C        C  348   4.390   3.976   3.258
    1C        C  349   4.424   3.918   3.383
    1C        C  350   4.314   4.101   3.501
    1C        C  351   4.390   3.982   3.504
    1C        C  352   4.271   4.159   3.622
    1C        C  353   4.318   4.108   3.745
    1C        C  354   4.173   4.264   3.865
    1C        C  355   4.274   4.165   3.867
    1C        C  356   4.118   4.308   3.988
    1C        C  357   4.171   4.263   4.110
    1C        C  358   4.007   4.398   4.228
    1C        C  359   4.124   4.319   4.231
    1C        C  360   3.949   4.440   4.349
    1C        C  361   4.021   4.420   4.470
    1C        C  362   3.828   4.513   4.588
    1C        C  363   3.962   4.467   4.589
    1C        C  364   3.763   4.540   4.711
    1C        C  365   3.839   4.540   4.830
    1C        C  366   3.628   4.591   4.945
    1C        C  367   3.766   4.572   4.945
    1C        C  368   4.516   3.565   2.053
    1C        C  369   4.527   3.489   2.170
    1C        C  370   4.504   3.706   2.289
    1C        C  371   4.527   3.566   2.289
    1C        C  372   4.483   3.775   2.410
    1C        C  373   4.503   3.705   2.532
    1C        C  374   4.427   3.908   2.649
    1C        C  375   4.483   3.778   2.651
    1C        C  376   4.386   3.971   2.769
    1C        C  377   4.420   3.909   2.891
    1C        C  378   4.310   4.089   3.013
    1C        C  379   4.388   3.972   3.014
    1C        C  380   4.263   4.146   3.134
    1C        C  381   4.314   4.095   3.256
    1C        C  382   4.173   4.254   3.374
    1C        C  383   4.273   4.155   3.377
    1C        C  384   4.117   4.301   3.496
    1C        C  385   4.173   4.260   3.619
    1C        C  386   4.002   4.384   3.743
    1C        C  387   4.121   4.308   3.742
    1C        C  388   3.940   4.425   3.864
    1C        C  389   4.002   4.389   3.986
    1C        C  390   3.813   4.489   4.104
    1C        C  391   3.940   4.426   4.107
    1C        C  392   3.749   4.514   4.227
    1C        C  393   3.819   4.494   4.348
    1C        C  394   3.615   4.553   4.471
    1C        C  395   3.753   4.525   4.469
    1C        C  396   3.544   4.559   4.593
    1C        C  397   3.623   4.558   4.710
    1C        C  398   3.411   4.549   4.835
    1C        C  399   3.550   4.571   4.830
    1C        C  400   3.344   4.516   4.954
    1C        C  401   4.508   3.704   2.049
    1C        C  402   4.449   3.911   2.167
    1C        C  403   4.491   3.777   2.168
    1C        C  404   4.408   3.975   2.286
    1C        C  405   4.434   3.907   2.407
    1C        C  406   4.326   4.094   2.525
    1C        C  407   4.398   3.973   2.527
    1C        C  408   4.278   4.151   2.645
    1C        C  409   4.317   4.094   2.769
    1C        C  410   4.167   4.244   2.887
    1C        C  411   4.269   4.147   2.891
    1C        C  412   4.111   4.287   3.009
    1C        C  413   4.167   4.249   3.133
    1C        C  414   4.001   4.385   3.253
    1C        C  415   4.111   4.297   3.254
    1C        C  416   3.940   4.414   3.376
    1C        C  417   3.999   4.378   3.499
    1C        C  418   3.810   4.474   3.619
    1C        C  419   3.940   4.418   3.621
    1C        C  420   3.744   4.503   3.740
    1C        C  421   3.814   4.488   3.862
    1C        C  422   3.606   4.538   3.984
    1C        C  423   3.744   4.510   3.983
    1C        C  424   3.539   4.543   4.108
    1C        C  425   3.610   4.541   4.230
    1C        C  426   3.400   4.550   4.354
    1C        C  427   3.540   4.561   4.351
    1C        C  428   3.330   4.550   4.476
    1C        C  429   3.403   4.558   4.597
    1C        C  430   3.192   4.522   4.725
    1C        C  431   3.332   4.547   4.719
    1C        C  432   3.121   4.497   4.846
    1C        C  433   3.208   4.488   4.956
    1C        C  434   4.386   4.124   2.051
    1C        C  435   4.447   3.998   2.057
    1C        C  436   4.301   4.159   2.162
    1C        C  437   4.330   4.093   2.284
    1C        C  438   4.184   4.253   2.400
    1C        C  439   4.278   4.148   2.404
    1C        C  440   4.124   4.295   2.520
    1C        C  441   4.177   4.250   2.643
    1C        C  442   4.000   4.371   2.764
    1C        C  443   4.115   4.290   2.764
    1C        C  444   3.935   4.404   2.885
    1C        C  445   3.996   4.368   3.008
    1C        C  446   3.806   4.464   3.129
    1C        C  447   3.937   4.411   3.129
    1C        C  448   3.742   4.490   3.252
    1C        C  449   3.808   4.466   3.374
    1C        C  450   3.604   4.523   3.494
    1C        C  451   3.743   4.494   3.496
    1C        C  452   3.536   4.538   3.617
    1C        C  453   3.606   4.531   3.739
    1C        C  454   3.395   4.544   3.863
    1C        C  455   3.536   4.548   3.861
    1C        C  456   3.331   4.529   3.988
    1C        C  457   3.398   4.542   4.112
    1C        C  458   3.189   4.502   4.235
    1C        C  459   3.327   4.532   4.234
    1C        C  460   3.125   4.489   4.360
    1C        C  461   3.192   4.517   4.481
    1C        C  462   3.000   4.427   4.602
    1C        C  463   3.126   4.492   4.603
    1C        C  464   2.931   4.399   4.722
    1C        C  465   2.987   4.447   4.843
    1C        C  466   2.795   4.342   4.958
    1C        C  467   2.907   4.427   4.960
    1C        C  468   4.122   4.277   2.039
    1C        C  469   4.185   4.242   2.159
    1C        C  470   4.004   4.367   2.276
    1C        C  471   4.126   4.293   2.278
    1C        C  472   3.940   4.401   2.397
    1C        C  473   4.003   4.370   2.520
    1C        C  474   3.810   4.462   2.643
    1C        C  475   3.940   4.406   2.641
    1C        C  476   3.743   4.494   2.764
    1C        C  477   3.809   4.468   2.886
    1C        C  478   3.601   4.518   3.006
    1C        C  479   3.739   4.488   3.007
    1C        C  480   3.532   4.531   3.129
    1C        C  481   3.605   4.524   3.250
    1C        C  482   3.393   4.538   3.374
    1C        C  483   3.534   4.535   3.372
    1C        C  484   3.323   4.534   3.497
    1C        C  485   3.395   4.544   3.618
    1C        C  486   3.190   4.500   3.744
    1C        C  487   3.325   4.541   3.741
    1C        C  488   3.126   4.475   3.868
    1C        C  489   3.193   4.497   3.990
    1C        C  490   2.999   4.413   4.114
    1C        C  491   3.122   4.482   4.112
    1C        C  492   2.938   4.389   4.240
    1C        C  493   2.997   4.429   4.362
    1C        C  494   2.828   4.298   4.481
    1C        C  495   2.934   4.392   4.482
    1C        C  496   2.774   4.255   4.604
    1C        C  497   2.821   4.308   4.726
    1C        C  498   2.664   4.162   4.844
    1C        C  499   2.753   4.271   4.844
    1C        C  500   2.588   4.117   4.953
    1C        C  501   4.000   4.345   2.040
    1C        C  502   3.810   4.453   2.156
    1C        C  503   3.938   4.396   2.155
    1C        C  504   3.743   4.478   2.277
    1C        C  505   3.808   4.450   2.399
    1C        C  506   3.604   4.508   2.520
    1C        C  507   3.742   4.478   2.521
    1C        C  508   3.532   4.521   2.641
    1C        C  509   3.604   4.516   2.762
    1C        C  510   3.391   4.530   2.885
    1C        C  511   3.533   4.528   2.883
    1C        C  512   3.320   4.529   3.007
    1C        C  513   3.391   4.540   3.128
    1C        C  514   3.187   4.496   3.256
    1C        C  515   3.323   4.534   3.252
    1C        C  516   3.120   4.470   3.377
    1C        C  517   3.187   4.498   3.499
    1C        C  518   2.999   4.407   3.625
    1C        C  519   3.123   4.475   3.623
    1C        C  520   2.938   4.372   3.748
    1C        C  521   3.001   4.409   3.868
    1C        C  522   2.837   4.279   3.994
    1C        C  523   2.944   4.370   3.992
    1C        C  524   2.793   4.230   4.119
    1C        C  525   2.838   4.290   4.239
    1C        C  526   2.701   4.127   4.363
    1C        C  527   2.783   4.242   4.360
    1C        C  528   2.654   4.076   4.486
    1C        C  529   2.684   4.147   4.605
    1C        C  530   2.584   3.958   4.730
    1C        C  531   2.640   4.088   4.726
    1C        C  532   2.540   3.899   4.851
    1C        C  533   2.524   3.993   4.958
    1C        C  534   3.613   4.549   2.039
    1C        C  535   3.745   4.504   2.042
    1C        C  536   3.534   4.533   2.157
    1C        C  537   3.605   4.512   2.279
    1C        C  538   3.389   4.515   2.398
    1C        C  539   3.531   4.515   2.399
    1C        C  540   3.319   4.514   2.521
    1C        C  541   3.390   4.524   2.642
    1C        C  542   3.183   4.486   2.767
    1C        C  543   3.319   4.524   2.764
    1C        C  544   3.117   4.464   2.890
    1C        C  545   3.184   4.489   3.012
    1C        C  546   2.995   4.400   3.135
    1C        C  547   3.119   4.468   3.135
    1C        C  548   2.934   4.365   3.257
    1C        C  549   2.995   4.403   3.378
    1C        C  550   2.829   4.279   3.506
    1C        C  551   2.940   4.366   3.503
    1C        C  552   2.777   4.230   3.628
    1C        C  553   2.830   4.281   3.748
    1C        C  554   2.699   4.118   3.874
    1C        C  555   2.781   4.234   3.872
    1C        C  556   2.663   4.059   3.997
    1C        C  557   2.707   4.118   4.118
    1C        C  558   2.596   3.940   4.246
    1C        C  559   2.666   4.063   4.242
    1C        C  560   2.569   3.877   4.369
    1C        C  561   2.601   3.945   4.489
    1C        C  562   2.533   3.746   4.614
    1C        C  563   2.573   3.881   4.612
    1C        C  564   2.509   3.679   4.736
    1C        C  565   2.515   3.758   4.854
    1C        C  566   2.522   3.543   4.975
    1C        C  567   2.525   3.682   4.972
    1C        C  568   3.326   4.470   2.043
    1C        C  569   3.393   4.515   2.157
    1C        C  570   3.178   4.480   2.280
    1C        C  571   3.316   4.514   2.277
    1C        C  572   3.113   4.460   2.404
    1C        C  573   3.180   4.487   2.525
    1C        C  574   2.987   4.400   2.650
    1C        C  575   3.112   4.466   2.647
    1C        C  576   2.929   4.360   2.773
    1C        C  577   2.993   4.397   2.894
    1C        C  578   2.824   4.266   3.016
    1C        C  579   2.936   4.353   3.015
    1C        C  580   2.774   4.221   3.140
    1C        C  581   2.826   4.273   3.260
    1C        C  582   2.699   4.109   3.384
    1C        C  583   2.783   4.223   3.385
    1C        C  584   2.658   4.053   3.507
    1C        C  585   2.694   4.115   3.629
    1C        C  586   2.594   3.933   3.753
    1C        C  587   2.659   4.058   3.753
    1C        C  588   2.573   3.869   3.877
    1C        C  589   2.599   3.934   4.000
    1C        C  590   2.531   3.737   4.128
    1C        C  591   2.569   3.873   4.124
    1C        C  592   2.522   3.667   4.250
    1C        C  593   2.534   3.741   4.371
    1C        C  594   2.514   3.531   4.496
    1C        C  595   2.520   3.672   4.494
    1C        C  596   2.519   3.461   4.618
    1C        C  597   2.510   3.536   4.737
    1C        C  598   2.535   3.324   4.861
    1C        C  599   2.521   3.465   4.858
    1C        C  600   2.536   3.249   4.979
    1C        C  601   3.192   4.437   2.042
    1C        C  602   2.980   4.395   2.160
    1C        C  603   3.115   4.443   2.159
    1C        C  604   2.921   4.358   2.284
    1C        C  605   2.988   4.395   2.403
    1C        C  606   2.824   4.267   2.529
    1C        C  607   2.931   4.360   2.527
    1C        C  608   2.774   4.216   2.651
    1C        C  609   2.819   4.272   2.773
    1C        C  610   2.690   4.102   2.895
    1C        C  611   2.772   4.217   2.894
    1C        C  612   2.659   4.042   3.019
    1C        C  613   2.695   4.103   3.141
    1C        C  614   2.589   3.923   3.265
    1C        C  615   2.658   4.046   3.264
    1C        C  616   2.562   3.860   3.389
    1C        C  617   2.595   3.926   3.509
    1C        C  618   2.531   3.727   3.638
    1C        C  619   2.567   3.864   3.632
    1C        C  620   2.519   3.661   3.763
    1C        C  621   2.531   3.734   3.883
    1C        C  622   2.502   3.526   4.010
    1C        C  623   2.519   3.666   4.007
    1C        C  624   2.507   3.454   4.132
    1C        C  625   2.516   3.526   4.253
    1C        C  626   2.525   3.316   4.376
    1C        C  627   2.513   3.457   4.376
    1C        C  628   2.552   3.249   4.498
    1C        C  629   2.535   3.320   4.619
    1C        C  630   2.586   3.115   4.741
    1C        C  631   2.543   3.251   4.741
    1C        C  632   2.615   3.049   4.864
    1C        C  633   2.559   3.110   4.980
    1C        C  634   2.776   4.305   2.053
    1C        C  635   2.886   4.392   2.052
    1C        C  636   2.750   4.227   2.166
    1C        C  637   2.809   4.270   2.286
    1C        C  638   2.681   4.106   2.411
    1C        C  639   2.764   4.221   2.410
    1C        C  640   2.646   4.042   2.532
    1C        C  641   2.687   4.105   2.652
    1C        C  642   2.586   3.917   2.777
    1C        C  643   2.650   4.043   2.773
    1C        C  644   2.560   3.852   2.900
    1C        C  645   2.593   3.917   3.021
    1C        C  646   2.529   3.717   3.148
    1C        C  647   2.569   3.852   3.144
    1C        C  648   2.510   3.652   3.272
    1C        C  649   2.516   3.726   3.392
    1C        C  650   2.504   3.518   3.517
    1C        C  651   2.510   3.659   3.516
    1C        C  652   2.506   3.451   3.642
    1C        C  653   2.510   3.520   3.765
    1C        C  654   2.524   3.313   3.887
    1C        C  655   2.506   3.453   3.889
    1C        C  656   2.542   3.246   4.010
    1C        C  657   2.519   3.313   4.133
    1C        C  658   2.594   3.115   4.258
    1C        C  659   2.537   3.244   4.255
    1C        C  660   2.618   3.045   4.379
    1C        C  661   2.584   3.111   4.499
    1C        C  662   2.702   2.933   4.623
    1C        C  663   2.622   3.050   4.620
    1C        C  664   2.746   2.874   4.743
    1C        C  665   2.694   2.930   4.863
    1C        C  666   2.740   2.869   4.980
    1C        C  667   2.686   4.019   2.054
    1C        C  668   2.685   4.101   2.168
    1C        C  669   2.588   3.912   2.291
    1C        C  670   2.646   4.042   2.290
    1C        C  671   2.560   3.846   2.413
    1C        C  672   2.579   3.917   2.534
    1C        C  673   2.515   3.715   2.656
    1C        C  674   2.554   3.851   2.656
    1C        C  675   2.500   3.648   2.779
    1C        C  676   2.518   3.718   2.900
    1C        C  677   2.501   3.509   3.028
    1C        C  678   2.514   3.649   3.024
    1C        C  679   2.502   3.439   3.151
    1C        C  680   2.501   3.511   3.272
    1C        C  681   2.524   3.305   3.400
    1C        C  682   2.501   3.444   3.397
    1C        C  683   2.547   3.240   3.523
    1C        C  684   2.525   3.311   3.644
    1C        C  685   2.591   3.110   3.770
    1C        C  686   2.541   3.242   3.766
    1C        C  687   2.628   3.049   3.892
    1C        C  688   2.596   3.116   4.012
    1C        C  689   2.708   2.936   4.138
    1C        C  690   2.630   3.054   4.135
    1C        C  691   2.752   2.879   4.259
    1C        C  692   2.703   2.932   4.380
    1C        C  693   2.743   2.873   4.502
    1C        C  694   2.629   3.891   2.057
    1C        C  695   2.524   3.704   2.173
    1C        C  696   2.577   3.834   2.174
    1C        C  697   2.501   3.637   2.296
    1C        C  698   2.515   3.712   2.414
    1C        C  699   2.484   3.502   2.539
    1C        C  700   2.499   3.642   2.536
    1C        C  701   2.494   3.434   2.663
    1C        C  702   2.490   3.507   2.784
    1C        C  703   2.524   3.297   2.910
    1C        C  704   2.502   3.437   2.906
    1C        C  705   2.538   3.228   3.033
    1C        C  706   2.523   3.299   3.154
    1C        C  707   2.600   3.105   3.280
    1C        C  708   2.542   3.234   3.278
    1C        C  709   2.632   3.046   3.403
    1C        C  710   2.597   3.108   3.525
    1C        C  711   2.708   2.932   3.647
    1C        C  712   2.626   3.046   3.649
    1C        C  713   2.756   2.879   3.770
    1C        C  714   2.711   2.934   3.892
    1C        C  715   2.747   2.877   4.016
    1C        C  716   2.443   3.495   2.059
    1C        C  717   2.487   3.628   2.061
    1C        C  718   2.467   3.420   2.179
    1C        C  719   2.477   3.497   2.298
    1C        C  720   2.508   3.287   2.423
    1C        C  721   2.479   3.426   2.420
    1C        C  722   2.532   3.221   2.546
    1C        C  723   2.520   3.296   2.666
    1C        C  724   2.589   3.095   2.792
    1C        C  725   2.540   3.228   2.788
    1C        C  726   2.619   3.032   2.914
    1C        C  727   2.588   3.096   3.036
    1C        C  728   2.706   2.921   3.158
    1C        C  729   2.625   3.037   3.158
    1C        C  730   2.753   2.869   3.281
    1C        C  731   2.712   2.929   3.402
    1C        C  732   2.755   2.876   3.526
    1C        C  733   2.487   3.193   2.071
    1C        C  734   2.483   3.278   2.182
    1C        C  735   2.578   3.084   2.308
    1C        C  736   2.519   3.213   2.304
    1C        C  737   2.608   3.018   2.429
    1C        C  738   2.579   3.088   2.548
    1C        C  739   2.697   2.912   2.669
    1C        C  740   2.617   3.028   2.671
    1C        C  741   2.741   2.857   2.792
    1C        C  742   2.702   2.917   2.914
    1C        C  743   2.747   2.862   3.036
    1C        C  744   2.539   3.064   2.075
    1C        C  745   2.682   2.896   2.186
    1C        C  746   2.603   3.013   2.189
    1C        C  747   2.726   2.839   2.307
    1C        C  748   2.684   2.899   2.428
    1C        C  749   2.737   2.849   2.549
    1C        C  750   2.733   2.839   2.069
    1C        C  751   3.654   2.298   1.987
    1C        O  752   3.652   2.179   2.030
    1C        O  753   3.673   2.321   1.851
    1C        C  754   4.631   3.059   1.971
    1C        O  755   4.602   3.005   1.861
    1C        O  756   4.770   3.070   1.975
    1C        C  757   4.458   4.224   1.970
    1C        O  758   4.527   4.321   2.012
    1C        O  759   4.445   4.241   1.832
    1C        C  760   3.597   4.670   1.954
    1C        O  761   3.555   4.775   2.008
    1C        O  762   3.548   4.646   1.825
    1C        C  763   2.844   4.521   1.993
    1C        O  764   2.872   4.568   1.879
    1C        O  765   2.775   4.619   2.065
    1C        C  766   2.318   3.475   1.982
    1C        O  767   2.319   3.464   1.857
    1C        O  768   2.197   3.441   2.044
    1C        C  769   4.680   3.575   5.064
    1C        O  770   4.683   3.601   5.187
    1C        O  771   4.812   3.573   5.016
    1C        C  772   4.288   4.449   5.024
    1C        O  773   4.309   4.416   5.144
    1C        O  774   4.370   4.555   4.985
    1C        C  775   4.124   2.506   5.077
    1C        O  776   4.214   2.419   5.063
    1C        O  777   4.161   2.561   5.201
    1C        C  778   2.879   4.537   5.055
    1C        O  779   2.828   4.644   5.015
    1C        O  780   2.888   4.520   5.194
    1C        C  781   2.462   3.035   5.064
    1C        O  782   2.352   3.005   5.010
    1C        O  783   2.470   3.057   5.201
    1C        C  784   2.435   3.994   5.076
    1C        O  785   2.340   4.078   5.074
    1C        O  786   2.481   3.954   5.202
    1C        C  787   2.943   2.413   2.019
    1C        O  788   2.897   2.427   1.902
    1C        O  789   2.958   2.276   2.029
    1C        C  790   3.175   2.365   5.044
    1C        O  791   3.099   2.276   4.995
    1C        O  792   3.199   2.339   5.179
    1C        H  793   4.287   3.027   5.054
    1C        H  794   4.205   2.798   5.075
    1C        H  795   4.515   3.120   5.046
    1C        H  796   4.459   3.384   5.038
    1C        H  797   4.577   3.812   5.043
    1C        H  798   4.396   3.957   5.053
    1C        H  799   4.267   4.150   5.049
    1C        H  800   4.038   4.539   5.027
    1C        H  801   3.823   4.623   5.021
    1C        H  802   3.590   4.667   5.010
    1C        H  803   3.378   4.562   5.045
    1C        H  804   3.165   4.484   5.054
    1C        H  805   3.880   2.498   5.064
    1C        H  806   3.672   2.458   5.074
    1C        H  807   2.987   2.540   5.051
    1C        H  808   3.433   2.463   5.069
    1C        H  809   2.895   2.776   5.070
    1C        H  810   2.676   2.859   5.065
    1C        H  811   2.470   3.278   5.058
    1C        H  812   2.478   3.506   5.065
    1C        H  813   2.565   3.734   5.056
    1C        H  814   2.560   4.190   5.026
    1C        H  815   2.718   4.363   5.029
    1C        H  816   2.740   2.903   1.983
    1C        H  817   2.840   2.674   1.984
    1C        H  818   3.209   2.449   1.981
    1C        H  819   3.443   2.474   1.981
    1C        H  820   3.897   2.459   1.989
    1C        H  821   4.022   2.681   1.982
    1C        H  822   4.257   2.721   1.968
    1C        H  823   4.342   2.945   1.971
    1C        H  824   4.538   3.313   1.963
    1C        H  825   4.502   3.519   1.957
    1C        H  826   4.497   3.754   1.955
    1C        H  827   3.800   4.509   1.950
    1C        H  828   3.966   4.375   1.943
    1C        H  829   4.187   4.302   1.957
    1C        H  830   4.496   3.972   1.965
    1C        H  831   2.606   3.848   1.962
    1C        H  832   2.766   4.030   1.984
    1C        H  833   2.708   4.305   1.970
    1C        H  834   3.358   4.511   1.949
    1C        H  835   3.152   4.397   1.950
    1C        H  836   2.512   2.996   1.996
    1C        H  837   2.471   3.238   1.975
    1C        H  838   2.458   3.682   1.974
    2V3OU   H29  839   2.807   3.548   3.948
    2V3OU   C27  840   2.792   3.503   4.050
    2V3OU   H27  841   2.737   3.572   4.118
    2V3OU   H28  842   2.737   3.408   4.028
    2V3OU   O11  843   2.917   3.472   4.112
    2V3OU   C15  844   2.929   3.399   4.229
    2V3OU   C13  845   3.056   3.372   4.283
    2V3OU   C14  846   3.080   3.270   4.376
    2V3OU   C16  847   2.978   3.187   4.422
    2V3OU    H6  848   2.993   3.101   4.489
    2V3OU   C12  849   3.214   3.227   4.420
    2V3OU    O2  850   3.234   3.126   4.491
    2V3OU   C10  851   3.325   3.307   4.366
    2V3OU    C8  852   3.456   3.270   4.397
    2V3OU   O10  853   3.487   3.155   4.463
    2V3OU   H26  854   3.404   3.109   4.487
    2V3OU    C6  855   3.566   3.353   4.359
    2V3OU    C5  856   3.539   3.466   4.282
    2V3OU    C4  857   3.703   3.297   4.378
    2V3OU    H4  858   3.721   3.230   4.466
    2V3OU    H5  859   3.711   3.229   4.288
    2V3OU    C2  860   3.816   3.400   4.371
    2V3OU    O6  861   3.811   3.473   4.494
    2V3OU   H21  862   3.761   3.552   4.470
    2V3OU    C3  863   3.785   3.495   4.254
    2V3OU    H2  864   3.864   3.574   4.257
    2V3OU    H3  865   3.786   3.441   4.156
    2V3OU   C25  866   3.946   3.321   4.361
    2V3OU    O7  867   4.000   3.291   4.254
    2V3OU   C26  868   4.029   3.288   4.485
    2V3OU   H22  869   4.058   3.382   4.537
    2V3OU   H23  870   4.118   3.226   4.456
    2V3OU    O8  871   3.960   3.205   4.576
    2V3OU   H24  872   3.920   3.265   4.642
    2V3OU    C1  873   3.651   3.565   4.267
    2V3OU    H1  874   3.633   3.621   4.170
    2V3OU    O3  875   3.652   3.653   4.379
    2V3OU   C19  876   3.616   3.791   4.365
    2V3OU    H9  877   3.518   3.801   4.310
    2V3OU    O4  878   3.714   3.842   4.277
    2V3OU   C20  879   3.844   3.874   4.329
    2V3OU   H10  880   3.894   3.773   4.339
    2V3OU   C24  881   3.611   3.857   4.503
    2V3OU   H16  882   3.541   3.797   4.566
    2V3OU   H17  883   3.563   3.955   4.479
    2V3OU   C23  884   3.750   3.877   4.565
    2V3OU   H15  885   3.787   3.772   4.586
    2V3OU    N1  886   3.736   3.953   4.688
    2V3OU   H19  887   3.806   3.932   4.756
    2V3OU   H20  888   3.653   3.938   4.742
    2V3OU   C21  889   3.848   3.944   4.465
    2V3OU   H11  890   3.955   3.930   4.500
    2V3OU    O5  891   3.830   4.085   4.472
    2V3OU   H18  892   3.772   4.106   4.547
    2V3OU   C22  893   3.913   3.947   4.215
    2V3OU   H12  894   3.856   4.041   4.192
    2V3OU   H13  895   3.901   3.891   4.119
    2V3OU   H14  896   4.022   3.957   4.237
    2V3OU   C11  897   3.162   3.473   4.267
    2V3OU    O1  898   3.133   3.593   4.248
    2V3OU    C9  899   3.300   3.428   4.296
    2V3OU    C7  900   3.406   3.507   4.252
    2V3OU    O9  901   3.384   3.627   4.189
    2V3OU   H25  902   3.289   3.632   4.170
    2V3OU   C17  903   2.829   3.315   4.283
    2V3OU    H7  904   2.731   3.361   4.271
    2V3OU   C18  905   2.850   3.214   4.376
    2V3OU    H8  906   2.784   3.176   4.455
    3SOL     OW  907   3.112   4.273   5.256
    3SOL    HW1  908   3.058   4.356   5.241
    3SOL    HW2  909   3.101   4.211   5.179
    4SOL     OW  910   6.732   0.360   0.502
    4SOL    HW1  911   6.704   0.416   0.580
    4SOL    HW2  912   6.775   0.418   0.433
    5SOL     OW  913   4.986   1.002   2.095
    5SOL    HW1  914   4.988   1.096   2.060
    5SOL    HW2  915   4.929   0.998   2.177
    6SOL     OW  916   5.803   1.777   3.318
    6SOL    HW1  917   5.787   1.847   3.388
    6SOL    HW2  918   5.875   1.808   3.256
    7SOL     OW  919   1.139   4.458   4.973
    7SOL    HW1  920   1.138   4.392   4.898
    7SOL    HW2  921   1.119   4.549   4.937
    8SOL     OW  922   2.554   2.482   5.617
    8SOL    HW1  923   2.487   2.552   5.594
    8SOL    HW2  924   2.612   2.513   5.692
    9SOL     OW  925   6.875   1.487   5.964
    9SOL    HW1  926   6.863   1.567   5.904
    9SOL    HW2  927   6.969   1.454   5.955
   10SOL     OW  928   3.772   5.122   3.723
   10SOL    HW1  929   3.774   5.190   3.796
   10SOL    HW2  930   3.781   5.031   3.761
   11SOL     OW  931   1.875   0.455   6.981
   11SOL    HW1  932   1.792   0.419   0.003
   11SOL    HW2  933   1.941   0.381   6.969
   12SOL     OW  934   2.650   4.782   3.620
   12SOL    HW1  935   2.670   4.880   3.631
   12SOL    HW2  936   2.667   4.735   3.707
   13SOL     OW  937   3.636   6.032   3.001
   13SOL    HW1  938   3.603   6.115   2.956
   13SOL    HW2  939   3.733   6.044   3.024
   14SOL     OW  940   4.664   4.753   5.804
   14SOL    HW1  941   4.623   4.761   5.894
   14SOL    HW2  942   4.609   4.804   5.737
   15SOL     OW  943   0.076   5.875   6.415
   15SOL    HW1  944   0.106   5.952   6.359
   15SOL    HW2  945   0.107   5.889   6.509
   16SOL     OW  946   5.734   2.661   6.204
   16SOL    HW1  947   5.784   2.705   6.279
   16SOL    HW2  948   5.798   2.634   6.133
   17SOL     OW  949   6.412   0.076   5.999
   17SOL    HW1  950   6.314   0.086   6.013
   17SOL    HW2  951   6.454   0.035   6.081
   18SOL     OW  952   3.084   1.327   5.170
   18SOL    HW1  953   3.109   1.287   5.082
   18SOL    HW2  954   3.086   1.426   5.163
   19SOL     OW  955   0.952   2.379   2.709
   19SOL    HW1  956   1.015   2.455   2.725
   19SOL    HW2  957   1.003   2.293   2.704
   20SOL     OW  958   5.974   1.892   5.848
   20SOL    HW1  959   5.966   1.851   5.757
   20SOL    HW2  960   6.032   1.973   5.843
   21SOL     OW  961   3.386   6.476   2.778
   21SOL    HW1  962   3.314   6.508   2.716
   21SOL    HW2  963   3.370   6.513   2.869
   22SOL     OW  964   1.598   5.901   5.472
   22SOL    HW1  965   1.519   5.946   5.431
   22SOL    HW2  966   1.681   5.954   5.451
   23SOL     OW  967   4.872   5.001   2.302
   23SOL    HW1  968   4.834   4.981   2.392
   23SOL    HW2  969   4.904   5.095   2.299
   24SOL     OW  970   3.590   0.242   1.374
   24SOL    HW1  971   3.630   0.155   1.404
   24SOL    HW2  972   3.517   0.269   1.437
   25SOL     OW  973   3.154   6.886   3.745
   25SOL    HW1  974   3.197   6.888   3.835
   25SOL    HW2  975   3.073   6.944   3.745
   26SOL     OW  976   1.416   2.109   6.667
   26SOL    HW1  977   1.343   2.162   6.710
   26SOL    HW2  978   1.390   2.012   6.665
   27SOL     OW  979   0.379   1.300   2.787
   27SOL    HW1  980   0.463   1.326   2.835
   27SOL    HW2  981   0.385   1.204   2.759
   28SOL     OW  982   1.517   0.724   4.353
   28SOL    HW1  983   1.583   0.705   4.427
   28SOL    HW2  984   1.469   0.809   4.374
   29SOL     OW  985   6.343   1.117   0.880
   29SOL    HW1  986   6.310   1.153   0.967
   29SOL    HW2  987   6.425   1.062   0.896
   30SOL     OW  988   3.569   7.010   4.805
   30SOL    HW1  989   3.591   6.921   4.764
   30SOL    HW2  990   3.567   0.059   4.734
   31SOL     OW  991   0.213   2.147   5.295
   31SOL    HW1  992   0.236   2.240   5.325
   31SOL    HW2  993   0.241   2.135   5.200
   32SOL     OW  994   1.660   1.942   1.594
   32SOL    HW1  995   1.624   2.029   1.627
   32SOL    HW2  996   1.686   1.952   1.498
   33SOL     OW  997   0.393   3.721   5.154
   33SOL    HW1  998   0.308   3.766   5.182
   33SOL    HW2  999   0.415   3.649   5.220
   34SOL     OW 1000   1.463   4.896   4.969
   34SOL    HW1 1001   1.467   4.796   4.964
   34SOL    HW2 1002   1.530   4.935   4.905
   35SOL     OW 1003   3.664   2.263   6.009
   35SOL    HW1 1004   3.706   2.345   6.048
   35SOL    HW2 1005   3.736   2.206   5.968
   36SOL     OW 1006   5.108   1.256   4.243
   36SOL    HW1 1007   5.095   1.301   4.331
   36SOL    HW2 1008   5.166   1.175   4.254
   37SOL     OW 1009   2.422   1.406   3.098
   37SOL    HW1 1010   2.444   1.309   3.099
   37SOL    HW2 1011   2.326   1.419   3.125
   38SOL     OW 1012   2.188   4.952   1.900
   38SOL    HW1 1013   2.285   4.961   1.923
   38SOL    HW2 1014   2.153   5.040   1.868
   39SOL     OW 1015   6.506   4.616   6.604
   39SOL    HW1 1016   6.545   4.569   6.525
   39SOL    HW2 1017   6.407   4.610   6.601
   40SOL     OW 1018   3.433   0.364   5.844
   40SOL    HW1 1019   3.403   0.453   5.878
   40SOL    HW2 1020   3.433   0.365   5.744
   41SOL     OW 1021   5.620   3.962   2.452
   41SOL    HW1 1022   5.683   3.886   2.469
   41SOL    HW2 1023   5.655   4.045   2.493
   42SOL     OW 1024   3.028   5.971   4.690
   42SOL    HW1 1025   2.985   6.060   4.705
   42SOL    HW2 1026   2.973   5.919   4.625
   43SOL     OW 1027   4.054   6.567   4.611
   43SOL    HW1 1028   4.117   6.528   4.544
   43SOL    HW2 1029   3.989   6.628   4.565
   44SOL     OW 1030   5.953   3.172   4.963
   44SOL    HW1 1031   5.888   3.241   4.997
   44SOL    HW2 1032   5.917   3.081   4.979
   45SOL     OW 1033   4.413   5.725   1.380
   45SOL    HW1 1034   4.393   5.712   1.283
   45SOL    HW2 1035   4.344   5.679   1.435
   46SOL     OW 1036   0.649   3.186   4.376
   46SOL    HW1 1037   0.678   3.279   4.353
   46SOL    HW2 1038   0.569   3.162   4.321
   47SOL     OW 1039   5.193   3.785   2.132
   47SOL    HW1 1040   5.098   3.775   2.102
   47SOL    HW2 1041   5.250   3.718   2.084
   48SOL     OW 1042   0.766   3.232   6.653
   48SOL    HW1 1043   0.783   3.137   6.679
   48SOL    HW2 1044   0.738   3.285   6.733
   49SOL     OW 1045   5.091   2.605   0.614
   49SOL    HW1 1046   5.130   2.544   0.545
   49SOL    HW2 1047   4.998   2.629   0.588
   50SOL     OW 1048   6.291   1.828   5.692
   50SOL    HW1 1049   6.227   1.900   5.720
   50SOL    HW2 1050   6.367   1.825   5.756
   51SOL     OW 1051   2.326   4.936   2.395
   51SOL    HW1 1052   2.423   4.914   2.380
   51SOL    HW2 1053   2.304   4.926   2.492
   52SOL     OW 1054   5.595   3.000   1.531
   52SOL    HW1 1055   5.644   3.005   1.444
   52SOL    HW2 1056   5.521   2.933   1.524
   53SOL     OW 1057   5.237   0.224   3.392
   53SOL    HW1 1058   5.208   0.195   3.484
   53SOL    HW2 1059   5.162   0.209   3.328
   54SOL     OW 1060   5.569   6.191   0.426
   54SOL    HW1 1061   5.546   6.270   0.369
   54SOL    HW2 1062   5.585   6.222   0.520
   55SOL     OW 1063   2.505   2.757   6.429
   55SOL    HW1 1064   2.552   2.687   6.483
   55SOL    HW2 1065   2.426   2.791   6.479
   56SOL     OW 1066   1.164   1.820   0.782
   56SOL    HW1 1067   1.069   1.796   0.762
   56SOL    HW2 1068   1.202   1.871   0.706
   57SOL     OW 1069   3.424   0.541   6.681
   57SOL    HW1 1070   3.404   0.448   6.650
   57SOL    HW2 1071   3.476   0.536   6.767
   58SOL     OW 1072   0.704   0.904   6.270
   58SOL    HW1 1073   0.727   0.919   6.366
   58SOL    HW2 1074   0.673   0.809   6.258
   59SOL     OW 1075   6.392   3.756   6.424
   59SOL    HW1 1076   6.404   3.685   6.493
   59SOL    HW2 1077   6.314   3.733   6.366
   60SOL     OW 1078   6.064   0.875   3.808
   60SOL    HW1 1079   6.115   0.812   3.750
   60SOL    HW2 1080   5.998   0.824   3.864
   61SOL     OW 1081   0.863   1.343   4.242
   61SOL    HW1 1082   0.764   1.349   4.239
   61SOL    HW2 1083   0.903   1.430   4.212
   62SOL     OW 1084   1.129   1.396   1.744
   62SOL    HW1 1085   1.101   1.485   1.708
   62SOL    HW2 1086   1.105   1.324   1.679
   63SOL     OW 1087   3.981   6.873   4.301
   63SOL    HW1 1088   3.931   6.853   4.386
   63SOL    HW2 1089   4.034   6.957   4.313
   64SOL     OW 1090   0.999   3.417   6.697
   64SOL    HW1 1091   1.047   3.409   6.610
   64SOL    HW2 1092   0.983   3.326   6.734
   65SOL     OW 1093   0.255   0.321   5.240
   65SOL    HW1 1094   0.200   0.240   5.260
   65SOL    HW2 1095   0.345   0.293   5.208
   66SOL     OW 1096   3.397   0.061   2.831
   66SOL    HW1 1097   3.474   0.121   2.810
   66SOL    HW2 1098   3.313   0.116   2.836
   67SOL     OW 1099   0.260   2.347   0.360
   67SOL    HW1 1100   0.326   2.278   0.388
   67SOL    HW2 1101   0.171   2.326   0.401
   68SOL     OW 1102   0.135   1.352   5.697
   68SOL    HW1 1103   0.083   1.318   5.618
   68SOL    HW2 1104   0.231   1.366   5.670
   69SOL     OW 1105   1.143   4.791   6.130
   69SOL    HW1 1106   1.164   4.880   6.171
   69SOL    HW2 1107   1.111   4.804   6.036
   70SOL     OW 1108   5.154   4.032   5.045
   70SOL    HW1 1109   5.216   4.111   5.043
   70SOL    HW2 1110   5.148   3.997   5.138
   71SOL     OW 1111   4.819   1.969   4.387
   71SOL    HW1 1112   4.917   1.966   4.406
   71SOL    HW2 1113   4.800   2.043   4.322
   72SOL     OW 1114   0.552   0.866   2.784
   72SOL    HW1 1115   0.623   0.917   2.832
   72SOL    HW2 1116   0.575   0.769   2.784
   73SOL     OW 1117   2.957   0.900   0.420
   73SOL    HW1 1118   2.864   0.885   0.387
   73SOL    HW2 1119   3.000   0.975   0.370
   74SOL     OW 1120   2.194   1.804   6.227
   74SOL    HW1 1121   2.123   1.874   6.234
   74SOL    HW2 1122   2.152   1.718   6.196
   75SOL     OW 1123   4.679   1.313   1.125
   75SOL    HW1 1124   4.718   1.280   1.039
   75SOL    HW2 1125   4.723   1.266   1.202
   76SOL     OW 1126   2.536   4.513   6.020
   76SOL    HW1 1127   2.575   4.439   6.076
   76SOL    HW2 1128   2.581   4.599   6.044
   77SOL     OW 1129   1.896   5.421   4.402
   77SOL    HW1 1130   1.945   5.508   4.409
   77SOL    HW2 1131   1.811   5.427   4.453
   78SOL     OW 1132   4.191   1.530   1.181
   78SOL    HW1 1133   4.287   1.501   1.186
   78SOL    HW2 1134   4.163   1.568   1.269
   79SOL     OW 1135   2.381   5.196   1.340
   79SOL    HW1 1136   2.438   5.205   1.422
   79SOL    HW2 1137   2.401   5.110   1.294
   80SOL     OW 1138   4.669   2.340   4.895
   80SOL    HW1 1139   4.673   2.299   4.987
   80SOL    HW2 1140   4.612   2.421   4.897
   81SOL     OW 1141   1.642   0.275   0.998
   81SOL    HW1 1142   1.738   0.298   1.013
   81SOL    HW2 1143   1.584   0.337   1.051
   82SOL     OW 1144   0.483   6.154   2.485
   82SOL    HW1 1145   0.473   6.163   2.386
   82SOL    HW2 1146   0.577   6.172   2.511
   83SOL     OW 1147   6.802   1.954   5.531
   83SOL    HW1 1148   6.797   1.879   5.598
   83SOL    HW2 1149   6.883   2.009   5.549
   84SOL     OW 1150   6.090   3.052   3.763
   84SOL    HW1 1151   6.045   2.970   3.798
   84SOL    HW2 1152   6.163   3.026   3.699
   85SOL     OW 1153   1.869   0.135   3.876
   85SOL    HW1 1154   1.831   0.226   3.890
   85SOL    HW2 1155   1.798   0.066   3.892
   86SOL     OW 1156   5.657   0.990   6.896
   86SOL    HW1 1157   5.560   1.007   6.912
   86SOL    HW2 1158   5.683   1.024   6.806
   87SOL     OW 1159   4.436   4.503   6.926
   87SOL    HW1 1160   4.348   4.491   6.880
   87SOL    HW2 1161   4.498   4.553   6.866
   88SOL     OW 1162   2.955   2.237   5.488
   88SOL    HW1 1163   2.956   2.300   5.565
   88SOL    HW2 1164   2.930   2.286   5.404
   89SOL     OW 1165   2.900   3.546   2.081
   89SOL    HW1 1166   2.901   3.480   2.005
   89SOL    HW2 1167   2.958   3.624   2.057
   90SOL     OW 1168   4.643   4.339   3.383
   90SOL    HW1 1169   4.675   4.301   3.470
   90SOL    HW2 1170   4.721   4.369   3.329
   91SOL     OW 1171   6.365   5.887   5.971
   91SOL    HW1 1172   6.339   5.911   6.065
   91SOL    HW2 1173   6.288   5.902   5.910
   92SOL     OW 1174   4.656   4.113   0.401
   92SOL    HW1 1175   4.613   4.039   0.452
   92SOL    HW2 1176   4.722   4.159   0.460
   93SOL     OW 1177   3.102   3.121   0.928
   93SOL    HW1 1178   3.029   3.149   0.865
   93SOL    HW2 1179   3.088   3.026   0.955
   94SOL     OW 1180   2.707   0.316   6.456
   94SOL    HW1 1181   2.778   0.313   6.386
   94SOL    HW2 1182   2.623   0.355   6.418
   95SOL     OW 1183   0.668   0.368   4.511
   95SOL    HW1 1184   0.591   0.426   4.539
   95SOL    HW2 1185   0.715   0.334   4.592
   96SOL     OW 1186   4.825   5.226   0.101
   96SOL    HW1 1187   4.866   5.257   0.186
   96SOL    HW2 1188   4.866   5.276   0.024
   97SOL     OW 1189   2.020   4.678   5.469
   97SOL    HW1 1190   2.068   4.591   5.475
   97SOL    HW2 1191   2.015   4.720   5.560
   98SOL     OW 1192   0.523   2.517   2.108
   98SOL    HW1 1193   0.528   2.497   2.206
   98SOL    HW2 1194   0.565   2.443   2.056
   99SOL     OW 1195   3.668   3.520   3.177
   99SOL    HW1 1196   3.574   3.526   3.144
   99SOL    HW2 1197   3.731   3.516   3.099
  100SOL     OW 1198   0.063   6.726   3.727
  100SOL    HW1 1199   0.075   6.647   3.788
  100SOL    HW2 1200   0.021   6.695   3.642
  101SOL     OW 1201   0.539   4.948   2.323
  101SOL    HW1 1202   0.499   5.007   2.393
  101SOL    HW2 1203   0.467   4.917   2.261
  102SOL     OW 1204   2.747   6.294   2.083
  102SOL    HW1 1205   2.786   6.227   2.019
  102SOL    HW2 1206   2.686   6.247   2.147
  103SOL     OW 1207   2.314   1.223   2.543
  103SOL    HW1 1208   2.318   1.240   2.444
  103SOL    HW2 1209   2.346   1.303   2.592
  104SOL     OW 1210   0.833   4.724   2.258
  104SOL    HW1 1211   0.909   4.662   2.276
  104SOL    HW2 1212   0.765   4.715   2.332
  105SOL     OW 1213   5.624   1.348   6.597
  105SOL    HW1 1214   5.541   1.398   6.622
  105SOL    HW2 1215   5.688   1.348   6.674
  106SOL     OW 1216   4.921   4.978   1.563
  106SOL    HW1 1217   4.964   5.068   1.564
  106SOL    HW2 1218   4.990   4.908   1.547
  107SOL     OW 1219   6.617   0.860   0.095
  107SOL    HW1 1220   6.662   0.793   0.035
  107SOL    HW2 1221   6.635   0.837   0.190
  108SOL     OW 1222   2.980   0.331   4.852
  108SOL    HW1 1223   3.040   0.392   4.800
  108SOL    HW2 1224   3.017   0.238   4.848
  109SOL     OW 1225   3.445   0.705   2.633
  109SOL    HW1 1226   3.376   0.764   2.592
  109SOL    HW2 1227   3.503   0.666   2.561
  110SOL     OW 1228   2.452   4.637   5.325
  110SOL    HW1 1229   2.426   4.607   5.416
  110SOL    HW2 1230   2.373   4.678   5.280
  111SOL     OW 1231   6.685   1.607   2.561
  111SOL    HW1 1232   6.690   1.699   2.599
  111SOL    HW2 1233   6.714   1.540   2.629
  112SOL     OW 1234   4.241   6.352   6.649
  112SOL    HW1 1235   4.229   6.353   6.748
  112SOL    HW2 1236   4.172   6.410   6.606
  113SOL     OW 1237   6.553   5.466   2.885
  113SOL    HW1 1238   6.482   5.408   2.924
  113SOL    HW2 1239   6.513   5.529   2.819
  114SOL     OW 1240   1.517   4.568   3.400
  114SOL    HW1 1241   1.459   4.571   3.318
  114SOL    HW2 1242   1.599   4.623   3.384
  115SOL     OW 1243   5.998   1.229   3.559
  115SOL    HW1 1244   5.924   1.264   3.501
  115SOL    HW2 1245   6.085   1.267   3.528
  116SOL     OW 1246   0.539   6.025   1.343
  116SOL    HW1 1247   0.547   5.955   1.414
  116SOL    HW2 1248   0.523   6.114   1.385
  117SOL     OW 1249   3.152   1.635   6.902
  117SOL    HW1 1250   3.135   1.722   6.855
  117SOL    HW2 1251   3.076   1.616   6.964
  118SOL     OW 1252   1.508   1.470   3.328
  118SOL    HW1 1253   1.554   1.559   3.335
  118SOL    HW2 1254   1.410   1.485   3.313
  119SOL     OW 1255   6.823   0.025   0.431
  119SOL    HW1 1256   6.777   0.093   0.487
  119SOL    HW2 1257   6.775   6.958   0.437
  120SOL     OW 1258   4.807   0.556   5.287
  120SOL    HW1 1259   4.771   0.480   5.233
  120SOL    HW2 1260   4.907   0.555   5.284
  121SOL     OW 1261   1.534   3.729   6.993
  121SOL    HW1 1262   1.466   3.797   6.967
  121SOL    HW2 1263   1.593   3.766   0.044
  122SOL     OW 1264   0.947   4.706   0.060
  122SOL    HW1 1265   1.014   4.777   0.040
  122SOL    HW2 1266   0.992   4.617   0.063
  123SOL     OW 1267   1.415   0.717   1.772
  123SOL    HW1 1268   1.494   0.721   1.710
  123SOL    HW2 1269   1.345   0.657   1.733
  124SOL     OW 1270   2.865   2.601   0.730
  124SOL    HW1 1271   2.918   2.533   0.679
  124SOL    HW2 1272   2.912   2.689   0.728
  125SOL     OW 1273   3.426   2.781   6.896
  125SOL    HW1 1274   3.522   2.803   6.912
  125SOL    HW2 1275   3.395   2.828   6.813
  126SOL     OW 1276   3.207   3.108   3.013
  126SOL    HW1 1277   3.306   3.095   3.005
  126SOL    HW2 1278   3.166   3.108   2.921
  127SOL     OW 1279   6.854   6.015   5.773
  127SOL    HW1 1280   6.760   5.992   5.747
  127SOL    HW2 1281   6.855   6.104   5.819
  128SOL     OW 1282   4.912   3.502   2.201
  128SOL    HW1 1283   4.885   3.471   2.110
  128SOL    HW2 1284   4.969   3.433   2.245
  129SOL     OW 1285   2.020   5.434   0.655
  129SOL    HW1 1286   2.072   5.398   0.732
  129SOL    HW2 1287   2.010   5.364   0.585
  130SOL     OW 1288   5.756   1.830   4.433
  130SOL    HW1 1289   5.769   1.740   4.475
  130SOL    HW2 1290   5.829   1.891   4.462
  131SOL     OW 1291   6.509   1.207   4.429
  131SOL    HW1 1292   6.556   1.119   4.438
  131SOL    HW2 1293   6.419   1.193   4.390
  132SOL     OW 1294   3.533   3.958   1.531
  132SOL    HW1 1295   3.532   4.058   1.529
  132SOL    HW2 1296   3.447   3.923   1.495
  133SOL     OW 1297   5.283   0.651   4.330
  133SOL    HW1 1298   5.189   0.681   4.349
  133SOL    HW2 1299   5.284   0.599   4.245
  134SOL     OW 1300   6.237   0.524   2.382
  134SOL    HW1 1301   6.302   0.599   2.394
  134SOL    HW2 1302   6.172   0.524   2.458
  135SOL     OW 1303   4.917   3.408   4.551
  135SOL    HW1 1304   4.976   3.438   4.626
  135SOL    HW2 1305   4.880   3.317   4.572
  136SOL     OW 1306   2.273   5.910   5.029
  136SOL    HW1 1307   2.289   5.937   4.934
  136SOL    HW2 1308   2.351   5.937   5.085
  137SOL     OW 1309   3.870   1.447   4.484
  137SOL    HW1 1310   3.965   1.428   4.458
  137SOL    HW2 1311   3.867   1.531   4.538
  138SOL     OW 1312   0.832   5.405   3.876
  138SOL    HW1 1313   0.836   5.358   3.788
  138SOL    HW2 1314   0.895   5.483   3.875
  139SOL     OW 1315   2.119   5.558   6.609
  139SOL    HW1 1316   2.159   5.501   6.538
  139SOL    HW2 1317   2.140   5.654   6.591
  140SOL     OW 1318   2.421   0.454   3.168
  140SOL    HW1 1319   2.516   0.449   3.139
  140SOL    HW2 1320   2.413   0.430   3.264
  141SOL     OW 1321   6.369   3.576   0.221
  141SOL    HW1 1322   6.305   3.641   0.263
  141SOL    HW2 1323   6.462   3.610   0.229
  142SOL     OW 1324   1.217   4.375   1.748
  142SOL    HW1 1325   1.307   4.394   1.786
  142SOL    HW2 1326   1.225   4.356   1.650
  143SOL     OW 1327   5.764   6.408   1.731
  143SOL    HW1 1328   5.771   6.506   1.716
  143SOL    HW2 1329   5.839   6.361   1.684
  144SOL     OW 1330   3.096   4.859   3.861
  144SOL    HW1 1331   3.091   4.916   3.779
  144SOL    HW2 1332   3.111   4.764   3.835
  145SOL     OW 1333   6.876   4.578   2.826
  145SOL    HW1 1334   6.837   4.574   2.733
  145SOL    HW2 1335   6.930   4.662   2.835
  146SOL     OW 1336   6.036   1.590   6.205
  146SOL    HW1 1337   6.115   1.630   6.251
  146SOL    HW2 1338   5.956   1.648   6.222
  147SOL     OW 1339   5.341   1.535   5.247
  147SOL    HW1 1340   5.348   1.592   5.165
  147SOL    HW2 1341   5.426   1.484   5.259
  148SOL     OW 1342   1.320   4.588   1.307
  148SOL    HW1 1343   1.331   4.581   1.407
  148SOL    HW2 1344   1.333   4.682   1.279
  149SOL     OW 1345   2.606   1.964   5.112
  149SOL    HW1 1346   2.548   1.896   5.158
  149SOL    HW2 1347   2.635   2.033   5.178
  150SOL     OW 1348   3.830   1.775   5.293
  150SOL    HW1 1349   3.791   1.867   5.300
  150SOL    HW2 1350   3.907   1.767   5.356
  151SOL     OW 1351   3.869   1.841   0.644
  151SOL    HW1 1352   3.784   1.889   0.623
  151SOL    HW2 1353   3.939   1.906   0.672
  152SOL     OW 1354   0.573   1.562   0.072
  152SOL    HW1 1355   0.654   1.537   0.019
  152SOL    HW2 1356   0.499   1.498   0.050
  153SOL     OW 1357   2.953   1.198   3.375
  153SOL    HW1 1358   3.050   1.181   3.356
  153SOL    HW2 1359   2.901   1.194   3.290
  154SOL     OW 1360   6.415   1.741   1.087
  154SOL    HW1 1361   6.417   1.792   1.001
  154SOL    HW2 1362   6.332   1.766   1.138
  155SOL     OW 1363   0.195   0.048   1.603
  155SOL    HW1 1364   0.185   0.146   1.587
  155SOL    HW2 1365   0.105   0.007   1.613
  156SOL     OW 1366   4.770   0.673   0.302
  156SOL    HW1 1367   4.744   0.738   0.230
  156SOL    HW2 1368   4.687   0.634   0.342
  157SOL     OW 1369   5.260   3.465   0.350
  157SOL    HW1 1370   5.330   3.530   0.379
  157SOL    HW2 1371   5.295   3.372   0.356
  158SOL     OW 1372   1.408   2.742   2.310
  158SOL    HW1 1373   1.434   2.719   2.404
  158SOL    HW2 1374   1.431   2.838   2.292
  159SOL     OW 1375   4.704   5.056   0.877
  159SOL    HW1 1376   4.712   4.990   0.802
  159SOL    HW2 1377   4.637   5.023   0.944
  160SOL     OW 1378   5.770   0.364   0.591
  160SOL    HW1 1379   5.678   0.327   0.575
  160SOL    HW2 1380   5.826   0.295   0.637
  161SOL     OW 1381   1.067   6.625   0.781
  161SOL    HW1 1382   1.026   6.555   0.839
  161SOL    HW2 1383   1.024   6.624   0.691
  162SOL     OW 1384   2.052   6.099   0.314
  162SOL    HW1 1385   1.966   6.126   0.357
  162SOL    HW2 1386   2.053   6.000   0.301
  163SOL     OW 1387   6.574   4.780   2.926
  163SOL    HW1 1388   6.613   4.848   2.864
  163SOL    HW2 1389   6.545   4.824   3.011
  164SOL     OW 1390   1.592   1.954   3.048
  164SOL    HW1 1391   1.521   1.920   3.109
  164SOL    HW2 1392   1.575   1.921   2.955
  165SOL     OW 1393   0.387   5.651   2.483
  165SOL    HW1 1394   0.409   5.731   2.427
  165SOL    HW2 1395   0.448   5.576   2.458
  166SOL     OW 1396   6.139   3.780   1.277
  166SOL    HW1 1397   6.125   3.768   1.375
  166SOL    HW2 1398   6.071   3.726   1.227
  167SOL     OW 1399   4.984   1.841   6.941
  167SOL    HW1 1400   4.992   1.799   0.010
  167SOL    HW2 1401   5.074   1.842   6.897
  168SOL     OW 1402   4.142   3.324   2.089
  168SOL    HW1 1403   4.164   3.281   2.176
  168SOL    HW2 1404   4.191   3.411   2.081
  169SOL     OW 1405   6.152   3.136   0.600
  169SOL    HW1 1406   6.072   3.194   0.585
  169SOL    HW2 1407   6.183   3.098   0.513
  170SOL     OW 1408   1.331   5.420   2.638
  170SOL    HW1 1409   1.298   5.341   2.587
  170SOL    HW2 1410   1.427   5.406   2.662
  171SOL     OW 1411   1.762   3.164   0.227
  171SOL    HW1 1412   1.701   3.220   0.170
  171SOL    HW2 1413   1.837   3.221   0.261
  172SOL     OW 1414   5.541   1.742   1.699
  172SOL    HW1 1415   5.524   1.776   1.791
  172SOL    HW2 1416   5.475   1.784   1.636
  173SOL     OW 1417   5.861   1.003   5.543
  173SOL    HW1 1418   5.827   1.058   5.620
  173SOL    HW2 1419   5.953   0.970   5.564
  174SOL     OW 1420   5.397   5.181   5.274
  174SOL    HW1 1421   5.485   5.148   5.308
  174SOL    HW2 1422   5.331   5.106   5.273
  175SOL     OW 1423   1.707   1.245   0.892
  175SOL    HW1 1424   1.670   1.199   0.812
  175SOL    HW2 1425   1.635   1.257   0.960
  176SOL     OW 1426   4.631   4.764   2.765
  176SOL    HW1 1427   4.666   4.671   2.777
  176SOL    HW2 1428   4.627   4.810   2.854
  177SOL     OW 1429   5.062   2.126   4.770
  177SOL    HW1 1430   5.089   2.063   4.697
  177SOL    HW2 1431   5.045   2.217   4.731
  178SOL     OW 1432   2.573   5.546   5.277
  178SOL    HW1 1433   2.594   5.463   5.225
  178SOL    HW2 1434   2.653   5.574   5.329
  179SOL     OW 1435   4.185   5.675   0.047
  179SOL    HW1 1436   4.248   5.620   0.102
  179SOL    HW2 1437   4.164   5.760   0.095
  180SOL     OW 1438   3.808   6.739   1.184
  180SOL    HW1 1439   3.852   6.813   1.134
  180SOL    HW2 1440   3.758   6.776   1.262
  181SOL     OW 1441   2.717   2.597   5.329
  181SOL    HW1 1442   2.642   2.555   5.379
  181SOL    HW2 1443   2.776   2.526   5.291
  182SOL     OW 1444   5.164   3.637   7.013
  182SOL    HW1 1445   5.071   3.625   6.981
  182SOL    HW2 1446   5.228   3.620   6.938
  183SOL     OW 1447   4.019   1.975   4.217
  183SOL    HW1 1448   4.004   2.033   4.298
  183SOL    HW2 1449   3.982   2.020   4.136
  184SOL     OW 1450   1.172   5.875   3.712
  184SOL    HW1 1451   1.218   5.805   3.657
  184SOL    HW2 1452   1.077   5.885   3.682
  185SOL     OW 1453   0.552   1.782   4.189
  185SOL    HW1 1454   0.467   1.825   4.160
  185SOL    HW2 1455   0.560   1.788   4.289
  186SOL     OW 1456   5.860   5.911   4.549
  186SOL    HW1 1457   5.910   5.829   4.578
  186SOL    HW2 1458   5.833   5.902   4.453
  187SOL     OW 1459   4.353   5.407   2.600
  187SOL    HW1 1460   4.273   5.359   2.636
  187SOL    HW2 1461   4.429   5.399   2.665
  188SOL     OW 1462   2.017   2.193   2.944
  188SOL    HW1 1463   2.104   2.243   2.944
  188SOL    HW2 1464   2.025   2.113   2.884
  189SOL     OW 1465   5.930   5.309   6.775
  189SOL    HW1 1466   6.015   5.343   6.814
  189SOL    HW2 1467   5.924   5.210   6.791
  190SOL     OW 1468   6.130   5.395   6.949
  190SOL    HW1 1469   6.125   5.378   0.026
  190SOL    HW2 1470   6.156   5.491   6.933
  191SOL     OW 1471   0.026   1.063   5.828
  191SOL    HW1 1472   0.102   1.027   5.774
  191SOL    HW2 1473   7.003   1.137   5.777
  192SOL     OW 1474   0.511   4.596   1.653
  192SOL    HW1 1475   0.464   4.675   1.691
  192SOL    HW2 1476   0.518   4.606   1.554
  193SOL     OW 1477   3.814   4.332   6.073
  193SOL    HW1 1478   3.783   4.368   6.161
  193SOL    HW2 1479   3.834   4.407   6.011
  194SOL     OW 1480   4.185   6.695   2.059
  194SOL    HW1 1481   4.217   6.740   2.143
  194SOL    HW2 1482   4.164   6.599   2.079
  195SOL     OW 1483   2.946   0.596   2.520
  195SOL    HW1 1484   2.961   0.651   2.439
  195SOL    HW2 1485   2.936   0.655   2.600
  196SOL     OW 1486   2.322   1.104   6.619
  196SOL    HW1 1487   2.286   1.154   6.541
  196SOL    HW2 1488   2.276   1.016   6.627
  197SOL     OW 1489   2.082   6.278   6.395
  197SOL    HW1 1490   2.025   6.235   6.464
  197SOL    HW2 1491   2.173   6.237   6.396
  198SOL     OW 1492   4.219   5.867   0.950
  198SOL    HW1 1493   4.138   5.835   0.900
  198SOL    HW2 1494   4.194   5.945   1.007
  199SOL     OW 1495   6.022   1.315   2.490
  199SOL    HW1 1496   5.925   1.322   2.468
  199SOL    HW2 1497   6.064   1.406   2.481
  200SOL     OW 1498   1.401   2.840   1.995
  200SOL    HW1 1499   1.375   2.784   1.915
  200SOL    HW2 1500   1.369   2.934   1.981
  201SOL     OW 1501   2.594   0.895   6.421
  201SOL    HW1 1502   2.543   0.981   6.418
  201SOL    HW2 1503   2.643   0.887   6.508
  202SOL     OW 1504   5.210   6.496   4.583
  202SOL    HW1 1505   5.114   6.524   4.593
  202SOL    HW2 1506   5.269   6.560   4.632
  203SOL     OW 1507   5.572   2.846   6.136
  203SOL    HW1 1508   5.644   2.777   6.143
  203SOL    HW2 1509   5.494   2.819   6.191
  204SOL     OW 1510   0.618   0.032   0.293
  204SOL    HW1 1511   0.612   6.955   0.274
  204SOL    HW2 1512   0.529   0.066   0.321
  205SOL     OW 1513   0.555   1.404   1.035
  205SOL    HW1 1514   0.603   1.473   1.088
  205SOL    HW2 1515   0.485   1.449   0.978
  206SOL     OW 1516   0.992   4.207   1.090
  206SOL    HW1 1517   1.039   4.293   1.111
  206SOL    HW2 1518   1.037   4.162   1.013
  207SOL     OW 1519   4.268   0.311   5.492
  207SOL    HW1 1520   4.177   0.270   5.479
  207SOL    HW2 1521   4.267   0.405   5.458
  208SOL     OW 1522   5.113   4.360   6.212
  208SOL    HW1 1523   5.185   4.383   6.278
  208SOL    HW2 1524   5.043   4.305   6.258
  209SOL     OW 1525   0.421   5.872   5.793
  209SOL    HW1 1526   0.366   5.793   5.769
  209SOL    HW2 1527   0.362   5.943   5.832
  210SOL     OW 1528   4.169   2.257   1.978
  210SOL    HW1 1529   4.097   2.220   1.918
  210SOL    HW2 1530   4.208   2.339   1.936
  211SOL     OW 1531   0.819   0.938   2.559
  211SOL    HW1 1532   0.816   0.942   2.659
  211SOL    HW2 1533   0.876   1.012   2.524
  212SOL     OW 1534   1.634   4.755   3.066
  212SOL    HW1 1535   1.561   4.819   3.043
  212SOL    HW2 1536   1.655   4.699   2.986
  213SOL     OW 1537   4.918   1.346   6.735
  213SOL    HW1 1538   4.884   1.252   6.726
  213SOL    HW2 1539   5.017   1.344   6.749
  214SOL     OW 1540   1.421   6.621   3.488
  214SOL    HW1 1541   1.485   6.621   3.411
  214SOL    HW2 1542   1.337   6.573   3.462
  215SOL     OW 1543   3.811   3.068   1.818
  215SOL    HW1 1544   3.846   3.104   1.905
  215SOL    HW2 1545   3.715   3.044   1.828
  216SOL     OW 1546   1.537   6.909   4.837
  216SOL    HW1 1547   1.508   7.003   4.856
  216SOL    HW2 1548   1.457   6.853   4.817
  217SOL     OW 1549   1.688   2.653   4.104
  217SOL    HW1 1550   1.618   2.694   4.046
  217SOL    HW2 1551   1.698   2.556   4.080
  218SOL     OW 1552   1.729   2.672   4.709
  218SOL    HW1 1553   1.795   2.621   4.653
  218SOL    HW2 1554   1.778   2.732   4.772
  219SOL     OW 1555   3.744   3.808   6.541
  219SOL    HW1 1556   3.789   3.849   6.461
  219SOL    HW2 1557   3.783   3.846   6.624
  220SOL     OW 1558   2.285   6.181   0.205
  220SOL    HW1 1559   2.198   6.161   0.249
  220SOL    HW2 1560   2.288   6.277   0.179
  221SOL     OW 1561   5.287   3.740   3.850
  221SOL    HW1 1562   5.266   3.643   3.833
  221SOL    HW2 1563   5.381   3.749   3.883
  222SOL     OW 1564   1.183   5.591   5.211
  222SOL    HW1 1565   1.251   5.662   5.199
  222SOL    HW2 1566   1.165   5.547   5.123
  223SOL     OW 1567   0.489   3.666   1.449
  223SOL    HW1 1568   0.471   3.676   1.547
  223SOL    HW2 1569   0.404   3.679   1.398
  224SOL     OW 1570   2.709   2.244   2.776
  224SOL    HW1 1571   2.803   2.215   2.764
  224SOL    HW2 1572   2.690   2.257   2.873
  225SOL     OW 1573   5.779   0.911   0.285
  225SOL    HW1 1574   5.757   0.935   0.380
  225SOL    HW2 1575   5.791   0.811   0.278
  226SOL     OW 1576   0.599   0.448   0.523
  226SOL    HW1 1577   0.627   0.370   0.578
  226SOL    HW2 1578   0.500   0.446   0.509
  227SOL     OW 1579   1.553   3.981   3.184
  227SOL    HW1 1580   1.628   3.924   3.220
  227SOL    HW2 1581   1.592   4.056   3.131
  228SOL     OW 1582   3.973   0.086   4.589
  228SOL    HW1 1583   3.896   0.144   4.563
  228SOL    HW2 1584   4.032   0.134   4.654
  229SOL     OW 1585   5.972   5.980   1.440
  229SOL    HW1 1586   5.897   5.964   1.376
  229SOL    HW2 1587   6.059   5.962   1.395
  230SOL     OW 1588   1.979   4.203   4.042
  230SOL    HW1 1589   1.934   4.152   3.969
  230SOL    HW2 1590   2.047   4.144   4.086
  231SOL     OW 1591   6.446   3.306   6.512
  231SOL    HW1 1592   6.389   3.227   6.533
  231SOL    HW2 1593   6.542   3.283   6.524
  232SOL     OW 1594   1.191   3.074   6.353
  232SOL    HW1 1595   1.218   3.134   6.278
  232SOL    HW2 1596   1.195   3.125   6.439
  233SOL     OW 1597   2.305   0.784   4.814
  233SOL    HW1 1598   2.265   0.699   4.848
  233SOL    HW2 1599   2.297   0.855   4.885
  234SOL     OW 1600   2.387   5.045   6.680
  234SOL    HW1 1601   2.324   4.976   6.717
  234SOL    HW2 1602   2.468   5.000   6.644
  235SOL     OW 1603   3.669   3.448   3.427
  235SOL    HW1 1604   3.685   3.484   3.335
  235SOL    HW2 1605   3.573   3.460   3.452
  236SOL     OW 1606   6.705   3.258   6.585
  236SOL    HW1 1607   6.780   3.192   6.583
  236SOL    HW2 1608   6.678   3.276   6.679
  237SOL     OW 1609   0.145   6.261   0.973
  237SOL    HW1 1610   0.152   6.164   0.995
  237SOL    HW2 1611   0.210   6.313   1.029
  238SOL     OW 1612   5.810   3.715   1.519
  238SOL    HW1 1613   5.799   3.716   1.420
  238SOL    HW2 1614   5.822   3.621   1.551
  239SOL     OW 1615   6.655   5.596   0.088
  239SOL    HW1 1616   6.704   5.615   0.173
  239SOL    HW2 1617   6.558   5.616   0.100
  240SOL     OW 1618   0.692   3.376   6.214
  240SOL    HW1 1619   0.657   3.283   6.220
  240SOL    HW2 1620   0.788   3.374   6.188
  241SOL     OW 1621   1.010   1.393   3.401
  241SOL    HW1 1622   0.934   1.438   3.355
  241SOL    HW2 1623   1.053   1.327   3.340
  242SOL     OW 1624   1.436   3.231   5.355
  242SOL    HW1 1625   1.451   3.147   5.408
  242SOL    HW2 1626   1.474   3.219   5.263
  243SOL     OW 1627   4.672   0.627   6.138
  243SOL    HW1 1628   4.611   0.562   6.093
  243SOL    HW2 1629   4.705   0.693   6.070
  244SOL     OW 1630   4.654   2.128   4.543
  244SOL    HW1 1631   4.563   2.094   4.567
  244SOL    HW2 1632   4.693   2.071   4.470
  245SOL     OW 1633   6.644   2.557   4.431
  245SOL    HW1 1634   6.718   2.624   4.430
  245SOL    HW2 1635   6.683   2.465   4.432
  246SOL     OW 1636   5.136   4.079   4.204
  246SOL    HW1 1637   5.147   4.003   4.268
  246SOL    HW2 1638   5.124   4.042   4.111
  247SOL     OW 1639   2.750   1.160   2.894
  247SOL    HW1 1640   2.676   1.212   2.851
  247SOL    HW2 1641   2.778   1.206   2.979
  248SOL     OW 1642   5.022   2.353   4.625
  248SOL    HW1 1643   4.931   2.333   4.588
  248SOL    HW2 1644   5.091   2.310   4.566
  249SOL     OW 1645   3.268   6.241   5.123
  249SOL    HW1 1646   3.281   6.230   5.024
  249SOL    HW2 1647   3.291   6.155   5.169
  250SOL     OW 1648   5.928   1.809   5.587
  250SOL    HW1 1649   5.894   1.717   5.573
  250SOL    HW2 1650   5.970   1.842   5.502
  251SOL     OW 1651   4.511   2.838   6.227
  251SOL    HW1 1652   4.422   2.826   6.271
  251SOL    HW2 1653   4.584   2.823   6.293
  252SOL     OW 1654   0.065   1.076   5.522
  252SOL    HW1 1655   0.043   1.117   5.434
  252SOL    HW2 1656   7.002   1.068   5.576
  253SOL     OW 1657   1.693   3.214   1.376
  253SOL    HW1 1658   1.754   3.286   1.409
  253SOL    HW2 1659   1.688   3.217   1.276
  254SOL     OW 1660   6.539   2.845   4.621
  254SOL    HW1 1661   6.551   2.943   4.637
  254SOL    HW2 1662   6.627   2.799   4.632
  255SOL     OW 1663   3.157   2.172   3.501
  255SOL    HW1 1664   3.178   2.132   3.412
  255SOL    HW2 1665   3.238   2.169   3.559
  256SOL     OW 1666   6.383   5.524   6.455
  256SOL    HW1 1667   6.460   5.587   6.451
  256SOL    HW2 1668   6.305   5.569   6.500
  257SOL     OW 1669   2.932   5.780   6.217
  257SOL    HW1 1670   2.891   5.870   6.203
  257SOL    HW2 1671   2.939   5.761   6.315
  258SOL     OW 1672   4.835   4.522   5.002
  258SOL    HW1 1673   4.820   4.486   4.910
  258SOL    HW2 1674   4.835   4.622   4.999
  259SOL     OW 1675   1.611   2.877   2.879
  259SOL    HW1 1676   1.585   2.933   2.958
  259SOL    HW2 1677   1.580   2.783   2.893
  260SOL     OW 1678   4.961   0.745   6.525
  260SOL    HW1 1679   5.043   0.800   6.539
  260SOL    HW2 1680   4.954   0.721   6.428
  261SOL     OW 1681   0.398   3.683   1.717
  261SOL    HW1 1682   0.456   3.741   1.774
  261SOL    HW2 1683   0.353   3.615   1.774
  262SOL     OW 1684   1.507   3.017   2.376
  262SOL    HW1 1685   1.513   2.988   2.472
  262SOL    HW2 1686   1.421   3.066   2.362
  263SOL     OW 1687   0.742   2.490   4.627
  263SOL    HW1 1688   0.714   2.455   4.538
  263SOL    HW2 1689   0.687   2.570   4.650
  264SOL     OW 1690   0.778   3.400   5.468
  264SOL    HW1 1691   0.857   3.423   5.525
  264SOL    HW2 1692   0.799   3.320   5.412
  265SOL     OW 1693   4.605   4.407   4.324
  265SOL    HW1 1694   4.646   4.317   4.305
  265SOL    HW2 1695   4.675   4.469   4.358
  266SOL     OW 1696   3.876   1.906   0.266
  266SOL    HW1 1697   3.972   1.909   0.295
  266SOL    HW2 1698   3.869   1.933   0.170
  267SOL     OW 1699   1.801   2.396   6.861
  267SOL    HW1 1700   1.758   2.456   6.792
  267SOL    HW2 1701   1.730   2.360   6.922
  268SOL     OW 1702   4.322   4.724   4.521
  268SOL    HW1 1703   4.399   4.687   4.573
  268SOL    HW2 1704   4.242   4.732   4.581
  269SOL     OW 1705   1.455   1.449   6.658
  269SOL    HW1 1706   1.417   1.382   6.595
  269SOL    HW2 1707   1.459   1.538   6.613
  270SOL     OW 1708   5.282   1.207   2.474
  270SOL    HW1 1709   5.255   1.157   2.392
  270SOL    HW2 1710   5.371   1.251   2.459
  271SOL     OW 1711   1.656   1.227   1.263
  271SOL    HW1 1712   1.684   1.186   1.350
  271SOL    HW2 1713   1.723   1.296   1.236
  272SOL     OW 1714   4.072   5.123   4.606
  272SOL    HW1 1715   4.034   5.036   4.637
  272SOL    HW2 1716   4.089   5.119   4.507
  273SOL     OW 1717   1.136   5.718   4.829
  273SOL    HW1 1718   1.168   5.809   4.805
  273SOL    HW2 1719   1.207   5.670   4.880
  274SOL     OW 1720   5.686   2.661   3.517
  274SOL    HW1 1721   5.591   2.642   3.493
  274SOL    HW2 1722   5.726   2.581   3.561
  275SOL     OW 1723   0.246   6.111   5.805
  275SOL    HW1 1724   0.196   6.093   5.890
  275SOL    HW2 1725   0.299   6.195   5.815
  276SOL     OW 1726   6.789   5.550   3.476
  276SOL    HW1 1727   6.763   5.644   3.498
  276SOL    HW2 1728   6.782   5.535   3.378
  277SOL     OW 1729   3.413   1.214   5.014
  277SOL    HW1 1730   3.422   1.150   4.939
  277SOL    HW2 1731   3.368   1.169   5.091
  278SOL     OW 1732   5.574   4.606   2.415
  278SOL    HW1 1733   5.629   4.689   2.430
  278SOL    HW2 1734   5.581   4.578   2.319
  279SOL     OW 1735   0.229   2.794   3.371
  279SOL    HW1 1736   0.171   2.872   3.397
  279SOL    HW2 1737   0.170   2.718   3.342
  280SOL     OW 1738   4.758   6.543   3.997
  280SOL    HW1 1739   4.683   6.500   3.945
  280SOL    HW2 1740   4.838   6.484   3.994
  281SOL     OW 1741   4.099   5.600   3.976
  281SOL    HW1 1742   4.112   5.501   3.968
  281SOL    HW2 1743   4.053   5.621   4.063
  282SOL     OW 1744   4.463   1.788   5.659
  282SOL    HW1 1745   4.419   1.835   5.737
  282SOL    HW2 1746   4.406   1.800   5.578
  283SOL     OW 1747   6.457   0.308   4.737
  283SOL    HW1 1748   6.497   0.218   4.723
  283SOL    HW2 1749   6.392   0.304   4.813
  284SOL     OW 1750   0.435   4.961   4.783
  284SOL    HW1 1751   0.427   5.015   4.867
  284SOL    HW2 1752   0.345   4.953   4.740
  285SOL     OW 1753   5.123   6.951   0.169
  285SOL    HW1 1754   5.094   0.015   0.125
  285SOL    HW2 1755   5.203   6.915   0.122
  286SOL     OW 1756   3.504   5.476   4.863
  286SOL    HW1 1757   3.454   5.406   4.812
  286SOL    HW2 1758   3.475   5.567   4.833
  287SOL     OW 1759   1.381   5.949   6.303
  287SOL    HW1 1760   1.421   6.025   6.252
  287SOL    HW2 1761   1.284   5.942   6.282
  288SOL     OW 1762   4.010   0.461   1.064
  288SOL    HW1 1763   3.981   0.544   1.016
  288SOL    HW2 1764   4.025   0.483   1.161
  289SOL     OW 1765   0.928   5.489   5.719
  289SOL    HW1 1766   0.872   5.460   5.796
  289SOL    HW2 1767   1.025   5.486   5.745
  290SOL     OW 1768   4.524   0.735   2.799
  290SOL    HW1 1769   4.602   0.681   2.832
  290SOL    HW2 1770   4.530   0.828   2.836
  291SOL     OW 1771   4.319   0.562   4.084
  291SOL    HW1 1772   4.319   0.468   4.049
  291SOL    HW2 1773   4.363   0.564   4.173
  292SOL     OW 1774   3.673   0.060   3.787
  292SOL    HW1 1775   3.732   0.030   3.861
  292SOL    HW2 1776   3.693   0.007   3.705
  293SOL     OW 1777   4.834   6.272   2.452
  293SOL    HW1 1778   4.769   6.285   2.526
  293SOL    HW2 1779   4.833   6.352   2.391
  294SOL     OW 1780   5.761   0.088   5.666
  294SOL    HW1 1781   5.810   0.175   5.667
  294SOL    HW2 1782   5.722   0.071   5.757
  295SOL     OW 1783   1.268   2.359   5.069
  295SOL    HW1 1784   1.312   2.308   5.143
  295SOL    HW2 1785   1.175   2.383   5.097
  296SOL     OW 1786   6.362   1.463   1.064
  296SOL    HW1 1787   6.457   1.476   1.033
  296SOL    HW2 1788   6.331   1.547   1.108
  297SOL     OW 1789   5.078   5.143   3.838
  297SOL    HW1 1790   5.011   5.193   3.893
  297SOL    HW2 1791   5.032   5.104   3.758
  298SOL     OW 1792   4.349   0.570   0.820
  298SOL    HW1 1793   4.427   0.631   0.806
  298SOL    HW2 1794   4.329   0.522   0.735
  299SOL     OW 1795   3.430   1.966   0.213
  299SOL    HW1 1796   3.507   2.027   0.231
  299SOL    HW2 1797   3.364   2.013   0.154
  300SOL     OW 1798   3.632   1.225   2.119
  300SOL    HW1 1799   3.548   1.243   2.067
  300SOL    HW2 1800   3.645   1.126   2.128
  301SOL     OW 1801   5.187   6.389   1.654
  301SOL    HW1 1802   5.221   6.466   1.708
  301SOL    HW2 1803   5.182   6.308   1.712
  302SOL     OW 1804   6.975   6.404   1.777
  302SOL    HW1 1805   6.926   6.470   1.835
  302SOL    HW2 1806   0.023   6.452   1.724
  303SOL     OW 1807   5.801   6.011   2.478
  303SOL    HW1 1808   5.807   5.934   2.414
  303SOL    HW2 1809   5.769   6.092   2.429
  304SOL     OW 1810   1.269   0.114   5.583
  304SOL    HW1 1811   1.302   0.051   5.512
  304SOL    HW2 1812   1.285   0.208   5.554
  305SOL     OW 1813   1.113   2.987   1.711
  305SOL    HW1 1814   1.114   2.906   1.770
  305SOL    HW2 1815   1.205   3.024   1.703
  306SOL     OW 1816   0.009   0.687   2.562
  306SOL    HW1 1817   7.013   0.781   2.593
  306SOL    HW2 1818   0.055   0.690   2.473
  307SOL     OW 1819   3.758   3.359   0.740
  307SOL    HW1 1820   3.713   3.439   0.778
  307SOL    HW2 1821   3.715   3.334   0.653
  308SOL     OW 1822   5.471   1.993   4.389
  308SOL    HW1 1823   5.396   1.928   4.383
  308SOL    HW2 1824   5.551   1.948   4.430
  309SOL     OW 1825   0.087   7.008   6.733
  309SOL    HW1 1826   0.027   0.035   6.797
  309SOL    HW2 1827   0.149   0.053   6.690
  310SOL     OW 1828   5.866   6.141   4.234
  310SOL    HW1 1829   5.772   6.169   4.218
  310SOL    HW2 1830   5.890   6.153   4.330
  311SOL     OW 1831   2.600   5.013   2.639
  311SOL    HW1 1832   2.537   5.066   2.697
  311SOL    HW2 1833   2.596   4.917   2.666
  312SOL     OW 1834   4.656   2.514   3.839
  312SOL    HW1 1835   4.625   2.535   3.747
  312SOL    HW2 1836   4.637   2.419   3.861
  313SOL     OW 1837   3.372   3.494   2.741
  313SOL    HW1 1838   3.313   3.574   2.738
  313SOL    HW2 1839   3.463   3.517   2.705
  314SOL     OW 1840   2.053   5.948   5.368
  314SOL    HW1 1841   2.046   5.883   5.292
  314SOL    HW2 1842   2.038   5.900   5.455
  315SOL     OW 1843   6.617   1.352   3.379
  315SOL    HW1 1844   6.527   1.354   3.423
  315SOL    HW2 1845   6.677   1.289   3.429
  316SOL     OW 1846   4.243   2.152   5.469
  316SOL    HW1 1847   4.151   2.150   5.507
  316SOL    HW2 1848   4.250   2.087   5.394
  317SOL     OW 1849   1.932   1.592   2.150
  317SOL    HW1 1850   1.978   1.504   2.137
  317SOL    HW2 1851   1.852   1.597   2.091
  318SOL     OW 1852   6.829   0.439   6.474
  318SOL    HW1 1853   6.842   0.538   6.467
  318SOL    HW2 1854   6.890   0.392   6.411
  319SOL     OW 1855   0.494   2.349   3.012
  319SOL    HW1 1856   0.538   2.347   3.102
  319SOL    HW2 1857   0.558   2.385   2.944
  320SOL     OW 1858   5.912   2.329   6.914
  320SOL    HW1 1859   5.821   2.368   6.921
  320SOL    HW2 1860   5.963   2.378   6.843
  321SOL     OW 1861   3.626   3.391   0.189
  321SOL    HW1 1862   3.560   3.411   0.117
  321SOL    HW2 1863   3.693   3.325   0.156
  322SOL     OW 1864   3.618   3.350   5.934
  322SOL    HW1 1865   3.605   3.444   5.966
  322SOL    HW2 1866   3.681   3.349   5.857
  323SOL     OW 1867   0.515   3.016   3.618
  323SOL    HW1 1868   0.437   3.038   3.677
  323SOL    HW2 1869   0.489   3.032   3.522
  324SOL     OW 1870   2.443   6.748   3.353
  324SOL    HW1 1871   2.440   6.648   3.344
  324SOL    HW2 1872   2.514   6.785   3.293
  325SOL     OW 1873   1.507   3.473   2.645
  325SOL    HW1 1874   1.529   3.535   2.720
  325SOL    HW2 1875   1.498   3.525   2.560
  326SOL     OW 1876   1.725   4.588   6.741
  326SOL    HW1 1877   1.675   4.505   6.716
  326SOL    HW2 1878   1.691   4.664   6.686
  327SOL     OW 1879   2.248   4.871   2.641
  327SOL    HW1 1880   2.167   4.873   2.699
  327SOL    HW2 1881   2.322   4.823   2.689
  328SOL     OW 1882   1.752   3.954   1.748
  328SOL    HW1 1883   1.655   3.976   1.756
  328SOL    HW2 1884   1.802   4.035   1.716
  329SOL     OW 1885   2.879   3.840   0.775
  329SOL    HW1 1886   2.783   3.817   0.761
  329SOL    HW2 1887   2.913   3.794   0.857
  330SOL     OW 1888   4.011   5.996   6.917
  330SOL    HW1 1889   3.955   6.079   6.922
  330SOL    HW2 1890   4.050   5.989   6.825
  331SOL     OW 1891   5.501   5.057   0.776
  331SOL    HW1 1892   5.411   5.059   0.734
  331SOL    HW2 1893   5.566   5.012   0.715
  332SOL     OW 1894   5.461   1.694   3.964
  332SOL    HW1 1895   5.497   1.715   3.873
  332SOL    HW2 1896   5.442   1.779   4.013
  333SOL     OW 1897   4.313   0.861   5.215
  333SOL    HW1 1898   4.226   0.818   5.238
  333SOL    HW2 1899   4.327   0.940   5.275
  334SOL     OW 1900   3.490   2.747   1.920
  334SOL    HW1 1901   3.400   2.747   1.877
  334SOL    HW2 1902   3.545   2.673   1.881
  335SOL     OW 1903   4.364   0.318   6.529
  335SOL    HW1 1904   4.455   0.347   6.560
  335SOL    HW2 1905   4.374   0.249   6.457
  336SOL     OW 1906   3.121   1.460   2.983
  336SOL    HW1 1907   3.107   1.391   2.912
  336SOL    HW2 1908   3.094   1.549   2.949
  337SOL     OW 1909   1.938   2.172   6.266
  337SOL    HW1 1910   1.846   2.201   6.291
  337SOL    HW2 1911   1.999   2.251   6.268
  338SOL     OW 1912   3.911   3.055   0.871
  338SOL    HW1 1913   4.004   3.039   0.838
  338SOL    HW2 1914   3.845   3.034   0.799
  339SOL     OW 1915   4.349   4.888   4.300
  339SOL    HW1 1916   4.284   4.860   4.229
  339SOL    HW2 1917   4.333   4.836   4.383
  340SOL     OW 1918   5.288   3.495   5.066
  340SOL    HW1 1919   5.368   3.468   5.119
  340SOL    HW2 1920   5.210   3.509   5.128
  341SOL     OW 1921   6.171   5.589   4.811
  341SOL    HW1 1922   6.131   5.530   4.740
  341SOL    HW2 1923   6.097   5.625   4.869
  342SOL     OW 1924   4.507   3.560   0.855
  342SOL    HW1 1925   4.541   3.507   0.932
  342SOL    HW2 1926   4.448   3.503   0.798
  343SOL     OW 1927   0.383   6.243   2.843
  343SOL    HW1 1928   0.373   6.200   2.932
  343SOL    HW2 1929   0.309   6.214   2.783
  344SOL     OW 1930   1.107   1.849   2.173
  344SOL    HW1 1931   1.063   1.836   2.084
  344SOL    HW2 1932   1.057   1.798   2.243
  345SOL     OW 1933   6.572   2.070   4.059
  345SOL    HW1 1934   6.502   2.083   4.130
  345SOL    HW2 1935   6.631   1.993   4.084
  346SOL     OW 1936   1.715   6.976   2.694
  346SOL    HW1 1937   1.632   6.987   2.639
  346SOL    HW2 1938   1.778   6.914   2.647
  347SOL     OW 1939   2.728   5.906   6.739
  347SOL    HW1 1940   2.749   5.976   6.808
  347SOL    HW2 1941   2.686   5.950   6.660
  348SOL     OW 1942   4.121   5.101   2.611
  348SOL    HW1 1943   4.216   5.083   2.587
  348SOL    HW2 1944   4.072   5.133   2.529
  349SOL     OW 1945   6.676   4.260   2.299
  349SOL    HW1 1946   6.606   4.244   2.369
  349SOL    HW2 1947   6.646   4.220   2.213
  350SOL     OW 1948   3.267   2.891   0.551
  350SOL    HW1 1949   3.303   2.982   0.528
  350SOL    HW2 1950   3.266   2.834   0.468
  351SOL     OW 1951   3.132   3.751   0.404
  351SOL    HW1 1952   3.116   3.849   0.395
  351SOL    HW2 1953   3.047   3.706   0.432
  352SOL     OW 1954   4.420   6.208   3.614
  352SOL    HW1 1955   4.505   6.174   3.574
  352SOL    HW2 1956   4.394   6.151   3.692
  353SOL     OW 1957   3.083   0.229   5.864
  353SOL    HW1 1958   3.167   0.270   5.900
  353SOL    HW2 1959   3.039   0.292   5.800
  354SOL     OW 1960   5.210   2.524   0.350
  354SOL    HW1 1961   5.309   2.518   0.337
  354SOL    HW2 1962   5.164   2.522   0.261
  355SOL     OW 1963   1.956   3.084   2.489
  355SOL    HW1 1964   1.932   3.173   2.527
  355SOL    HW2 1965   2.030   3.043   2.543
  356SOL     OW 1966   2.251   0.466   4.712
  356SOL    HW1 1967   2.162   0.502   4.738
  356SOL    HW2 1968   2.275   0.498   4.620
  357SOL     OW 1969   0.601   6.021   4.107
  357SOL    HW1 1970   0.562   6.111   4.087
  357SOL    HW2 1971   0.612   6.010   4.206
  358SOL     OW 1972   4.233   6.449   1.139
  358SOL    HW1 1973   4.288   6.492   1.210
  358SOL    HW2 1974   4.140   6.434   1.172
  359SOL     OW 1975   3.408   0.560   1.614
  359SOL    HW1 1976   3.380   0.473   1.574
  359SOL    HW2 1977   3.480   0.600   1.558
  360SOL     OW 1978   1.431   4.260   4.438
  360SOL    HW1 1979   1.446   4.357   4.459
  360SOL    HW2 1980   1.470   4.204   4.511
  361SOL     OW 1981   6.101   6.349   2.831
  361SOL    HW1 1982   6.088   6.324   2.735
  361SOL    HW2 1983   6.193   6.387   2.843
  362SOL     OW 1984   3.703   4.157   0.502
  362SOL    HW1 1985   3.666   4.232   0.557
  362SOL    HW2 1986   3.644   4.077   0.511
  363SOL     OW 1987   5.908   4.623   3.117
  363SOL    HW1 1988   5.924   4.694   3.049
  363SOL    HW2 1989   5.841   4.557   3.082
  364SOL     OW 1990   0.480   4.811   6.301
  364SOL    HW1 1991   0.560   4.761   6.333
  364SOL    HW2 1992   0.403   4.793   6.362
  365SOL     OW 1993   3.813   0.886   1.125
  365SOL    HW1 1994   3.730   0.841   1.157
  365SOL    HW2 1995   3.796   0.984   1.116
  366SOL     OW 1996   5.645   2.820   6.951
  366SOL    HW1 1997   5.569   2.777   7.000
  366SOL    HW2 1998   5.725   2.824   7.011
  367SOL     OW 1999   5.858   2.593   5.963
  367SOL    HW1 2000   5.886   2.498   5.980
  367SOL    HW2 2001   5.934   2.644   5.923
  368SOL     OW 2002   6.544   2.588   6.052
  368SOL    HW1 2003   6.515   2.664   5.994
  368SOL    HW2 2004   6.638   2.561   6.028
  369SOL     OW 2005   5.921   4.207   2.934
  369SOL    HW1 2006   5.876   4.128   2.892
  369SOL    HW2 2007   6.020   4.198   2.926
  370SOL     OW 2008   1.083   1.757   4.107
  370SOL    HW1 2009   1.135   1.798   4.182
  370SOL    HW2 2010   1.063   1.826   4.038
  371SOL     OW 2011   1.936   4.584   6.914
  371SOL    HW1 2012   1.872   4.578   6.837
  371SOL    HW2 2013   1.943   4.495   6.959
  372SOL     OW 2014   1.869   6.864   5.328
  372SOL    HW1 2015   1.878   6.933   5.400
  372SOL    HW2 2016   1.777   6.824   5.330
  373SOL     OW 2017   5.207   6.530   5.615
  373SOL    HW1 2018   5.262   6.596   5.666
  373SOL    HW2 2019   5.154   6.578   5.545
  374SOL     OW 2020   2.435   2.179   2.887
  374SOL    HW1 2021   2.458   2.085   2.862
  374SOL    HW2 2022   2.455   2.193   2.984
  375SOL     OW 2023   0.706   4.907   4.699
  375SOL    HW1 2024   0.615   4.949   4.700
  375SOL    HW2 2025   0.704   4.822   4.752
  376SOL     OW 2026   1.580   1.779   5.528
  376SOL    HW1 2027   1.614   1.817   5.442
  376SOL    HW2 2028   1.586   1.848   5.600
  377SOL     OW 2029   2.137   2.506   0.008
  377SOL    HW1 2030   2.154   2.604   0.022
  377SOL    HW2 2031   2.076   2.473   0.080
  378SOL     OW 2032   3.923   1.542   6.075
  378SOL    HW1 2033   3.992   1.550   6.147
  378SOL    HW2 2034   3.924   1.625   6.019
  379SOL     OW 2035   4.776   3.058   0.386
  379SOL    HW1 2036   4.690   3.017   0.355
  379SOL    HW2 2037   4.760   3.154   0.410
  380SOL     OW 2038   2.919   1.437   0.858
  380SOL    HW1 2039   2.846   1.473   0.800
  380SOL    HW2 2040   2.962   1.359   0.813
  381SOL     OW 2041   1.541   3.608   3.964
  381SOL    HW1 2042   1.505   3.568   4.048
  381SOL    HW2 2043   1.639   3.590   3.957
  382SOL     OW 2044   5.724   0.359   6.801
  382SOL    HW1 2045   5.684   0.286   6.856
  382SOL    HW2 2046   5.735   0.441   6.857
  383SOL     OW 2047   4.292   2.956   0.818
  383SOL    HW1 2048   4.311   2.888   0.748
  383SOL    HW2 2049   4.266   2.910   0.903
  384SOL     OW 2050   0.349   5.038   4.137
  384SOL    HW1 2051   0.441   5.014   4.165
  384SOL    HW2 2052   0.352   5.115   4.073
  385SOL     OW 2053   3.591   6.055   6.356
  385SOL    HW1 2054   3.616   6.038   6.260
  385SOL    HW2 2055   3.566   6.151   6.367
  386SOL     OW 2056   3.700   7.001   4.213
  386SOL    HW1 2057   3.710   6.965   4.121
  386SOL    HW2 2058   3.775   0.044   4.232
  387SOL     OW 2059   1.329   5.724   2.178
  387SOL    HW1 2060   1.238   5.764   2.181
  387SOL    HW2 2061   1.350   5.680   2.265
  388SOL     OW 2062   2.089   1.968   6.506
  388SOL    HW1 2063   2.002   1.931   6.473
  388SOL    HW2 2064   2.077   2.064   6.530
  389SOL     OW 2065   3.669   3.288   2.392
  389SOL    HW1 2066   3.668   3.194   2.425
  389SOL    HW2 2067   3.625   3.293   2.303
  390SOL     OW 2068   3.574   0.983   3.506
  390SOL    HW1 2069   3.616   1.034   3.431
  390SOL    HW2 2070   3.624   0.899   3.522
  391SOL     OW 2071   2.117   2.588   6.741
  391SOL    HW1 2072   2.205   2.616   6.781
  391SOL    HW2 2073   2.064   2.537   6.808
  392SOL     OW 2074   1.567   4.073   0.392
  392SOL    HW1 2075   1.664   4.092   0.409
  392SOL    HW2 2076   1.543   3.985   0.433
  393SOL     OW 2077   0.061   4.577   5.448
  393SOL    HW1 2078   0.140   4.615   5.398
  393SOL    HW2 2079   7.010   4.553   5.382
  394SOL     OW 2080   0.227   0.682   6.987
  394SOL    HW1 2081   0.173   0.767   6.992
  394SOL    HW2 2082   0.248   0.651   0.059
  395SOL     OW 2083   5.271   3.903   2.947
  395SOL    HW1 2084   5.371   3.909   2.951
  395SOL    HW2 2085   5.241   3.821   2.995
  396SOL     OW 2086   3.904   3.897   2.256
  396SOL    HW1 2087   3.973   3.844   2.205
  396SOL    HW2 2088   3.839   3.936   2.191
  397SOL     OW 2089   4.033   2.533   5.806
  397SOL    HW1 2090   4.101   2.565   5.740
  397SOL    HW2 2091   4.048   2.436   5.825
  398SOL     OW 2092   0.299   6.271   2.118
  398SOL    HW1 2093   0.225   6.328   2.154
  398SOL    HW2 2094   0.284   6.255   2.021
  399SOL     OW 2095   4.690   6.240   2.977
  399SOL    HW1 2096   4.753   6.267   2.904
  399SOL    HW2 2097   4.645   6.321   3.014
  400SOL     OW 2098   6.298   6.881   5.302
  400SOL    HW1 2099   6.291   6.869   5.203
  400SOL    HW2 2100   6.379   6.935   5.324
  401SOL     OW 2101   4.672   1.021   5.648
  401SOL    HW1 2102   4.574   1.023   5.666
  401SOL    HW2 2103   4.692   0.952   5.578
  402SOL     OW 2104   6.000   6.575   3.192
  402SOL    HW1 2105   6.016   6.645   3.123
  402SOL    HW2 2106   5.943   6.613   3.265
  403SOL     OW 2107   3.755   2.389   5.352
  403SOL    HW1 2108   3.668   2.419   5.390
  403SOL    HW2 2109   3.744   2.298   5.311
  404SOL     OW 2110   1.751   6.111   3.953
  404SOL    HW1 2111   1.735   6.046   4.027
  404SOL    HW2 2112   1.772   6.061   3.869
  405SOL     OW 2113   1.550   3.506   1.898
  405SOL    HW1 2114   1.585   3.547   1.982
  405SOL    HW2 2115   1.618   3.444   1.860
  406SOL     OW 2116   0.845   3.812   3.336
  406SOL    HW1 2117   0.845   3.872   3.256
  406SOL    HW2 2118   0.783   3.849   3.405
  407SOL     OW 2119   2.037   0.448   3.841
  407SOL    HW1 2120   1.986   0.528   3.809
  407SOL    HW2 2121   2.135   0.464   3.830
  408SOL     OW 2122   1.256   1.348   3.161
  408SOL    HW1 2123   1.224   1.261   3.199
  408SOL    HW2 2124   1.347   1.336   3.122
  409SOL     OW 2125   6.234   3.034   1.547
  409SOL    HW1 2126   6.217   3.078   1.635
  409SOL    HW2 2127   6.245   2.935   1.561
  410SOL     OW 2128   2.292   0.363   6.951
  410SOL    HW1 2129   2.266   0.267   6.939
  410SOL    HW2 2130   2.255   0.397   0.016
  411SOL     OW 2131   5.970   6.723   6.678
  411SOL    HW1 2132   5.890   6.700   6.624
  411SOL    HW2 2133   6.006   6.641   6.722
  412SOL     OW 2134   4.887   6.769   3.813
  412SOL    HW1 2135   4.851   6.703   3.878
  412SOL    HW2 2136   4.816   6.795   3.748
  413SOL     OW 2137   5.410   4.784   1.793
  413SOL    HW1 2138   5.438   4.786   1.698
  413SOL    HW2 2139   5.313   4.810   1.800
  414SOL     OW 2140   3.593   5.179   4.229
  414SOL    HW1 2141   3.643   5.104   4.184
  414SOL    HW2 2142   3.511   5.200   4.177
  415SOL     OW 2143   0.871   6.088   6.787
  415SOL    HW1 2144   0.823   6.064   6.871
  415SOL    HW2 2145   0.888   6.186   6.784
  416SOL     OW 2146   5.137   5.190   4.788
  416SOL    HW1 2147   5.227   5.212   4.825
  416SOL    HW2 2148   5.106   5.103   4.826
  417SOL     OW 2149   2.426   5.622   0.729
  417SOL    HW1 2150   2.494   5.664   0.788
  417SOL    HW2 2151   2.334   5.642   0.764
  418SOL     OW 2152   4.308   5.917   1.653
  418SOL    HW1 2153   4.313   5.826   1.611
  418SOL    HW2 2154   4.228   5.965   1.617
  419SOL     OW 2155   1.783   0.507   1.524
  419SOL    HW1 2156   1.798   0.439   1.596
  419SOL    HW2 2157   1.697   0.556   1.541
  420SOL     OW 2158   6.306   3.068   1.081
  420SOL    HW1 2159   6.300   3.164   1.054
  420SOL    HW2 2160   6.332   3.062   1.177
  421SOL     OW 2161   6.932   4.429   5.825
  421SOL    HW1 2162   6.923   4.493   5.902
  421SOL    HW2 2163   6.999   4.464   5.760
  422SOL     OW 2164   5.811   4.586   0.311
  422SOL    HW1 2165   5.847   4.615   0.400
  422SOL    HW2 2166   5.881   4.536   0.261
  423SOL     OW 2167   0.985   2.914   0.306
  423SOL    HW1 2168   1.062   2.939   0.247
  423SOL    HW2 2169   0.926   2.849   0.258
  424SOL     OW 2170   3.003   3.608   1.354
  424SOL    HW1 2171   3.008   3.598   1.453
  424SOL    HW2 2172   2.908   3.609   1.325
  425SOL     OW 2173   6.436   1.052   2.160
  425SOL    HW1 2174   6.372   1.041   2.236
  425SOL    HW2 2175   6.465   1.147   2.154
  426SOL     OW 2176   5.038   2.581   4.160
  426SOL    HW1 2177   4.989   2.520   4.098
  426SOL    HW2 2178   5.070   2.661   4.109
  427SOL     OW 2179   5.560   4.857   2.970
  427SOL    HW1 2180   5.584   4.811   2.884
  427SOL    HW2 2181   5.596   4.950   2.969
  428SOL     OW 2182   4.409   0.065   4.732
  428SOL    HW1 2183   4.495   0.034   4.692
  428SOL    HW2 2184   4.427   0.130   4.805
  429SOL     OW 2185   2.569   4.033   1.410
  429SOL    HW1 2186   2.579   4.121   1.365
  429SOL    HW2 2187   2.539   3.965   1.343
  430SOL     OW 2188   0.221   0.030   4.021
  430SOL    HW1 2189   0.199   6.980   4.088
  430SOL    HW2 2190   0.321   0.036   4.010
  431SOL     OW 2191   3.383   0.473   0.795
  431SOL    HW1 2192   3.312   0.439   0.856
  431SOL    HW2 2193   3.464   0.414   0.802
  432SOL     OW 2194   6.137   2.062   2.009
  432SOL    HW1 2195   6.134   2.093   1.914
  432SOL    HW2 2196   6.046   2.036   2.038
  433SOL     OW 2197   3.339   6.242   4.837
  433SOL    HW1 2198   3.313   6.247   4.741
  433SOL    HW2 2199   3.392   6.323   4.862
  434SOL     OW 2200   3.901   5.571   2.141
  434SOL    HW1 2201   3.898   5.641   2.212
  434SOL    HW2 2202   3.952   5.606   2.062
  435SOL     OW 2203   3.993   2.079   5.214
  435SOL    HW1 2204   3.925   2.143   5.178
  435SOL    HW2 2205   3.982   2.072   5.314
  436SOL     OW 2206   3.160   5.920   0.986
  436SOL    HW1 2207   3.135   5.824   0.984
  436SOL    HW2 2208   3.188   5.946   1.078
  437SOL     OW 2209   0.937   6.896   6.727
  437SOL    HW1 2210   1.026   6.855   6.746
  437SOL    HW2 2211   0.946   6.962   6.653
  438SOL     OW 2212   2.083   2.873   2.277
  438SOL    HW1 2213   2.154   2.815   2.319
  438SOL    HW2 2214   2.100   2.880   2.179
  439SOL     OW 2215   6.157   4.602   3.291
  439SOL    HW1 2216   6.075   4.593   3.235
  439SOL    HW2 2217   6.141   4.560   3.381
  440SOL     OW 2218   1.270   1.343   5.266
  440SOL    HW1 2219   1.268   1.437   5.301
  440SOL    HW2 2220   1.337   1.336   5.192
  441SOL     OW 2221   1.245   2.519   3.967
  441SOL    HW1 2222   1.338   2.483   3.962
  441SOL    HW2 2223   1.248   2.619   3.972
  442SOL     OW 2224   2.797   5.137   6.703
  442SOL    HW1 2225   2.845   5.219   6.736
  442SOL    HW2 2226   2.784   5.073   6.779
  443SOL     OW 2227   0.391   4.109   4.331
  443SOL    HW1 2228   0.346   4.058   4.405
  443SOL    HW2 2229   0.473   4.154   4.366
  444SOL     OW 2230   5.126   2.062   5.920
  444SOL    HW1 2231   5.063   2.140   5.926
  444SOL    HW2 2232   5.081   1.980   5.955
  445SOL     OW 2233   1.596   5.616   3.416
  445SOL    HW1 2234   1.631   5.584   3.504
  445SOL    HW2 2235   1.547   5.702   3.428
  446SOL     OW 2236   3.737   4.974   4.080
  446SOL    HW1 2237   3.830   4.983   4.117
  446SOL    HW2 2238   3.741   4.928   3.991
  447SOL     OW 2239   0.830   2.751   0.150
  447SOL    HW1 2240   0.913   2.734   0.096
  447SOL    HW2 2241   0.763   2.799   0.094
  448SOL     OW 2242   2.875   0.649   4.389
  448SOL    HW1 2243   2.934   0.713   4.339
  448SOL    HW2 2244   2.782   0.654   4.353
  449SOL     OW 2245   4.488   0.565   4.839
  449SOL    HW1 2246   4.510   0.656   4.872
  449SOL    HW2 2247   4.405   0.568   4.784
  450SOL     OW 2248   1.466   5.862   3.951
  450SOL    HW1 2249   1.416   5.776   3.942
  450SOL    HW2 2250   1.456   5.915   3.867
  451SOL     OW 2251   2.072   1.894   3.730
  451SOL    HW1 2252   2.132   1.909   3.651
  451SOL    HW2 2253   2.014   1.815   3.712
  452SOL     OW 2254   6.561   6.149   1.482
  452SOL    HW1 2255   6.500   6.135   1.560
  452SOL    HW2 2256   6.617   6.230   1.498
  453SOL     OW 2257   3.339   0.601   4.578
  453SOL    HW1 2258   3.437   0.592   4.598
  453SOL    HW2 2259   3.319   0.557   4.491
  454SOL     OW 2260   6.894   4.615   6.020
  454SOL    HW1 2261   6.950   4.698   6.027
  454SOL    HW2 2262   6.858   4.591   6.110
  455SOL     OW 2263   6.311   2.581   3.060
  455SOL    HW1 2264   6.250   2.518   3.013
  455SOL    HW2 2265   6.260   2.663   3.087
  456SOL     OW 2266   5.530   5.881   4.576
  456SOL    HW1 2267   5.505   5.919   4.665
  456SOL    HW2 2268   5.620   5.838   4.582
  457SOL     OW 2269   2.130   3.588   3.896
  457SOL    HW1 2270   2.106   3.522   3.826
  457SOL    HW2 2271   2.193   3.656   3.858
  458SOL     OW 2272   4.200   5.325   3.928
  458SOL    HW1 2273   4.259   5.253   3.964
  458SOL    HW2 2274   4.179   5.306   3.832
  459SOL     OW 2275   1.897   6.639   4.847
  459SOL    HW1 2276   1.938   6.549   4.860
  459SOL    HW2 2277   1.835   6.636   4.769
  460SOL     OW 2278   1.651   0.251   3.699
  460SOL    HW1 2279   1.681   0.282   3.608
  460SOL    HW2 2280   1.584   0.315   3.735
  461SOL     OW 2281   5.948   6.728   5.572
  461SOL    HW1 2282   5.982   6.814   5.534
  461SOL    HW2 2283   6.008   6.700   5.648
  462SOL     OW 2284   3.837   2.747   6.311
  462SOL    HW1 2285   3.738   2.745   6.323
  462SOL    HW2 2286   3.858   2.739   6.213
  463SOL     OW 2287   6.502   5.074   3.365
  463SOL    HW1 2288   6.600   5.091   3.366
  463SOL    HW2 2289   6.477   5.014   3.441
  464SOL     OW 2290   2.455   2.594   6.192
  464SOL    HW1 2291   2.363   2.556   6.201
  464SOL    HW2 2292   2.474   2.655   6.269
  465SOL     OW 2293   0.917   2.684   4.621
  465SOL    HW1 2294   0.976   2.665   4.699
  465SOL    HW2 2295   0.848   2.612   4.612
  466SOL     OW 2296   1.610   5.392   2.661
  466SOL    HW1 2297   1.681   5.448   2.704
  466SOL    HW2 2298   1.586   5.316   2.721
  467SOL     OW 2299   1.496   1.313   0.322
  467SOL    HW1 2300   1.578   1.327   0.377
  467SOL    HW2 2301   1.513   1.241   0.255
  468SOL     OW 2302   3.362   6.437   6.997
  468SOL    HW1 2303   3.320   6.362   0.027
  468SOL    HW2 2304   3.430   6.482   0.034
  469SOL     OW 2305   2.925   4.749   0.055
  469SOL    HW1 2306   2.930   4.810   0.134
  469SOL    HW2 2307   3.004   4.766   7.017
  470SOL     OW 2308   4.501   0.158   2.395
  470SOL    HW1 2309   4.416   0.144   2.445
  470SOL    HW2 2310   4.505   0.094   2.318
  471SOL     OW 2311   1.962   2.238   3.957
  471SOL    HW1 2312   2.025   2.162   3.942
  471SOL    HW2 2313   1.920   2.264   3.870
  472SOL     OW 2314   5.187   3.502   6.389
  472SOL    HW1 2315   5.158   3.526   6.482
  472SOL    HW2 2316   5.277   3.540   6.371
  473SOL     OW 2317   0.915   3.179   2.455
  473SOL    HW1 2318   0.817   3.196   2.464
  473SOL    HW2 2319   0.940   3.098   2.507
  474SOL     OW 2320   5.118   5.193   4.388
  474SOL    HW1 2321   5.042   5.168   4.448
  474SOL    HW2 2322   5.113   5.291   4.368
  475SOL     OW 2323   5.673   0.554   6.581
  475SOL    HW1 2324   5.668   0.500   6.665
  475SOL    HW2 2325   5.652   0.649   6.601
  476SOL     OW 2326   6.483   3.971   3.024
  476SOL    HW1 2327   6.414   3.969   3.096
  476SOL    HW2 2328   6.543   4.049   3.037
  477SOL     OW 2329   1.510   4.408   4.202
  477SOL    HW1 2330   1.550   4.372   4.286
  477SOL    HW2 2331   1.582   4.440   4.141
  478SOL     OW 2332   3.103   0.132   2.031
  478SOL    HW1 2333   3.010   0.170   2.023
  478SOL    HW2 2334   3.100   0.034   2.012
  479SOL     OW 2335   4.264   2.142   6.612
  479SOL    HW1 2336   4.181   2.198   6.608
  479SOL    HW2 2337   4.339   2.191   6.569
  480SOL     OW 2338   1.988   1.202   0.236
  480SOL    HW1 2339   1.888   1.209   0.244
  480SOL    HW2 2340   2.022   1.278   0.180
  481SOL     OW 2341   1.447   0.568   0.649
  481SOL    HW1 2342   1.495   0.514   0.580
  481SOL    HW2 2343   1.359   0.598   0.612
  482SOL     OW 2344   4.546   4.799   3.336
  482SOL    HW1 2345   4.529   4.734   3.261
  482SOL    HW2 2346   4.468   4.800   3.397
  483SOL     OW 2347   6.735   1.575   2.030
  483SOL    HW1 2348   6.705   1.481   2.013
  483SOL    HW2 2349   6.777   1.580   2.120
  484SOL     OW 2350   1.343   2.982   5.171
  484SOL    HW1 2351   1.377   2.950   5.083
  484SOL    HW2 2352   1.253   2.942   5.189
  485SOL     OW 2353   3.847   5.290   2.740
  485SOL    HW1 2354   3.877   5.231   2.815
  485SOL    HW2 2355   3.924   5.348   2.712
  486SOL     OW 2356   6.604   2.284   0.913
  486SOL    HW1 2357   6.512   2.246   0.917
  486SOL    HW2 2358   6.653   2.243   0.836
  487SOL     OW 2359   1.126   1.936   1.419
  487SOL    HW1 2360   1.181   1.862   1.381
  487SOL    HW2 2361   1.029   1.913   1.412
  488SOL     OW 2362   0.364   1.776   2.138
  488SOL    HW1 2363   0.390   1.679   2.145
  488SOL    HW2 2364   0.409   1.816   2.058
  489SOL     OW 2365   3.028   6.292   6.419
  489SOL    HW1 2366   3.022   6.368   6.355
  489SOL    HW2 2367   3.116   6.246   6.407
  490SOL     OW 2368   6.950   5.773   3.321
  490SOL    HW1 2369   6.960   5.840   3.395
  490SOL    HW2 2370   0.006   5.709   3.324
  491SOL     OW 2371   0.206   3.120   2.348
  491SOL    HW1 2372   0.119   3.086   2.312
  491SOL    HW2 2373   0.219   3.086   2.441
  492SOL     OW 2374   2.636   0.268   5.443
  492SOL    HW1 2375   2.617   0.302   5.351
  492SOL    HW2 2376   2.551   0.265   5.495
  493SOL     OW 2377   5.004   6.350   5.544
  493SOL    HW1 2378   5.086   6.391   5.583
  493SOL    HW2 2379   4.976   6.402   5.463
  494SOL     OW 2380   6.718   1.222   6.669
  494SOL    HW1 2381   6.794   1.161   6.688
  494SOL    HW2 2382   6.704   1.230   6.571
  495SOL     OW 2383   5.117   5.673   3.701
  495SOL    HW1 2384   5.181   5.596   3.708
  495SOL    HW2 2385   5.118   5.708   3.607
  496SOL     OW 2386   5.339   3.380   2.037
  496SOL    HW1 2387   5.307   3.368   2.131
  496SOL    HW2 2388   5.367   3.475   2.023
  497SOL     OW 2389   3.281   0.946   4.472
  497SOL    HW1 2390   3.239   0.917   4.558
  497SOL    HW2 2391   3.340   1.025   4.488
  498SOL     OW 2392   2.079   3.895   1.745
  498SOL    HW1 2393   2.044   3.890   1.652
  498SOL    HW2 2394   2.025   3.959   1.798
  499SOL     OW 2395   3.076   0.375   4.189
  499SOL    HW1 2396   3.058   0.433   4.109
  499SOL    HW2 2397   2.999   0.382   4.253
  500SOL     OW 2398   0.673   3.786   3.808
  500SOL    HW1 2399   0.616   3.846   3.864
  500SOL    HW2 2400   0.643   3.789   3.713
  501SOL     OW 2401   2.560   6.177   0.165
  501SOL    HW1 2402   2.460   6.176   0.173
  501SOL    HW2 2403   2.593   6.271   0.178
  502SOL     OW 2404   6.756   4.198   7.014
  502SOL    HW1 2405   6.754   4.237   6.922
  502SOL    HW2 2406   6.691   4.123   7.019
  503SOL     OW 2407   6.083   5.759   6.299
  503SOL    HW1 2408   6.136   5.834   6.260
  503SOL    HW2 2409   5.990   5.761   6.263
  504SOL     OW 2410   2.016   5.670   2.853
  504SOL    HW1 2411   2.057   5.752   2.813
  504SOL    HW2 2412   2.081   5.594   2.848
  505SOL     OW 2413   3.510   6.450   4.871
  505SOL    HW1 2414   3.530   6.434   4.774
  505SOL    HW2 2415   3.473   6.543   4.882
  506SOL     OW 2416   1.583   5.387   4.873
  506SOL    HW1 2417   1.530   5.337   4.941
  506SOL    HW2 2418   1.662   5.332   4.846
  507SOL     OW 2419   3.854   0.080   3.076
  507SOL    HW1 2420   3.927   0.060   3.010
  507SOL    HW2 2421   3.787   0.006   3.075
  508SOL     OW 2422   6.725   3.915   2.253
  508SOL    HW1 2423   6.671   3.985   2.207
  508SOL    HW2 2424   6.700   3.910   2.349
  509SOL     OW 2425   3.457   0.978   1.820
  509SOL    HW1 2426   3.402   0.910   1.771
  509SOL    HW2 2427   3.444   1.068   1.778
  510SOL     OW 2428   6.022   4.964   0.259
  510SOL    HW1 2429   6.081   4.901   0.209
  510SOL    HW2 2430   5.974   5.024   0.195
  511SOL     OW 2431   0.728   1.279   5.998
  511SOL    HW1 2432   0.674   1.210   5.949
  511SOL    HW2 2433   0.669   1.356   6.023
  512SOL     OW 2434   6.704   2.734   0.038
  512SOL    HW1 2435   6.783   2.794   0.056
  512SOL    HW2 2436   6.620   2.787   0.047
  513SOL     OW 2437   6.099   6.111   3.073
  513SOL    HW1 2438   6.183   6.148   3.111
  513SOL    HW2 2439   6.026   6.179   3.079
  514SOL     OW 2440   6.897   2.553   4.162
  514SOL    HW1 2441   6.989   2.532   4.130
  514SOL    HW2 2442   6.844   2.469   4.171
  515SOL     OW 2443   1.740   0.849   6.401
  515SOL    HW1 2444   1.775   0.911   6.331
  515SOL    HW2 2445   1.708   0.901   6.480
  516SOL     OW 2446   2.664   4.756   1.821
  516SOL    HW1 2447   2.745   4.724   1.871
  516SOL    HW2 2448   2.591   4.779   1.886
  517SOL     OW 2449   4.777   5.470   2.440
  517SOL    HW1 2450   4.774   5.383   2.389
  517SOL    HW2 2451   4.770   5.451   2.538
  518SOL     OW 2452   2.060   2.012   2.754
  518SOL    HW1 2453   2.090   1.934   2.699
  518SOL    HW2 2454   2.063   2.095   2.697
  519SOL     OW 2455   1.165   1.072   4.293
  519SOL    HW1 2456   1.190   1.049   4.198
  519SOL    HW2 2457   1.223   1.020   4.356
  520SOL     OW 2458   6.189   4.741   0.212
  520SOL    HW1 2459   6.140   4.658   0.186
  520SOL    HW2 2460   6.225   4.731   0.304
  521SOL     OW 2461   6.936   3.441   5.976
  521SOL    HW1 2462   6.978   3.359   5.936
  521SOL    HW2 2463   6.976   3.457   6.067
  522SOL     OW 2464   3.435   3.632   5.179
  522SOL    HW1 2465   3.531   3.617   5.206
  522SOL    HW2 2466   3.430   3.707   5.114
  523SOL     OW 2467   0.925   4.954   1.213
  523SOL    HW1 2468   0.985   5.030   1.237
  523SOL    HW2 2469   0.978   4.869   1.210
  524SOL     OW 2470   0.592   1.551   0.769
  524SOL    HW1 2471   0.502   1.536   0.811
  524SOL    HW2 2472   0.614   1.472   0.711
  525SOL     OW 2473   1.817   3.349   6.437
  525SOL    HW1 2474   1.743   3.312   6.381
  525SOL    HW2 2475   1.896   3.367   6.379
  526SOL     OW 2476   4.449   6.456   4.225
  526SOL    HW1 2477   4.403   6.368   4.235
  526SOL    HW2 2478   4.547   6.444   4.241
  527SOL     OW 2479   6.668   3.302   6.866
  527SOL    HW1 2480   6.722   3.279   6.947
  527SOL    HW2 2481   6.578   3.336   6.894
  528SOL     OW 2482   1.295   1.501   3.571
  528SOL    HW1 2483   1.301   1.402   3.577
  528SOL    HW2 2484   1.350   1.542   3.644
  529SOL     OW 2485   0.934   6.612   4.160
  529SOL    HW1 2486   1.000   6.594   4.232
  529SOL    HW2 2487   0.913   6.527   4.111
  530SOL     OW 2488   2.930   3.214   4.839
  530SOL    HW1 2489   3.011   3.169   4.802
  530SOL    HW2 2490   2.858   3.147   4.855
  531SOL     OW 2491   0.546   0.247   2.773
  531SOL    HW1 2492   0.469   0.295   2.815
  531SOL    HW2 2493   0.516   0.160   2.735
  532SOL     OW 2494   1.222   2.253   0.060
  532SOL    HW1 2495   1.311   2.208   0.056
  532SOL    HW2 2496   1.170   2.217   0.138
  533SOL     OW 2497   4.607   6.899   3.466
  533SOL    HW1 2498   4.673   6.861   3.401
  533SOL    HW2 2499   4.618   6.854   3.555
  534SOL     OW 2500   4.867   5.793   3.099
  534SOL    HW1 2501   4.786   5.760   3.051
  534SOL    HW2 2502   4.888   5.886   3.069
  535SOL     OW 2503   0.706   3.637   4.543
  535SOL    HW1 2504   0.619   3.647   4.592
  535SOL    HW2 2505   0.781   3.635   4.609
  536SOL     OW 2506   0.245   4.900   1.954
  536SOL    HW1 2507   0.198   4.958   2.021
  536SOL    HW2 2508   0.184   4.826   1.926
  537SOL     OW 2509   1.781   6.597   3.864
  537SOL    HW1 2510   1.779   6.567   3.960
  537SOL    HW2 2511   1.851   6.667   3.853
  538SOL     OW 2512   0.945   3.972   2.580
  538SOL    HW1 2513   1.015   4.043   2.585
  538SOL    HW2 2514   0.960   3.915   2.499
  539SOL     OW 2515   0.896   6.406   0.316
  539SOL    HW1 2516   0.949   6.422   0.232
  539SOL    HW2 2517   0.887   6.307   0.331
  540SOL     OW 2518   0.721   0.689   2.489
  540SOL    HW1 2519   0.623   0.677   2.506
  540SOL    HW2 2520   0.752   0.774   2.532
  541SOL     OW 2521   3.818   6.222   4.221
  541SOL    HW1 2522   3.811   6.174   4.308
  541SOL    HW2 2523   3.765   6.307   4.226
  542SOL     OW 2524   6.429   0.087   7.001
  542SOL    HW1 2525   6.473   0.033   0.052
  542SOL    HW2 2526   6.492   0.098   6.924
  543SOL     OW 2527   1.674   4.399   5.648
  543SOL    HW1 2528   1.758   4.347   5.659
  543SOL    HW2 2529   1.694   4.485   5.600
  544SOL     OW 2530   2.080   3.982   1.191
  544SOL    HW1 2531   2.015   3.956   1.263
  544SOL    HW2 2532   2.042   4.059   1.139
  545SOL     OW 2533   2.956   0.228   3.110
  545SOL    HW1 2534   2.907   0.142   3.119
  545SOL    HW2 2535   2.924   0.293   3.179
  546SOL     OW 2536   1.568   2.736   0.432
  546SOL    HW1 2537   1.552   2.829   0.465
  546SOL    HW2 2538   1.502   2.674   0.473
  547SOL     OW 2539   2.860   1.277   6.925
  547SOL    HW1 2540   2.928   1.221   6.877
  547SOL    HW2 2541   2.772   1.231   6.923
  548SOL     OW 2542   3.745   2.920   2.500
  548SOL    HW1 2543   3.786   2.938   2.589
  548SOL    HW2 2544   3.651   2.956   2.498
  549SOL     OW 2545   4.830   3.168   1.172
  549SOL    HW1 2546   4.803   3.085   1.220
  549SOL    HW2 2547   4.791   3.168   1.080
  550SOL     OW 2548   6.090   4.518   3.533
  550SOL    HW1 2549   6.074   4.424   3.563
  550SOL    HW2 2550   6.016   4.577   3.564
  551SOL     OW 2551   1.168   0.951   1.593
  551SOL    HW1 2552   1.072   0.964   1.570
  551SOL    HW2 2553   1.195   0.857   1.570
  552SOL     OW 2554   4.216   4.950   0.315
  552SOL    HW1 2555   4.222   5.014   0.238
  552SOL    HW2 2556   4.291   4.884   0.309
  553SOL     OW 2557   2.369   6.379   1.967
  553SOL    HW1 2558   2.319   6.307   1.919
  553SOL    HW2 2559   2.352   6.467   1.922
  554SOL     OW 2560   5.810   6.149   5.673
  554SOL    HW1 2561   5.753   6.071   5.700
  554SOL    HW2 2562   5.891   6.116   5.626
  555SOL     OW 2563   2.229   5.464   2.799
  555SOL    HW1 2564   2.199   5.431   2.709
  555SOL    HW2 2565   2.328   5.459   2.804
  556SOL     OW 2566   5.470   2.470   3.563
  556SOL    HW1 2567   5.371   2.474   3.568
  556SOL    HW2 2568   5.498   2.388   3.513
  557SOL     OW 2569   0.101   4.818   0.210
  557SOL    HW1 2570   0.145   4.758   0.276
  557SOL    HW2 2571   0.093   4.770   0.122
  558SOL     OW 2572   2.929   3.876   4.803
  558SOL    HW1 2573   2.855   3.937   4.831
  558SOL    HW2 2574   2.927   3.794   4.860
  559SOL     OW 2575   6.492   5.818   6.271
  559SOL    HW1 2576   6.531   5.783   6.356
  559SOL    HW2 2577   6.528   5.765   6.194
  560SOL     OW 2578   4.252   6.034   0.191
  560SOL    HW1 2579   4.171   5.975   0.194
  560SOL    HW2 2580   4.246   6.096   0.113
  561SOL     OW 2581   6.068   0.847   0.346
  561SOL    HW1 2582   6.104   0.836   0.254
  561SOL    HW2 2583   6.029   0.939   0.356
  562SOL     OW 2584   4.536   0.974   5.994
  562SOL    HW1 2585   4.587   0.897   5.956
  562SOL    HW2 2586   4.438   0.954   5.989
  563SOL     OW 2587   2.426   6.870   3.050
  563SOL    HW1 2588   2.359   6.913   2.990
  563SOL    HW2 2589   2.378   6.807   3.113
  564SOL     OW 2590   2.629   1.682   6.355
  564SOL    HW1 2591   2.563   1.756   6.367
  564SOL    HW2 2592   2.670   1.659   6.443
  565SOL     OW 2593   3.831   3.698   5.472
  565SOL    HW1 2594   3.920   3.698   5.518
  565SOL    HW2 2595   3.802   3.792   5.455
  566SOL     OW 2596   6.222   4.029   4.237
  566SOL    HW1 2597   6.239   4.076   4.323
  566SOL    HW2 2598   6.206   4.096   4.165
  567SOL     OW 2599   3.863   4.030   2.816
  567SOL    HW1 2600   3.924   4.010   2.740
  567SOL    HW2 2601   3.769   4.041   2.783
  568SOL     OW 2602   3.429   2.533   0.070
  568SOL    HW1 2603   3.402   2.494   7.003
  568SOL    HW2 2604   3.421   2.632   0.066
  569SOL     OW 2605   1.490   3.681   0.491
  569SOL    HW1 2606   1.432   3.606   0.459
  569SOL    HW2 2607   1.512   3.741   0.414
  570SOL     OW 2608   2.243   6.708   6.522
  570SOL    HW1 2609   2.305   6.785   6.510
  570SOL    HW2 2610   2.235   6.686   6.619
  571SOL     OW 2611   3.146   6.894   3.171
  571SOL    HW1 2612   3.183   6.900   3.078
  571SOL    HW2 2613   3.202   6.950   3.232
  572SOL     OW 2614   2.189   4.705   5.817
  572SOL    HW1 2615   2.281   4.719   5.781
  572SOL    HW2 2616   2.129   4.779   5.785
  573SOL     OW 2617   4.440   1.640   5.212
  573SOL    HW1 2618   4.512   1.579   5.246
  573SOL    HW2 2619   4.355   1.622   5.260
  574SOL     OW 2620   2.649   2.040   3.589
  574SOL    HW1 2621   2.737   1.994   3.581
  574SOL    HW2 2622   2.576   1.973   3.574
  575SOL     OW 2623   6.702   3.374   6.228
  575SOL    HW1 2624   6.700   3.292   6.285
  575SOL    HW2 2625   6.655   3.356   6.142
  576SOL     OW 2626   1.083   2.300   1.929
  576SOL    HW1 2627   1.164   2.260   1.972
  576SOL    HW2 2628   1.030   2.228   1.884
  577SOL     OW 2629   1.849   1.189   3.066
  577SOL    HW1 2630   1.803   1.224   3.147
  577SOL    HW2 2631   1.838   1.253   2.990
  578SOL     OW 2632   6.800   4.241   3.303
  578SOL    HW1 2633   6.772   4.146   3.311
  578SOL    HW2 2634   6.735   4.299   3.353
  579SOL     OW 2635   2.554   2.823   0.651
  579SOL    HW1 2636   2.616   2.780   0.584
  579SOL    HW2 2637   2.475   2.861   0.603
  580SOL     OW 2638   0.578   4.405   6.603
  580SOL    HW1 2639   0.551   4.403   6.699
  580SOL    HW2 2640   0.667   4.362   6.592
  581SOL     OW 2641   3.279   3.780   2.473
  581SOL    HW1 2642   3.299   3.696   2.524
  581SOL    HW2 2643   3.257   3.758   2.378
  582SOL     OW 2644   5.759   5.288   2.765
  582SOL    HW1 2645   5.839   5.241   2.726
  582SOL    HW2 2646   5.777   5.386   2.771
  583SOL     OW 2647   2.153   5.388   6.313
  583SOL    HW1 2648   2.067   5.405   6.264
  583SOL    HW2 2649   2.133   5.339   6.398
  584SOL     OW 2650   1.076   4.845   5.871
  584SOL    HW1 2651   1.140   4.793   5.814
  584SOL    HW2 2652   1.040   4.922   5.818
  585SOL     OW 2653   6.234   2.876   6.041
  585SOL    HW1 2654   6.168   2.943   6.076
  585SOL    HW2 2655   6.186   2.811   5.981
  586SOL     OW 2656   3.173   0.822   6.380
  586SOL    HW1 2657   3.192   0.787   6.472
  586SOL    HW2 2658   3.169   0.746   6.316
  587SOL     OW 2659   2.606   2.402   5.096
  587SOL    HW1 2660   2.662   2.381   5.016
  587SOL    HW2 2661   2.527   2.457   5.068
  588SOL     OW 2662   2.322   5.317   0.397
  588SOL    HW1 2663   2.366   5.252   0.335
  588SOL    HW2 2664   2.376   5.325   0.480
  589SOL     OW 2665   3.957   5.406   1.635
  589SOL    HW1 2666   3.891   5.332   1.641
  589SOL    HW2 2667   4.044   5.377   1.675
  590SOL     OW 2668   5.508   3.164   1.297
  590SOL    HW1 2669   5.460   3.177   1.384
  590SOL    HW2 2670   5.442   3.166   1.222
  591SOL     OW 2671   4.275   6.254   3.972
  591SOL    HW1 2672   4.200   6.321   3.968
  591SOL    HW2 2673   4.289   6.227   4.067
  592SOL     OW 2674   4.161   6.951   1.188
  592SOL    HW1 2675   4.208   6.940   1.100
  592SOL    HW2 2676   4.229   6.960   1.261
  593SOL     OW 2677   4.595   2.083   3.379
  593SOL    HW1 2678   4.638   1.992   3.377
  593SOL    HW2 2679   4.527   2.086   3.452
  594SOL     OW 2680   4.714   2.257   6.245
  594SOL    HW1 2681   4.684   2.211   6.162
  594SOL    HW2 2682   4.692   2.354   6.241
  595SOL     OW 2683   5.278   6.777   3.737
  595SOL    HW1 2684   5.321   6.778   3.827
  595SOL    HW2 2685   5.275   6.684   3.702
  596SOL     OW 2686   1.069   3.714   1.907
  596SOL    HW1 2687   1.165   3.738   1.926
  596SOL    HW2 2688   1.026   3.681   1.991
  597SOL     OW 2689   4.831   0.093   5.596
  597SOL    HW1 2690   4.754   0.069   5.535
  597SOL    HW2 2691   4.844   0.192   5.596
  598SOL     OW 2692   3.260   4.194   6.769
  598SOL    HW1 2693   3.351   4.183   6.807
  598SOL    HW2 2694   3.252   4.141   6.684
  599SOL     OW 2695   1.372   6.804   3.034
  599SOL    HW1 2696   1.428   6.726   3.063
  599SOL    HW2 2697   1.395   6.884   3.091
  600SOL     OW 2698   1.206   1.194   1.159
  600SOL    HW1 2699   1.292   1.232   1.124
  600SOL    HW2 2700   1.215   1.177   1.257
  601SOL     OW 2701   3.288   6.435   4.244
  601SOL    HW1 2702   3.217   6.413   4.176
  601SOL    HW2 2703   3.315   6.351   4.291
  602SOL     OW 2704   0.966   2.457   0.066
  602SOL    HW1 2705   0.902   2.392   0.108
  602SOL    HW2 2706   1.050   2.460   0.120
  603SOL     OW 2707   4.263   1.992   3.913
  603SOL    HW1 2708   4.286   1.913   3.857
  603SOL    HW2 2709   4.256   1.964   4.009
  604SOL     OW 2710   0.555   3.922   1.278
  604SOL    HW1 2711   0.493   3.851   1.312
  604SOL    HW2 2712   0.631   3.879   1.229
  605SOL     OW 2713   6.805   5.329   2.846
  605SOL    HW1 2714   6.818   5.246   2.899
  605SOL    HW2 2715   6.712   5.363   2.860
  606SOL     OW 2716   5.202   0.443   5.528
  606SOL    HW1 2717   5.254   0.489   5.600
  606SOL    HW2 2718   5.115   0.411   5.566
  607SOL     OW 2719   5.563   0.707   5.378
  607SOL    HW1 2720   5.598   0.747   5.293
  607SOL    HW2 2721   5.467   0.731   5.389
  608SOL     OW 2722   4.011   6.569   0.269
  608SOL    HW1 2723   4.041   6.649   0.218
  608SOL    HW2 2724   3.984   6.497   0.205
  609SOL     OW 2725   3.256   3.563   3.909
  609SOL    HW1 2726   3.268   3.466   3.887
  609SOL    HW2 2727   3.161   3.590   3.890
  610SOL     OW 2728   5.479   2.043   2.940
  610SOL    HW1 2729   5.455   1.955   2.980
  610SOL    HW2 2730   5.416   2.114   2.975
  611SOL     OW 2731   1.169   0.571   6.421
  611SOL    HW1 2732   1.116   0.608   6.497
  611SOL    HW2 2733   1.199   0.646   6.362
  612SOL     OW 2734   3.857   5.612   5.549
  612SOL    HW1 2735   3.846   5.624   5.451
  612SOL    HW2 2736   3.952   5.590   5.570
  613SOL     OW 2737   4.795   6.898   4.952
  613SOL    HW1 2738   4.782   6.918   5.049
  613SOL    HW2 2739   4.893   6.900   4.930
  614SOL     OW 2740   5.970   4.386   1.190
  614SOL    HW1 2741   5.896   4.322   1.166
  614SOL    HW2 2742   5.969   4.463   1.125
  615SOL     OW 2743   0.648   1.582   1.411
  615SOL    HW1 2744   0.569   1.523   1.431
  615SOL    HW2 2745   0.707   1.587   1.492
  616SOL     OW 2746   6.150   1.603   3.247
  616SOL    HW1 2747   6.190   1.677   3.193
  616SOL    HW2 2748   6.151   1.518   3.193
  617SOL     OW 2749   0.133   3.684   6.851
  617SOL    HW1 2750   0.090   3.770   6.878
  617SOL    HW2 2751   0.088   3.649   6.768
  618SOL     OW 2752   6.468   3.599   0.626
  618SOL    HW1 2753   6.539   3.533   0.602
  618SOL    HW2 2754   6.418   3.567   0.706
  619SOL     OW 2755   4.123   0.181   6.600
  619SOL    HW1 2756   4.093   0.137   6.516
  619SOL    HW2 2757   4.217   0.213   6.589
  620SOL     OW 2758   5.798   2.837   0.978
  620SOL    HW1 2759   5.881   2.880   1.015
  620SOL    HW2 2760   5.728   2.833   1.048
  621SOL     OW 2761   1.548   0.379   5.019
  621SOL    HW1 2762   1.546   0.382   5.119
  621SOL    HW2 2763   1.583   0.466   4.984
  622SOL     OW 2764   0.409   1.602   5.232
  622SOL    HW1 2765   0.366   1.674   5.178
  622SOL    HW2 2766   0.452   1.535   5.171
  623SOL     OW 2767   0.654   6.703   5.073
  623SOL    HW1 2768   0.677   6.618   5.120
  623SOL    HW2 2769   0.573   6.688   5.015
  624SOL     OW 2770   6.393   0.985   0.036
  624SOL    HW1 2771   6.426   1.061   7.001
  624SOL    HW2 2772   6.471   0.937   0.077
  625SOL     OW 2773   1.529   1.937   0.787
  625SOL    HW1 2774   1.603   1.996   0.756
  625SOL    HW2 2775   1.535   1.849   0.740
  626SOL     OW 2776   0.977   5.768   2.702
  626SOL    HW1 2777   1.057   5.729   2.747
  626SOL    HW2 2778   0.964   5.724   2.613
  627SOL     OW 2779   6.318   6.593   0.526
  627SOL    HW1 2780   6.400   6.537   0.540
  627SOL    HW2 2781   6.341   6.689   0.540
  628SOL     OW 2782   5.819   3.619   5.288
  628SOL    HW1 2783   5.893   3.552   5.299
  628SOL    HW2 2784   5.747   3.600   5.354
  629SOL     OW 2785   0.794   1.238   6.826
  629SOL    HW1 2786   0.699   1.236   6.796
  629SOL    HW2 2787   0.845   1.304   6.770
  630SOL     OW 2788   0.325   2.138   0.790
  630SOL    HW1 2789   0.371   2.196   0.858
  630SOL    HW2 2790   0.282   2.060   0.837
  631SOL     OW 2791   3.761   1.176   4.439
  631SOL    HW1 2792   3.810   1.253   4.479
  631SOL    HW2 2793   3.807   1.146   4.356
  632SOL     OW 2794   4.576   2.755   0.571
  632SOL    HW1 2795   4.635   2.831   0.601
  632SOL    HW2 2796   4.484   2.769   0.607
  633SOL     OW 2797   3.126   4.502   6.699
  633SOL    HW1 2798   3.126   4.431   6.629
  633SOL    HW2 2799   3.170   4.467   6.782
  634SOL     OW 2800   3.736   3.170   2.690
  634SOL    HW1 2801   3.753   3.081   2.734
  634SOL    HW2 2802   3.658   3.162   2.629
  635SOL     OW 2803   4.526   6.660   0.388
  635SOL    HW1 2804   4.558   6.597   0.458
  635SOL    HW2 2805   4.602   6.716   0.357
  636SOL     OW 2806   3.122   7.018   6.032
  636SOL    HW1 2807   3.117   0.070   5.963
  636SOL    HW2 2808   3.154   6.934   5.988
  637SOL     OW 2809   6.270   2.577   2.262
  637SOL    HW1 2810   6.254   2.515   2.185
  637SOL    HW2 2811   6.219   2.662   2.247
  638SOL     OW 2812   5.686   4.015   3.945
  638SOL    HW1 2813   5.767   4.025   4.003
  638SOL    HW2 2814   5.603   4.029   3.999
  639SOL     OW 2815   5.194   4.491   3.836
  639SOL    HW1 2816   5.109   4.501   3.783
  639SOL    HW2 2817   5.267   4.457   3.776
  640SOL     OW 2818   6.850   4.861   3.495
  640SOL    HW1 2819   6.939   4.834   3.530
  640SOL    HW2 2820   6.798   4.780   3.468
  641SOL     OW 2821   0.795   4.625   4.776
  641SOL    HW1 2822   0.844   4.575   4.703
  641SOL    HW2 2823   0.861   4.657   4.843
  642SOL     OW 2824   1.355   2.912   4.876
  642SOL    HW1 2825   1.376   2.827   4.827
  642SOL    HW2 2826   1.290   2.966   4.824
  643SOL     OW 2827   6.334   0.399   6.074
  643SOL    HW1 2828   6.336   0.393   5.975
  643SOL    HW2 2829   6.406   0.342   6.113
  644SOL     OW 2830   1.965   0.645   4.377
  644SOL    HW1 2831   1.917   0.710   4.437
  644SOL    HW2 2832   1.910   0.562   4.368
  645SOL     OW 2833   3.267   5.474   4.335
  645SOL    HW1 2834   3.309   5.502   4.421
  645SOL    HW2 2835   3.331   5.491   4.259
  646SOL     OW 2836   3.820   0.367   4.578
  646SOL    HW1 2837   3.898   0.386   4.518
  646SOL    HW2 2838   3.848   0.375   4.673
  647SOL     OW 2839   5.533   1.770   4.738
  647SOL    HW1 2840   5.515   1.858   4.782
  647SOL    HW2 2841   5.488   1.768   4.649
  648SOL     OW 2842   6.697   3.749   3.595
  648SOL    HW1 2843   6.704   3.835   3.646
  648SOL    HW2 2844   6.722   3.764   3.500
  649SOL     OW 2845   2.100   3.626   0.534
  649SOL    HW1 2846   2.152   3.710   0.521
  649SOL    HW2 2847   2.075   3.616   0.630
  650SOL     OW 2848   6.435   5.387   0.374
  650SOL    HW1 2849   6.433   5.487   0.382
  650SOL    HW2 2850   6.424   5.361   0.278
  651SOL     OW 2851   1.690   0.602   5.087
  651SOL    HW1 2852   1.786   0.620   5.112
  651SOL    HW2 2853   1.631   0.621   5.166
  652SOL     OW 2854   4.516   6.734   2.538
  652SOL    HW1 2855   4.488   6.667   2.470
  652SOL    HW2 2856   4.472   6.822   2.518
  653SOL     OW 2857   0.471   6.403   0.534
  653SOL    HW1 2858   0.460   6.305   0.514
  653SOL    HW2 2859   0.458   6.419   0.632
  654SOL     OW 2860   0.093   6.569   6.347
  654SOL    HW1 2861   0.066   6.553   6.252
  654SOL    HW2 2862   0.180   6.523   6.366
  655SOL     OW 2863   6.585   5.398   1.998
  655SOL    HW1 2864   6.533   5.316   1.977
  655SOL    HW2 2865   6.649   5.379   2.073
  656SOL     OW 2866   1.692   6.217   7.009
  656SOL    HW1 2867   1.734   6.302   0.020
  656SOL    HW2 2868   1.597   6.234   6.983
  657SOL     OW 2869   3.222   4.217   1.167
  657SOL    HW1 2870   3.321   4.219   1.153
  657SOL    HW2 2871   3.197   4.130   1.210
  658SOL     OW 2872   1.328   3.955   5.122
  658SOL    HW1 2873   1.233   3.981   5.137
  658SOL    HW2 2874   1.382   3.976   5.203
  659SOL     OW 2875   2.669   6.006   4.750
  659SOL    HW1 2876   2.674   6.106   4.753
  659SOL    HW2 2877   2.706   5.973   4.663
  660SOL     OW 2878   4.423   4.758   2.580
  660SOL    HW1 2879   4.493   4.737   2.649
  660SOL    HW2 2880   4.464   4.758   2.489
  661SOL     OW 2881   4.846   4.179   4.618
  661SOL    HW1 2882   4.916   4.108   4.605
  661SOL    HW2 2883   4.783   4.178   4.541
  662SOL     OW 2884   4.421   1.134   5.617
  662SOL    HW1 2885   4.325   1.113   5.638
  662SOL    HW2 2886   4.443   1.226   5.648
  663SOL     OW 2887   0.304   4.501   0.035
  663SOL    HW1 2888   0.379   4.448   7.016
  663SOL    HW2 2889   0.294   4.587   7.006
  664SOL     OW 2890   1.712   5.696   6.675
  664SOL    HW1 2891   1.691   5.641   6.594
  664SOL    HW2 2892   1.628   5.732   6.714
  665SOL     OW 2893   4.167   5.298   0.937
  665SOL    HW1 2894   4.166   5.217   0.996
  665SOL    HW2 2895   4.252   5.348   0.951
  666SOL     OW 2896   4.395   2.545   1.058
  666SOL    HW1 2897   4.449   2.466   1.086
  666SOL    HW2 2898   4.351   2.586   1.139
  667SOL     OW 2899   0.335   4.118   3.479
  667SOL    HW1 2900   0.340   4.076   3.569
  667SOL    HW2 2901   0.297   4.210   3.486
  668SOL     OW 2902   4.786   5.682   0.035
  668SOL    HW1 2903   4.702   5.643   7.016
  668SOL    HW2 2904   4.859   5.681   6.988
  669SOL     OW 2905   2.749   6.037   3.034
  669SOL    HW1 2906   2.799   6.092   3.100
  669SOL    HW2 2907   2.778   6.060   2.941
  670SOL     OW 2908   3.200   3.719   2.228
  670SOL    HW1 2909   3.210   3.723   2.129
  670SOL    HW2 2910   3.184   3.625   2.256
  671SOL     OW 2911   2.362   6.146   6.653
  671SOL    HW1 2912   2.452   6.180   6.679
  671SOL    HW2 2913   2.365   6.047   6.642
  672SOL     OW 2914   0.718   4.456   2.228
  672SOL    HW1 2915   0.734   4.554   2.213
  672SOL    HW2 2916   0.745   4.406   2.145
  673SOL     OW 2917   4.501   0.276   1.100
  673SOL    HW1 2918   4.548   0.259   1.014
  673SOL    HW2 2919   4.406   0.302   1.081
  674SOL     OW 2920   6.711   2.949   4.182
  674SOL    HW1 2921   6.699   2.959   4.084
  674SOL    HW2 2922   6.623   2.927   4.224
  675SOL     OW 2923   0.474   1.405   5.030
  675SOL    HW1 2924   0.560   1.400   4.979
  675SOL    HW2 2925   0.405   1.346   4.986
  676SOL     OW 2926   2.735   5.084   3.328
  676SOL    HW1 2927   2.826   5.042   3.321
  676SOL    HW2 2928   2.743   5.182   3.308
  677SOL     OW 2929   5.919   1.333   6.498
  677SOL    HW1 2930   5.952   1.312   6.591
  677SOL    HW2 2931   5.997   1.343   6.437
  678SOL     OW 2932   1.793   1.589   5.120
  678SOL    HW1 2933   1.744   1.641   5.051
  678SOL    HW2 2934   1.831   1.506   5.079
  679SOL     OW 2935   4.725   0.911   4.688
  679SOL    HW1 2936   4.725   0.958   4.776
  679SOL    HW2 2937   4.671   0.963   4.622
  680SOL     OW 2938   5.870   4.897   6.028
  680SOL    HW1 2939   5.807   4.820   6.014
  680SOL    HW2 2940   5.825   4.966   6.085
  681SOL     OW 2941   6.237   6.934   0.750
  681SOL    HW1 2942   6.247   0.008   0.720
  681SOL    HW2 2943   6.212   6.932   0.847
  682SOL     OW 2944   1.580   6.768   6.474
  682SOL    HW1 2945   1.492   6.809   6.496
  682SOL    HW2 2946   1.652   6.815   6.524
  683SOL     OW 2947   3.127   1.019   6.010
  683SOL    HW1 2948   3.075   1.047   6.091
  683SOL    HW2 2949   3.215   1.065   6.010
  684SOL     OW 2950   6.150   1.338   6.263
  684SOL    HW1 2951   6.097   1.421   6.246
  684SOL    HW2 2952   6.202   1.347   6.347
  685SOL     OW 2953   5.036   6.711   5.483
  685SOL    HW1 2954   4.953   6.734   5.535
  685SOL    HW2 2955   5.058   6.787   5.422
  686SOL     OW 2956   5.344   2.977   2.835
  686SOL    HW1 2957   5.259   2.950   2.880
  686SOL    HW2 2958   5.367   3.071   2.861
  687SOL     OW 2959   6.987   2.876   5.385
  687SOL    HW1 2960   6.896   2.913   5.368
  687SOL    HW2 2961   0.000   2.908   5.473
  688SOL     OW 2962   1.387   4.243   0.545
  688SOL    HW1 2963   1.443   4.181   0.489
  688SOL    HW2 2964   1.299   4.200   0.563
  689SOL     OW 2965   0.775   4.408   5.284
  689SOL    HW1 2966   0.797   4.409   5.382
  689SOL    HW2 2967   0.831   4.476   5.237
  690SOL     OW 2968   0.058   3.433   3.193
  690SOL    HW1 2969   0.005   3.395   3.116
  690SOL    HW2 2970   0.135   3.373   3.213
  691SOL     OW 2971   2.197   1.796   6.684
  691SOL    HW1 2972   2.178   1.870   6.619
  691SOL    HW2 2973   2.224   1.714   6.633
  692SOL     OW 2974   3.365   6.056   3.863
  692SOL    HW1 2975   3.382   6.018   3.954
  692SOL    HW2 2976   3.390   6.153   3.862
  693SOL     OW 2977   6.391   1.114   3.408
  693SOL    HW1 2978   6.372   1.049   3.482
  693SOL    HW2 2979   6.405   1.064   3.323
  694SOL     OW 2980   3.362   5.676   2.169
  694SOL    HW1 2981   3.443   5.620   2.152
  694SOL    HW2 2982   3.389   5.755   2.226
  695SOL     OW 2983   4.870   4.588   5.633
  695SOL    HW1 2984   4.799   4.625   5.572
  695SOL    HW2 2985   4.827   4.559   5.719
  696SOL     OW 2986   3.436   5.337   1.780
  696SOL    HW1 2987   3.481   5.250   1.760
  696SOL    HW2 2988   3.365   5.322   1.849
  697SOL     OW 2989   1.331   2.551   5.465
  697SOL    HW1 2990   1.280   2.499   5.534
  697SOL    HW2 2991   1.268   2.585   5.395
  698SOL     OW 2992   5.866   0.656   5.795
  698SOL    HW1 2993   5.924   0.736   5.778
  698SOL    HW2 2994   5.782   0.664   5.742
  699SOL     OW 2995   0.264   4.165   0.317
  699SOL    HW1 2996   0.331   4.158   0.390
  699SOL    HW2 2997   0.310   4.179   0.230
  700SOL     OW 2998   3.297   1.820   3.959
  700SOL    HW1 2999   3.313   1.724   3.934
  700SOL    HW2 3000   3.214   1.853   3.914
  701SOL     OW 3001   0.295   3.952   5.829
  701SOL    HW1 3002   0.269   4.045   5.854
  701SOL    HW2 3003   0.224   3.889   5.857
  702SOL     OW 3004   5.763   6.113   6.046
  702SOL    HW1 3005   5.808   6.161   6.121
  702SOL    HW2 3006   5.677   6.159   6.024
  703SOL     OW 3007   4.201   3.527   6.546
  703SOL    HW1 3008   4.279   3.558   6.601
  703SOL    HW2 3009   4.204   3.573   6.457
  704SOL     OW 3010   1.612   1.402   6.319
  704SOL    HW1 3011   1.637   1.499   6.315
  704SOL    HW2 3012   1.695   1.346   6.321
  705SOL     OW 3013   5.112   6.985   3.780
  705SOL    HW1 3014   5.198   6.935   3.765
  705SOL    HW2 3015   5.038   6.919   3.795
  706SOL     OW 3016   4.039   2.110   3.412
  706SOL    HW1 3017   4.050   2.032   3.473
  706SOL    HW2 3018   4.034   2.195   3.465
  707SOL     OW 3019   4.288   0.328   2.761
  707SOL    HW1 3020   4.230   0.321   2.842
  707SOL    HW2 3021   4.250   0.396   2.698
  708SOL     OW 3022   4.127   0.449   1.342
  708SOL    HW1 3023   4.209   0.453   1.399
  708SOL    HW2 3024   4.080   0.537   1.345
  709SOL     OW 3025   1.266   5.407   0.445
  709SOL    HW1 3026   1.222   5.476   0.387
  709SOL    HW2 3027   1.348   5.446   0.486
  710SOL     OW 3028   3.988   3.274   2.636
  710SOL    HW1 3029   3.897   3.239   2.659
  710SOL    HW2 3030   3.998   3.277   2.536
  711SOL     OW 3031   1.220   1.996   6.407
  711SOL    HW1 3032   1.300   2.054   6.394
  711SOL    HW2 3033   1.247   1.900   6.410
  712SOL     OW 3034   2.664   4.490   0.336
  712SOL    HW1 3035   2.716   4.422   0.388
  712SOL    HW2 3036   2.614   4.550   0.399
  713SOL     OW 3037   3.227   3.563   0.175
  713SOL    HW1 3038   3.324   3.552   0.152
  713SOL    HW2 3039   3.213   3.652   0.219
  714SOL     OW 3040   6.914   5.010   4.771
  714SOL    HW1 3041   6.815   5.003   4.758
  714SOL    HW2 3042   6.961   4.998   4.684
  715SOL     OW 3043   5.027   6.216   0.957
  715SOL    HW1 3044   4.930   6.228   0.975
  715SOL    HW2 3045   5.044   6.121   0.931
  716SOL     OW 3046   0.748   6.421   0.741
  716SOL    HW1 3047   0.815   6.413   0.814
  716SOL    HW2 3048   0.765   6.351   0.671
  717SOL     OW 3049   5.681   5.299   6.310
  717SOL    HW1 3050   5.631   5.347   6.238
  717SOL    HW2 3051   5.641   5.321   6.399
  718SOL     OW 3052   4.534   2.139   5.520
  718SOL    HW1 3053   4.580   2.056   5.553
  718SOL    HW2 3054   4.437   2.121   5.508
  719SOL     OW 3055   6.042   2.630   1.245
  719SOL    HW1 3056   5.974   2.564   1.278
  719SOL    HW2 3057   6.064   2.611   1.150
  720SOL     OW 3058   3.578   0.985   6.028
  720SOL    HW1 3059   3.573   0.913   5.960
  720SOL    HW2 3060   3.498   1.044   6.020
  721SOL     OW 3061   1.728   0.157   4.418
  721SOL    HW1 3062   1.826   0.137   4.417
  721SOL    HW2 3063   1.680   0.085   4.467
  722SOL     OW 3064   3.204   6.877   5.342
  722SOL    HW1 3065   3.200   6.800   5.278
  722SOL    HW2 3066   3.151   6.954   5.305
  723SOL     OW 3067   2.135   3.220   3.034
  723SOL    HW1 3068   2.165   3.315   3.030
  723SOL    HW2 3069   2.096   3.193   2.946
  724SOL     OW 3070   1.245   1.415   4.210
  724SOL    HW1 3071   1.176   1.343   4.210
  724SOL    HW2 3072   1.204   1.501   4.182
  725SOL     OW 3073   3.227   5.194   1.567
  725SOL    HW1 3074   3.197   5.239   1.651
  725SOL    HW2 3075   3.284   5.257   1.514
  726SOL     OW 3076   3.870   4.256   0.970
  726SOL    HW1 3077   3.856   4.168   1.014
  726SOL    HW2 3078   3.967   4.275   0.961
  727SOL     OW 3079   5.035   5.713   5.578
  727SOL    HW1 3080   5.015   5.802   5.537
  727SOL    HW2 3081   4.961   5.649   5.558
  728SOL     OW 3082   0.599   3.647   5.423
  728SOL    HW1 3083   0.671   3.700   5.467
  728SOL    HW2 3084   0.542   3.604   5.493
  729SOL     OW 3085   2.029   0.899   0.736
  729SOL    HW1 3086   2.020   0.803   0.762
  729SOL    HW2 3087   2.033   0.955   0.819
  730SOL     OW 3088   5.619   0.372   3.579
  730SOL    HW1 3089   5.570   0.352   3.494
  730SOL    HW2 3090   5.621   0.471   3.594
  731SOL     OW 3091   6.375   3.565   5.923
  731SOL    HW1 3092   6.381   3.542   6.020
  731SOL    HW2 3093   6.309   3.504   5.879
  732SOL     OW 3094   0.440   3.808   0.960
  732SOL    HW1 3095   0.358   3.766   0.998
  732SOL    HW2 3096   0.452   3.900   0.997
  733SOL     OW 3097   5.863   4.193   5.127
  733SOL    HW1 3098   5.865   4.105   5.080
  733SOL    HW2 3099   5.940   4.248   5.098
  734SOL     OW 3100   6.331   4.559   2.555
  734SOL    HW1 3101   6.417   4.541   2.508
  734SOL    HW2 3102   6.338   4.644   2.607
  735SOL     OW 3103   3.338   3.175   0.736
  735SOL    HW1 3104   3.263   3.127   0.781
  735SOL    HW2 3105   3.426   3.139   0.769
  736SOL     OW 3106   6.364   5.952   2.752
  736SOL    HW1 3107   6.393   5.856   2.757
  736SOL    HW2 3108   6.422   6.001   2.686
  737SOL     OW 3109   4.338   2.586   6.997
  737SOL    HW1 3110   4.307   2.500   6.956
  737SOL    HW2 3111   4.285   2.662   6.960
  738SOL     OW 3112   2.079   4.491   2.505
  738SOL    HW1 3113   2.143   4.541   2.447
  738SOL    HW2 3114   2.126   4.416   2.551
  739SOL     OW 3115   4.526   6.163   5.397
  739SOL    HW1 3116   4.512   6.079   5.448
  739SOL    HW2 3117   4.617   6.163   5.356
  740SOL     OW 3118   5.184   6.695   0.857
  740SOL    HW1 3119   5.151   6.656   0.943
  740SOL    HW2 3120   5.107   6.716   0.798
  741SOL     OW 3121   1.918   6.698   3.132
  741SOL    HW1 3122   1.883   6.782   3.174
  741SOL    HW2 3123   1.940   6.715   3.036
  742SOL     OW 3124   2.196   6.768   1.665
  742SOL    HW1 3125   2.221   6.679   1.627
  742SOL    HW2 3126   2.152   6.822   1.594
  743SOL     OW 3127   1.394   3.879   4.121
  743SOL    HW1 3128   1.315   3.831   4.082
  743SOL    HW2 3129   1.430   3.944   4.054
  744SOL     OW 3130   6.134   0.292   6.222
  744SOL    HW1 3131   6.142   0.193   6.209
  744SOL    HW2 3132   6.203   0.339   6.166
  745SOL     OW 3133   0.529   5.226   4.952
  745SOL    HW1 3134   0.605   5.275   4.910
  745SOL    HW2 3135   0.460   5.291   4.982
  746SOL     OW 3136   0.957   5.926   6.059
  746SOL    HW1 3137   0.880   5.893   6.113
  746SOL    HW2 3138   0.924   5.956   5.969
  747SOL     OW 3139   4.533   4.957   5.291
  747SOL    HW1 3140   4.613   4.991   5.241
  747SOL    HW2 3141   4.490   5.033   5.339
  748SOL     OW 3142   3.662   5.563   2.970
  748SOL    HW1 3143   3.630   5.574   3.064
  748SOL    HW2 3144   3.658   5.651   2.923
  749SOL     OW 3145   6.478   3.589   4.725
  749SOL    HW1 3146   6.398   3.569   4.669
  749SOL    HW2 3147   6.502   3.686   4.715
  750SOL     OW 3148   2.013   3.599   0.831
  750SOL    HW1 3149   1.922   3.558   0.845
  750SOL    HW2 3150   2.034   3.661   0.906
  751SOL     OW 3151   4.105   1.816   6.339
  751SOL    HW1 3152   4.148   1.856   6.419
  751SOL    HW2 3153   4.038   1.880   6.301
  752SOL     OW 3154   4.272   2.459   1.791
  752SOL    HW1 3155   4.217   2.538   1.764
  752SOL    HW2 3156   4.310   2.415   1.709
  753SOL     OW 3157   1.968   2.936   4.198
  753SOL    HW1 3158   1.941   2.904   4.289
  753SOL    HW2 3159   1.944   3.033   4.189
  754SOL     OW 3160   5.672   3.246   6.694
  754SOL    HW1 3161   5.749   3.246   6.631
  754SOL    HW2 3162   5.683   3.320   6.761
  755SOL     OW 3163   1.546   5.788   6.173
  755SOL    HW1 3164   1.484   5.830   6.239
  755SOL    HW2 3165   1.497   5.772   6.087
  756SOL     OW 3166   3.935   6.872   1.555
  756SOL    HW1 3167   4.030   6.843   1.546
  756SOL    HW2 3168   3.931   6.971   1.573
  757SOL     OW 3169   0.244   6.774   3.247
  757SOL    HW1 3170   0.159   6.807   3.288
  757SOL    HW2 3171   0.267   6.685   3.285
  758SOL     OW 3172   4.118   0.889   1.727
  758SOL    HW1 3173   4.023   0.890   1.694
  758SOL    HW2 3174   4.176   0.937   1.661
  759SOL     OW 3175   0.512   0.864   0.780
  759SOL    HW1 3176   0.503   0.946   0.723
  759SOL    HW2 3177   0.597   0.869   0.833
  760SOL     OW 3178   4.441   0.756   6.242
  760SOL    HW1 3179   4.509   0.698   6.198
  760SOL    HW2 3180   4.401   0.819   6.175
  761SOL     OW 3181   5.729   3.587   5.780
  761SOL    HW1 3182   5.829   3.587   5.777
  761SOL    HW2 3183   5.697   3.663   5.836
  762SOL     OW 3184   2.141   6.729   4.519
  762SOL    HW1 3185   2.095   6.801   4.570
  762SOL    HW2 3186   2.123   6.640   4.562
  763SOL     OW 3187   3.885   4.713   6.412
  763SOL    HW1 3188   3.980   4.739   6.395
  763SOL    HW2 3189   3.873   4.616   6.393
  764SOL     OW 3190   4.370   0.735   3.519
  764SOL    HW1 3191   4.299   0.803   3.540
  764SOL    HW2 3192   4.458   0.781   3.507
  765SOL     OW 3193   1.355   6.555   1.339
  765SOL    HW1 3194   1.392   6.514   1.256
  765SOL    HW2 3195   1.256   6.566   1.328
  766SOL     OW 3196   0.743   2.317   0.882
  766SOL    HW1 3197   0.740   2.407   0.924
  766SOL    HW2 3198   0.716   2.323   0.785
  767SOL     OW 3199   6.172   5.679   2.566
  767SOL    HW1 3200   6.174   5.619   2.486
  767SOL    HW2 3201   6.093   5.740   2.559
  768SOL     OW 3202   3.037   6.717   2.105
  768SOL    HW1 3203   2.951   6.667   2.121
  768SOL    HW2 3204   3.021   6.792   2.041
  769SOL     OW 3205   3.310   0.471   4.323
  769SOL    HW1 3206   3.227   0.449   4.271
  769SOL    HW2 3207   3.379   0.401   4.305
  770SOL     OW 3208   1.552   4.512   2.915
  770SOL    HW1 3209   1.599   4.428   2.887
  770SOL    HW2 3210   1.558   4.580   2.842
  771SOL     OW 3211   2.138   5.668   2.534
  771SOL    HW1 3212   2.142   5.696   2.438
  771SOL    HW2 3213   2.162   5.572   2.541
  772SOL     OW 3214   6.956   5.301   0.559
  772SOL    HW1 3215   6.918   5.385   0.597
  772SOL    HW2 3216   6.990   5.243   0.633
  773SOL     OW 3217   0.060   4.094   3.225
  773SOL    HW1 3218   0.000   4.155   3.277
  773SOL    HW2 3219   0.070   4.007   3.273
  774SOL     OW 3220   1.220   1.126   2.437
  774SOL    HW1 3221   1.200   1.094   2.529
  774SOL    HW2 3222   1.267   1.214   2.441
  775SOL     OW 3223   0.784   1.766   3.268
  775SOL    HW1 3224   0.795   1.750   3.170
  775SOL    HW2 3225   0.775   1.864   3.285
  776SOL     OW 3226   6.357   1.078   5.547
  776SOL    HW1 3227   6.315   1.146   5.488
  776SOL    HW2 3228   6.409   1.124   5.620
  777SOL     OW 3229   3.294   6.149   1.178
  777SOL    HW1 3230   3.389   6.119   1.187
  777SOL    HW2 3231   3.269   6.152   1.081
  778SOL     OW 3232   3.667   1.300   3.048
  778SOL    HW1 3233   3.595   1.368   3.057
  778SOL    HW2 3234   3.657   1.253   2.960
  779SOL     OW 3235   0.639   2.044   2.561
  779SOL    HW1 3236   0.701   1.986   2.508
  779SOL    HW2 3237   0.623   2.130   2.512
  780SOL     OW 3238   6.586   3.941   4.087
  780SOL    HW1 3239   6.670   3.973   4.043
  780SOL    HW2 3240   6.594   3.844   4.109
  781SOL     OW 3241   5.114   2.037   6.612
  781SOL    HW1 3242   5.051   1.964   6.639
  781SOL    HW2 3243   5.207   2.001   6.608
  782SOL     OW 3244   0.516   3.387   0.343
  782SOL    HW1 3245   0.561   3.344   0.265
  782SOL    HW2 3246   0.435   3.333   0.369
  783SOL     OW 3247   3.557   4.910   0.996
  783SOL    HW1 3248   3.523   4.940   0.907
  783SOL    HW2 3249   3.601   4.821   0.988
  784SOL     OW 3250   5.270   6.670   6.514
  784SOL    HW1 3251   5.261   6.759   6.558
  784SOL    HW2 3252   5.246   6.598   6.578
  785SOL     OW 3253   6.514   2.430   3.159
  785SOL    HW1 3254   6.426   2.474   3.141
  785SOL    HW2 3255   6.564   2.481   3.229
  786SOL     OW 3256   1.537   1.512   1.424
  786SOL    HW1 3257   1.584   1.552   1.346
  786SOL    HW2 3258   1.584   1.539   1.508
  787SOL     OW 3259   3.059   1.376   6.544
  787SOL    HW1 3260   3.108   1.391   6.630
  787SOL    HW2 3261   2.976   1.432   6.544
  788SOL     OW 3262   2.780   1.915   4.910
  788SOL    HW1 3263   2.863   1.971   4.916
  788SOL    HW2 3264   2.712   1.949   4.975
  789SOL     OW 3265   5.069   3.944   0.766
  789SOL    HW1 3266   5.040   3.872   0.703
  789SOL    HW2 3267   5.161   3.974   0.743
  790SOL     OW 3268   2.794   1.002   3.746
  790SOL    HW1 3269   2.873   1.060   3.727
  790SOL    HW2 3270   2.793   0.977   3.843
  791SOL     OW 3271   3.432   6.611   3.055
  791SOL    HW1 3272   3.364   6.609   3.129
  791SOL    HW2 3273   3.501   6.680   3.074
  792SOL     OW 3274   0.474   0.315   1.662
  792SOL    HW1 3275   0.378   0.344   1.668
  792SOL    HW2 3276   0.487   0.259   1.581
  793SOL     OW 3277   4.552   6.308   2.616
  793SOL    HW1 3278   4.545   6.211   2.636
  793SOL    HW2 3279   4.489   6.359   2.674
  794SOL     OW 3280   2.969   3.442   4.683
  794SOL    HW1 3281   3.060   3.403   4.665
  794SOL    HW2 3282   2.916   3.378   4.738
  795SOL     OW 3283   3.556   5.771   4.788
  795SOL    HW1 3284   3.544   5.866   4.819
  795SOL    HW2 3285   3.640   5.734   4.826
  796SOL     OW 3286   1.185   2.215   6.756
  796SOL    HW1 3287   1.146   2.274   6.827
  796SOL    HW2 3288   1.133   2.130   6.752
  797SOL     OW 3289   4.907   2.499   2.464
  797SOL    HW1 3290   4.883   2.521   2.370
  797SOL    HW2 3291   4.918   2.400   2.473
  798SOL     OW 3292   5.298   7.009   1.426
  798SOL    HW1 3293   5.213   6.962   1.449
  798SOL    HW2 3294   5.322   6.991   1.331
  799SOL     OW 3295   6.045   1.407   4.333
  799SOL    HW1 3296   6.139   1.420   4.365
  799SOL    HW2 3297   5.995   1.493   4.339
  800SOL     OW 3298   5.473   1.328   2.178
  800SOL    HW1 3299   5.497   1.417   2.217
  800SOL    HW2 3300   5.538   1.259   2.210
  801SOL     OW 3301   1.853   3.196   3.503
  801SOL    HW1 3302   1.759   3.230   3.509
  801SOL    HW2 3303   1.881   3.191   3.407
  802SOL     OW 3304   4.192   0.184   0.714
  802SOL    HW1 3305   4.094   0.178   0.730
  802SOL    HW2 3306   4.214   0.271   0.670
  803SOL     OW 3307   0.633   5.755   4.866
  803SOL    HW1 3308   0.599   5.706   4.946
  803SOL    HW2 3309   0.619   5.699   4.784
  804SOL     OW 3310   6.168   6.036   6.636
  804SOL    HW1 3311   6.230   6.046   6.557
  804SOL    HW2 3312   6.073   6.038   6.605
  805SOL     OW 3313   3.385   2.012   5.464
  805SOL    HW1 3314   3.401   2.013   5.563
  805SOL    HW2 3315   3.334   2.094   5.438
  806SOL     OW 3316   4.534   1.028   4.525
  806SOL    HW1 3317   4.454   0.970   4.508
  806SOL    HW2 3318   4.505   1.113   4.568
  807SOL     OW 3319   0.381   1.872   3.877
  807SOL    HW1 3320   0.364   1.873   3.976
  807SOL    HW2 3321   0.294   1.860   3.829
  808SOL     OW 3322   4.719   3.681   6.377
  808SOL    HW1 3323   4.734   3.582   6.376
  808SOL    HW2 3324   4.710   3.712   6.472
  809SOL     OW 3325   0.910   4.709   1.408
  809SOL    HW1 3326   0.950   4.670   1.326
  809SOL    HW2 3327   0.814   4.732   1.391
  810SOL     OW 3328   3.554   2.584   1.094
  810SOL    HW1 3329   3.637   2.532   1.111
  810SOL    HW2 3330   3.488   2.527   1.045
  811SOL     OW 3331   4.337   5.777   4.376
  811SOL    HW1 3332   4.410   5.761   4.442
  811SOL    HW2 3333   4.301   5.689   4.344
  812SOL     OW 3334   1.017   1.292   1.979
  812SOL    HW1 3335   1.076   1.310   1.900
  812SOL    HW2 3336   0.921   1.298   1.950
  813SOL     OW 3337   3.789   5.055   4.804
  813SOL    HW1 3338   3.825   5.033   4.894
  813SOL    HW2 3339   3.822   5.145   4.775
  814SOL     OW 3340   5.546   6.213   3.605
  814SOL    HW1 3341   5.549   6.234   3.703
  814SOL    HW2 3342   5.614   6.142   3.584
  815SOL     OW 3343   6.855   3.012   2.741
  815SOL    HW1 3344   6.865   3.075   2.664
  815SOL    HW2 3345   6.758   2.991   2.755
  816SOL     OW 3346   6.777   6.559   0.363
  816SOL    HW1 3347   6.871   6.559   0.397
  816SOL    HW2 3348   6.779   6.548   0.263
  817SOL     OW 3349   2.339   3.835   1.822
  817SOL    HW1 3350   2.266   3.855   1.756
  817SOL    HW2 3351   2.410   3.780   1.778
  818SOL     OW 3352   6.381   3.311   1.701
  818SOL    HW1 3353   6.332   3.243   1.754
  818SOL    HW2 3354   6.452   3.353   1.757
  819SOL     OW 3355   5.775   3.291   3.351
  819SOL    HW1 3356   5.861   3.294   3.402
  819SOL    HW2 3357   5.754   3.383   3.316
  820SOL     OW 3358   2.367   2.656   6.822
  820SOL    HW1 3359   2.406   2.713   6.749
  820SOL    HW2 3360   2.390   2.696   6.911
  821SOL     OW 3361   2.439   4.604   0.512
  821SOL    HW1 3362   2.378   4.580   0.587
  821SOL    HW2 3363   2.422   4.699   0.484
  822SOL     OW 3364   0.967   4.599   4.555
  822SOL    HW1 3365   1.017   4.513   4.542
  822SOL    HW2 3366   0.997   4.665   4.487
  823SOL     OW 3367   4.941   4.261   0.131
  823SOL    HW1 3368   4.888   4.323   0.188
  823SOL    HW2 3369   4.950   4.300   0.039
  824SOL     OW 3370   5.287   0.744   5.322
  824SOL    HW1 3371   5.226   0.672   5.288
  824SOL    HW2 3372   5.351   0.769   5.250
  825SOL     OW 3373   1.340   3.747   1.542
  825SOL    HW1 3374   1.260   3.740   1.602
  825SOL    HW2 3375   1.400   3.669   1.558
  826SOL     OW 3376   5.672   3.293   0.312
  826SOL    HW1 3377   5.635   3.360   0.248
  826SOL    HW2 3378   5.661   3.201   0.274
  827SOL     OW 3379   3.432   5.854   6.262
  827SOL    HW1 3380   3.337   5.840   6.235
  827SOL    HW2 3381   3.438   5.932   6.324
  828SOL     OW 3382   6.029   0.217   5.913
  828SOL    HW1 3383   5.988   0.208   5.822
  828SOL    HW2 3384   6.077   0.305   5.920
  829SOL     OW 3385   3.016   3.641   3.823
  829SOL    HW1 3386   3.008   3.739   3.837
  829SOL    HW2 3387   2.990   3.618   3.729
  830SOL     OW 3388   5.059   4.875   6.568
  830SOL    HW1 3389   4.970   4.917   6.583
  830SOL    HW2 3390   5.131   4.939   6.596
  831SOL     OW 3391   6.372   1.248   5.202
  831SOL    HW1 3392   6.333   1.161   5.170
  831SOL    HW2 3393   6.369   1.314   5.127
  832SOL     OW 3394   2.244   0.733   1.038
  832SOL    HW1 3395   2.237   0.828   1.066
  832SOL    HW2 3396   2.164   0.708   0.983
  833SOL     OW 3397   0.336   4.759   6.050
  833SOL    HW1 3398   0.378   4.806   5.972
  833SOL    HW2 3399   0.399   4.759   6.127
  834SOL     OW 3400   3.217   3.726   1.252
  834SOL    HW1 3401   3.236   3.705   1.156
  834SOL    HW2 3402   3.150   3.661   1.288
  835SOL     OW 3403   3.536   6.804   3.950
  835SOL    HW1 3404   3.515   6.898   3.978
  835SOL    HW2 3405   3.598   6.805   3.872
  836SOL     OW 3406   3.423   6.869   6.951
  836SOL    HW1 3407   3.519   6.842   6.952
  836SOL    HW2 3408   3.413   6.959   6.993
  837SOL     OW 3409   5.181   6.548   0.155
  837SOL    HW1 3410   5.251   6.596   0.103
  837SOL    HW2 3411   5.135   6.612   0.216
  838SOL     OW 3412   1.159   0.709   4.970
  838SOL    HW1 3413   1.236   0.760   4.933
  838SOL    HW2 3414   1.160   0.615   4.935
  839SOL     OW 3415   2.555   2.360   2.004
  839SOL    HW1 3416   2.567   2.362   1.905
  839SOL    HW2 3417   2.629   2.307   2.046
  840SOL     OW 3418   6.156   0.053   6.095
  840SOL    HW1 3419   6.117   6.982   6.108
  840SOL    HW2 3420   6.101   0.102   6.027
  841SOL     OW 3421   5.374   4.845   0.475
  841SOL    HW1 3422   5.409   4.778   0.409
  841SOL    HW2 3423   5.284   4.877   0.446
  842SOL     OW 3424   4.418   5.076   4.518
  842SOL    HW1 3425   4.352   5.031   4.459
  842SOL    HW2 3426   4.439   5.017   4.596
  843SOL     OW 3427   4.221   1.882   6.596
  843SOL    HW1 3428   4.243   1.979   6.598
  843SOL    HW2 3429   4.304   1.829   6.613
  844SOL     OW 3430   4.409   6.859   1.010
  844SOL    HW1 3431   4.406   6.954   0.977
  844SOL    HW2 3432   4.486   6.849   1.073
  845SOL     OW 3433   6.259   3.460   4.637
  845SOL    HW1 3434   6.234   3.416   4.723
  845SOL    HW2 3435   6.241   3.398   4.561
  846SOL     OW 3436   4.143   2.087   7.008
  846SOL    HW1 3437   4.050   2.057   6.985
  846SOL    HW2 3438   4.194   2.010   0.026
  847SOL     OW 3439   6.983   3.391   0.114
  847SOL    HW1 3440   6.947   3.453   0.184
  847SOL    HW2 3441   0.035   3.437   0.063
  848SOL     OW 3442   6.429   1.667   6.546
  848SOL    HW1 3443   6.522   1.637   6.524
  848SOL    HW2 3444   6.414   1.662   6.645
  849SOL     OW 3445   1.403   4.389   6.084
  849SOL    HW1 3446   1.366   4.403   6.176
  849SOL    HW2 3447   1.336   4.339   6.028
  850SOL     OW 3448   5.288   1.051   3.385
  850SOL    HW1 3449   5.276   1.146   3.416
  850SOL    HW2 3450   5.381   1.022   3.404
  851SOL     OW 3451   0.180   1.731   1.913
  851SOL    HW1 3452   0.083   1.729   1.890
  851SOL    HW2 3453   0.215   1.638   1.922
  852SOL     OW 3454   2.348   2.963   0.518
  852SOL    HW1 3455   2.273   3.015   0.477
  852SOL    HW2 3456   2.427   2.965   0.456
  853SOL     OW 3457   1.466   3.801   2.152
  853SOL    HW1 3458   1.540   3.736   2.167
  853SOL    HW2 3459   1.504   3.894   2.146
  854SOL     OW 3460   4.756   5.733   2.380
  854SOL    HW1 3461   4.769   5.634   2.378
  854SOL    HW2 3462   4.840   5.777   2.412
  855SOL     OW 3463   6.516   6.962   0.999
  855SOL    HW1 3464   6.436   6.982   1.055
  855SOL    HW2 3465   6.520   0.003   0.921
  856SOL     OW 3466   1.600   1.539   4.854
  856SOL    HW1 3467   1.577   1.497   4.767
  856SOL    HW2 3468   1.680   1.599   4.841
  857SOL     OW 3469   6.021   5.129   1.462
  857SOL    HW1 3470   5.976   5.172   1.540
  857SOL    HW2 3471   6.103   5.080   1.493
  858SOL     OW 3472   2.194   4.289   1.371
  858SOL    HW1 3473   2.228   4.198   1.396
  858SOL    HW2 3474   2.105   4.280   1.326
  859SOL     OW 3475   4.947   5.180   6.713
  859SOL    HW1 3476   5.047   5.175   6.708
  859SOL    HW2 3477   4.921   5.258   6.770
  860SOL     OW 3478   4.288   4.219   1.178
  860SOL    HW1 3479   4.291   4.221   1.277
  860SOL    HW2 3480   4.378   4.193   1.142
  861SOL     OW 3481   2.716   0.190   4.655
  861SOL    HW1 3482   2.755   0.258   4.718
  861SOL    HW2 3483   2.619   0.179   4.674
  862SOL     OW 3484   6.805   4.719   5.481
  862SOL    HW1 3485   6.859   4.763   5.409
  862SOL    HW2 3486   6.867   4.672   5.544
  863SOL     OW 3487   1.092   0.549   0.880
  863SOL    HW1 3488   1.191   0.539   0.881
  863SOL    HW2 3489   1.055   0.517   0.793
  864SOL     OW 3490   4.985   4.773   3.654
  864SOL    HW1 3491   4.911   4.803   3.714
  864SOL    HW2 3492   5.073   4.785   3.701
  865SOL     OW 3493   1.852   6.472   5.368
  865SOL    HW1 3494   1.811   6.415   5.439
  865SOL    HW2 3495   1.781   6.512   5.311
  866SOL     OW 3496   1.832   2.848   1.230
  866SOL    HW1 3497   1.807   2.944   1.222
  866SOL    HW2 3498   1.925   2.835   1.196
  867SOL     OW 3499   3.881   2.669   0.953
  867SOL    HW1 3500   3.862   2.573   0.934
  867SOL    HW2 3501   3.797   2.722   0.947
  868SOL     OW 3502   5.609   6.379   1.463
  868SOL    HW1 3503   5.643   6.360   1.371
  868SOL    HW2 3504   5.666   6.331   1.530
  869SOL     OW 3505   0.056   5.307   2.853
  869SOL    HW1 3506   0.077   5.383   2.915
  869SOL    HW2 3507   6.977   5.299   2.845
  870SOL     OW 3508   5.981   3.722   0.501
  870SOL    HW1 3509   6.003   3.637   0.548
  870SOL    HW2 3510   5.905   3.768   0.549
  871SOL     OW 3511   6.559   3.458   1.921
  871SOL    HW1 3512   6.547   3.541   1.867
  871SOL    HW2 3513   6.576   3.483   2.016
  872SOL     OW 3514   6.414   4.243   3.968
  872SOL    HW1 3515   6.503   4.269   3.931
  872SOL    HW2 3516   6.400   4.145   3.955
  873SOL     OW 3517   4.760   0.014   3.940
  873SOL    HW1 3518   4.829   0.086   3.950
  873SOL    HW2 3519   4.799   6.958   3.890
  874SOL     OW 3520   1.526   4.169   5.526
  874SOL    HW1 3521   1.569   4.258   5.540
  874SOL    HW2 3522   1.518   4.151   5.428
  875SOL     OW 3523   4.773   3.598   1.250
  875SOL    HW1 3524   4.688   3.646   1.270
  875SOL    HW2 3525   4.847   3.665   1.239
  876SOL     OW 3526   0.124   5.386   3.627
  876SOL    HW1 3527   0.086   5.295   3.614
  876SOL    HW2 3528   0.080   5.449   3.562
  877SOL     OW 3529   3.736   4.385   6.573
  877SOL    HW1 3530   3.732   4.472   6.622
  877SOL    HW2 3531   3.770   4.314   6.635
  878SOL     OW 3532   4.295   5.936   6.421
  878SOL    HW1 3533   4.366   5.870   6.396
  878SOL    HW2 3534   4.205   5.892   6.416
  879SOL     OW 3535   3.440   1.998   2.464
  879SOL    HW1 3536   3.446   2.010   2.366
  879SOL    HW2 3537   3.344   1.987   2.491
  880SOL     OW 3538   2.984   5.079   0.015
  880SOL    HW1 3539   2.982   5.179   0.025
  880SOL    HW2 3540   3.061   5.053   6.978
  881SOL     OW 3541   4.192   4.579   5.337
  881SOL    HW1 3542   4.250   4.527   5.274
  881SOL    HW2 3543   4.153   4.517   5.405
  882SOL     OW 3544   1.933   1.123   3.747
  882SOL    HW1 3545   1.902   1.213   3.777
  882SOL    HW2 3546   1.887   1.099   3.662
  883SOL     OW 3547   4.879   5.220   5.130
  883SOL    HW1 3548   4.831   5.271   5.201
  883SOL    HW2 3549   4.948   5.280   5.087
  884SOL     OW 3550   6.992   4.029   2.095
  884SOL    HW1 3551   0.042   4.049   2.163
  884SOL    HW2 3552   6.909   4.000   2.141
  885SOL     OW 3553   5.363   5.935   6.856
  885SOL    HW1 3554   5.306   5.952   6.937
  885SOL    HW2 3555   5.459   5.930   6.884
  886SOL     OW 3556   4.321   0.703   0.212
  886SOL    HW1 3557   4.305   0.652   0.128
  886SOL    HW2 3558   4.276   0.792   0.206
  887SOL     OW 3559   4.414   6.469   5.407
  887SOL    HW1 3560   4.363   6.441   5.325
  887SOL    HW2 3561   4.479   6.398   5.432
  888SOL     OW 3562   6.358   6.629   3.390
  888SOL    HW1 3563   6.442   6.600   3.436
  888SOL    HW2 3564   6.303   6.549   3.366
  889SOL     OW 3565   0.526   6.591   6.019
  889SOL    HW1 3566   0.437   6.553   6.043
  889SOL    HW2 3567   0.566   6.635   6.099
  890SOL     OW 3568   2.641   4.840   2.102
  890SOL    HW1 3569   2.691   4.762   2.064
  890SOL    HW2 3570   2.687   4.872   2.185
  891SOL     OW 3571   5.578   3.888   1.211
  891SOL    HW1 3572   5.586   3.829   1.290
  891SOL    HW2 3573   5.524   3.969   1.235
  892SOL     OW 3574   3.818   3.929   0.398
  892SOL    HW1 3575   3.810   3.847   0.455
  892SOL    HW2 3576   3.822   4.010   0.457
  893SOL     OW 3577   2.289   0.738   1.568
  893SOL    HW1 3578   2.215   0.719   1.503
  893SOL    HW2 3579   2.270   0.825   1.614
  894SOL     OW 3580   2.195   4.035   4.103
  894SOL    HW1 3581   2.139   3.956   4.077
  894SOL    HW2 3582   2.214   4.031   4.201
  895SOL     OW 3583   2.177   6.228   4.897
  895SOL    HW1 3584   2.097   6.210   4.839
  895SOL    HW2 3585   2.150   6.282   4.976
  896SOL     OW 3586   5.023   5.587   2.973
  896SOL    HW1 3587   5.022   5.658   3.044
  896SOL    HW2 3588   5.023   5.630   2.883
  897SOL     OW 3589   4.686   1.236   0.524
  897SOL    HW1 3590   4.716   1.298   0.451
  897SOL    HW2 3591   4.658   1.289   0.604
  898SOL     OW 3592   4.356   6.048   3.818
  898SOL    HW1 3593   4.325   6.116   3.885
  898SOL    HW2 3594   4.305   5.963   3.831
  899SOL     OW 3595   0.482   5.273   0.022
  899SOL    HW1 3596   0.401   5.329   0.038
  899SOL    HW2 3597   0.505   5.274   6.946
  900SOL     OW 3598   5.208   5.709   1.572
  900SOL    HW1 3599   5.161   5.655   1.642
  900SOL    HW2 3600   5.157   5.793   1.554
  901SOL     OW 3601   6.915   1.397   4.862
  901SOL    HW1 3602   6.935   1.301   4.880
  901SOL    HW2 3603   6.875   1.405   4.770
  902SOL     OW 3604   0.364   1.515   6.213
  902SOL    HW1 3605   0.326   1.568   6.288
  902SOL    HW2 3606   0.351   1.417   6.231
  903SOL     OW 3607   6.675   4.742   6.919
  903SOL    HW1 3608   6.605   4.787   6.974
  903SOL    HW2 3609   6.634   4.666   6.868
  904SOL     OW 3610   1.811   2.116   4.280
  904SOL    HW1 3611   1.729   2.169   4.299
  904SOL    HW2 3612   1.892   2.176   4.288
  905SOL     OW 3613   5.004   2.900   6.671
  905SOL    HW1 3614   5.017   2.887   6.573
  905SOL    HW2 3615   5.074   2.963   6.705
  906SOL     OW 3616   0.429   3.790   6.344
  906SOL    HW1 3617   0.347   3.753   6.388
  906SOL    HW2 3618   0.510   3.746   6.381
  907SOL     OW 3619   6.002   2.672   3.406
  907SOL    HW1 3620   5.940   2.639   3.477
  907SOL    HW2 3621   5.951   2.729   3.342
  908SOL     OW 3622   1.222   6.961   4.255
  908SOL    HW1 3623   1.238   0.039   4.248
  908SOL    HW2 3624   1.284   6.913   4.192
  909SOL     OW 3625   2.398   1.273   0.962
  909SOL    HW1 3626   2.493   1.305   0.971
  909SOL    HW2 3627   2.349   1.293   1.047
  910SOL     OW 3628   2.336   0.662   0.782
  910SOL    HW1 3629   2.297   0.671   0.874
  910SOL    HW2 3630   2.339   0.752   0.738
  911SOL     OW 3631   0.040   5.321   1.092
  911SOL    HW1 3632   0.020   5.359   1.002
  911SOL    HW2 3633   0.073   5.394   1.152
  912SOL     OW 3634   7.020   0.717   5.571
  912SOL    HW1 3635   6.985   0.644   5.512
  912SOL    HW2 3636   6.947   0.783   5.590
  913SOL     OW 3637   2.208   0.851   3.218
  913SOL    HW1 3638   2.272   0.856   3.141
  913SOL    HW2 3639   2.252   0.805   3.295
  914SOL     OW 3640   2.843   5.649   5.354
  914SOL    HW1 3641   2.872   5.717   5.421
  914SOL    HW2 3642   2.923   5.606   5.313
  915SOL     OW 3643   0.592   3.474   1.078
  915SOL    HW1 3644   0.648   3.415   1.137
  915SOL    HW2 3645   0.637   3.483   0.989
  916SOL     OW 3646   1.422   2.378   2.322
  916SOL    HW1 3647   1.349   2.408   2.383
  916SOL    HW2 3648   1.435   2.447   2.250
  917SOL     OW 3649   3.875   0.585   1.509
  917SOL    HW1 3650   3.877   0.488   1.486
  917SOL    HW2 3651   3.941   0.603   1.582
  918SOL     OW 3652   2.956   6.267   0.181
  918SOL    HW1 3653   2.948   6.274   0.081
  918SOL    HW2 3654   2.873   6.303   0.223
  919SOL     OW 3655   1.858   6.280   1.771
  919SOL    HW1 3656   1.808   6.335   1.839
  919SOL    HW2 3657   1.827   6.305   1.679
  920SOL     OW 3658   2.409   0.427   3.453
  920SOL    HW1 3659   2.483   0.445   3.517
  920SOL    HW2 3660   2.339   0.372   3.498
  921SOL     OW 3661   4.675   4.876   3.625
  921SOL    HW1 3662   4.702   4.927   3.544
  921SOL    HW2 3663   4.666   4.779   3.602
  922SOL     OW 3664   3.375   2.904   6.616
  922SOL    HW1 3665   3.470   2.933   6.613
  922SOL    HW2 3666   3.317   2.980   6.646
  923SOL     OW 3667   3.397   6.072   0.656
  923SOL    HW1 3668   3.308   6.029   0.671
  923SOL    HW2 3669   3.469   6.003   0.662
  924SOL     OW 3670   5.263   3.541   2.638
  924SOL    HW1 3671   5.165   3.546   2.618
  924SOL    HW2 3672   5.286   3.448   2.668
  925SOL     OW 3673   0.091   1.687   5.269
  925SOL    HW1 3674   0.116   1.660   5.362
  925SOL    HW2 3675   0.140   1.770   5.244
  926SOL     OW 3676   6.039   0.982   6.843
  926SOL    HW1 3677   5.987   0.978   6.928
  926SOL    HW2 3678   6.017   0.902   6.786
  927SOL     OW 3679   4.779   4.007   4.055
  927SOL    HW1 3680   4.782   3.938   3.983
  927SOL    HW2 3681   4.781   3.963   4.144
  928SOL     OW 3682   1.744   0.734   0.850
  928SOL    HW1 3683   1.662   0.698   0.895
  928SOL    HW2 3684   1.749   0.833   0.865
  929SOL     OW 3685   6.790   2.480   1.092
  929SOL    HW1 3686   6.782   2.573   1.128
  929SOL    HW2 3687   6.709   2.458   1.038
  930SOL     OW 3688   0.107   5.893   4.836
  930SOL    HW1 3689   0.205   5.876   4.849
  930SOL    HW2 3690   0.086   5.987   4.859
  931SOL     OW 3691   0.184   3.628   3.360
  931SOL    HW1 3692   0.133   3.714   3.358
  931SOL    HW2 3693   0.130   3.556   3.315
  932SOL     OW 3694   2.953   6.346   1.496
  932SOL    HW1 3695   2.965   6.423   1.558
  932SOL    HW2 3696   3.042   6.313   1.466
  933SOL     OW 3697   0.869   5.130   1.908
  933SOL    HW1 3698   0.913   5.219   1.926
  933SOL    HW2 3699   0.832   5.093   1.993
  934SOL     OW 3700   2.655   1.042   4.656
  934SOL    HW1 3701   2.657   1.097   4.739
  934SOL    HW2 3702   2.672   1.101   4.576
  935SOL     OW 3703   4.817   3.227   5.702
  935SOL    HW1 3704   4.734   3.273   5.672
  935SOL    HW2 3705   4.894   3.256   5.645
  936SOL     OW 3706   0.857   0.278   6.524
  936SOL    HW1 3707   0.802   0.209   6.478
  936SOL    HW2 3708   0.920   0.234   6.588
  937SOL     OW 3709   4.829   2.237   5.450
  937SOL    HW1 3710   4.893   2.161   5.442
  937SOL    HW2 3711   4.764   2.220   5.524
  938SOL     OW 3712   0.036   4.822   5.758
  938SOL    HW1 3713   0.039   4.722   5.747
  938SOL    HW2 3714   0.028   4.843   5.856
  939SOL     OW 3715   4.947   1.339   5.500
  939SOL    HW1 3716   4.923   1.420   5.447
  939SOL    HW2 3717   5.039   1.350   5.539
  940SOL     OW 3718   6.753   2.032   2.914
  940SOL    HW1 3719   6.795   2.119   2.937
  940SOL    HW2 3720   6.658   2.046   2.887
  941SOL     OW 3721   6.208   0.909   4.307
  941SOL    HW1 3722   6.133   0.867   4.357
  941SOL    HW2 3723   6.288   0.849   4.310
  942SOL     OW 3724   5.079   1.050   4.835
  942SOL    HW1 3725   5.038   1.000   4.911
  942SOL    HW2 3726   5.021   1.045   4.755
  943SOL     OW 3727   0.691   3.256   2.828
  943SOL    HW1 3728   0.637   3.176   2.854
  943SOL    HW2 3729   0.788   3.236   2.843
  944SOL     OW 3730   6.394   3.496   6.193
  944SOL    HW1 3731   6.494   3.498   6.191
  944SOL    HW2 3732   6.363   3.451   6.276
  945SOL     OW 3733   5.979   4.588   5.262
  945SOL    HW1 3734   5.889   4.619   5.290
  945SOL    HW2 3735   6.039   4.667   5.248
  946SOL     OW 3736   6.061   2.639   6.536
  946SOL    HW1 3737   5.972   2.664   6.499
  946SOL    HW2 3738   6.101   2.565   6.481
  947SOL     OW 3739   2.937   3.380   5.362
  947SOL    HW1 3740   2.916   3.332   5.277
  947SOL    HW2 3741   2.892   3.332   5.438
  948SOL     OW 3742   4.241   0.989   1.052
  948SOL    HW1 3743   4.205   0.903   1.017
  948SOL    HW2 3744   4.171   1.036   1.105
  949SOL     OW 3745   6.477   6.180   6.206
  949SOL    HW1 3746   6.499   6.244   6.279
  949SOL    HW2 3747   6.561   6.148   6.162
  950SOL     OW 3748   4.386   5.044   2.562
  950SOL    HW1 3749   4.464   5.099   2.534
  950SOL    HW2 3750   4.412   4.947   2.564
  951SOL     OW 3751   2.237   0.713   2.032
  951SOL    HW1 3752   2.219   0.685   2.126
  951SOL    HW2 3753   2.327   0.757   2.027
  952SOL     OW 3754   5.690   1.514   2.177
  952SOL    HW1 3755   5.646   1.531   2.089
  952SOL    HW2 3756   5.789   1.524   2.167
  953SOL     OW 3757   4.889   5.954   5.732
  953SOL    HW1 3758   4.976   5.994   5.760
  953SOL    HW2 3759   4.890   5.936   5.634
  954SOL     OW 3760   5.340   6.906   0.945
  954SOL    HW1 3761   5.296   6.818   0.928
  954SOL    HW2 3762   5.326   6.966   0.867
  955SOL     OW 3763   0.946   5.111   3.448
  955SOL    HW1 3764   1.026   5.053   3.431
  955SOL    HW2 3765   0.973   5.208   3.441
  956SOL     OW 3766   1.011   1.797   1.911
  956SOL    HW1 3767   1.070   1.722   1.880
  956SOL    HW2 3768   0.916   1.766   1.914
  957SOL     OW 3769   1.442   4.607   4.998
  957SOL    HW1 3770   1.530   4.561   4.987
  957SOL    HW2 3771   1.420   4.615   5.095
  958SOL     OW 3772   4.824   2.575   1.261
  958SOL    HW1 3773   4.781   2.530   1.182
  958SOL    HW2 3774   4.756   2.629   1.310
  959SOL     OW 3775   3.018   4.913   3.026
  959SOL    HW1 3776   3.011   4.874   2.934
  959SOL    HW2 3777   2.993   5.009   3.024
  960SOL     OW 3778   0.474   5.879   3.913
  960SOL    HW1 3779   0.443   5.786   3.931
  960SOL    HW2 3780   0.531   5.910   3.990
  961SOL     OW 3781   4.802   6.223   3.255
  961SOL    HW1 3782   4.747   6.294   3.300
  961SOL    HW2 3783   4.812   6.144   3.317
  962SOL     OW 3784   1.570   1.037   3.618
  962SOL    HW1 3785   1.655   1.056   3.569
  962SOL    HW2 3786   1.580   1.065   3.713
  963SOL     OW 3787   5.810   0.647   0.201
  963SOL    HW1 3788   5.786   0.556   0.232
  963SOL    HW2 3789   5.899   0.644   0.154
  964SOL     OW 3790   6.253   3.562   0.789
  964SOL    HW1 3791   6.162   3.544   0.752
  964SOL    HW2 3792   6.249   3.640   0.851
  965SOL     OW 3793   5.882   1.877   0.705
  965SOL    HW1 3794   5.820   1.798   0.698
  965SOL    HW2 3795   5.952   1.870   0.634
  966SOL     OW 3796   6.351   1.363   2.407
  966SOL    HW1 3797   6.379   1.447   2.454
  966SOL    HW2 3798   6.385   1.364   2.313
  967SOL     OW 3799   1.590   5.122   0.589
  967SOL    HW1 3800   1.610   5.192   0.658
  967SOL    HW2 3801   1.496   5.090   0.602
  968SOL     OW 3802   4.504   2.411   2.233
  968SOL    HW1 3803   4.499   2.311   2.230
  968SOL    HW2 3804   4.490   2.448   2.141
  969SOL     OW 3805   3.699   6.045   6.094
  969SOL    HW1 3806   3.723   5.955   6.058
  969SOL    HW2 3807   3.670   6.105   6.019
  970SOL     OW 3808   4.870   1.342   4.809
  970SOL    HW1 3809   4.877   1.327   4.908
  970SOL    HW2 3810   4.775   1.357   4.784
  971SOL     OW 3811   0.469   1.571   2.930
  971SOL    HW1 3812   0.401   1.580   3.003
  971SOL    HW2 3813   0.432   1.605   2.844
  972SOL     OW 3814   5.619   4.063   0.934
  972SOL    HW1 3815   5.699   4.031   0.882
  972SOL    HW2 3816   5.629   4.036   1.030
  973SOL     OW 3817   0.075   4.848   6.071
  973SOL    HW1 3818   0.170   4.828   6.048
  973SOL    HW2 3819   0.072   4.907   6.152
  974SOL     OW 3820   4.100   0.533   2.032
  974SOL    HW1 3821   4.024   0.496   1.978
  974SOL    HW2 3822   4.173   0.561   1.970
  975SOL     OW 3823   1.908   5.898   6.605
  975SOL    HW1 3824   1.907   5.953   6.688
  975SOL    HW2 3825   1.843   5.822   6.614
  976SOL     OW 3826   6.239   3.004   2.780
  976SOL    HW1 3827   6.255   3.103   2.772
  976SOL    HW2 3828   6.289   2.956   2.708
  977SOL     OW 3829   2.402   1.299   3.914
  977SOL    HW1 3830   2.343   1.219   3.926
  977SOL    HW2 3831   2.347   1.382   3.916
  978SOL     OW 3832   4.926   4.043   5.285
  978SOL    HW1 3833   4.908   4.086   5.197
  978SOL    HW2 3834   4.866   3.963   5.296
  979SOL     OW 3835   6.618   1.278   3.110
  979SOL    HW1 3836   6.611   1.300   3.208
  979SOL    HW2 3837   6.656   1.356   3.061
  980SOL     OW 3838   4.985   1.701   3.599
  980SOL    HW1 3839   4.998   1.759   3.680
  980SOL    HW2 3840   4.888   1.683   3.586
  981SOL     OW 3841   1.410   1.348   5.010
  981SOL    HW1 3842   1.443   1.375   4.919
  981SOL    HW2 3843   1.488   1.332   5.070
  982SOL     OW 3844   2.156   2.546   3.464
  982SOL    HW1 3845   2.063   2.547   3.502
  982SOL    HW2 3846   2.201   2.633   3.485
  983SOL     OW 3847   5.681   2.944   3.488
  983SOL    HW1 3848   5.779   2.960   3.500
  983SOL    HW2 3849   5.660   2.848   3.510
  984SOL     OW 3850   3.819   0.582   5.063
  984SOL    HW1 3851   3.856   0.539   5.146
  984SOL    HW2 3852   3.822   0.516   4.988
  985SOL     OW 3853   5.183   4.643   6.659
  985SOL    HW1 3854   5.156   4.738   6.677
  985SOL    HW2 3855   5.276   4.629   6.692
  986SOL     OW 3856   5.322   5.618   0.030
  986SOL    HW1 3857   5.305   5.561   0.110
  986SOL    HW2 3858   5.360   5.561   6.978
  987SOL     OW 3859   4.222   6.178   1.049
  987SOL    HW1 3860   4.225   6.277   1.056
  987SOL    HW2 3861   4.197   6.138   1.137
  988SOL     OW 3862   3.884   2.649   1.696
  988SOL    HW1 3863   3.895   2.720   1.626
  988SOL    HW2 3864   3.793   2.657   1.737
  989SOL     OW 3865   0.690   0.851   5.781
  989SOL    HW1 3866   0.623   0.863   5.854
  989SOL    HW2 3867   0.666   0.910   5.704
  990SOL     OW 3868   4.594   0.425   3.363
  990SOL    HW1 3869   4.531   0.497   3.333
  990SOL    HW2 3870   4.660   0.463   3.428
  991SOL     OW 3871   1.627   1.869   5.267
  991SOL    HW1 3872   1.555   1.819   5.219
  991SOL    HW2 3873   1.634   1.962   5.231
  992SOL     OW 3874   0.795   3.449   1.285
  992SOL    HW1 3875   0.783   3.525   1.348
  992SOL    HW2 3876   0.874   3.466   1.226
  993SOL     OW 3877   1.839   5.369   2.181
  993SOL    HW1 3878   1.797   5.357   2.271
  993SOL    HW2 3879   1.829   5.464   2.151
  994SOL     OW 3880   3.755   3.716   2.722
  994SOL    HW1 3881   3.744   3.617   2.721
  994SOL    HW2 3882   3.848   3.739   2.751
  995SOL     OW 3883   2.823   2.017   6.166
  995SOL    HW1 3884   2.794   1.927   6.132
  995SOL    HW2 3885   2.878   2.005   6.249
  996SOL     OW 3886   1.895   4.082   3.825
  996SOL    HW1 3887   1.961   4.115   3.757
  996SOL    HW2 3888   1.802   4.090   3.788
  997SOL     OW 3889   6.411   0.303   1.105
  997SOL    HW1 3890   6.334   0.367   1.093
  997SOL    HW2 3891   6.380   0.224   1.157
  998SOL     OW 3892   4.605   6.926   4.147
  998SOL    HW1 3893   4.656   6.841   4.161
  998SOL    HW2 3894   4.649   6.980   4.075
  999SOL     OW 3895   5.520   5.264   0.954
  999SOL    HW1 3896   5.549   5.196   0.887
  999SOL    HW2 3897   5.592   5.278   1.022
 1000SOL     OW 3898   1.233   0.573   2.402
 1000SOL    HW1 3899   1.193   0.665   2.399
 1000SOL    HW2 3900   1.268   0.554   2.493
 1001SOL     OW 3901   5.344   6.639   6.987
 1001SOL    HW1 3902   5.304   6.658   6.897
 1001SOL    HW2 3903   5.440   6.613   6.977
 1002SOL     OW 3904   5.776   1.852   6.821
 1002SOL    HW1 3905   5.702   1.819   6.762
 1002SOL    HW2 3906   5.764   1.949   6.840
 1003SOL     OW 3907   2.499   6.823   1.785
 1003SOL    HW1 3908   2.490   6.909   1.735
 1003SOL    HW2 3909   2.410   6.779   1.792
 1004SOL     OW 3910   6.743   0.650   0.939
 1004SOL    HW1 3911   6.731   0.580   1.010
 1004SOL    HW2 3912   6.658   0.702   0.929
 1005SOL     OW 3913   0.125   1.406   3.245
 1005SOL    HW1 3914   0.159   1.331   3.301
 1005SOL    HW2 3915   0.124   1.379   3.149
 1006SOL     OW 3916   1.809   6.341   1.516
 1006SOL    HW1 3917   1.711   6.325   1.508
 1006SOL    HW2 3918   1.857   6.289   1.445
 1007SOL     OW 3919   5.977   0.054   3.952
 1007SOL    HW1 3920   5.994   0.067   3.855
 1007SOL    HW2 3921   6.020   6.990   3.983
 1008SOL     OW 3922   1.597   2.914   4.555
 1008SOL    HW1 3923   1.634   2.871   4.637
 1008SOL    HW2 3924   1.619   2.859   4.475
 1009SOL     OW 3925   0.221   5.988   3.865
 1009SOL    HW1 3926   0.319   5.971   3.872
 1009SOL    HW2 3927   0.204   6.069   3.809
 1010SOL     OW 3928   3.681   2.002   6.411
 1010SOL    HW1 3929   3.740   2.074   6.446
 1010SOL    HW2 3930   3.588   2.038   6.400
 1011SOL     OW 3931   2.682   5.284   2.593
 1011SOL    HW1 3932   2.684   5.197   2.641
 1011SOL    HW2 3933   2.598   5.289   2.538
 1012SOL     OW 3934   6.603   6.035   0.058
 1012SOL    HW1 3935   6.665   5.997   7.010
 1012SOL    HW2 3936   6.651   6.108   0.109
 1013SOL     OW 3937   0.169   0.965   6.303
 1013SOL    HW1 3938   0.146   1.018   6.385
 1013SOL    HW2 3939   0.264   0.936   6.308
 1014SOL     OW 3940   4.926   5.358   6.902
 1014SOL    HW1 3941   5.010   5.407   6.880
 1014SOL    HW2 3942   4.850   5.396   6.848
 1015SOL     OW 3943   2.069   6.662   5.360
 1015SOL    HW1 3944   2.007   6.587   5.383
 1015SOL    HW2 3945   2.019   6.749   5.366
 1016SOL     OW 3946   2.400   3.481   0.546
 1016SOL    HW1 3947   2.307   3.516   0.558
 1016SOL    HW2 3948   2.401   3.414   0.472
 1017SOL     OW 3949   4.696   2.579   0.787
 1017SOL    HW1 3950   4.640   2.529   0.721
 1017SOL    HW2 3951   4.678   2.677   0.779
 1018SOL     OW 3952   1.874   3.510   3.957
 1018SOL    HW1 3953   1.967   3.545   3.945
 1018SOL    HW2 3954   1.858   3.436   3.891
 1019SOL     OW 3955   1.474   0.955   0.382
 1019SOL    HW1 3956   1.537   0.895   0.432
 1019SOL    HW2 3957   1.405   0.991   0.444
 1020SOL     OW 3958   1.318   6.967   1.038
 1020SOL    HW1 3959   1.343   6.904   0.965
 1020SOL    HW2 3960   1.399   6.993   1.090
 1021SOL     OW 3961   6.013   0.423   0.479
 1021SOL    HW1 3962   5.913   0.423   0.482
 1021SOL    HW2 3963   6.045   0.369   0.401
 1022SOL     OW 3964   4.086   4.207   6.136
 1022SOL    HW1 3965   4.021   4.243   6.069
 1022SOL    HW2 3966   4.047   4.217   6.228
 1023SOL     OW 3967   6.054   7.017   2.500
 1023SOL    HW1 3968   6.152   7.016   2.522
 1023SOL    HW2 3969   6.038   0.055   2.422
 1024SOL     OW 3970   6.216   3.258   4.017
 1024SOL    HW1 3971   6.126   3.230   3.985
 1024SOL    HW2 3972   6.207   3.313   4.100
 1025SOL     OW 3973   3.480   3.870   0.052
 1025SOL    HW1 3974   3.455   3.836   0.143
 1025SOL    HW2 3975   3.570   3.914   0.057
 1026SOL     OW 3976   1.612   2.026   1.069
 1026SOL    HW1 3977   1.566   2.022   0.980
 1026SOL    HW2 3978   1.656   2.115   1.080
 1027SOL     OW 3979   2.622   6.396   1.060
 1027SOL    HW1 3980   2.634   6.337   0.981
 1027SOL    HW2 3981   2.692   6.468   1.058
 1028SOL     OW 3982   3.792   5.799   0.285
 1028SOL    HW1 3983   3.709   5.827   0.238
 1028SOL    HW2 3984   3.775   5.796   0.384
 1029SOL     OW 3985   1.596   0.396   0.519
 1029SOL    HW1 3986   1.599   0.303   0.484
 1029SOL    HW2 3987   1.648   0.402   0.604
 1030SOL     OW 3988   3.604   2.802   2.171
 1030SOL    HW1 3989   3.686   2.745   2.181
 1030SOL    HW2 3990   3.568   2.793   2.079
 1031SOL     OW 3991   4.989   5.357   0.327
 1031SOL    HW1 3992   4.933   5.277   0.350
 1031SOL    HW2 3993   5.080   5.327   0.301
 1032SOL     OW 3994   1.864   1.793   4.570
 1032SOL    HW1 3995   1.863   1.768   4.667
 1032SOL    HW2 3996   1.849   1.711   4.515
 1033SOL     OW 3997   1.181   6.798   1.762
 1033SOL    HW1 3998   1.136   6.865   1.820
 1033SOL    HW2 3999   1.280   6.808   1.770
 1034SOL     OW 4000   1.596   6.049   4.897
 1034SOL    HW1 4001   1.537   5.972   4.921
 1034SOL    HW2 4002   1.570   6.130   4.949
 1035SOL     OW 4003   2.646   1.472   3.636
 1035SOL    HW1 4004   2.689   1.535   3.572
 1035SOL    HW2 4005   2.552   1.500   3.654
 1036SOL     OW 4006   3.080   0.226   1.377
 1036SOL    HW1 4007   2.986   0.258   1.385
 1036SOL    HW2 4008   3.087   0.134   1.416
 1037SOL     OW 4009   1.390   1.369   1.622
 1037SOL    HW1 4010   1.413   1.439   1.554
 1037SOL    HW2 4011   1.300   1.389   1.661
 1038SOL     OW 4012   1.066   1.010   5.486
 1038SOL    HW1 4013   1.000   0.934   5.492
 1038SOL    HW2 4014   1.148   0.979   5.438
 1039SOL     OW 4015   4.171   2.731   5.604
 1039SOL    HW1 4016   4.150   2.789   5.683
 1039SOL    HW2 4017   4.146   2.779   5.520
 1040SOL     OW 4018   5.258   2.815   2.631
 1040SOL    HW1 4019   5.300   2.836   2.543
 1040SOL    HW2 4020   5.276   2.888   2.696
 1041SOL     OW 4021   6.585   6.803   4.365
 1041SOL    HW1 4022   6.627   6.724   4.321
 1041SOL    HW2 4023   6.616   6.887   4.320
 1042SOL     OW 4024   3.138   4.992   2.231
 1042SOL    HW1 4025   3.044   4.960   2.225
 1042SOL    HW2 4026   3.164   5.003   2.327
 1043SOL     OW 4027   4.627   1.253   5.424
 1043SOL    HW1 4028   4.601   1.343   5.389
 1043SOL    HW2 4029   4.623   1.254   5.524
 1044SOL     OW 4030   4.245   3.298   1.791
 1044SOL    HW1 4031   4.268   3.211   1.748
 1044SOL    HW2 4032   4.215   3.283   1.885
 1045SOL     OW 4033   2.694   6.691   1.637
 1045SOL    HW1 4034   2.611   6.714   1.689
 1045SOL    HW2 4035   2.775   6.714   1.692
 1046SOL     OW 4036   2.021   0.199   0.040
 1046SOL    HW1 4037   2.107   0.162   0.005
 1046SOL    HW2 4038   1.953   0.126   0.045
 1047SOL     OW 4039   1.540   5.885   2.621
 1047SOL    HW1 4040   1.629   5.917   2.652
 1047SOL    HW2 4041   1.550   5.832   2.537
 1048SOL     OW 4042   4.645   5.779   5.661
 1048SOL    HW1 4043   4.562   5.832   5.677
 1048SOL    HW2 4044   4.709   5.793   5.737
 1049SOL     OW 4045   6.758   4.334   4.839
 1049SOL    HW1 4046   6.800   4.395   4.772
 1049SOL    HW2 4047   6.720   4.254   4.792
 1050SOL     OW 4048   3.003   5.401   0.663
 1050SOL    HW1 4049   3.064   5.479   0.677
 1050SOL    HW2 4050   3.010   5.369   0.569
 1051SOL     OW 4051   3.352   5.212   0.063
 1051SOL    HW1 4052   3.365   5.187   0.159
 1051SOL    HW2 4053   3.441   5.214   0.017
 1052SOL     OW 4054   4.339   0.290   4.047
 1052SOL    HW1 4055   4.433   0.256   4.047
 1052SOL    HW2 4056   4.283   0.232   3.987
 1053SOL     OW 4057   5.464   6.020   3.375
 1053SOL    HW1 4058   5.491   6.097   3.433
 1053SOL    HW2 4059   5.451   5.939   3.432
 1054SOL     OW 4060   2.908   4.672   5.592
 1054SOL    HW1 4061   2.860   4.699   5.508
 1054SOL    HW2 4062   2.850   4.611   5.646
 1055SOL     OW 4063   5.686   6.803   4.291
 1055SOL    HW1 4064   5.712   6.860   4.370
 1055SOL    HW2 4065   5.735   6.835   4.210
 1056SOL     OW 4066   1.877   6.099   5.544
 1056SOL    HW1 4067   1.949   6.071   5.481
 1056SOL    HW2 4068   1.884   6.045   5.628
 1057SOL     OW 4069   3.244   3.730   2.836
 1057SOL    HW1 4070   3.223   3.743   2.933
 1057SOL    HW2 4071   3.338   3.760   2.818
 1058SOL     OW 4072   4.994   1.725   2.202
 1058SOL    HW1 4073   4.921   1.793   2.214
 1058SOL    HW2 4074   5.029   1.697   2.291
 1059SOL     OW 4075   2.816   0.539   1.598
 1059SOL    HW1 4076   2.782   0.450   1.628
 1059SOL    HW2 4077   2.761   0.573   1.522
 1060SOL     OW 4078   0.358   3.023   4.643
 1060SOL    HW1 4079   0.453   3.051   4.652
 1060SOL    HW2 4080   0.347   2.966   4.561
 1061SOL     OW 4081   4.848   3.831   1.414
 1061SOL    HW1 4082   4.796   3.910   1.382
 1061SOL    HW2 4083   4.808   3.797   1.498
 1062SOL     OW 4084   6.435   5.146   6.083
 1062SOL    HW1 4085   6.388   5.216   6.136
 1062SOL    HW2 4086   6.400   5.055   6.107
 1063SOL     OW 4087   1.150   4.424   1.124
 1063SOL    HW1 4088   1.208   4.469   1.192
 1063SOL    HW2 4089   1.190   4.435   1.033
 1064SOL     OW 4090   0.894   4.273   2.365
 1064SOL    HW1 4091   0.981   4.319   2.350
 1064SOL    HW2 4092   0.820   4.340   2.359
 1065SOL     OW 4093   5.162   0.631   4.827
 1065SOL    HW1 4094   5.078   0.668   4.788
 1065SOL    HW2 4095   5.232   0.625   4.755
 1066SOL     OW 4096   5.542   0.708   4.389
 1066SOL    HW1 4097   5.573   0.800   4.367
 1066SOL    HW2 4098   5.444   0.700   4.369
 1067SOL     OW 4099   1.684   2.203   0.262
 1067SOL    HW1 4100   1.737   2.123   0.234
 1067SOL    HW2 4101   1.728   2.287   0.229
 1068SOL     OW 4102   5.597   4.478   2.168
 1068SOL    HW1 4103   5.589   4.379   2.181
 1068SOL    HW2 4104   5.512   4.512   2.128
 1069SOL     OW 4105   4.788   4.892   1.319
 1069SOL    HW1 4106   4.876   4.900   1.272
 1069SOL    HW2 4107   4.787   4.953   1.399
 1070SOL     OW 4108   1.169   1.160   0.269
 1070SOL    HW1 4109   1.242   1.168   0.337
 1070SOL    HW2 4110   1.193   1.215   0.188
 1071SOL     OW 4111   3.935   0.430   3.232
 1071SOL    HW1 4112   4.011   0.368   3.251
 1071SOL    HW2 4113   3.848   0.381   3.241
 1072SOL     OW 4114   1.688   5.906   1.445
 1072SOL    HW1 4115   1.717   5.830   1.386
 1072SOL    HW2 4116   1.763   5.971   1.454
 1073SOL     OW 4117   3.623   5.801   2.861
 1073SOL    HW1 4118   3.632   5.882   2.919
 1073SOL    HW2 4119   3.607   5.830   2.767
 1074SOL     OW 4120   1.792   5.120   1.562
 1074SOL    HW1 4121   1.731   5.199   1.557
 1074SOL    HW2 4122   1.823   5.096   1.470
 1075SOL     OW 4123   4.827   5.884   3.647
 1075SOL    HW1 4124   4.899   5.917   3.587
 1075SOL    HW2 4125   4.837   5.785   3.660
 1076SOL     OW 4126   0.560   4.526   4.838
 1076SOL    HW1 4127   0.560   4.428   4.853
 1076SOL    HW2 4128   0.653   4.560   4.829
 1077SOL     OW 4129   6.058   6.799   0.370
 1077SOL    HW1 4130   5.983   6.850   0.412
 1077SOL    HW2 4131   6.125   6.864   0.333
 1078SOL     OW 4132   2.023   0.740   2.739
 1078SOL    HW1 4133   2.063   0.820   2.695
 1078SOL    HW2 4134   2.092   0.669   2.748
 1079SOL     OW 4135   1.864   5.480   2.730
 1079SOL    HW1 4136   1.899   5.408   2.790
 1079SOL    HW2 4137   1.906   5.568   2.755
 1080SOL     OW 4138   1.798   4.372   3.367
 1080SOL    HW1 4139   1.742   4.375   3.284
 1080SOL    HW2 4140   1.894   4.361   3.342
 1081SOL     OW 4141   0.275   0.803   5.141
 1081SOL    HW1 4142   0.272   0.841   5.233
 1081SOL    HW2 4143   0.230   0.713   5.141
 1082SOL     OW 4144   1.687   0.149   5.693
 1082SOL    HW1 4145   1.745   0.095   5.631
 1082SOL    HW2 4146   1.730   0.152   5.783
 1083SOL     OW 4147   3.732   3.989   1.764
 1083SOL    HW1 4148   3.820   4.017   1.726
 1083SOL    HW2 4149   3.665   3.979   1.690
 1084SOL     OW 4150   6.609   5.656   1.192
 1084SOL    HW1 4151   6.679   5.599   1.236
 1084SOL    HW2 4152   6.599   5.741   1.243
 1085SOL     OW 4153   2.076   4.394   3.354
 1085SOL    HW1 4154   2.093   4.311   3.300
 1085SOL    HW2 4155   2.163   4.426   3.392
 1086SOL     OW 4156   6.603   5.564   3.195
 1086SOL    HW1 4157   6.650   5.637   3.145
 1086SOL    HW2 4158   6.504   5.581   3.193
 1087SOL     OW 4159   5.386   2.518   5.539
 1087SOL    HW1 4160   5.400   2.595   5.602
 1087SOL    HW2 4161   5.429   2.539   5.452
 1088SOL     OW 4162   6.212   4.793   3.521
 1088SOL    HW1 4163   6.126   4.835   3.493
 1088SOL    HW2 4164   6.193   4.709   3.572
 1089SOL     OW 4165   1.119   6.809   4.988
 1089SOL    HW1 4166   1.022   6.802   4.964
 1089SOL    HW2 4167   1.146   6.906   4.990
 1090SOL     OW 4168   2.942   1.238   3.661
 1090SOL    HW1 4169   2.961   1.336   3.676
 1090SOL    HW2 4170   2.949   1.217   3.564
 1091SOL     OW 4171   2.043   2.255   4.342
 1091SOL    HW1 4172   2.124   2.218   4.297
 1091SOL    HW2 4173   2.049   2.355   4.344
 1092SOL     OW 4174   2.602   3.533   1.331
 1092SOL    HW1 4175   2.661   3.456   1.354
 1092SOL    HW2 4176   2.658   3.613   1.310
 1093SOL     OW 4177   2.158   1.947   3.055
 1093SOL    HW1 4178   2.063   1.919   3.064
 1093SOL    HW2 4179   2.169   2.040   3.091
 1094SOL     OW 4180   0.475   6.968   2.817
 1094SOL    HW1 4181   0.432   6.960   2.907
 1094SOL    HW2 4182   0.519   6.881   2.793
 1095SOL     OW 4183   6.448   2.324   6.064
 1095SOL    HW1 4184   6.466   2.423   6.066
 1095SOL    HW2 4185   6.521   2.276   6.112
 1096SOL     OW 4186   3.711   4.615   1.607
 1096SOL    HW1 4187   3.670   4.630   1.697
 1096SOL    HW2 4188   3.806   4.586   1.619
 1097SOL     OW 4189   0.869   4.707   4.193
 1097SOL    HW1 4190   0.773   4.680   4.193
 1097SOL    HW2 4191   0.925   4.628   4.219
 1098SOL     OW 4192   5.426   2.694   0.872
 1098SOL    HW1 4193   5.348   2.750   0.844
 1098SOL    HW2 4194   5.443   2.706   0.970
 1099SOL     OW 4195   4.009   1.248   4.669
 1099SOL    HW1 4196   3.981   1.177   4.733
 1099SOL    HW2 4197   4.081   1.304   4.710
 1100SOL     OW 4198   2.002   1.431   6.574
 1100SOL    HW1 4199   2.056   1.509   6.540
 1100SOL    HW2 4200   1.916   1.464   6.612
 1101SOL     OW 4201   5.319   3.128   1.091
 1101SOL    HW1 4202   5.372   3.170   1.017
 1101SOL    HW2 4203   5.242   3.188   1.115
 1102SOL     OW 4204   2.003   4.643   2.979
 1102SOL    HW1 4205   2.002   4.628   2.880
 1102SOL    HW2 4206   1.994   4.556   3.026
 1103SOL     OW 4207   2.814   0.940   1.161
 1103SOL    HW1 4208   2.771   0.902   1.243
 1103SOL    HW2 4209   2.766   1.024   1.135
 1104SOL     OW 4210   1.415   3.554   6.614
 1104SOL    HW1 4211   1.420   3.502   6.530
 1104SOL    HW2 4212   1.507   3.566   6.652
 1105SOL     OW 4213   4.806   3.777   5.918
 1105SOL    HW1 4214   4.877   3.758   5.987
 1105SOL    HW2 4215   4.723   3.809   5.964
 1106SOL     OW 4216   0.926   1.718   0.441
 1106SOL    HW1 4217   1.015   1.691   0.405
 1106SOL    HW2 4218   0.939   1.773   0.523
 1107SOL     OW 4219   0.366   0.779   6.601
 1107SOL    HW1 4220   0.323   0.848   6.659
 1107SOL    HW2 4221   0.434   0.729   6.655
 1108SOL     OW 4222   2.518   0.562   5.569
 1108SOL    HW1 4223   2.551   0.590   5.479
 1108SOL    HW2 4224   2.594   0.562   5.634
 1109SOL     OW 4225   4.636   5.696   4.784
 1109SOL    HW1 4226   4.627   5.771   4.850
 1109SOL    HW2 4227   4.733   5.678   4.767
 1110SOL     OW 4228   3.279   1.684   2.505
 1110SOL    HW1 4229   3.287   1.774   2.547
 1110SOL    HW2 4230   3.259   1.616   2.575
 1111SOL     OW 4231   5.637   5.793   0.398
 1111SOL    HW1 4232   5.665   5.708   0.442
 1111SOL    HW2 4233   5.718   5.841   0.364
 1112SOL     OW 4234   6.338   1.027   2.843
 1112SOL    HW1 4235   6.323   1.083   2.761
 1112SOL    HW2 4236   6.415   0.965   2.827
 1113SOL     OW 4237   6.009   3.439   2.428
 1113SOL    HW1 4238   6.020   3.477   2.336
 1113SOL    HW2 4239   6.043   3.345   2.429
 1114SOL     OW 4240   4.720   0.884   6.307
 1114SOL    HW1 4241   4.633   0.835   6.299
 1114SOL    HW2 4242   4.782   0.833   6.367
 1115SOL     OW 4243   4.074   3.339   6.778
 1115SOL    HW1 4244   4.036   3.432   6.775
 1115SOL    HW2 4245   4.172   3.344   6.760
 1116SOL     OW 4246   5.724   5.449   4.740
 1116SOL    HW1 4247   5.724   5.460   4.640
 1116SOL    HW2 4248   5.812   5.477   4.777
 1117SOL     OW 4249   2.566   2.495   1.323
 1117SOL    HW1 4250   2.606   2.555   1.392
 1117SOL    HW2 4251   2.623   2.494   1.241
 1118SOL     OW 4252   1.887   4.967   1.929
 1118SOL    HW1 4253   1.980   4.952   1.962
 1118SOL    HW2 4254   1.860   5.062   1.949
 1119SOL     OW 4255   3.528   4.242   1.486
 1119SOL    HW1 4256   3.603   4.286   1.437
 1119SOL    HW2 4257   3.523   4.278   1.579
 1120SOL     OW 4258   5.721   5.819   5.529
 1120SOL    HW1 4259   5.811   5.816   5.571
 1120SOL    HW2 4260   5.651   5.831   5.600
 1121SOL     OW 4261   5.009   3.791   2.734
 1121SOL    HW1 4262   5.099   3.773   2.696
 1121SOL    HW2 4263   4.942   3.796   2.660
 1122SOL     OW 4264   5.271   3.209   6.496
 1122SOL    HW1 4265   5.175   3.237   6.498
 1122SOL    HW2 4266   5.284   3.143   6.421
 1123SOL     OW 4267   4.755   1.842   2.263
 1123SOL    HW1 4268   4.760   1.932   2.305
 1123SOL    HW2 4269   4.676   1.792   2.299
 1124SOL     OW 4270   6.688   3.821   5.016
 1124SOL    HW1 4271   6.773   3.816   4.962
 1124SOL    HW2 4272   6.708   3.864   5.104
 1125SOL     OW 4273   2.553   1.472   4.768
 1125SOL    HW1 4274   2.464   1.516   4.780
 1125SOL    HW2 4275   2.603   1.475   4.855
 1126SOL     OW 4276   5.008   0.169   0.105
 1126SOL    HW1 4277   4.917   0.142   0.074
 1126SOL    HW2 4278   5.006   0.265   0.135
 1127SOL     OW 4279   3.889   5.322   5.361
 1127SOL    HW1 4280   3.930   5.245   5.408
 1127SOL    HW2 4281   3.795   5.335   5.393
 1128SOL     OW 4282   5.028   2.775   5.012
 1128SOL    HW1 4283   4.942   2.826   5.003
 1128SOL    HW2 4284   5.027   2.698   4.948
 1129SOL     OW 4285   4.086   6.781   0.068
 1129SOL    HW1 4286   4.065   6.877   0.082
 1129SOL    HW2 4287   4.178   6.761   0.102
 1130SOL     OW 4288   1.827   3.753   1.028
 1130SOL    HW1 4289   1.780   3.799   0.952
 1130SOL    HW2 4290   1.813   3.804   1.112
 1131SOL     OW 4291   0.389   6.274   6.020
 1131SOL    HW1 4292   0.458   6.238   5.958
 1131SOL    HW2 4293   0.388   6.220   6.104
 1132SOL     OW 4294   4.540   0.638   6.607
 1132SOL    HW1 4295   4.549   0.674   6.699
 1132SOL    HW2 4296   4.607   0.565   6.593
 1133SOL     OW 4297   6.551   2.313   0.512
 1133SOL    HW1 4298   6.466   2.364   0.528
 1133SOL    HW2 4299   6.585   2.333   0.421
 1134SOL     OW 4300   5.564   1.785   0.584
 1134SOL    HW1 4301   5.604   1.749   0.669
 1134SOL    HW2 4302   5.477   1.831   0.606
 1135SOL     OW 4303   3.169   1.827   2.251
 1135SOL    HW1 4304   3.163   1.917   2.295
 1135SOL    HW2 4305   3.186   1.757   2.320
 1136SOL     OW 4306   3.131   4.980   5.085
 1136SOL    HW1 4307   3.064   5.009   5.154
 1136SOL    HW2 4308   3.083   4.940   5.007
 1137SOL     OW 4309   1.129   3.528   0.508
 1137SOL    HW1 4310   1.210   3.471   0.499
 1137SOL    HW2 4311   1.047   3.471   0.503
 1138SOL     OW 4312   1.281   1.738   6.317
 1138SOL    HW1 4313   1.238   1.649   6.327
 1138SOL    HW2 4314   1.346   1.736   6.240
 1139SOL     OW 4315   2.180   0.041   1.911
 1139SOL    HW1 4316   2.131   0.128   1.904
 1139SOL    HW2 4317   2.216   0.016   1.821
 1140SOL     OW 4318   3.684   2.083   2.515
 1140SOL    HW1 4319   3.741   2.091   2.433
 1140SOL    HW2 4320   3.592   2.056   2.489
 1141SOL     OW 4321   6.173   5.484   5.958
 1141SOL    HW1 4322   6.104   5.424   5.999
 1141SOL    HW2 4323   6.256   5.482   6.014
 1142SOL     OW 4324   4.736   0.606   4.467
 1142SOL    HW1 4325   4.748   0.617   4.566
 1142SOL    HW2 4326   4.818   0.563   4.428
 1143SOL     OW 4327   3.160   1.978   2.539
 1143SOL    HW1 4328   3.193   2.009   2.628
 1143SOL    HW2 4329   3.078   2.029   2.514
 1144SOL     OW 4330   6.661   4.721   4.686
 1144SOL    HW1 4331   6.671   4.790   4.758
 1144SOL    HW2 4332   6.568   4.683   4.689
 1145SOL     OW 4333   0.338   4.784   3.419
 1145SOL    HW1 4334   0.348   4.702   3.476
 1145SOL    HW2 4335   0.322   4.758   3.324
 1146SOL     OW 4336   4.972   0.947   1.044
 1146SOL    HW1 4337   5.052   0.977   1.094
 1146SOL    HW2 4338   4.925   1.026   1.004
 1147SOL     OW 4339   0.866   4.103   0.630
 1147SOL    HW1 4340   0.799   4.029   0.625
 1147SOL    HW2 4341   0.819   4.191   0.629
 1148SOL     OW 4342   2.911   7.013   0.241
 1148SOL    HW1 4343   2.956   0.032   0.320
 1148SOL    HW2 4344   2.911   0.058   0.166
 1149SOL     OW 4345   5.425   3.680   3.132
 1149SOL    HW1 4346   5.359   3.609   3.158
 1149SOL    HW2 4347   5.495   3.640   3.074
 1150SOL     OW 4348   1.614   4.002   1.090
 1150SOL    HW1 4349   1.654   4.010   0.998
 1150SOL    HW2 4350   1.580   4.091   1.119
 1151SOL     OW 4351   5.258   5.681   6.695
 1151SOL    HW1 4352   5.238   5.755   6.759
 1151SOL    HW2 4353   5.216   5.701   6.606
 1152SOL     OW 4354   0.903   6.396   5.033
 1152SOL    HW1 4355   0.820   6.426   5.081
 1152SOL    HW2 4356   0.881   6.380   4.936
 1153SOL     OW 4357   2.692   6.544   2.009
 1153SOL    HW1 4358   2.729   6.454   2.029
 1153SOL    HW2 4359   2.602   6.554   2.051
 1154SOL     OW 4360   0.051   3.528   1.766
 1154SOL    HW1 4361   6.997   3.527   1.832
 1154SOL    HW2 4362   0.016   3.505   1.675
 1155SOL     OW 4363   3.696   4.912   6.453
 1155SOL    HW1 4364   3.607   4.874   6.477
 1155SOL    HW2 4365   3.759   4.839   6.427
 1156SOL     OW 4366   2.237   0.557   4.473
 1156SOL    HW1 4367   2.149   0.591   4.441
 1156SOL    HW2 4368   2.310   0.618   4.442
 1157SOL     OW 4369   6.039   2.123   4.290
 1157SOL    HW1 4370   6.001   2.061   4.359
 1157SOL    HW2 4371   6.127   2.086   4.257
 1158SOL     OW 4372   6.393   5.333   5.580
 1158SOL    HW1 4373   6.318   5.275   5.545
 1158SOL    HW2 4374   6.354   5.411   5.628
 1159SOL     OW 4375   4.887   0.711   2.706
 1159SOL    HW1 4376   4.852   0.665   2.787
 1159SOL    HW2 4377   4.929   0.798   2.733
 1160SOL     OW 4378   3.481   3.356   1.617
 1160SOL    HW1 4379   3.546   3.309   1.558
 1160SOL    HW2 4380   3.389   3.349   1.579
 1161SOL     OW 4381   5.101   0.567   5.278
 1161SOL    HW1 4382   5.131   0.512   5.200
 1161SOL    HW2 4383   5.129   0.523   5.363
 1162SOL     OW 4384   4.309   2.793   0.606
 1162SOL    HW1 4385   4.230   2.736   0.629
 1162SOL    HW2 4386   4.283   2.859   0.536
 1163SOL     OW 4387   5.974   2.705   2.056
 1163SOL    HW1 4388   5.955   2.757   2.139
 1163SOL    HW2 4389   5.961   2.607   2.074
 1164SOL     OW 4390   5.392   2.868   3.701
 1164SOL    HW1 4391   5.441   2.954   3.716
 1164SOL    HW2 4392   5.410   2.836   3.608
 1165SOL     OW 4393   1.965   4.466   4.028
 1165SOL    HW1 4394   1.978   4.476   3.929
 1165SOL    HW2 4395   1.974   4.370   4.052
 1166SOL     OW 4396   4.066   1.040   0.078
 1166SOL    HW1 4397   4.065   1.137   0.103
 1166SOL    HW2 4398   3.985   1.019   0.024
 1167SOL     OW 4399   2.877   0.338   6.212
 1167SOL    HW1 4400   2.865   0.245   6.179
 1167SOL    HW2 4401   2.907   0.396   6.136
 1168SOL     OW 4402   5.612   0.252   2.127
 1168SOL    HW1 4403   5.611   0.179   2.195
 1168SOL    HW2 4404   5.705   0.287   2.116
 1169SOL     OW 4405   0.161   3.017   0.286
 1169SOL    HW1 4406   0.118   2.927   0.274
 1169SOL    HW2 4407   0.096   3.080   0.328
 1170SOL     OW 4408   4.582   0.768   2.101
 1170SOL    HW1 4409   4.503   0.805   2.150
 1170SOL    HW2 4410   4.574   0.668   2.097
 1171SOL     OW 4411   2.373   5.703   0.459
 1171SOL    HW1 4412   2.393   5.681   0.555
 1171SOL    HW2 4413   2.455   5.686   0.404
 1172SOL     OW 4414   3.546   4.100   3.324
 1172SOL    HW1 4415   3.468   4.119   3.384
 1172SOL    HW2 4416   3.517   4.108   3.228
 1173SOL     OW 4417   3.507   6.793   5.988
 1173SOL    HW1 4418   3.410   6.787   5.966
 1173SOL    HW2 4419   3.522   6.763   6.083
 1174SOL     OW 4420   3.140   5.639   0.727
 1174SOL    HW1 4421   3.139   5.647   0.827
 1174SOL    HW2 4422   3.091   5.716   0.687
 1175SOL     OW 4423   4.770   3.859   6.890
 1175SOL    HW1 4424   4.720   3.907   6.961
 1175SOL    HW2 4425   4.791   3.766   6.920
 1176SOL     OW 4426   5.986   4.605   0.554
 1176SOL    HW1 4427   5.980   4.699   0.588
 1176SOL    HW2 4428   6.081   4.575   0.554
 1177SOL     OW 4429   0.297   1.719   5.646
 1177SOL    HW1 4430   0.276   1.720   5.744
 1177SOL    HW2 4431   0.212   1.710   5.594
 1178SOL     OW 4432   4.309   3.654   1.564
 1178SOL    HW1 4433   4.243   3.685   1.632
 1178SOL    HW2 4434   4.294   3.557   1.544
 1179SOL     OW 4435   3.293   5.184   0.538
 1179SOL    HW1 4436   3.284   5.283   0.526
 1179SOL    HW2 4437   3.300   5.141   0.448
 1180SOL     OW 4438   2.886   0.383   3.761
 1180SOL    HW1 4439   2.889   0.299   3.816
 1180SOL    HW2 4440   2.958   0.379   3.692
 1181SOL     OW 4441   0.622   3.117   4.626
 1181SOL    HW1 4442   0.687   3.042   4.637
 1181SOL    HW2 4443   0.607   3.134   4.529
 1182SOL     OW 4444   2.064   5.003   2.849
 1182SOL    HW1 4445   1.988   4.966   2.903
 1182SOL    HW2 4446   2.147   4.950   2.868
 1183SOL     OW 4447   4.097   5.359   2.690
 1183SOL    HW1 4448   4.145   5.362   2.778
 1183SOL    HW2 4449   4.105   5.267   2.651
 1184SOL     OW 4450   3.440   2.187   5.160
 1184SOL    HW1 4451   3.374   2.254   5.192
 1184SOL    HW2 4452   3.533   2.222   5.173
 1185SOL     OW 4453   2.097   0.513   0.445
 1185SOL    HW1 4454   2.015   0.568   0.454
 1185SOL    HW2 4455   2.144   0.508   0.533
 1186SOL     OW 4456   6.102   6.776   6.196
 1186SOL    HW1 4457   6.171   6.721   6.150
 1186SOL    HW2 4458   6.054   6.720   6.264
 1187SOL     OW 4459   5.611   5.964   5.054
 1187SOL    HW1 4460   5.625   6.053   5.010
 1187SOL    HW2 4461   5.642   5.969   5.149
 1188SOL     OW 4462   3.313   6.696   6.218
 1188SOL    HW1 4463   3.302   6.794   6.232
 1188SOL    HW2 4464   3.270   6.646   6.293
 1189SOL     OW 4465   5.398   1.073   1.901
 1189SOL    HW1 4466   5.342   0.992   1.887
 1189SOL    HW2 4467   5.435   1.104   1.813
 1190SOL     OW 4468   4.134   4.809   4.683
 1190SOL    HW1 4469   4.179   4.824   4.772
 1190SOL    HW2 4470   4.035   4.812   4.694
 1191SOL     OW 4471   3.646   5.378   5.568
 1191SOL    HW1 4472   3.709   5.454   5.585
 1191SOL    HW2 4473   3.602   5.390   5.479
 1192SOL     OW 4474   5.808   4.792   3.292
 1192SOL    HW1 4475   5.873   4.753   3.227
 1192SOL    HW2 4476   5.717   4.795   3.250
 1193SOL     OW 4477   6.604   0.532   4.344
 1193SOL    HW1 4478   6.594   0.466   4.270
 1193SOL    HW2 4479   6.694   0.576   4.337
 1194SOL     OW 4480   6.894   1.489   1.154
 1194SOL    HW1 4481   6.817   1.548   1.127
 1194SOL    HW2 4482   6.866   1.432   1.232
 1195SOL     OW 4483   6.441   1.961   0.564
 1195SOL    HW1 4484   6.436   1.943   0.466
 1195SOL    HW2 4485   6.403   2.051   0.583
 1196SOL     OW 4486   0.013   4.549   2.223
 1196SOL    HW1 4487   0.076   4.514   2.294
 1196SOL    HW2 4488   0.056   4.539   2.133
 1197SOL     OW 4489   3.763   6.178   5.747
 1197SOL    HW1 4490   3.798   6.247   5.684
 1197SOL    HW2 4491   3.730   6.222   5.830
 1198SOL     OW 4492   2.243   2.687   2.404
 1198SOL    HW1 4493   2.179   2.615   2.432
 1198SOL    HW2 4494   2.315   2.648   2.347
 1199SOL     OW 4495   3.775   2.912   2.803
 1199SOL    HW1 4496   3.815   2.822   2.789
 1199SOL    HW2 4497   3.732   2.916   2.894
 1200SOL     OW 4498   4.069   3.487   4.941
 1200SOL    HW1 4499   4.037   3.503   4.848
 1200SOL    HW2 4500   4.030   3.401   4.974
 1201SOL     OW 4501   0.514   1.098   4.107
 1201SOL    HW1 4502   0.450   1.145   4.046
 1201SOL    HW2 4503   0.585   1.053   4.052
 1202SOL     OW 4504   6.334   0.789   5.808
 1202SOL    HW1 4505   6.421   0.760   5.849
 1202SOL    HW2 4506   6.259   0.768   5.870
 1203SOL     OW 4507   5.649   6.742   0.813
 1203SOL    HW1 4508   5.634   6.738   0.911
 1203SOL    HW2 4509   5.683   6.653   0.781
 1204SOL     OW 4510   3.933   1.304   0.140
 1204SOL    HW1 4511   3.931   1.234   0.211
 1204SOL    HW2 4512   3.845   1.306   0.093
 1205SOL     OW 4513   4.469   3.037   6.617
 1205SOL    HW1 4514   4.563   3.029   6.585
 1205SOL    HW2 4515   4.437   2.949   6.650
 1206SOL     OW 4516   1.757   1.778   4.905
 1206SOL    HW1 4517   1.699   1.858   4.922
 1206SOL    HW2 4518   1.852   1.807   4.892
 1207SOL     OW 4519   0.090   6.902   1.173
 1207SOL    HW1 4520   0.171   6.894   1.115
 1207SOL    HW2 4521   0.025   6.830   1.150
 1208SOL     OW 4522   3.513   4.191   2.499
 1208SOL    HW1 4523   3.562   4.183   2.412
 1208SOL    HW2 4524   3.425   4.143   2.492
 1209SOL     OW 4525   6.018   6.640   4.674
 1209SOL    HW1 4526   6.094   6.587   4.636
 1209SOL    HW2 4527   5.935   6.620   4.622
 1210SOL     OW 4528   4.667   6.374   3.421
 1210SOL    HW1 4529   4.591   6.437   3.433
 1210SOL    HW2 4530   4.638   6.281   3.446
 1211SOL     OW 4531   1.734   3.508   3.362
 1211SOL    HW1 4532   1.740   3.538   3.457
 1211SOL    HW2 4533   1.638   3.488   3.340
 1212SOL     OW 4534   6.745   2.270   5.897
 1212SOL    HW1 4535   6.748   2.286   5.799
 1212SOL    HW2 4536   6.788   2.346   5.945
 1213SOL     OW 4537   5.538   2.670   4.943
 1213SOL    HW1 4538   5.549   2.725   4.860
 1213SOL    HW2 4539   5.561   2.725   5.023
 1214SOL     OW 4540   1.208   3.412   4.573
 1214SOL    HW1 4541   1.230   3.350   4.498
 1214SOL    HW2 4542   1.145   3.482   4.541
 1215SOL     OW 4543   2.292   4.677   2.114
 1215SOL    HW1 4544   2.266   4.601   2.055
 1215SOL    HW2 4545   2.276   4.764   2.066
 1216SOL     OW 4546   0.481   0.189   1.396
 1216SOL    HW1 4547   0.403   0.131   1.373
 1216SOL    HW2 4548   0.483   0.268   1.334
 1217SOL     OW 4549   2.056   6.611   0.820
 1217SOL    HW1 4550   2.095   6.569   0.902
 1217SOL    HW2 4551   1.964   6.575   0.804
 1218SOL     OW 4552   1.039   3.229   4.964
 1218SOL    HW1 4553   1.121   3.241   4.908
 1218SOL    HW2 4554   0.964   3.282   4.925
 1219SOL     OW 4555   4.644   4.339   1.425
 1219SOL    HW1 4556   4.624   4.370   1.519
 1219SOL    HW2 4557   4.577   4.379   1.362
 1220SOL     OW 4558   5.184   4.146   2.549
 1220SOL    HW1 4559   5.226   4.059   2.523
 1220SOL    HW2 4560   5.218   4.174   2.639
 1221SOL     OW 4561   5.737   4.236   6.819
 1221SOL    HW1 4562   5.813   4.199   6.766
 1221SOL    HW2 4563   5.684   4.299   6.763
 1222SOL     OW 4564   6.967   0.455   0.689
 1222SOL    HW1 4565   6.993   0.369   0.734
 1222SOL    HW2 4566   6.867   0.462   0.687
 1223SOL     OW 4567   5.101   1.201   0.620
 1223SOL    HW1 4568   5.014   1.167   0.657
 1223SOL    HW2 4569   5.095   1.203   0.520
 1224SOL     OW 4570   3.406   5.917   0.049
 1224SOL    HW1 4571   3.361   5.874   0.127
 1224SOL    HW2 4572   3.339   5.970   7.018
 1225SOL     OW 4573   4.085   2.592   1.146
 1225SOL    HW1 4574   4.014   2.619   1.081
 1225SOL    HW2 4575   4.087   2.492   1.152
 1226SOL     OW 4576   5.391   6.439   1.183
 1226SOL    HW1 4577   5.406   6.369   1.253
 1226SOL    HW2 4578   5.371   6.527   1.226
 1227SOL     OW 4579   5.967   4.999   5.783
 1227SOL    HW1 4580   5.943   4.956   5.870
 1227SOL    HW2 4581   6.027   5.078   5.801
 1228SOL     OW 4582   3.631   3.350   0.478
 1228SOL    HW1 4583   3.649   3.334   0.381
 1228SOL    HW2 4584   3.532   3.358   0.492
 1229SOL     OW 4585   1.437   6.837   1.675
 1229SOL    HW1 4586   1.495   6.902   1.725
 1229SOL    HW2 4587   1.486   6.803   1.595
 1230SOL     OW 4588   5.194   5.972   3.112
 1230SOL    HW1 4589   5.199   6.023   3.199
 1230SOL    HW2 4590   5.109   5.996   3.065
 1231SOL     OW 4591   1.485   2.441   6.156
 1231SOL    HW1 4592   1.500   2.480   6.247
 1231SOL    HW2 4593   1.406   2.380   6.159
 1232SOL     OW 4594   4.614   1.155   5.150
 1232SOL    HW1 4595   4.685   1.224   5.162
 1232SOL    HW2 4596   4.566   1.143   5.237
 1233SOL     OW 4597   1.248   5.689   3.472
 1233SOL    HW1 4598   1.195   5.676   3.388
 1233SOL    HW2 4599   1.287   5.602   3.501
 1234SOL     OW 4600   6.943   2.611   6.569
 1234SOL    HW1 4601   6.985   2.521   6.568
 1234SOL    HW2 4602   6.850   2.605   6.533
 1235SOL     OW 4603   6.615   5.049   0.123
 1235SOL    HW1 4604   6.685   5.022   0.189
 1235SOL    HW2 4605   6.554   4.971   0.105
 1236SOL     OW 4606   3.379   2.206   0.500
 1236SOL    HW1 4607   3.355   2.303   0.506
 1236SOL    HW2 4608   3.406   2.184   0.407
 1237SOL     OW 4609   1.935   6.255   4.712
 1237SOL    HW1 4610   1.848   6.252   4.761
 1237SOL    HW2 4611   1.922   6.215   4.621
 1238SOL     OW 4612   0.662   7.006   3.550
 1238SOL    HW1 4613   0.569   6.995   3.515
 1238SOL    HW2 4614   0.727   6.979   3.479
 1239SOL     OW 4615   6.625   5.677   4.454
 1239SOL    HW1 4616   6.718   5.709   4.438
 1239SOL    HW2 4617   6.587   5.638   4.369
 1240SOL     OW 4618   5.625   5.141   2.152
 1240SOL    HW1 4619   5.567   5.182   2.222
 1240SOL    HW2 4620   5.568   5.095   2.084
 1241SOL     OW 4621   0.044   4.518   4.755
 1241SOL    HW1 4622   0.069   4.611   4.780
 1241SOL    HW2 4623   0.024   4.514   4.657
 1242SOL     OW 4624   2.080   3.540   0.268
 1242SOL    HW1 4625   2.061   3.603   0.192
 1242SOL    HW2 4626   2.063   3.586   0.355
 1243SOL     OW 4627   0.147   1.504   4.910
 1243SOL    HW1 4628   0.059   1.478   4.871
 1243SOL    HW2 4629   0.146   1.602   4.931
 1244SOL     OW 4630   5.403   6.924   5.494
 1244SOL    HW1 4631   5.481   6.973   5.456
 1244SOL    HW2 4632   5.356   6.875   5.420
 1245SOL     OW 4633   5.173   5.923   1.186
 1245SOL    HW1 4634   5.101   5.967   1.240
 1245SOL    HW2 4635   5.173   5.962   1.093
 1246SOL     OW 4636   3.864   1.266   2.261
 1246SOL    HW1 4637   3.902   1.174   2.258
 1246SOL    HW2 4638   3.772   1.266   2.220
 1247SOL     OW 4639   6.380   6.973   4.517
 1247SOL    HW1 4640   6.289   6.930   4.521
 1247SOL    HW2 4641   6.440   6.918   4.459
 1248SOL     OW 4642   0.883   6.377   3.625
 1248SOL    HW1 4643   0.913   6.340   3.537
 1248SOL    HW2 4644   0.917   6.319   3.699
 1249SOL     OW 4645   6.863   4.531   1.888
 1249SOL    HW1 4646   6.800   4.483   1.949
 1249SOL    HW2 4647   6.903   4.467   1.823
 1250SOL     OW 4648   6.459   3.177   4.863
 1250SOL    HW1 4649   6.440   3.175   4.961
 1250SOL    HW2 4650   6.558   3.185   4.848
 1251SOL     OW 4651   2.194   0.362   2.432
 1251SOL    HW1 4652   2.161   0.382   2.525
 1251SOL    HW2 4653   2.233   0.269   2.430
 1252SOL     OW 4654   3.069   5.567   6.696
 1252SOL    HW1 4655   3.093   5.626   6.620
 1252SOL    HW2 4656   2.979   5.593   6.732
 1253SOL     OW 4657   2.608   0.777   1.660
 1253SOL    HW1 4658   2.561   0.726   1.588
 1253SOL    HW2 4659   2.684   0.722   1.695
 1254SOL     OW 4660   6.372   2.111   3.209
 1254SOL    HW1 4661   6.434   2.034   3.223
 1254SOL    HW2 4662   6.425   2.196   3.203
 1255SOL     OW 4663   6.205   2.405   5.145
 1255SOL    HW1 4664   6.141   2.393   5.221
 1255SOL    HW2 4665   6.153   2.422   5.061
 1256SOL     OW 4666   0.179   6.134   3.156
 1256SOL    HW1 4667   0.079   6.144   3.163
 1256SOL    HW2 4668   0.223   6.189   3.227
 1257SOL     OW 4669   6.923   4.503   4.202
 1257SOL    HW1 4670   6.969   4.560   4.270
 1257SOL    HW2 4671   6.989   4.443   4.158
 1258SOL     OW 4672   2.431   6.021   2.502
 1258SOL    HW1 4673   2.502   6.092   2.502
 1258SOL    HW2 4674   2.346   6.060   2.537
 1259SOL     OW 4675   3.582   6.450   5.165
 1259SOL    HW1 4676   3.574   6.417   5.071
 1259SOL    HW2 4677   3.605   6.547   5.164
 1260SOL     OW 4678   3.433   0.999   1.469
 1260SOL    HW1 4679   3.405   1.051   1.551
 1260SOL    HW2 4680   3.424   1.058   1.389
 1261SOL     OW 4681   0.209   3.504   0.019
 1261SOL    HW1 4682   0.166   3.556   6.967
 1261SOL    HW2 4683   0.264   3.565   0.076
 1262SOL     OW 4684   4.547   4.788   1.217
 1262SOL    HW1 4685   4.484   4.847   1.167
 1262SOL    HW2 4686   4.629   4.839   1.241
 1263SOL     OW 4687   6.436   1.879   0.838
 1263SOL    HW1 4688   6.525   1.840   0.862
 1263SOL    HW2 4689   6.435   1.900   0.740
 1264SOL     OW 4690   0.625   4.165   2.351
 1264SOL    HW1 4691   0.710   4.178   2.300
 1264SOL    HW2 4692   0.643   4.108   2.431
 1265SOL     OW 4693   6.716   4.666   3.381
 1265SOL    HW1 4694   6.624   4.705   3.375
 1265SOL    HW2 4695   6.761   4.672   3.292
 1266SOL     OW 4696   2.600   1.070   3.954
 1266SOL    HW1 4697   2.633   1.154   3.911
 1266SOL    HW2 4698   2.518   1.090   4.008
 1267SOL     OW 4699   5.722   5.908   1.291
 1267SOL    HW1 4700   5.707   5.809   1.288
 1267SOL    HW2 4701   5.677   5.946   1.372
 1268SOL     OW 4702   5.182   2.276   6.774
 1268SOL    HW1 4703   5.211   2.308   6.684
 1268SOL    HW2 4704   5.102   2.217   6.765
 1269SOL     OW 4705   5.933   6.185   5.215
 1269SOL    HW1 4706   5.972   6.219   5.300
 1269SOL    HW2 4707   6.000   6.130   5.166
 1270SOL     OW 4708   2.210   4.073   4.367
 1270SOL    HW1 4709   2.184   4.042   4.458
 1270SOL    HW2 4710   2.181   4.168   4.354
 1271SOL     OW 4711   3.596   1.883   3.251
 1271SOL    HW1 4712   3.551   1.913   3.335
 1271SOL    HW2 4713   3.591   1.956   3.183
 1272SOL     OW 4714   6.818   5.966   1.163
 1272SOL    HW1 4715   6.772   5.878   1.176
 1272SOL    HW2 4716   6.827   5.986   1.066
 1273SOL     OW 4717   1.474   4.131   6.710
 1273SOL    HW1 4718   1.475   4.227   6.683
 1273SOL    HW2 4719   1.420   4.120   6.793
 1274SOL     OW 4720   6.796   3.318   1.609
 1274SOL    HW1 4721   6.884   3.311   1.560
 1274SOL    HW2 4722   6.776   3.230   1.653
 1275SOL     OW 4723   4.133   0.259   3.261
 1275SOL    HW1 4724   4.105   0.166   3.234
 1275SOL    HW2 4725   4.182   0.255   3.348
 1276SOL     OW 4726   6.857   0.420   3.626
 1276SOL    HW1 4727   6.877   0.425   3.528
 1276SOL    HW2 4728   6.902   0.496   3.673
 1277SOL     OW 4729   0.872   0.640   4.487
 1277SOL    HW1 4730   0.776   0.622   4.468
 1277SOL    HW2 4731   0.890   0.738   4.480
 1278SOL     OW 4732   1.277   1.560   5.428
 1278SOL    HW1 4733   1.250   1.552   5.524
 1278SOL    HW2 4734   1.377   1.552   5.421
 1279SOL     OW 4735   1.861   0.222   0.617
 1279SOL    HW1 4736   1.837   0.309   0.658
 1279SOL    HW2 4737   1.951   0.230   0.573
 1280SOL     OW 4738   2.522   6.170   3.651
 1280SOL    HW1 4739   2.548   6.249   3.596
 1280SOL    HW2 4740   2.583   6.162   3.730
 1281SOL     OW 4741   1.156   5.573   2.785
 1281SOL    HW1 4742   1.224   5.625   2.839
 1281SOL    HW2 4743   1.203   5.510   2.724
 1282SOL     OW 4744   0.977   1.099   0.692
 1282SOL    HW1 4745   0.940   1.162   0.624
 1282SOL    HW2 4746   1.049   1.145   0.744
 1283SOL     OW 4747   5.646   2.251   5.415
 1283SOL    HW1 4748   5.572   2.290   5.361
 1283SOL    HW2 4749   5.612   2.173   5.467
 1284SOL     OW 4750   3.228   3.642   1.684
 1284SOL    HW1 4751   3.140   3.610   1.648
 1284SOL    HW2 4752   3.295   3.644   1.610
 1285SOL     OW 4753   5.789   3.639   6.400
 1285SOL    HW1 4754   5.873   3.670   6.445
 1285SOL    HW2 4755   5.715   3.632   6.467
 1286SOL     OW 4756   5.171   4.550   2.666
 1286SOL    HW1 4757   5.152   4.481   2.596
 1286SOL    HW2 4758   5.178   4.640   2.623
 1287SOL     OW 4759   5.357   4.120   6.352
 1287SOL    HW1 4760   5.280   4.090   6.297
 1287SOL    HW2 4761   5.442   4.105   6.301
 1288SOL     OW 4762   6.503   3.746   1.325
 1288SOL    HW1 4763   6.454   3.785   1.403
 1288SOL    HW2 4764   6.500   3.647   1.330
 1289SOL     OW 4765   0.527   6.191   1.832
 1289SOL    HW1 4766   0.527   6.093   1.853
 1289SOL    HW2 4767   0.575   6.240   1.904
 1290SOL     OW 4768   0.769   1.007   0.204
 1290SOL    HW1 4769   0.785   0.914   0.238
 1290SOL    HW2 4770   0.812   1.017   0.114
 1291SOL     OW 4771   1.301   3.783   6.153
 1291SOL    HW1 4772   1.288   3.812   6.058
 1291SOL    HW2 4773   1.398   3.770   6.171
 1292SOL     OW 4774   6.324   5.214   2.229
 1292SOL    HW1 4775   6.267   5.172   2.300
 1292SOL    HW2 4776   6.376   5.290   2.268
 1293SOL     OW 4777   2.404   1.447   6.599
 1293SOL    HW1 4778   2.445   1.380   6.537
 1293SOL    HW2 4779   2.336   1.402   6.657
 1294SOL     OW 4780   0.834   3.172   1.234
 1294SOL    HW1 4781   0.822   3.268   1.260
 1294SOL    HW2 4782   0.819   3.162   1.136
 1295SOL     OW 4783   6.322   3.267   2.738
 1295SOL    HW1 4784   6.417   3.281   2.710
 1295SOL    HW2 4785   6.264   3.338   2.698
 1296SOL     OW 4786   3.856   0.607   5.446
 1296SOL    HW1 4787   3.811   0.685   5.490
 1296SOL    HW2 4788   3.789   0.554   5.395
 1297SOL     OW 4789   6.017   0.689   6.216
 1297SOL    HW1 4790   6.040   0.771   6.268
 1297SOL    HW2 4791   5.958   0.630   6.271
 1298SOL     OW 4792   6.383   3.410   3.409
 1298SOL    HW1 4793   6.304   3.355   3.382
 1298SOL    HW2 4794   6.431   3.366   3.484
 1299SOL     OW 4795   0.785   3.646   2.493
 1299SOL    HW1 4796   0.756   3.563   2.445
 1299SOL    HW2 4797   0.849   3.697   2.435
 1300SOL     OW 4798   3.179   3.967   2.173
 1300SOL    HW1 4799   3.094   3.998   2.215
 1300SOL    HW2 4800   3.202   3.876   2.207
 1301SOL     OW 4801   0.742   6.214   2.601
 1301SOL    HW1 4802   0.783   6.142   2.545
 1301SOL    HW2 4803   0.790   6.221   2.688
 1302SOL     OW 4804   3.198   0.116   5.043
 1302SOL    HW1 4805   3.130   0.090   4.975
 1302SOL    HW2 4806   3.152   0.135   5.130
 1303SOL     OW 4807   4.196   1.600   0.543
 1303SOL    HW1 4808   4.097   1.586   0.540
 1303SOL    HW2 4809   4.216   1.693   0.573
 1304SOL     OW 4810   1.354   1.251   6.506
 1304SOL    HW1 4811   1.373   1.231   6.410
 1304SOL    HW2 4812   1.350   1.166   6.558
 1305SOL     OW 4813   5.524   5.397   6.521
 1305SOL    HW1 4814   5.473   5.434   6.443
 1305SOL    HW2 4815   5.533   5.468   6.591
 1306SOL     OW 4816   0.655   4.718   5.149
 1306SOL    HW1 4817   0.712   4.791   5.112
 1306SOL    HW2 4818   0.576   4.703   5.090
 1307SOL     OW 4819   1.625   2.676   5.042
 1307SOL    HW1 4820   1.605   2.743   4.971
 1307SOL    HW2 4821   1.653   2.590   4.999
 1308SOL     OW 4822   4.031   5.608   4.599
 1308SOL    HW1 4823   4.054   5.593   4.696
 1308SOL    HW2 4824   3.936   5.582   4.583
 1309SOL     OW 4825   5.499   2.577   5.289
 1309SOL    HW1 4826   5.574   2.644   5.288
 1309SOL    HW2 4827   5.438   2.593   5.212
 1310SOL     OW 4828   6.240   3.670   4.998
 1310SOL    HW1 4829   6.325   3.619   4.989
 1310SOL    HW2 4830   6.164   3.606   5.011
 1311SOL     OW 4831   6.567   6.482   4.058
 1311SOL    HW1 4832   6.644   6.534   4.096
 1311SOL    HW2 4833   6.482   6.526   4.084
 1312SOL     OW 4834   0.668   0.463   6.613
 1312SOL    HW1 4835   0.621   0.493   6.530
 1312SOL    HW2 4836   0.748   0.408   6.588
 1313SOL     OW 4837   1.713   5.035   5.587
 1313SOL    HW1 4838   1.680   4.955   5.537
 1313SOL    HW2 4839   1.769   5.091   5.526
 1314SOL     OW 4840   2.417   1.566   5.598
 1314SOL    HW1 4841   2.454   1.524   5.515
 1314SOL    HW2 4842   2.431   1.665   5.594
 1315SOL     OW 4843   0.801   0.876   0.513
 1315SOL    HW1 4844   0.871   0.895   0.444
 1315SOL    HW2 4845   0.830   0.911   0.602
 1316SOL     OW 4846   1.994   6.784   3.867
 1316SOL    HW1 4847   2.009   6.848   3.792
 1316SOL    HW2 4848   2.082   6.762   3.910
 1317SOL     OW 4849   1.117   3.857   4.373
 1317SOL    HW1 4850   1.207   3.898   4.393
 1317SOL    HW2 4851   1.048   3.897   4.433
 1318SOL     OW 4852   6.940   0.660   0.285
 1318SOL    HW1 4853   6.918   0.668   0.188
 1318SOL    HW2 4854   6.963   0.750   0.321
 1319SOL     OW 4855   6.513   1.581   0.105
 1319SOL    HW1 4856   6.603   1.555   0.070
 1319SOL    HW2 4857   6.505   1.680   0.104
 1320SOL     OW 4858   5.846   3.689   0.228
 1320SOL    HW1 4859   5.929   3.636   0.212
 1320SOL    HW2 4860   5.824   3.689   0.326
 1321SOL     OW 4861   4.509   2.596   6.417
 1321SOL    HW1 4862   4.559   2.568   6.335
 1321SOL    HW2 4863   4.569   2.586   6.497
 1322SOL     OW 4864   5.557   0.931   3.430
 1322SOL    HW1 4865   5.532   0.837   3.454
 1322SOL    HW2 4866   5.594   0.977   3.511
 1323SOL     OW 4867   5.324   1.721   5.438
 1323SOL    HW1 4868   5.296   1.661   5.363
 1323SOL    HW2 4869   5.262   1.709   5.515
 1324SOL     OW 4870   1.079   2.791   1.896
 1324SOL    HW1 4871   1.113   2.699   1.879
 1324SOL    HW2 4872   0.980   2.788   1.908
 1325SOL     OW 4873   2.465   6.908   2.078
 1325SOL    HW1 4874   2.378   6.922   2.125
 1325SOL    HW2 4875   2.483   6.986   2.018
 1326SOL     OW 4876   4.765   2.879   4.523
 1326SOL    HW1 4877   4.680   2.844   4.481
 1326SOL    HW2 4878   4.805   2.948   4.463
 1327SOL     OW 4879   2.928   5.204   3.017
 1327SOL    HW1 4880   2.835   5.232   3.044
 1327SOL    HW2 4881   2.989   5.283   3.025
 1328SOL     OW 4882   1.023   2.843   0.947
 1328SOL    HW1 4883   1.029   2.927   0.894
 1328SOL    HW2 4884   1.091   2.778   0.915
 1329SOL     OW 4885   6.734   2.202   0.690
 1329SOL    HW1 4886   6.665   2.257   0.643
 1329SOL    HW2 4887   6.788   2.152   0.621
 1330SOL     OW 4888   6.555   0.861   0.932
 1330SOL    HW1 4889   6.463   0.824   0.913
 1330SOL    HW2 4890   6.584   0.916   0.854
 1331SOL     OW 4891   4.517   1.975   3.103
 1331SOL    HW1 4892   4.568   1.944   3.184
 1331SOL    HW2 4893   4.460   1.900   3.070
 1332SOL     OW 4894   3.669   7.020   0.322
 1332SOL    HW1 4895   3.612   0.078   0.302
 1332SOL    HW2 4896   3.626   6.966   0.395
 1333SOL     OW 4897   3.844   3.918   5.900
 1333SOL    HW1 4898   3.775   3.991   5.907
 1333SOL    HW2 4899   3.929   3.948   5.944
 1334SOL     OW 4900   6.723   2.481   4.711
 1334SOL    HW1 4901   6.683   2.530   4.634
 1334SOL    HW2 4902   6.805   2.528   4.742
 1335SOL     OW 4903   3.021   6.643   2.911
 1335SOL    HW1 4904   3.100   6.701   2.931
 1335SOL    HW2 4905   2.946   6.668   2.972
 1336SOL     OW 4906   1.391   1.237   6.238
 1336SOL    HW1 4907   1.483   1.261   6.272
 1336SOL    HW2 4908   1.398   1.161   6.174
 1337SOL     OW 4909   0.757   1.535   5.121
 1337SOL    HW1 4910   0.707   1.470   5.178
 1337SOL    HW2 4911   0.693   1.587   5.065
 1338SOL     OW 4912   4.443   3.086   5.720
 1338SOL    HW1 4913   4.408   2.998   5.687
 1338SOL    HW2 4914   4.484   3.074   5.810
 1339SOL     OW 4915   0.258   6.706   0.132
 1339SOL    HW1 4916   0.250   6.805   0.144
 1339SOL    HW2 4917   0.188   6.674   0.069
 1340SOL     OW 4918   1.010   1.412   2.233
 1340SOL    HW1 4919   1.027   1.365   2.147
 1340SOL    HW2 4920   1.078   1.485   2.245
 1341SOL     OW 4921   4.014   0.221   5.499
 1341SOL    HW1 4922   3.931   0.264   5.534
 1341SOL    HW2 4923   4.027   0.133   5.545
 1342SOL     OW 4924   1.429   5.163   6.060
 1342SOL    HW1 4925   1.515   5.127   6.026
 1342SOL    HW2 4926   1.359   5.156   5.989
 1343SOL     OW 4927   3.788   6.213   2.646
 1343SOL    HW1 4928   3.720   6.234   2.577
 1343SOL    HW2 4929   3.877   6.197   2.602
 1344SOL     OW 4930   0.045   3.849   3.389
 1344SOL    HW1 4931   0.035   3.872   3.486
 1344SOL    HW2 4932   6.983   3.801   3.358
 1345SOL     OW 4933   1.203   1.947   3.432
 1345SOL    HW1 4934   1.168   1.854   3.429
 1345SOL    HW2 4935   1.181   1.994   3.347
 1346SOL     OW 4936   1.759   0.071   3.133
 1346SOL    HW1 4937   1.685   0.006   3.154
 1346SOL    HW2 4938   1.845   0.036   3.172
 1347SOL     OW 4939   6.347   6.172   3.705
 1347SOL    HW1 4940   6.435   6.145   3.744
 1347SOL    HW2 4941   6.274   6.122   3.752
 1348SOL     OW 4942   5.864   5.604   3.163
 1348SOL    HW1 4943   5.889   5.583   3.069
 1348SOL    HW2 4944   5.802   5.682   3.165
 1349SOL     OW 4945   4.921   2.683   6.302
 1349SOL    HW1 4946   4.901   2.596   6.346
 1349SOL    HW2 4947   4.997   2.728   6.351
 1350SOL     OW 4948   3.797   4.813   0.008
 1350SOL    HW1 4949   3.867   4.779   0.071
 1350SOL    HW2 4950   3.738   4.738   7.000
 1351SOL     OW 4951   0.183   1.867   3.246
 1351SOL    HW1 4952   0.096   1.898   3.208
 1351SOL    HW2 4953   0.192   1.901   3.340
 1352SOL     OW 4954   0.745   0.976   3.032
 1352SOL    HW1 4955   0.653   1.008   3.056
 1352SOL    HW2 4956   0.770   0.898   3.090
 1353SOL     OW 4957   6.657   4.137   5.923
 1353SOL    HW1 4958   6.667   4.201   5.847
 1353SOL    HW2 4959   6.659   4.043   5.888
 1354SOL     OW 4960   6.888   2.037   0.538
 1354SOL    HW1 4961   6.896   1.953   0.485
 1354SOL    HW2 4962   6.970   2.050   0.593
 1355SOL     OW 4963   5.811   2.971   5.770
 1355SOL    HW1 4964   5.907   2.945   5.779
 1355SOL    HW2 4965   5.785   3.029   5.848
 1356SOL     OW 4966   3.250   3.867   3.988
 1356SOL    HW1 4967   3.280   3.935   4.054
 1356SOL    HW2 4968   3.151   3.875   3.974
 1357SOL     OW 4969   2.219   3.476   5.690
 1357SOL    HW1 4970   2.312   3.468   5.725
 1357SOL    HW2 4971   2.206   3.568   5.651
 1358SOL     OW 4972   3.428   1.587   6.150
 1358SOL    HW1 4973   3.502   1.529   6.183
 1358SOL    HW2 4974   3.412   1.662   6.214
 1359SOL     OW 4975   0.144   4.679   1.085
 1359SOL    HW1 4976   0.156   4.777   1.097
 1359SOL    HW2 4977   0.106   4.661   0.994
 1360SOL     OW 4978   3.999   3.784   2.570
 1360SOL    HW1 4979   4.023   3.771   2.667
 1360SOL    HW2 4980   4.073   3.750   2.512
 1361SOL     OW 4981   6.851   6.868   6.307
 1361SOL    HW1 4982   6.814   6.937   6.368
 1361SOL    HW2 4983   6.785   6.846   6.236
 1362SOL     OW 4984   2.908   3.790   4.253
 1362SOL    HW1 4985   2.815   3.752   4.249
 1362SOL    HW2 4986   2.973   3.716   4.269
 1363SOL     OW 4987   0.032   5.798   3.817
 1363SOL    HW1 4988   0.033   5.790   3.717
 1363SOL    HW2 4989   0.105   5.860   3.845
 1364SOL     OW 4990   0.162   2.070   0.607
 1364SOL    HW1 4991   0.233   2.107   0.666
 1364SOL    HW2 4992   0.202   2.002   0.545
 1365SOL     OW 4993   1.155   3.571   5.506
 1365SOL    HW1 4994   1.119   3.575   5.413
 1365SOL    HW2 4995   1.080   3.559   5.571
 1366SOL     OW 4996   0.196   4.280   0.825
 1366SOL    HW1 4997   0.142   4.353   0.783
 1366SOL    HW2 4998   0.229   4.311   0.914
 1367SOL     OW 4999   1.330   5.681   2.457
 1367SOL    HW1 5000   1.292   5.727   2.537
 1367SOL    HW2 5001   1.406   5.622   2.486
 1368SOL     OW 5002   0.165   0.516   4.117
 1368SOL    HW1 5003   0.210   0.561   4.040
 1368SOL    HW2 5004   0.235   0.472   4.174
 1369SOL     OW 5005   2.538   6.612   2.220
 1369SOL    HW1 5006   2.594   6.624   2.302
 1369SOL    HW2 5007   2.512   6.702   2.185
 1370SOL     OW 5008   6.082   2.235   3.804
 1370SOL    HW1 5009   5.983   2.223   3.792
 1370SOL    HW2 5010   6.122   2.271   3.720
 1371SOL     OW 5011   4.590   1.484   4.813
 1371SOL    HW1 5012   4.555   1.502   4.721
 1371SOL    HW2 5013   4.659   1.552   4.836
 1372SOL     OW 5014   0.279   2.267   1.230
 1372SOL    HW1 5015   0.207   2.199   1.218
 1372SOL    HW2 5016   0.320   2.256   1.321
 1373SOL     OW 5017   4.831   2.288   0.631
 1373SOL    HW1 5018   4.905   2.280   0.564
 1373SOL    HW2 5019   4.744   2.273   0.585
 1374SOL     OW 5020   4.848   4.007   0.192
 1374SOL    HW1 5021   4.781   4.037   0.259
 1374SOL    HW2 5022   4.889   4.087   0.148
 1375SOL     OW 5023   0.174   6.859   6.447
 1375SOL    HW1 5024   0.159   6.768   6.410
 1375SOL    HW2 5025   0.138   6.863   6.541
 1376SOL     OW 5026   3.339   4.630   5.674
 1376SOL    HW1 5027   3.258   4.618   5.617
 1376SOL    HW2 5028   3.385   4.715   5.648
 1377SOL     OW 5029   0.905   3.344   3.507
 1377SOL    HW1 5030   0.998   3.311   3.522
 1377SOL    HW2 5031   0.878   3.403   3.584
 1378SOL     OW 5032   5.362   2.154   5.424
 1378SOL    HW1 5033   5.329   2.205   5.503
 1378SOL    HW2 5034   5.382   2.218   5.349
 1379SOL     OW 5035   3.994   5.297   3.364
 1379SOL    HW1 5036   3.897   5.288   3.387
 1379SOL    HW2 5037   4.048   5.294   3.448
 1380SOL     OW 5038   6.942   6.082   3.249
 1380SOL    HW1 5039   6.917   5.986   3.234
 1380SOL    HW2 5040   6.885   6.141   3.192
 1381SOL     OW 5041   5.911   2.012   0.127
 1381SOL    HW1 5042   5.928   2.079   0.200
 1381SOL    HW2 5043   5.890   2.060   0.042
 1382SOL     OW 5044   4.975   3.373   1.214
 1382SOL    HW1 5045   4.919   3.449   1.246
 1382SOL    HW2 5046   4.920   3.289   1.214
 1383SOL     OW 5047   1.192   0.127   1.700
 1383SOL    HW1 5048   1.108   0.179   1.714
 1383SOL    HW2 5049   1.196   0.051   1.765
 1384SOL     OW 5050   4.792   6.787   1.723
 1384SOL    HW1 5051   4.817   6.869   1.775
 1384SOL    HW2 5052   4.854   6.712   1.746
 1385SOL     OW 5053   2.704   5.056   3.604
 1385SOL    HW1 5054   2.699   5.049   3.504
 1385SOL    HW2 5055   2.629   5.114   3.637
 1386SOL     OW 5056   3.328   0.247   3.733
 1386SOL    HW1 5057   3.345   0.151   3.756
 1386SOL    HW2 5058   3.414   0.298   3.740
 1387SOL     OW 5059   3.740   5.822   3.294
 1387SOL    HW1 5060   3.766   5.849   3.201
 1387SOL    HW2 5061   3.730   5.903   3.351
 1388SOL     OW 5062   6.444   0.306   1.836
 1388SOL    HW1 5063   6.435   0.248   1.917
 1388SOL    HW2 5064   6.461   0.400   1.865
 1389SOL     OW 5065   6.251   1.211   4.621
 1389SOL    HW1 5066   6.240   1.243   4.527
 1389SOL    HW2 5067   6.278   1.114   4.621
 1390SOL     OW 5068   0.328   3.733   6.658
 1390SOL    HW1 5069   0.421   3.724   6.694
 1390SOL    HW2 5070   0.262   3.710   6.730
 1391SOL     OW 5071   6.237   6.417   4.827
 1391SOL    HW1 5072   6.164   6.348   4.829
 1391SOL    HW2 5073   6.316   6.382   4.878
 1392SOL     OW 5074   5.794   6.256   6.256
 1392SOL    HW1 5075   5.715   6.217   6.302
 1392SOL    HW2 5076   5.870   6.262   6.321
 1393SOL     OW 5077   6.464   4.776   5.013
 1393SOL    HW1 5078   6.490   4.684   4.982
 1393SOL    HW2 5079   6.504   4.793   5.103
 1394SOL     OW 5080   3.671   5.128   5.734
 1394SOL    HW1 5081   3.595   5.103   5.675
 1394SOL    HW2 5082   3.732   5.191   5.685
 1395SOL     OW 5083   2.474   4.431   5.552
 1395SOL    HW1 5084   2.449   4.354   5.493
 1395SOL    HW2 5085   2.471   4.402   5.647
 1396SOL     OW 5086   0.860   1.206   4.838
 1396SOL    HW1 5087   0.881   1.298   4.804
 1396SOL    HW2 5088   0.769   1.179   4.807
 1397SOL     OW 5089   0.302   0.165   3.706
 1397SOL    HW1 5090   0.311   0.091   3.773
 1397SOL    HW2 5091   0.241   0.135   3.632
 1398SOL     OW 5092   3.138   0.606   6.215
 1398SOL    HW1 5093   3.095   0.571   6.132
 1398SOL    HW2 5094   3.179   0.530   6.266
 1399SOL     OW 5095   3.751   5.539   0.736
 1399SOL    HW1 5096   3.803   5.493   0.809
 1399SOL    HW2 5097   3.694   5.472   0.690
 1400SOL     OW 5098   0.291   1.629   3.136
 1400SOL    HW1 5099   0.221   1.558   3.126
 1400SOL    HW2 5100   0.251   1.709   3.180
 1401SOL     OW 5101   6.313   0.941   4.623
 1401SOL    HW1 5102   6.359   0.859   4.658
 1401SOL    HW2 5103   6.310   0.937   4.523
 1402SOL     OW 5104   6.733   3.809   6.566
 1402SOL    HW1 5105   6.725   3.851   6.476
 1402SOL    HW2 5106   6.650   3.757   6.586
 1403SOL     OW 5107   2.203   2.722   1.377
 1403SOL    HW1 5108   2.202   2.625   1.351
 1403SOL    HW2 5109   2.296   2.748   1.404
 1404SOL     OW 5110   6.036   6.763   0.704
 1404SOL    HW1 5111   6.125   6.808   0.715
 1404SOL    HW2 5112   6.045   6.689   0.637
 1405SOL     OW 5113   2.335   3.659   1.254
 1405SOL    HW1 5114   2.270   3.586   1.276
 1405SOL    HW2 5115   2.428   3.624   1.260
 1406SOL     OW 5116   0.624   5.538   0.775
 1406SOL    HW1 5117   0.623   5.589   0.689
 1406SOL    HW2 5118   0.657   5.597   0.849
 1407SOL     OW 5119   0.261   2.313   2.537
 1407SOL    HW1 5120   0.298   2.318   2.630
 1407SOL    HW2 5121   0.211   2.226   2.527
 1408SOL     OW 5122   5.592   1.449   6.153
 1408SOL    HW1 5123   5.671   1.511   6.145
 1408SOL    HW2 5124   5.540   1.450   6.067
 1409SOL     OW 5125   0.208   6.942   5.055
 1409SOL    HW1 5126   0.204   6.853   5.100
 1409SOL    HW2 5127   0.153   7.008   5.106
 1410SOL     OW 5128   1.162   3.417   6.440
 1410SOL    HW1 5129   1.154   3.489   6.371
 1410SOL    HW2 5130   1.257   3.389   6.450
 1411SOL     OW 5131   3.439   6.482   1.429
 1411SOL    HW1 5132   3.427   6.528   1.517
 1411SOL    HW2 5133   3.354   6.491   1.376
 1412SOL     OW 5134   0.441   1.980   1.038
 1412SOL    HW1 5135   0.444   2.080   1.043
 1412SOL    HW2 5136   0.413   1.943   1.127
 1413SOL     OW 5137   1.282   2.021   5.406
 1413SOL    HW1 5138   1.298   1.940   5.350
 1413SOL    HW2 5139   1.297   1.999   5.502
 1414SOL     OW 5140   2.447   1.267   1.993
 1414SOL    HW1 5141   2.545   1.263   2.008
 1414SOL    HW2 5142   2.416   1.185   1.946
 1415SOL     OW 5143   2.929   1.041   4.556
 1415SOL    HW1 5144   3.003   1.055   4.622
 1415SOL    HW2 5145   2.851   0.998   4.602
 1416SOL     OW 5146   5.316   5.237   4.584
 1416SOL    HW1 5147   5.257   5.214   4.661
 1416SOL    HW2 5148   5.269   5.215   4.498
 1417SOL     OW 5149   2.924   1.989   0.223
 1417SOL    HW1 5150   2.993   1.982   0.152
 1417SOL    HW2 5151   2.887   2.082   0.224
 1418SOL     OW 5152   3.451   4.042   3.088
 1418SOL    HW1 5153   3.464   3.944   3.076
 1418SOL    HW2 5154   3.400   4.079   3.010
 1419SOL     OW 5155   2.799   5.674   4.863
 1419SOL    HW1 5156   2.818   5.609   4.936
 1419SOL    HW2 5157   2.761   5.758   4.902
 1420SOL     OW 5158   2.857   6.813   1.447
 1420SOL    HW1 5159   2.792   6.793   1.520
 1420SOL    HW2 5160   2.913   6.892   1.472
 1421SOL     OW 5161   1.999   4.690   3.440
 1421SOL    HW1 5162   2.017   4.605   3.391
 1421SOL    HW2 5163   2.039   4.767   3.390
 1422SOL     OW 5164   1.582   3.596   1.013
 1422SOL    HW1 5165   1.506   3.534   0.991
 1422SOL    HW2 5166   1.596   3.598   1.112
 1423SOL     OW 5167   5.300   6.325   3.532
 1423SOL    HW1 5168   5.380   6.271   3.557
 1423SOL    HW2 5169   5.284   6.395   3.601
 1424SOL     OW 5170   6.302   4.909   6.125
 1424SOL    HW1 5171   6.337   4.836   6.184
 1424SOL    HW2 5172   6.303   4.879   6.030
 1425SOL     OW 5173   1.581   5.532   5.352
 1425SOL    HW1 5174   1.521   5.609   5.329
 1425SOL    HW2 5175   1.545   5.483   5.431
 1426SOL     OW 5176   1.995   3.295   6.224
 1426SOL    HW1 5177   2.009   3.199   6.202
 1426SOL    HW2 5178   1.923   3.332   6.165
 1427SOL     OW 5179   0.555   0.610   3.667
 1427SOL    HW1 5180   0.567   0.511   3.679
 1427SOL    HW2 5181   0.462   0.628   3.635
 1428SOL     OW 5182   6.664   3.697   0.234
 1428SOL    HW1 5183   6.639   3.708   0.330
 1428SOL    HW2 5184   6.747   3.641   0.228
 1429SOL     OW 5185   4.407   2.114   6.938
 1429SOL    HW1 5186   4.460   2.122   0.001
 1429SOL    HW2 5187   4.310   2.102   6.960
 1430SOL     OW 5188   1.361   4.610   3.850
 1430SOL    HW1 5189   1.377   4.525   3.899
 1430SOL    HW2 5190   1.368   4.593   3.751
 1431SOL     OW 5191   2.622   1.830   0.625
 1431SOL    HW1 5192   2.700   1.879   0.664
 1431SOL    HW2 5193   2.627   1.834   0.525
 1432SOL     OW 5194   2.651   1.530   2.495
 1432SOL    HW1 5195   2.681   1.450   2.443
 1432SOL    HW2 5196   2.718   1.603   2.485
 1433SOL     OW 5197   4.201   0.923   4.982
 1433SOL    HW1 5198   4.265   0.976   4.926
 1433SOL    HW2 5199   4.242   0.904   5.071
 1434SOL     OW 5200   0.132   0.118   5.568
 1434SOL    HW1 5201   0.144   0.160   5.658
 1434SOL    HW2 5202   0.070   0.040   5.576
 1435SOL     OW 5203   6.091   0.022   3.048
 1435SOL    HW1 5204   6.028   0.061   3.115
 1435SOL    HW2 5205   6.080   0.068   2.960
 1436SOL     OW 5206   5.316   3.966   6.865
 1436SOL    HW1 5207   5.372   3.999   6.941
 1436SOL    HW2 5208   5.223   3.946   6.898
 1437SOL     OW 5209   3.014   2.106   3.702
 1437SOL    HW1 5210   3.079   2.147   3.638
 1437SOL    HW2 5211   2.975   2.176   3.761
 1438SOL     OW 5212   2.875   6.211   1.250
 1438SOL    HW1 5213   2.920   6.282   1.304
 1438SOL    HW2 5214   2.786   6.191   1.289
 1439SOL     OW 5215   6.536   5.465   1.488
 1439SOL    HW1 5216   6.616   5.482   1.429
 1439SOL    HW2 5217   6.564   5.472   1.583
 1440SOL     OW 5218   3.292   3.005   0.040
 1440SOL    HW1 5219   3.206   2.970   0.077
 1440SOL    HW2 5220   3.369   2.960   0.086
 1441SOL     OW 5221   6.587   0.355   4.138
 1441SOL    HW1 5222   6.663   0.326   4.079
 1441SOL    HW2 5223   6.503   0.309   4.110
 1442SOL     OW 5224   0.659   6.000   7.003
 1442SOL    HW1 5225   0.599   5.920   6.997
 1442SOL    HW2 5226   0.629   6.059   0.057
 1443SOL     OW 5227   0.353   3.317   4.076
 1443SOL    HW1 5228   0.410   3.392   4.109
 1443SOL    HW2 5229   0.373   3.235   4.129
 1444SOL     OW 5230   4.731   5.916   0.663
 1444SOL    HW1 5231   4.650   5.867   0.694
 1444SOL    HW2 5232   4.722   6.013   0.683
 1445SOL     OW 5233   1.203   2.862   3.219
 1445SOL    HW1 5234   1.224   2.928   3.148
 1445SOL    HW2 5235   1.251   2.888   3.304
 1446SOL     OW 5236   5.868   1.432   6.834
 1446SOL    HW1 5237   5.823   1.402   6.918
 1446SOL    HW2 5238   5.908   1.522   6.849
 1447SOL     OW 5239   5.947   6.249   4.486
 1447SOL    HW1 5240   6.025   6.188   4.499
 1447SOL    HW2 5241   5.874   6.225   4.551
 1448SOL     OW 5242   0.077   2.622   5.348
 1448SOL    HW1 5243   7.018   2.633   5.406
 1448SOL    HW2 5244   0.151   2.681   5.383
 1449SOL     OW 5245   1.394   2.865   6.391
 1449SOL    HW1 5246   1.446   2.835   6.311
 1449SOL    HW2 5247   1.350   2.953   6.371
 1450SOL     OW 5248   0.647   2.024   0.823
 1450SOL    HW1 5249   0.605   1.947   0.872
 1450SOL    HW2 5250   0.659   2.101   0.885
 1451SOL     OW 5251   0.754   6.507   2.901
 1451SOL    HW1 5252   0.802   6.424   2.932
 1451SOL    HW2 5253   0.808   6.587   2.926
 1452SOL     OW 5254   4.121   1.602   4.967
 1452SOL    HW1 5255   4.055   1.528   4.963
 1452SOL    HW2 5256   4.208   1.571   4.929
 1453SOL     OW 5257   0.415   3.685   5.643
 1453SOL    HW1 5258   0.342   3.671   5.710
 1453SOL    HW2 5259   0.400   3.771   5.595
 1454SOL     OW 5260   0.667   2.723   2.000
 1454SOL    HW1 5261   0.647   2.803   2.057
 1454SOL    HW2 5262   0.615   2.644   2.033
 1455SOL     OW 5263   1.305   0.238   1.281
 1455SOL    HW1 5264   1.332   0.154   1.327
 1455SOL    HW2 5265   1.262   0.216   1.193
 1456SOL     OW 5266   6.775   0.092   6.132
 1456SOL    HW1 5267   6.784   0.131   6.223
 1456SOL    HW2 5268   6.775   7.013   6.138
 1457SOL     OW 5269   0.483   6.413   1.338
 1457SOL    HW1 5270   0.431   6.472   1.399
 1457SOL    HW2 5271   0.540   6.351   1.391
 1458SOL     OW 5272   5.857   5.197   4.537
 1458SOL    HW1 5273   5.845   5.153   4.449
 1458SOL    HW2 5274   5.768   5.208   4.582
 1459SOL     OW 5275   3.639   6.337   6.289
 1459SOL    HW1 5276   3.730   6.297   6.277
 1459SOL    HW2 5277   3.648   6.425   6.336
 1460SOL     OW 5278   0.444   0.051   4.935
 1460SOL    HW1 5279   0.378   7.009   4.978
 1460SOL    HW2 5280   0.471   0.121   5.001
 1461SOL     OW 5281   6.179   4.153   2.895
 1461SOL    HW1 5282   6.233   4.172   2.813
 1461SOL    HW2 5283   6.228   4.087   2.953
 1462SOL     OW 5284   1.842   1.026   0.080
 1462SOL    HW1 5285   1.927   1.069   0.110
 1462SOL    HW2 5286   1.846   0.928   0.101
 1463SOL     OW 5287   0.086   5.503   6.197
 1463SOL    HW1 5288   0.183   5.525   6.181
 1463SOL    HW2 5289   0.034   5.588   6.206
 1464SOL     OW 5290   0.158   5.696   2.154
 1464SOL    HW1 5291   0.174   5.790   2.186
 1464SOL    HW2 5292   0.127   5.640   2.230
 1465SOL     OW 5293   1.888   0.665   3.759
 1465SOL    HW1 5294   1.862   0.698   3.668
 1465SOL    HW2 5295   1.806   0.630   3.806
 1466SOL     OW 5296   2.330   2.117   2.114
 1466SOL    HW1 5297   2.348   2.192   2.051
 1466SOL    HW2 5298   2.410   2.102   2.172
 1467SOL     OW 5299   2.116   1.404   3.091
 1467SOL    HW1 5300   2.167   1.348   3.026
 1467SOL    HW2 5301   2.073   1.345   3.159
 1468SOL     OW 5302   2.447   5.516   2.422
 1468SOL    HW1 5303   2.460   5.567   2.507
 1468SOL    HW2 5304   2.425   5.421   2.442
 1469SOL     OW 5305   0.318   0.489   2.427
 1469SOL    HW1 5306   0.356   0.533   2.508
 1469SOL    HW2 5307   0.382   0.500   2.350
 1470SOL     OW 5308   1.307   1.731   2.530
 1470SOL    HW1 5309   1.398   1.715   2.492
 1470SOL    HW2 5310   1.306   1.820   2.575
 1471SOL     OW 5311   0.784   0.336   0.817
 1471SOL    HW1 5312   0.814   0.352   0.911
 1471SOL    HW2 5313   0.829   0.401   0.756
 1472SOL     OW 5314   2.184   5.477   5.502
 1472SOL    HW1 5315   2.237   5.561   5.496
 1472SOL    HW2 5316   2.086   5.499   5.505
 1473SOL     OW 5317   3.608   5.388   5.291
 1473SOL    HW1 5318   3.635   5.363   5.198
 1473SOL    HW2 5319   3.599   5.487   5.298
 1474SOL     OW 5320   5.344   5.102   1.998
 1474SOL    HW1 5321   5.400   5.025   1.966
 1474SOL    HW2 5322   5.296   5.143   1.921
 1475SOL     OW 5323   5.600   0.842   1.590
 1475SOL    HW1 5324   5.558   0.875   1.506
 1475SOL    HW2 5325   5.541   0.775   1.633
 1476SOL     OW 5326   2.846   1.066   1.463
 1476SOL    HW1 5327   2.792   0.981   1.467
 1476SOL    HW2 5328   2.931   1.049   1.413
 1477SOL     OW 5329   3.237   6.766   5.963
 1477SOL    HW1 5330   3.234   6.721   6.052
 1477SOL    HW2 5331   3.190   6.710   5.895
 1478SOL     OW 5332   6.205   5.206   5.424
 1478SOL    HW1 5333   6.255   5.190   5.339
 1478SOL    HW2 5334   6.131   5.272   5.408
 1479SOL     OW 5335   2.024   2.412   0.686
 1479SOL    HW1 5336   2.094   2.373   0.626
 1479SOL    HW2 5337   2.063   2.488   0.738
 1480SOL     OW 5338   3.433   0.831   4.977
 1480SOL    HW1 5339   3.435   0.885   4.893
 1480SOL    HW2 5340   3.357   0.862   5.035
 1481SOL     OW 5341   5.962   3.302   6.851
 1481SOL    HW1 5342   5.966   3.273   6.756
 1481SOL    HW2 5343   5.897   3.245   6.901
 1482SOL     OW 5344   4.756   1.206   1.359
 1482SOL    HW1 5345   4.675   1.221   1.417
 1482SOL    HW2 5346   4.764   1.108   1.338
 1483SOL     OW 5347   5.371   2.230   6.210
 1483SOL    HW1 5348   5.426   2.297   6.261
 1483SOL    HW2 5349   5.367   2.257   6.114
 1484SOL     OW 5350   4.878   5.071   4.205
 1484SOL    HW1 5351   4.793   5.020   4.191
 1484SOL    HW2 5352   4.903   5.068   4.302
 1485SOL     OW 5353   4.104   0.737   4.589
 1485SOL    HW1 5354   4.024   0.749   4.530
 1485SOL    HW2 5355   4.178   0.795   4.556
 1486SOL     OW 5356   5.780   0.729   2.620
 1486SOL    HW1 5357   5.861   0.688   2.579
 1486SOL    HW2 5358   5.737   0.664   2.682
 1487SOL     OW 5359   0.275   2.429   0.094
 1487SOL    HW1 5360   0.204   2.499   0.092
 1487SOL    HW2 5361   0.283   2.393   0.187
 1488SOL     OW 5362   5.877   0.351   3.678
 1488SOL    HW1 5363   5.892   0.363   3.776
 1488SOL    HW2 5364   5.779   0.340   3.661
 1489SOL     OW 5365   4.419   5.149   5.952
 1489SOL    HW1 5366   4.513   5.137   5.920
 1489SOL    HW2 5367   4.405   5.094   6.034
 1490SOL     OW 5368   0.778   3.659   1.449
 1490SOL    HW1 5369   0.690   3.706   1.442
 1490SOL    HW2 5370   0.799   3.643   1.546
 1491SOL     OW 5371   5.982   4.792   2.248
 1491SOL    HW1 5372   6.081   4.781   2.247
 1491SOL    HW2 5373   5.940   4.713   2.202
 1492SOL     OW 5374   6.262   0.046   2.668
 1492SOL    HW1 5375   6.259   0.041   2.768
 1492SOL    HW2 5376   6.353   0.019   2.636
 1493SOL     OW 5377   3.992   6.894   6.328
 1493SOL    HW1 5378   3.960   6.868   6.237
 1493SOL    HW2 5379   4.089   6.869   6.337
 1494SOL     OW 5380   5.098   2.351   6.227
 1494SOL    HW1 5381   5.047   2.272   6.261
 1494SOL    HW2 5382   5.176   2.320   6.173
 1495SOL     OW 5383   0.763   3.527   5.221
 1495SOL    HW1 5384   0.767   3.487   5.313
 1495SOL    HW2 5385   0.715   3.614   5.224
 1496SOL     OW 5386   0.459   1.368   1.375
 1496SOL    HW1 5387   0.494   1.330   1.289
 1496SOL    HW2 5388   0.382   1.428   1.356
 1497SOL     OW 5389   5.171   3.155   2.478
 1497SOL    HW1 5390   5.238   3.191   2.542
 1497SOL    HW2 5391   5.093   3.119   2.528
 1498SOL     OW 5392   2.488   4.656   6.445
 1498SOL    HW1 5393   2.555   4.674   6.373
 1498SOL    HW2 5394   2.452   4.563   6.434
 1499SOL     OW 5395   0.856   2.057   5.281
 1499SOL    HW1 5396   0.925   2.019   5.220
 1499SOL    HW2 5397   0.792   1.984   5.307
 1500SOL     OW 5398   0.240   0.222   0.068
 1500SOL    HW1 5399   0.299   0.279   0.125
 1500SOL    HW2 5400   0.296   0.165   0.008
 1501SOL     OW 5401   5.716   2.720   6.654
 1501SOL    HW1 5402   5.618   2.710   6.672
 1501SOL    HW2 5403   5.757   2.778   6.724
 1502SOL     OW 5404   4.206   0.488   6.949
 1502SOL    HW1 5405   4.271   0.560   6.923
 1502SOL    HW2 5406   4.151   0.462   6.869
 1503SOL     OW 5407   1.187   2.586   2.235
 1503SOL    HW1 5408   1.232   2.672   2.259
 1503SOL    HW2 5409   1.242   2.539   2.165
 1504SOL     OW 5410   0.355   0.432   4.272
 1504SOL    HW1 5411   0.354   0.340   4.312
 1504SOL    HW2 5412   0.350   0.500   4.344
 1505SOL     OW 5413   4.457   0.284   4.914
 1505SOL    HW1 5414   4.439   0.377   4.883
 1505SOL    HW2 5415   4.460   0.283   5.014
 1506SOL     OW 5416   0.654   6.579   0.367
 1506SOL    HW1 5417   0.607   6.525   0.437
 1506SOL    HW2 5418   0.727   6.524   0.326
 1507SOL     OW 5419   7.003   1.794   5.834
 1507SOL    HW1 5420   0.067   1.773   5.883
 1507SOL    HW2 5421   6.987   1.893   5.838
 1508SOL     OW 5422   6.373   1.372   0.764
 1508SOL    HW1 5423   6.346   1.278   0.785
 1508SOL    HW2 5424   6.450   1.397   0.822
 1509SOL     OW 5425   3.728   1.748   5.023
 1509SOL    HW1 5426   3.785   1.667   5.010
 1509SOL    HW2 5427   3.747   1.789   5.112
 1510SOL     OW 5428   4.816   1.219   4.498
 1510SOL    HW1 5429   4.832   1.151   4.570
 1510SOL    HW2 5430   4.849   1.182   4.411
 1511SOL     OW 5431   4.095   3.249   3.861
 1511SOL    HW1 5432   4.062   3.291   3.776
 1511SOL    HW2 5433   4.048   3.162   3.876
 1512SOL     OW 5434   6.982   5.673   0.716
 1512SOL    HW1 5435   0.021   5.593   0.723
 1512SOL    HW2 5436   0.015   5.751   0.683
 1513SOL     OW 5437   3.891   0.373   4.872
 1513SOL    HW1 5438   3.968   0.436   4.886
 1513SOL    HW2 5439   3.912   0.285   4.913
 1514SOL     OW 5440   3.628   2.835   5.388
 1514SOL    HW1 5441   3.719   2.832   5.347
 1514SOL    HW2 5442   3.627   2.903   5.461
 1515SOL     OW 5443   5.711   2.196   2.338
 1515SOL    HW1 5444   5.652   2.243   2.273
 1515SOL    HW2 5445   5.731   2.104   2.304
 1516SOL     OW 5446   6.587   5.542   5.779
 1516SOL    HW1 5447   6.586   5.452   5.822
 1516SOL    HW2 5448   6.628   5.534   5.688
 1517SOL     OW 5449   4.415   5.868   2.774
 1517SOL    HW1 5450   4.463   5.913   2.850
 1517SOL    HW2 5451   4.480   5.811   2.723
 1518SOL     OW 5452   0.495   2.813   0.487
 1518SOL    HW1 5453   0.468   2.838   0.580
 1518SOL    HW2 5454   0.462   2.721   0.467
 1519SOL     OW 5455   6.785   4.675   1.659
 1519SOL    HW1 5456   6.726   4.609   1.611
 1519SOL    HW2 5457   6.838   4.627   1.729
 1520SOL     OW 5458   0.471   4.494   1.994
 1520SOL    HW1 5459   0.556   4.493   1.942
 1520SOL    HW2 5460   0.396   4.525   1.936
 1521SOL     OW 5461   1.917   3.989   6.272
 1521SOL    HW1 5462   1.869   4.063   6.319
 1521SOL    HW2 5463   1.949   3.923   6.340
 1522SOL     OW 5464   5.583   6.238   4.969
 1522SOL    HW1 5465   5.565   6.259   4.873
 1522SOL    HW2 5466   5.638   6.311   5.009
 1523SOL     OW 5467   4.123   6.362   6.915
 1523SOL    HW1 5468   4.036   6.396   6.878
 1523SOL    HW2 5469   4.145   6.412   6.999
 1524SOL     OW 5470   2.442   1.706   2.987
 1524SOL    HW1 5471   2.360   1.712   2.930
 1524SOL    HW2 5472   2.464   1.610   3.002
 1525SOL     OW 5473   6.306   3.820   0.600
 1525SOL    HW1 5474   6.280   3.842   0.506
 1525SOL    HW2 5475   6.333   3.724   0.606
 1526SOL     OW 5476   6.924   1.016   6.730
 1526SOL    HW1 5477   7.006   1.050   6.686
 1526SOL    HW2 5478   6.949   0.950   6.802
 1527SOL     OW 5479   3.950   1.409   5.020
 1527SOL    HW1 5480   3.872   1.354   4.990
 1527SOL    HW2 5481   4.028   1.349   5.040
 1528SOL     OW 5482   3.777   4.870   2.812
 1528SOL    HW1 5483   3.862   4.853   2.760
 1528SOL    HW2 5484   3.779   4.817   2.897
 1529SOL     OW 5485   4.211   0.128   0.298
 1529SOL    HW1 5486   4.206   0.083   0.387
 1529SOL    HW2 5487   4.289   0.094   0.247
 1530SOL     OW 5488   3.996   1.995   2.434
 1530SOL    HW1 5489   3.918   2.034   2.385
 1530SOL    HW2 5490   3.982   2.004   2.532
 1531SOL     OW 5491   4.544   6.861   5.685
 1531SOL    HW1 5492   4.493   6.776   5.685
 1531SOL    HW2 5493   4.639   6.843   5.711
 1532SOL     OW 5494   3.442   3.559   6.286
 1532SOL    HW1 5495   3.494   3.474   6.290
 1532SOL    HW2 5496   3.345   3.539   6.302
 1533SOL     OW 5497   5.867   4.742   6.407
 1533SOL    HW1 5498   5.778   4.761   6.449
 1533SOL    HW2 5499   5.922   4.826   6.408
 1534SOL     OW 5500   3.046   5.712   7.013
 1534SOL    HW1 5501   2.981   5.762   0.049
 1534SOL    HW2 5502   3.026   5.728   6.916
 1535SOL     OW 5503   5.392   6.156   4.477
 1535SOL    HW1 5504   5.423   6.063   4.494
 1535SOL    HW2 5505   5.303   6.154   4.433
 1536SOL     OW 5506   3.831   4.188   5.736
 1536SOL    HW1 5507   3.814   4.107   5.679
 1536SOL    HW2 5508   3.744   4.220   5.774
 1537SOL     OW 5509   4.271   5.771   3.807
 1537SOL    HW1 5510   4.260   5.732   3.715
 1537SOL    HW2 5511   4.201   5.732   3.868
 1538SOL     OW 5512   3.270   0.210   6.814
 1538SOL    HW1 5513   3.230   0.293   6.852
 1538SOL    HW2 5514   3.202   0.161   6.761
 1539SOL     OW 5515   4.788   3.967   1.885
 1539SOL    HW1 5516   4.786   3.941   1.982
 1539SOL    HW2 5517   4.777   3.885   1.829
 1540SOL     OW 5518   1.205   5.911   5.662
 1540SOL    HW1 5519   1.139   5.853   5.615
 1540SOL    HW2 5520   1.165   6.000   5.680
 1541SOL     OW 5521   3.107   3.069   3.776
 1541SOL    HW1 5522   3.111   3.163   3.741
 1541SOL    HW2 5523   3.022   3.056   3.827
 1542SOL     OW 5524   6.514   6.993   2.591
 1542SOL    HW1 5525   6.524   6.944   2.504
 1542SOL    HW2 5526   6.576   0.051   2.591
 1543SOL     OW 5527   3.084   5.106   5.506
 1543SOL    HW1 5528   3.145   5.048   5.452
 1543SOL    HW2 5529   3.032   5.165   5.444
 1544SOL     OW 5530   2.841   3.582   2.592
 1544SOL    HW1 5531   2.790   3.503   2.558
 1544SOL    HW2 5532   2.867   3.641   2.516
 1545SOL     OW 5533   5.178   0.779   2.967
 1545SOL    HW1 5534   5.187   0.680   2.977
 1545SOL    HW2 5535   5.209   0.823   3.051
 1546SOL     OW 5536   4.220   6.765   5.707
 1546SOL    HW1 5537   4.233   6.686   5.767
 1546SOL    HW2 5538   4.275   6.842   5.740
 1547SOL     OW 5539   1.678   4.237   1.951
 1547SOL    HW1 5540   1.772   4.207   1.933
 1547SOL    HW2 5541   1.656   4.315   1.892
 1548SOL     OW 5542   5.725   3.294   5.378
 1548SOL    HW1 5543   5.715   3.204   5.421
 1548SOL    HW2 5544   5.782   3.353   5.436
 1549SOL     OW 5545   4.111   1.798   1.653
 1549SOL    HW1 5546   4.015   1.825   1.660
 1549SOL    HW2 5547   4.150   1.788   1.744
 1550SOL     OW 5548   2.828   3.692   0.303
 1550SOL    HW1 5549   2.858   3.764   0.365
 1550SOL    HW2 5550   2.731   3.674   0.317
 1551SOL     OW 5551   2.066   4.325   6.133
 1551SOL    HW1 5552   2.012   4.295   6.055
 1551SOL    HW2 5553   2.122   4.404   6.106
 1552SOL     OW 5554   1.303   5.930   0.157
 1552SOL    HW1 5555   1.402   5.914   0.164
 1552SOL    HW2 5556   1.255   5.871   0.221
 1553SOL     OW 5557   6.862   1.877   6.373
 1553SOL    HW1 5558   6.833   1.973   6.364
 1553SOL    HW2 5559   6.958   1.874   6.398
 1554SOL     OW 5560   4.055   1.938   2.888
 1554SOL    HW1 5561   4.074   1.954   2.985
 1554SOL    HW2 5562   4.139   1.954   2.836
 1555SOL     OW 5563   5.157   2.437   0.063
 1555SOL    HW1 5564   5.149   2.534   0.038
 1555SOL    HW2 5565   5.244   2.401   0.028
 1556SOL     OW 5566   3.094   1.924   0.021
 1556SOL    HW1 5567   3.090   1.828   0.049
 1556SOL    HW2 5568   3.090   1.931   6.943
 1557SOL     OW 5569   2.156   1.992   5.365
 1557SOL    HW1 5570   2.212   1.964   5.443
 1557SOL    HW2 5571   2.073   1.936   5.361
 1558SOL     OW 5572   5.735   0.441   4.982
 1558SOL    HW1 5573   5.778   0.404   4.900
 1558SOL    HW2 5574   5.790   0.418   5.062
 1559SOL     OW 5575   1.447   2.420   0.142
 1559SOL    HW1 5576   1.387   2.416   0.222
 1559SOL    HW2 5577   1.392   2.414   0.059
 1560SOL     OW 5578   0.343   1.075   5.568
 1560SOL    HW1 5579   0.244   1.088   5.556
 1560SOL    HW2 5580   0.393   1.128   5.500
 1561SOL     OW 5581   6.276   6.495   3.912
 1561SOL    HW1 5582   6.262   6.565   3.982
 1561SOL    HW2 5583   6.248   6.532   3.823
 1562SOL     OW 5584   4.134   5.741   2.887
 1562SOL    HW1 5585   4.104   5.660   2.835
 1562SOL    HW2 5586   4.224   5.770   2.854
 1563SOL     OW 5587   2.288   0.156   5.461
 1563SOL    HW1 5588   2.268   0.207   5.545
 1563SOL    HW2 5589   2.235   0.194   5.385
 1564SOL     OW 5590   1.263   2.634   3.503
 1564SOL    HW1 5591   1.269   2.538   3.475
 1564SOL    HW2 5592   1.352   2.664   3.537
 1565SOL     OW 5593   4.379   4.653   3.757
 1565SOL    HW1 5594   4.436   4.572   3.745
 1565SOL    HW2 5595   4.400   4.695   3.845
 1566SOL     OW 5596   5.910   4.832   2.929
 1566SOL    HW1 5597   5.874   4.864   2.841
 1566SOL    HW2 5598   5.923   4.911   2.990
 1567SOL     OW 5599   6.144   5.999   0.848
 1567SOL    HW1 5600   6.171   6.096   0.853
 1567SOL    HW2 5601   6.155   5.967   0.753
 1568SOL     OW 5602   1.542   6.601   6.937
 1568SOL    HW1 5603   1.617   6.547   6.976
 1568SOL    HW2 5604   1.544   6.594   6.837
 1569SOL     OW 5605   4.673   6.119   3.487
 1569SOL    HW1 5606   4.647   6.039   3.433
 1569SOL    HW2 5607   4.744   6.094   3.552
 1570SOL     OW 5608   1.902   0.376   1.015
 1570SOL    HW1 5609   1.971   0.316   0.975
 1570SOL    HW2 5610   1.915   0.381   1.114
 1571SOL     OW 5611   5.195   2.388   1.397
 1571SOL    HW1 5612   5.135   2.468   1.404
 1571SOL    HW2 5613   5.142   2.309   1.367
 1572SOL     OW 5614   0.884   6.757   0.991
 1572SOL    HW1 5615   0.906   6.716   0.903
 1572SOL    HW2 5616   0.909   6.694   1.064
 1573SOL     OW 5617   5.152   2.796   2.137
 1573SOL    HW1 5618   5.063   2.812   2.095
 1573SOL    HW2 5619   5.164   2.858   2.215
 1574SOL     OW 5620   6.244   0.989   1.583
 1574SOL    HW1 5621   6.229   0.942   1.496
 1574SOL    HW2 5622   6.341   1.011   1.593
 1575SOL     OW 5623   3.518   1.375   0.770
 1575SOL    HW1 5624   3.552   1.462   0.736
 1575SOL    HW2 5625   3.418   1.373   0.764
 1576SOL     OW 5626   0.969   0.084   3.583
 1576SOL    HW1 5627   0.985   0.004   3.641
 1576SOL    HW2 5628   1.002   0.166   3.630
 1577SOL     OW 5629   3.048   1.863   4.440
 1577SOL    HW1 5630   3.019   1.806   4.517
 1577SOL    HW2 5631   3.056   1.806   4.358
 1578SOL     OW 5632   6.441   3.170   6.103
 1578SOL    HW1 5633   6.347   3.165   6.137
 1578SOL    HW2 5634   6.501   3.116   6.163
 1579SOL     OW 5635   0.147   1.403   2.991
 1579SOL    HW1 5636   0.202   1.331   2.949
 1579SOL    HW2 5637   0.084   1.441   2.924
 1580SOL     OW 5638   2.857   4.070   5.243
 1580SOL    HW1 5639   2.826   4.162   5.267
 1580SOL    HW2 5640   2.791   4.029   5.179
 1581SOL     OW 5641   0.589   3.795   4.991
 1581SOL    HW1 5642   0.503   3.788   5.041
 1581SOL    HW2 5643   0.652   3.854   5.042
 1582SOL     OW 5644   1.412   0.001   4.492
 1582SOL    HW1 5645   1.335   6.959   4.484
 1582SOL    HW2 5646   1.380   0.089   4.526
 1583SOL     OW 5647   1.294   4.583   3.210
 1583SOL    HW1 5648   1.303   4.508   3.144
 1583SOL    HW2 5649   1.231   4.556   3.283
 1584SOL     OW 5650   1.671   6.527   4.999
 1584SOL    HW1 5651   1.722   6.589   4.940
 1584SOL    HW2 5652   1.575   6.527   4.973
 1585SOL     OW 5653   6.008   1.532   3.486
 1585SOL    HW1 5654   5.909   1.539   3.496
 1585SOL    HW2 5655   6.032   1.545   3.389
 1586SOL     OW 5656   3.652   4.655   1.342
 1586SOL    HW1 5657   3.630   4.750   1.318
 1586SOL    HW2 5658   3.680   4.650   1.438
 1587SOL     OW 5659   2.700   6.432   6.306
 1587SOL    HW1 5660   2.641   6.354   6.285
 1587SOL    HW2 5661   2.651   6.496   6.365
 1588SOL     OW 5662   5.186   1.571   3.472
 1588SOL    HW1 5663   5.117   1.614   3.530
 1588SOL    HW2 5664   5.165   1.590   3.376
 1589SOL     OW 5665   6.044   4.014   2.144
 1589SOL    HW1 5666   6.071   4.088   2.083
 1589SOL    HW2 5667   5.949   3.988   2.125
 1590SOL     OW 5668   2.603   6.217   6.710
 1590SOL    HW1 5669   2.648   6.175   6.789
 1590SOL    HW2 5670   2.646   6.305   6.692
 1591SOL     OW 5671   0.185   5.380   2.582
 1591SOL    HW1 5672   0.150   5.400   2.674
 1591SOL    HW2 5673   0.164   5.455   2.521
 1592SOL     OW 5674   2.145   4.251   0.569
 1592SOL    HW1 5675   2.158   4.177   0.635
 1592SOL    HW2 5676   2.215   4.321   0.583
 1593SOL     OW 5677   1.197   6.397   3.963
 1593SOL    HW1 5678   1.127   6.454   3.919
 1593SOL    HW2 5679   1.236   6.334   3.896
 1594SOL     OW 5680   6.591   6.063   2.612
 1594SOL    HW1 5681   6.658   6.033   2.544
 1594SOL    HW2 5682   6.605   6.160   2.631
 1595SOL     OW 5683   1.559   5.066   7.014
 1595SOL    HW1 5684   1.634   5.023   0.043
 1595SOL    HW2 5685   1.556   5.163   0.014
 1596SOL     OW 5686   0.786   2.908   4.599
 1596SOL    HW1 5687   0.798   2.914   4.500
 1596SOL    HW2 5688   0.839   2.832   4.635
 1597SOL     OW 5689   2.165   6.562   6.743
 1597SOL    HW1 5690   2.099   6.487   6.747
 1597SOL    HW2 5691   2.174   6.603   6.834
 1598SOL     OW 5692   0.731   3.764   6.989
 1598SOL    HW1 5693   0.773   3.780   0.058
 1598SOL    HW2 5694   0.708   3.852   6.947
 1599SOL     OW 5695   4.651   4.053   6.049
 1599SOL    HW1 5696   4.612   4.145   6.050
 1599SOL    HW2 5697   4.582   3.988   6.017
 1600SOL     OW 5698   5.060   1.848   5.112
 1600SOL    HW1 5699   5.125   1.900   5.168
 1600SOL    HW2 5700   5.108   1.772   5.069
 1601SOL     OW 5701   0.126   4.700   4.321
 1601SOL    HW1 5702   0.094   4.791   4.345
 1601SOL    HW2 5703   0.194   4.706   4.248
 1602SOL     OW 5704   2.250   5.312   4.168
 1602SOL    HW1 5705   2.283   5.360   4.250
 1602SOL    HW2 5706   2.255   5.213   4.183
 1603SOL     OW 5707   6.715   5.950   2.893
 1603SOL    HW1 5708   6.628   5.984   2.929
 1603SOL    HW2 5709   6.734   5.993   2.805
 1604SOL     OW 5710   6.422   4.482   0.325
 1604SOL    HW1 5711   6.518   4.470   0.350
 1604SOL    HW2 5712   6.408   4.456   0.230
 1605SOL     OW 5713   6.164   6.569   2.292
 1605SOL    HW1 5714   6.123   6.660   2.282
 1605SOL    HW2 5715   6.261   6.573   2.267
 1606SOL     OW 5716   3.221   0.528   5.096
 1606SOL    HW1 5717   3.245   0.440   5.056
 1606SOL    HW2 5718   3.213   0.596   5.024
 1607SOL     OW 5719   4.056   2.287   0.377
 1607SOL    HW1 5720   4.007   2.367   0.413
 1607SOL    HW2 5721   4.084   2.305   0.283
 1608SOL     OW 5722   1.334   0.246   4.592
 1608SOL    HW1 5723   1.385   0.332   4.577
 1608SOL    HW2 5724   1.320   0.233   4.690
 1609SOL     OW 5725   4.427   0.276   0.431
 1609SOL    HW1 5726   4.355   0.211   0.406
 1609SOL    HW2 5727   4.516   0.237   0.409
 1610SOL     OW 5728   5.736   4.127   5.980
 1610SOL    HW1 5729   5.797   4.068   5.926
 1610SOL    HW2 5730   5.663   4.162   5.921
 1611SOL     OW 5731   2.946   3.331   1.928
 1611SOL    HW1 5732   2.890   3.291   1.856
 1611SOL    HW2 5733   2.979   3.258   1.989
 1612SOL     OW 5734   2.668   1.215   4.873
 1612SOL    HW1 5735   2.593   1.259   4.923
 1612SOL    HW2 5736   2.728   1.168   4.938
 1613SOL     OW 5737   1.963   5.906   1.203
 1613SOL    HW1 5738   2.034   5.901   1.273
 1613SOL    HW2 5739   1.899   5.829   1.214
 1614SOL     OW 5740   6.190   3.791   0.326
 1614SOL    HW1 5741   6.110   3.769   0.383
 1614SOL    HW2 5742   6.176   3.881   0.284
 1615SOL     OW 5743   6.505   5.110   0.664
 1615SOL    HW1 5744   6.439   5.065   0.604
 1615SOL    HW2 5745   6.571   5.161   0.609
 1616SOL     OW 5746   3.735   2.017   4.950
 1616SOL    HW1 5747   3.731   1.922   4.981
 1616SOL    HW2 5748   3.652   2.039   4.898
 1617SOL     OW 5749   6.031   0.548   1.837
 1617SOL    HW1 5750   5.937   0.582   1.838
 1617SOL    HW2 5751   6.031   0.450   1.855
 1618SOL     OW 5752   1.047   3.574   1.415
 1618SOL    HW1 5753   1.025   3.487   1.459
 1618SOL    HW2 5754   0.970   3.637   1.426
 1619SOL     OW 5755   0.769   2.301   3.035
 1619SOL    HW1 5756   0.804   2.210   3.013
 1619SOL    HW2 5757   0.845   2.363   3.053
 1620SOL     OW 5758   2.464   5.431   1.192
 1620SOL    HW1 5759   2.516   5.497   1.246
 1620SOL    HW2 5760   2.425   5.362   1.252
 1621SOL     OW 5761   0.924   1.245   0.441
 1621SOL    HW1 5762   1.018   1.234   0.410
 1621SOL    HW2 5763   0.861   1.230   0.364
 1622SOL     OW 5764   0.544   2.360   4.786
 1622SOL    HW1 5765   0.498   2.433   4.835
 1622SOL    HW2 5766   0.620   2.397   4.733
 1623SOL     OW 5767   2.284   3.493   5.331
 1623SOL    HW1 5768   2.384   3.483   5.336
 1623SOL    HW2 5769   2.251   3.533   5.417
 1624SOL     OW 5770   2.902   1.126   5.237
 1624SOL    HW1 5771   2.957   1.207   5.217
 1624SOL    HW2 5772   2.858   1.094   5.153
 1625SOL     OW 5773   1.218   5.286   1.585
 1625SOL    HW1 5774   1.162   5.222   1.638
 1625SOL    HW2 5775   1.290   5.323   1.644
 1626SOL     OW 5776   3.399   2.144   6.466
 1626SOL    HW1 5777   3.325   2.173   6.406
 1626SOL    HW2 5778   3.445   2.225   6.504
 1627SOL     OW 5779   6.515   2.764   3.721
 1627SOL    HW1 5780   6.589   2.704   3.752
 1627SOL    HW2 5781   6.444   2.768   3.791
 1628SOL     OW 5782   4.555   4.932   6.896
 1628SOL    HW1 5783   4.483   4.995   6.925
 1628SOL    HW2 5784   4.644   4.967   6.923
 1629SOL     OW 5785   2.833   1.596   4.075
 1629SOL    HW1 5786   2.743   1.555   4.090
 1629SOL    HW2 5787   2.878   1.550   3.998
 1630SOL     OW 5788   1.394   6.504   5.704
 1630SOL    HW1 5789   1.382   6.431   5.637
 1630SOL    HW2 5790   1.455   6.473   5.777
 1631SOL     OW 5791   0.123   1.878   6.449
 1631SOL    HW1 5792   0.138   1.784   6.420
 1631SOL    HW2 5793   0.207   1.931   6.438
 1632SOL     OW 5794   0.203   1.732   0.228
 1632SOL    HW1 5795   0.203   1.823   0.268
 1632SOL    HW2 5796   0.277   1.678   0.269
 1633SOL     OW 5797   4.899   2.446   3.944
 1633SOL    HW1 5798   4.911   2.347   3.938
 1633SOL    HW2 5799   4.819   2.473   3.891
 1634SOL     OW 5800   3.964   4.566   5.967
 1634SOL    HW1 5801   4.020   4.541   6.046
 1634SOL    HW2 5802   3.898   4.636   5.994
 1635SOL     OW 5803   6.742   5.452   5.588
 1635SOL    HW1 5804   6.830   5.453   5.637
 1635SOL    HW2 5805   6.756   5.416   5.496
 1636SOL     OW 5806   2.293   4.030   1.513
 1636SOL    HW1 5807   2.393   4.038   1.506
 1636SOL    HW2 5808   2.266   3.935   1.499
 1637SOL     OW 5809   0.162   0.257   2.991
 1637SOL    HW1 5810   0.216   0.227   3.069
 1637SOL    HW2 5811   0.220   0.312   2.930
 1638SOL     OW 5812   0.377   4.382   3.731
 1638SOL    HW1 5813   0.477   4.387   3.735
 1638SOL    HW2 5814   0.344   4.436   3.654
 1639SOL     OW 5815   4.069   6.751   3.148
 1639SOL    HW1 5816   3.975   6.727   3.121
 1639SOL    HW2 5817   4.134   6.704   3.088
 1640SOL     OW 5818   5.770   1.444   0.930
 1640SOL    HW1 5819   5.846   1.509   0.941
 1640SOL    HW2 5820   5.807   1.355   0.904
 1641SOL     OW 5821   5.453   2.703   4.098
 1641SOL    HW1 5822   5.520   2.697   4.023
 1641SOL    HW2 5823   5.393   2.624   4.095
 1642SOL     OW 5824   5.653   3.421   6.896
 1642SOL    HW1 5825   5.706   3.505   6.886
 1642SOL    HW2 5826   5.605   3.422   6.984
 1643SOL     OW 5827   3.043   5.027   4.053
 1643SOL    HW1 5828   3.078   4.979   4.134
 1643SOL    HW2 5829   3.071   4.977   3.971
 1644SOL     OW 5830   1.004   2.996   1.348
 1644SOL    HW1 5831   1.032   2.915   1.296
 1644SOL    HW2 5832   0.943   3.053   1.293
 1645SOL     OW 5833   2.944   6.471   5.583
 1645SOL    HW1 5834   2.974   6.387   5.537
 1645SOL    HW2 5835   2.845   6.466   5.601
 1646SOL     OW 5836   2.001   6.879   0.958
 1646SOL    HW1 5837   1.908   6.848   0.974
 1646SOL    HW2 5838   2.001   6.978   0.941
 1647SOL     OW 5839   6.042   2.696   4.314
 1647SOL    HW1 5840   6.064   2.613   4.364
 1647SOL    HW2 5841   5.943   2.711   4.316
 1648SOL     OW 5842   5.981   5.969   1.064
 1648SOL    HW1 5843   6.000   5.882   1.109
 1648SOL    HW2 5844   6.032   5.973   0.978
 1649SOL     OW 5845   4.221   7.012   3.930
 1649SOL    HW1 5846   4.258   6.995   4.022
 1649SOL    HW2 5847   4.216   6.926   3.880
 1650SOL     OW 5848   1.783   0.073   4.746
 1650SOL    HW1 5849   1.724   0.012   4.694
 1650SOL    HW2 5850   1.752   0.078   4.841
 1651SOL     OW 5851   0.688   0.847   1.846
 1651SOL    HW1 5852   0.675   0.939   1.883
 1651SOL    HW2 5853   0.782   0.837   1.814
 1652SOL     OW 5854   1.828   3.383   1.552
 1652SOL    HW1 5855   1.833   3.473   1.594
 1652SOL    HW2 5856   1.791   3.317   1.617
 1653SOL     OW 5857   0.264   6.673   1.291
 1653SOL    HW1 5858   0.312   6.742   1.238
 1653SOL    HW2 5859   0.310   6.660   1.379
 1654SOL     OW 5860   6.299   2.864   2.205
 1654SOL    HW1 5861   6.388   2.845   2.247
 1654SOL    HW2 5862   6.311   2.928   2.130
 1655SOL     OW 5863   5.937   2.758   4.722
 1655SOL    HW1 5864   6.011   2.824   4.732
 1655SOL    HW2 5865   5.974   2.674   4.682
 1656SOL     OW 5866   1.992   4.661   2.682
 1656SOL    HW1 5867   2.026   4.593   2.618
 1656SOL    HW2 5868   1.940   4.731   2.632
 1657SOL     OW 5869   6.889   0.748   4.527
 1657SOL    HW1 5870   6.876   0.738   4.625
 1657SOL    HW2 5871   6.907   0.658   4.487
 1658SOL     OW 5872   0.965   0.382   2.206
 1658SOL    HW1 5873   0.882   0.370   2.152
 1658SOL    HW2 5874   0.942   0.396   2.302
 1659SOL     OW 5875   3.950   1.130   5.853
 1659SOL    HW1 5876   4.026   1.185   5.889
 1659SOL    HW2 5877   3.864   1.179   5.865
 1660SOL     OW 5878   1.133   4.916   3.779
 1660SOL    HW1 5879   1.053   4.976   3.775
 1660SOL    HW2 5880   1.181   4.930   3.866
 1661SOL     OW 5881   3.232   1.264   1.809
 1661SOL    HW1 5882   3.174   1.182   1.807
 1661SOL    HW2 5883   3.174   1.346   1.803
 1662SOL     OW 5884   6.628   0.949   4.478
 1662SOL    HW1 5885   6.703   0.953   4.544
 1662SOL    HW2 5886   6.585   0.859   4.481
 1663SOL     OW 5887   3.079   0.580   2.971
 1663SOL    HW1 5888   3.163   0.564   2.920
 1663SOL    HW2 5889   3.101   0.618   3.061
 1664SOL     OW 5890   2.301   0.133   3.858
 1664SOL    HW1 5891   2.219   0.118   3.913
 1664SOL    HW2 5892   2.274   0.154   3.764
 1665SOL     OW 5893   0.088   1.239   2.690
 1665SOL    HW1 5894   0.166   1.298   2.708
 1665SOL    HW2 5895   0.119   1.154   2.647
 1666SOL     OW 5896   5.103   3.381   0.719
 1666SOL    HW1 5897   5.037   3.407   0.649
 1666SOL    HW2 5898   5.184   3.340   0.676
 1667SOL     OW 5899   5.841   6.918   1.047
 1667SOL    HW1 5900   5.781   6.849   1.088
 1667SOL    HW2 5901   5.787   6.996   1.017
 1668SOL     OW 5902   5.397   5.529   5.363
 1668SOL    HW1 5903   5.429   5.614   5.320
 1668SOL    HW2 5904   5.476   5.474   5.389
 1669SOL     OW 5905   6.165   6.522   6.792
 1669SOL    HW1 5906   6.210   6.437   6.820
 1669SOL    HW2 5907   6.224   6.600   6.815
 1670SOL     OW 5908   6.947   5.006   6.531
 1670SOL    HW1 5909   6.981   4.949   6.456
 1670SOL    HW2 5910   6.978   4.968   6.618
 1671SOL     OW 5911   4.545   2.824   1.019
 1671SOL    HW1 5912   4.631   2.792   0.979
 1671SOL    HW2 5913   4.476   2.752   1.012
 1672SOL     OW 5914   2.100   3.887   2.269
 1672SOL    HW1 5915   2.143   3.857   2.183
 1672SOL    HW2 5916   2.034   3.959   2.250
 1673SOL     OW 5917   7.000   2.218   4.806
 1673SOL    HW1 5918   0.015   2.129   4.779
 1673SOL    HW2 5919   6.909   2.230   4.767
 1674SOL     OW 5920   0.456   4.022   2.157
 1674SOL    HW1 5921   0.421   4.080   2.083
 1674SOL    HW2 5922   0.504   4.079   2.224
 1675SOL     OW 5923   4.494   0.500   5.968
 1675SOL    HW1 5924   4.407   0.534   5.932
 1675SOL    HW2 5925   4.482   0.406   5.999
 1676SOL     OW 5926   3.192   1.039   2.152
 1676SOL    HW1 5927   3.162   1.066   2.244
 1676SOL    HW2 5928   3.113   1.015   2.097
 1677SOL     OW 5929   4.150   2.796   5.330
 1677SOL    HW1 5930   4.177   2.704   5.303
 1677SOL    HW2 5931   4.171   2.860   5.255
 1678SOL     OW 5932   4.732   4.501   5.277
 1678SOL    HW1 5933   4.780   4.446   5.209
 1678SOL    HW2 5934   4.681   4.442   5.338
 1679SOL     OW 5935   2.125   3.365   5.040
 1679SOL    HW1 5936   2.120   3.290   4.973
 1679SOL    HW2 5937   2.168   3.331   5.124
 1680SOL     OW 5938   0.734   2.030   4.286
 1680SOL    HW1 5939   0.719   1.931   4.286
 1680SOL    HW2 5940   0.825   2.050   4.250
 1681SOL     OW 5941   6.597   5.900   1.390
 1681SOL    HW1 5942   6.525   5.850   1.438
 1681SOL    HW2 5943   6.585   5.998   1.405
 1682SOL     OW 5944   6.994   2.624   4.697
 1682SOL    HW1 5945   0.006   2.532   4.680
 1682SOL    HW2 5946   0.050   2.688   4.698
 1683SOL     OW 5947   4.002   5.725   0.849
 1683SOL    HW1 5948   4.041   5.678   0.770
 1683SOL    HW2 5949   4.013   5.668   0.930
 1684SOL     OW 5950   1.063   6.230   2.646
 1684SOL    HW1 5951   1.124   6.194   2.718
 1684SOL    HW2 5952   1.070   6.172   2.565
 1685SOL     OW 5953   2.595   1.136   6.190
 1685SOL    HW1 5954   2.528   1.132   6.116
 1685SOL    HW2 5955   2.676   1.082   6.166
 1686SOL     OW 5956   1.889   4.863   5.276
 1686SOL    HW1 5957   1.894   4.961   5.259
 1686SOL    HW2 5958   1.935   4.842   5.363
 1687SOL     OW 5959   2.273   2.841   0.975
 1687SOL    HW1 5960   2.327   2.762   0.945
 1687SOL    HW2 5961   2.250   2.897   0.895
 1688SOL     OW 5962   1.508   2.427   3.955
 1688SOL    HW1 5963   1.597   2.435   4.000
 1688SOL    HW2 5964   1.506   2.344   3.900
 1689SOL     OW 5965   4.283   0.793   1.920
 1689SOL    HW1 5966   4.367   0.768   1.873
 1689SOL    HW2 5967   4.220   0.837   1.856
 1690SOL     OW 5968   1.287   3.003   3.433
 1690SOL    HW1 5969   1.333   3.002   3.521
 1690SOL    HW2 5970   1.190   2.981   3.445
 1691SOL     OW 5971   5.211   3.812   3.585
 1691SOL    HW1 5972   5.213   3.714   3.562
 1691SOL    HW2 5973   5.258   3.827   3.672
 1692SOL     OW 5974   6.565   0.571   1.408
 1692SOL    HW1 5975   6.497   0.597   1.339
 1692SOL    HW2 5976   6.551   0.475   1.433
 1693SOL     OW 5977   0.368   1.976   2.635
 1693SOL    HW1 5978   0.458   1.986   2.591
 1693SOL    HW2 5979   0.298   2.016   2.576
 1694SOL     OW 5980   5.005   0.373   3.758
 1694SOL    HW1 5981   5.094   0.344   3.722
 1694SOL    HW2 5982   5.015   0.462   3.804
 1695SOL     OW 5983   2.297   1.297   5.627
 1695SOL    HW1 5984   2.211   1.347   5.641
 1695SOL    HW2 5985   2.373   1.362   5.628
 1696SOL     OW 5986   4.901   4.941   0.562
 1696SOL    HW1 5987   4.835   4.881   0.516
 1696SOL    HW2 5988   4.954   4.889   0.628
 1697SOL     OW 5989   5.710   6.093   2.234
 1697SOL    HW1 5990   5.635   6.141   2.187
 1697SOL    HW2 5991   5.767   6.047   2.166
 1698SOL     OW 5992   4.593   0.783   0.843
 1698SOL    HW1 5993   4.586   0.788   0.943
 1698SOL    HW2 5994   4.521   0.839   0.802
 1699SOL     OW 5995   2.929   1.580   1.493
 1699SOL    HW1 5996   3.019   1.613   1.521
 1699SOL    HW2 5997   2.930   1.557   1.396
 1700SOL     OW 5998   6.300   1.955   3.500
 1700SOL    HW1 5999   6.294   2.055   3.503
 1700SOL    HW2 6000   6.219   1.915   3.543
 1701SOL     OW 6001   5.131   3.316   5.302
 1701SOL    HW1 6002   5.141   3.219   5.281
 1701SOL    HW2 6003   5.077   3.360   5.230
 1702SOL     OW 6004   0.066   3.208   0.583
 1702SOL    HW1 6005   0.023   3.296   0.602
 1702SOL    HW2 6006   0.103   3.170   0.668
 1703SOL     OW 6007   3.853   3.485   2.968
 1703SOL    HW1 6008   3.901   3.564   2.929
 1703SOL    HW2 6009   3.920   3.417   2.999
 1704SOL     OW 6010   0.574   1.271   2.120
 1704SOL    HW1 6011   0.595   1.237   2.211
 1704SOL    HW2 6012   0.541   1.197   2.062
 1705SOL     OW 6013   3.514   2.133   1.734
 1705SOL    HW1 6014   3.585   2.197   1.766
 1705SOL    HW2 6015   3.555   2.042   1.722
 1706SOL     OW 6016   4.599   0.364   1.619
 1706SOL    HW1 6017   4.615   0.461   1.598
 1706SOL    HW2 6018   4.556   0.320   1.541
 1707SOL     OW 6019   4.691   1.822   3.299
 1707SOL    HW1 6020   4.733   1.808   3.210
 1707SOL    HW2 6021   4.715   1.746   3.360
 1708SOL     OW 6022   4.265   5.194   2.274
 1708SOL    HW1 6023   4.322   5.114   2.295
 1708SOL    HW2 6024   4.211   5.175   2.192
 1709SOL     OW 6025   2.717   6.035   1.591
 1709SOL    HW1 6026   2.797   5.979   1.570
 1709SOL    HW2 6027   2.641   6.008   1.533
 1710SOL     OW 6028   5.564   4.604   3.612
 1710SOL    HW1 6029   5.497   4.531   3.623
 1710SOL    HW2 6030   5.656   4.566   3.614
 1711SOL     OW 6031   1.227   4.351   4.721
 1711SOL    HW1 6032   1.281   4.300   4.788
 1711SOL    HW2 6033   1.284   4.374   4.642
 1712SOL     OW 6034   0.935   2.953   6.530
 1712SOL    HW1 6035   0.987   3.016   6.472
 1712SOL    HW2 6036   0.837   2.968   6.515
 1713SOL     OW 6037   3.770   2.414   1.190
 1713SOL    HW1 6038   3.836   2.340   1.180
 1713SOL    HW2 6039   3.744   2.422   1.287
 1714SOL     OW 6040   4.752   1.660   5.722
 1714SOL    HW1 6041   4.686   1.713   5.669
 1714SOL    HW2 6042   4.768   1.706   5.810
 1715SOL     OW 6043   6.610   3.882   2.501
 1715SOL    HW1 6044   6.615   3.940   2.583
 1715SOL    HW2 6045   6.516   3.850   2.489
 1716SOL     OW 6046   5.003   6.750   2.220
 1716SOL    HW1 6047   4.963   6.777   2.308
 1716SOL    HW2 6048   5.014   6.831   2.162
 1717SOL     OW 6049   2.084   6.916   6.335
 1717SOL    HW1 6050   2.008   6.874   6.383
 1717SOL    HW2 6051   2.130   6.847   6.278
 1718SOL     OW 6052   2.048   1.945   1.336
 1718SOL    HW1 6053   2.107   2.022   1.362
 1718SOL    HW2 6054   2.041   1.881   1.413
 1719SOL     OW 6055   2.296   4.129   1.075
 1719SOL    HW1 6056   2.316   4.059   1.143
 1719SOL    HW2 6057   2.201   4.157   1.081
 1720SOL     OW 6058   6.608   1.426   0.939
 1720SOL    HW1 6059   6.668   1.408   0.861
 1720SOL    HW2 6060   6.631   1.363   1.013
 1721SOL     OW 6061   0.697   6.378   3.334
 1721SOL    HW1 6062   0.770   6.314   3.313
 1721SOL    HW2 6063   0.623   6.368   3.268
 1722SOL     OW 6064   4.695   1.819   3.774
 1722SOL    HW1 6065   4.656   1.887   3.836
 1722SOL    HW2 6066   4.684   1.728   3.812
 1723SOL     OW 6067   6.468   2.697   2.830
 1723SOL    HW1 6068   6.452   2.660   2.922
 1723SOL    HW2 6069   6.384   2.693   2.777
 1724SOL     OW 6070   5.922   1.885   0.980
 1724SOL    HW1 6071   5.825   1.885   1.007
 1724SOL    HW2 6072   5.929   1.868   0.882
 1725SOL     OW 6073   2.989   4.968   0.256
 1725SOL    HW1 6074   2.959   5.015   0.340
 1725SOL    HW2 6075   2.987   5.033   0.180
 1726SOL     OW 6076   5.501   3.974   5.422
 1726SOL    HW1 6077   5.407   3.980   5.387
 1726SOL    HW2 6078   5.562   3.940   5.350
 1727SOL     OW 6079   3.720   2.964   4.354
 1727SOL    HW1 6080   3.775   2.960   4.438
 1727SOL    HW2 6081   3.646   3.031   4.366
 1728SOL     OW 6082   6.148   5.147   4.570
 1728SOL    HW1 6083   6.193   5.186   4.651
 1728SOL    HW2 6084   6.051   5.173   4.572
 1729SOL     OW 6085   2.173   4.005   3.599
 1729SOL    HW1 6086   2.227   4.004   3.515
 1729SOL    HW2 6087   2.118   4.088   3.602
 1730SOL     OW 6088   6.498   0.217   5.256
 1730SOL    HW1 6089   6.432   0.288   5.232
 1730SOL    HW2 6090   6.589   0.257   5.263
 1731SOL     OW 6091   0.627   5.281   1.918
 1731SOL    HW1 6092   0.684   5.286   2.000
 1731SOL    HW2 6093   0.580   5.368   1.906
 1732SOL     OW 6094   2.161   4.466   5.511
 1732SOL    HW1 6095   2.230   4.496   5.577
 1732SOL    HW2 6096   2.174   4.368   5.492
 1733SOL     OW 6097   1.370   3.539   2.415
 1733SOL    HW1 6098   1.402   3.460   2.362
 1733SOL    HW2 6099   1.282   3.518   2.456
 1734SOL     OW 6100   4.955   3.286   1.929
 1734SOL    HW1 6101   5.052   3.263   1.929
 1734SOL    HW2 6102   4.901   3.205   1.951
 1735SOL     OW 6103   6.255   5.921   1.381
 1735SOL    HW1 6104   6.301   5.895   1.466
 1735SOL    HW2 6105   6.264   5.847   1.314
 1736SOL     OW 6106   4.234   2.174   1.448
 1736SOL    HW1 6107   4.264   2.081   1.468
 1736SOL    HW2 6108   4.138   2.185   1.471
 1737SOL     OW 6109   3.151   1.401   4.342
 1737SOL    HW1 6110   3.212   1.414   4.420
 1737SOL    HW2 6111   3.124   1.305   4.338
 1738SOL     OW 6112   2.044   1.556   3.825
 1738SOL    HW1 6113   1.978   1.501   3.874
 1738SOL    HW2 6114   2.042   1.532   3.728
 1739SOL     OW 6115   5.106   2.470   5.556
 1739SOL    HW1 6116   5.095   2.448   5.459
 1739SOL    HW2 6117   5.200   2.497   5.574
 1740SOL     OW 6118   0.355   2.035   6.360
 1740SOL    HW1 6119   0.337   1.986   6.275
 1740SOL    HW2 6120   0.365   2.133   6.341
 1741SOL     OW 6121   2.530   0.808   3.918
 1741SOL    HW1 6122   2.537   0.908   3.927
 1741SOL    HW2 6123   2.613   0.766   3.955
 1742SOL     OW 6124   4.489   6.147   6.231
 1742SOL    HW1 6125   4.540   6.201   6.297
 1742SOL    HW2 6126   4.394   6.176   6.231
 1743SOL     OW 6127   2.111   2.012   2.200
 1743SOL    HW1 6128   2.192   2.064   2.172
 1743SOL    HW2 6129   2.078   1.959   2.122
 1744SOL     OW 6130   0.558   0.460   1.380
 1744SOL    HW1 6131   0.531   0.420   1.468
 1744SOL    HW2 6132   0.556   0.560   1.388
 1745SOL     OW 6133   6.788   0.270   3.917
 1745SOL    HW1 6134   6.765   0.205   3.844
 1745SOL    HW2 6135   6.887   0.276   3.927
 1746SOL     OW 6136   2.170   5.250   5.325
 1746SOL    HW1 6137   2.093   5.269   5.264
 1746SOL    HW2 6138   2.190   5.330   5.381
 1747SOL     OW 6139   5.661   1.130   3.017
 1747SOL    HW1 6140   5.586   1.161   3.075
 1747SOL    HW2 6141   5.625   1.095   2.931
 1748SOL     OW 6142   0.582   0.943   3.580
 1748SOL    HW1 6143   0.542   1.034   3.566
 1748SOL    HW2 6144   0.509   0.878   3.602
 1749SOL     OW 6145   2.689   6.781   5.204
 1749SOL    HW1 6146   2.763   6.718   5.182
 1749SOL    HW2 6147   2.697   6.810   5.299
 1750SOL     OW 6148   6.560   6.930   3.317
 1750SOL    HW1 6149   6.492   6.987   3.272
 1750SOL    HW2 6150   6.582   6.968   3.407
 1751SOL     OW 6151   4.050   6.181   4.862
 1751SOL    HW1 6152   4.017   6.175   4.768
 1751SOL    HW2 6153   3.973   6.193   4.924
 1752SOL     OW 6154   6.914   2.233   2.720
 1752SOL    HW1 6155   6.985   2.170   2.751
 1752SOL    HW2 6156   6.908   2.310   2.783
 1753SOL     OW 6157   0.175   2.786   0.963
 1753SOL    HW1 6158   0.208   2.717   1.028
 1753SOL    HW2 6159   0.087   2.755   0.925
 1754SOL     OW 6160   3.443   3.326   1.258
 1754SOL    HW1 6161   3.502   3.266   1.312
 1754SOL    HW2 6162   3.363   3.274   1.227
 1755SOL     OW 6163   5.819   5.626   2.867
 1755SOL    HW1 6164   5.832   5.605   2.770
 1755SOL    HW2 6165   5.730   5.669   2.879
 1756SOL     OW 6166   4.356   4.237   6.220
 1756SOL    HW1 6167   4.430   4.280   6.169
 1756SOL    HW2 6168   4.277   4.222   6.160
 1757SOL     OW 6169   2.662   5.217   4.994
 1757SOL    HW1 6170   2.680   5.309   4.959
 1757SOL    HW2 6171   2.564   5.204   5.004
 1758SOL     OW 6172   3.007   0.522   3.969
 1758SOL    HW1 6173   3.087   0.582   3.974
 1758SOL    HW2 6174   3.004   0.477   3.880
 1759SOL     OW 6175   1.046   4.646   5.602
 1759SOL    HW1 6176   0.991   4.719   5.563
 1759SOL    HW2 6177   1.123   4.685   5.651
 1760SOL     OW 6178   6.597   1.908   1.435
 1760SOL    HW1 6179   6.504   1.877   1.413
 1760SOL    HW2 6180   6.662   1.837   1.410
 1761SOL     OW 6181   0.327   0.471   0.493
 1761SOL    HW1 6182   0.315   0.385   0.542
 1761SOL    HW2 6183   0.247   0.489   0.436
 1762SOL     OW 6184   6.584   1.692   4.858
 1762SOL    HW1 6185   6.625   1.644   4.936
 1762SOL    HW2 6186   6.629   1.780   4.846
 1763SOL     OW 6187   2.021   3.806   4.043
 1763SOL    HW1 6188   2.049   3.746   3.967
 1763SOL    HW2 6189   1.922   3.800   4.055
 1764SOL     OW 6190   1.892   4.065   2.765
 1764SOL    HW1 6191   1.799   4.066   2.727
 1764SOL    HW2 6192   1.921   4.159   2.783
 1765SOL     OW 6193   3.754   1.866   6.801
 1765SOL    HW1 6194   3.839   1.863   6.747
 1765SOL    HW2 6195   3.682   1.816   6.752
 1766SOL     OW 6196   5.225   3.555   3.484
 1766SOL    HW1 6197   5.248   3.526   3.392
 1766SOL    HW2 6198   5.137   3.516   3.511
 1767SOL     OW 6199   6.258   3.602   3.207
 1767SOL    HW1 6200   6.313   3.665   3.261
 1767SOL    HW2 6201   6.286   3.508   3.226
 1768SOL     OW 6202   3.439   1.152   4.551
 1768SOL    HW1 6203   3.407   1.246   4.540
 1768SOL    HW2 6204   3.539   1.151   4.552
 1769SOL     OW 6205   4.146   2.139   4.994
 1769SOL    HW1 6206   4.193   2.227   5.001
 1769SOL    HW2 6207   4.085   2.128   5.073
 1770SOL     OW 6208   0.278   5.487   4.727
 1770SOL    HW1 6209   0.183   5.492   4.696
 1770SOL    HW2 6210   0.337   5.466   4.649
 1771SOL     OW 6211   2.286   5.476   6.812
 1771SOL    HW1 6212   2.218   5.512   6.747
 1771SOL    HW2 6213   2.343   5.408   6.766
 1772SOL     OW 6214   2.770   6.593   3.564
 1772SOL    HW1 6215   2.804   6.613   3.472
 1772SOL    HW2 6216   2.782   6.673   3.622
 1773SOL     OW 6217   2.782   5.020   6.457
 1773SOL    HW1 6218   2.760   5.053   6.549
 1773SOL    HW2 6219   2.698   4.995   6.410
 1774SOL     OW 6220   4.416   0.056   1.868
 1774SOL    HW1 6221   4.370   0.043   1.956
 1774SOL    HW2 6222   4.483   0.130   1.875
 1775SOL     OW 6223   1.027   4.365   3.967
 1775SOL    HW1 6224   0.967   4.354   4.047
 1775SOL    HW2 6225   1.060   4.459   3.964
 1776SOL     OW 6226   3.646   0.347   4.384
 1776SOL    HW1 6227   3.641   0.447   4.378
 1776SOL    HW2 6228   3.708   0.321   4.458
 1777SOL     OW 6229   3.372   4.937   5.805
 1777SOL    HW1 6230   3.337   4.854   5.849
 1777SOL    HW2 6231   3.409   4.998   5.875
 1778SOL     OW 6232   5.126   2.682   5.879
 1778SOL    HW1 6233   5.185   2.753   5.840
 1778SOL    HW2 6234   5.106   2.613   5.809
 1779SOL     OW 6235   4.478   1.226   4.709
 1779SOL    HW1 6236   4.446   1.176   4.790
 1779SOL    HW2 6237   4.544   1.295   4.736
 1780SOL     OW 6238   2.930   3.107   5.951
 1780SOL    HW1 6239   2.978   3.040   5.895
 1780SOL    HW2 6240   2.918   3.192   5.900
 1781SOL     OW 6241   4.564   6.050   4.069
 1781SOL    HW1 6242   4.471   6.062   4.103
 1781SOL    HW2 6243   4.564   5.985   3.993
 1782SOL     OW 6244   2.631   1.960   2.743
 1782SOL    HW1 6245   2.706   1.905   2.780
 1782SOL    HW2 6246   2.650   2.057   2.759
 1783SOL     OW 6247   1.066   4.293   6.353
 1783SOL    HW1 6248   1.023   4.372   6.397
 1783SOL    HW2 6249   1.056   4.213   6.412
 1784SOL     OW 6250   3.584   1.517   4.768
 1784SOL    HW1 6251   3.662   1.568   4.731
 1784SOL    HW2 6252   3.508   1.520   4.702
 1785SOL     OW 6253   6.224   5.480   3.999
 1785SOL    HW1 6254   6.144   5.538   3.988
 1785SOL    HW2 6255   6.278   5.512   4.076
 1786SOL     OW 6256   1.447   2.634   1.212
 1786SOL    HW1 6257   1.394   2.614   1.294
 1786SOL    HW2 6258   1.446   2.555   1.151
 1787SOL     OW 6259   2.888   0.583   4.755
 1787SOL    HW1 6260   2.890   0.595   4.656
 1787SOL    HW2 6261   2.871   0.487   4.777
 1788SOL     OW 6262   3.533   2.937   0.140
 1788SOL    HW1 6263   3.550   3.025   0.184
 1788SOL    HW2 6264   3.620   2.891   0.123
 1789SOL     OW 6265   6.147   1.591   2.600
 1789SOL    HW1 6266   6.122   1.627   2.510
 1789SOL    HW2 6267   6.064   1.577   2.654
 1790SOL     OW 6268   4.109   6.765   4.098
 1790SOL    HW1 6269   4.207   6.749   4.110
 1790SOL    HW2 6270   4.068   6.788   4.186
 1791SOL     OW 6271   6.895   1.269   3.961
 1791SOL    HW1 6272   6.954   1.211   3.906
 1791SOL    HW2 6273   6.919   1.365   3.947
 1792SOL     OW 6274   0.322   2.685   4.127
 1792SOL    HW1 6275   0.363   2.744   4.057
 1792SOL    HW2 6276   0.394   2.632   4.172
 1793SOL     OW 6277   0.160   0.064   3.478
 1793SOL    HW1 6278   0.093   0.107   3.418
 1793SOL    HW2 6279   0.141   6.987   3.485
 1794SOL     OW 6280   6.118   6.092   5.985
 1794SOL    HW1 6281   6.155   6.174   6.028
 1794SOL    HW2 6282   6.136   6.013   6.043
 1795SOL     OW 6283   6.874   3.066   2.039
 1795SOL    HW1 6284   6.903   2.993   2.100
 1795SOL    HW2 6285   6.898   3.155   2.078
 1796SOL     OW 6286   2.622   0.616   4.219
 1796SOL    HW1 6287   2.564   0.540   4.193
 1796SOL    HW2 6288   2.685   0.637   4.143
 1797SOL     OW 6289   1.088   0.677   6.670
 1797SOL    HW1 6290   1.132   0.752   6.719
 1797SOL    HW2 6291   1.010   0.645   6.724
 1798SOL     OW 6292   5.226   2.212   4.448
 1798SOL    HW1 6293   5.310   2.253   4.413
 1798SOL    HW2 6294   5.148   2.245   4.395
 1799SOL     OW 6295   6.276   2.113   6.055
 1799SOL    HW1 6296   6.269   2.043   6.126
 1799SOL    HW2 6297   6.350   2.176   6.078
 1800SOL     OW 6298   4.001   4.857   2.681
 1800SOL    HW1 6299   4.039   4.949   2.689
 1800SOL    HW2 6300   4.049   4.808   2.608
 1801SOL     OW 6301   0.377   0.573   2.133
 1801SOL    HW1 6302   0.452   0.567   2.067
 1801SOL    HW2 6303   0.292   0.548   2.088
 1802SOL     OW 6304   5.085   5.488   2.243
 1802SOL    HW1 6305   5.171   5.536   2.223
 1802SOL    HW2 6306   5.032   5.541   2.309
 1803SOL     OW 6307   6.924   6.093   0.019
 1803SOL    HW1 6308   6.956   6.184   0.044
 1803SOL    HW2 6309   6.936   6.079   6.941
 1804SOL     OW 6310   2.188   4.076   5.646
 1804SOL    HW1 6311   2.166   4.027   5.730
 1804SOL    HW2 6312   2.287   4.082   5.636
 1805SOL     OW 6313   6.658   3.788   5.477
 1805SOL    HW1 6314   6.572   3.796   5.527
 1805SOL    HW2 6315   6.646   3.726   5.400
 1806SOL     OW 6316   0.972   1.475   0.564
 1806SOL    HW1 6317   0.904   1.537   0.525
 1806SOL    HW2 6318   0.960   1.384   0.524
 1807SOL     OW 6319   5.236   2.579   6.141
 1807SOL    HW1 6320   5.158   2.528   6.178
 1807SOL    HW2 6321   5.204   2.641   6.070
 1808SOL     OW 6322   0.316   3.371   5.638
 1808SOL    HW1 6323   0.390   3.370   5.571
 1808SOL    HW2 6324   0.316   3.459   5.686
 1809SOL     OW 6325   2.002   2.967   4.643
 1809SOL    HW1 6326   2.071   3.040   4.642
 1809SOL    HW2 6327   1.928   2.992   4.705
 1810SOL     OW 6328   2.989   0.404   4.447
 1810SOL    HW1 6329   2.959   0.496   4.425
 1810SOL    HW2 6330   3.031   0.403   4.538
 1811SOL     OW 6331   4.585   4.433   3.758
 1811SOL    HW1 6332   4.588   4.437   3.858
 1811SOL    HW2 6333   4.584   4.338   3.728
 1812SOL     OW 6334   4.272   6.507   5.820
 1812SOL    HW1 6335   4.322   6.503   5.906
 1812SOL    HW2 6336   4.310   6.439   5.757
 1813SOL     OW 6337   5.648   4.964   0.381
 1813SOL    HW1 6338   5.570   5.025   0.392
 1813SOL    HW2 6339   5.659   4.909   0.464
 1814SOL     OW 6340   6.661   1.283   0.308
 1814SOL    HW1 6341   6.588   1.308   0.371
 1814SOL    HW2 6342   6.693   1.365   0.261
 1815SOL     OW 6343   6.107   2.568   1.609
 1815SOL    HW1 6344   6.028   2.612   1.567
 1815SOL    HW2 6345   6.076   2.493   1.667
 1816SOL     OW 6346   2.299   3.789   0.604
 1816SOL    HW1 6347   2.292   3.828   0.696
 1816SOL    HW2 6348   2.305   3.863   0.536
 1817SOL     OW 6349   3.216   6.639   3.257
 1817SOL    HW1 6350   3.161   6.567   3.216
 1817SOL    HW2 6351   3.194   6.727   3.215
 1818SOL     OW 6352   1.729   6.407   1.973
 1818SOL    HW1 6353   1.647   6.457   1.944
 1818SOL    HW2 6354   1.701   6.330   2.030
 1819SOL     OW 6355   0.312   5.161   1.798
 1819SOL    HW1 6356   0.412   5.160   1.794
 1819SOL    HW2 6357   0.279   5.069   1.818
 1820SOL     OW 6358   4.751   0.974   2.256
 1820SOL    HW1 6359   4.693   0.903   2.215
 1820SOL    HW2 6360   4.711   1.064   2.239
 1821SOL     OW 6361   2.497   0.586   1.496
 1821SOL    HW1 6362   2.420   0.641   1.527
 1821SOL    HW2 6363   2.499   0.499   1.545
 1822SOL     OW 6364   1.567   2.631   1.815
 1822SOL    HW1 6365   1.494   2.688   1.777
 1822SOL    HW2 6366   1.633   2.610   1.744
 1823SOL     OW 6367   2.531   5.591   3.696
 1823SOL    HW1 6368   2.571   5.570   3.785
 1823SOL    HW2 6369   2.587   5.661   3.650
 1824SOL     OW 6370   3.568   3.128   1.447
 1824SOL    HW1 6371   3.643   3.092   1.392
 1824SOL    HW2 6372   3.507   3.052   1.474
 1825SOL     OW 6373   1.190   1.624   3.914
 1825SOL    HW1 6374   1.130   1.641   3.835
 1825SOL    HW2 6375   1.163   1.684   3.989
 1826SOL     OW 6376   3.165   0.310   0.917
 1826SOL    HW1 6377   3.229   0.233   0.922
 1826SOL    HW2 6378   3.071   0.277   0.925
 1827SOL     OW 6379   6.986   5.824   1.907
 1827SOL    HW1 6380   6.966   5.838   1.810
 1827SOL    HW2 6381   0.041   5.760   1.916
 1828SOL     OW 6382   1.267   2.703   0.826
 1828SOL    HW1 6383   1.213   2.619   0.826
 1828SOL    HW2 6384   1.364   2.680   0.834
 1829SOL     OW 6385   3.129   0.414   3.608
 1829SOL    HW1 6386   3.201   0.353   3.639
 1829SOL    HW2 6387   3.157   0.509   3.619
 1830SOL     OW 6388   5.746   6.060   4.004
 1830SOL    HW1 6389   5.831   6.073   4.056
 1830SOL    HW2 6390   5.668   6.090   4.059
 1831SOL     OW 6391   6.084   0.339   2.203
 1831SOL    HW1 6392   6.032   0.268   2.251
 1831SOL    HW2 6393   6.139   0.390   2.269
 1832SOL     OW 6394   5.069   1.342   1.004
 1832SOL    HW1 6395   5.165   1.326   0.982
 1832SOL    HW2 6396   5.031   1.409   0.940
 1833SOL     OW 6397   5.366   0.464   6.200
 1833SOL    HW1 6398   5.419   0.524   6.139
 1833SOL    HW2 6399   5.399   0.371   6.191
 1834SOL     OW 6400   2.664   4.024   0.238
 1834SOL    HW1 6401   2.763   4.019   0.220
 1834SOL    HW2 6402   2.641   3.962   0.313
 1835SOL     OW 6403   0.192   3.999   2.300
 1835SOL    HW1 6404   0.208   4.096   2.281
 1835SOL    HW2 6405   0.277   3.949   2.288
 1836SOL     OW 6406   5.086   2.166   1.031
 1836SOL    HW1 6407   5.036   2.216   0.961
 1836SOL    HW2 6408   5.156   2.226   1.071
 1837SOL     OW 6409   1.185   1.916   4.612
 1837SOL    HW1 6410   1.206   1.917   4.514
 1837SOL    HW2 6411   1.271   1.921   4.664
 1838SOL     OW 6412   0.060   1.148   4.305
 1838SOL    HW1 6413   7.016   1.224   4.299
 1838SOL    HW2 6414   0.058   1.097   4.219
 1839SOL     OW 6415   5.337   2.302   5.193
 1839SOL    HW1 6416   5.326   2.232   5.122
 1839SOL    HW2 6417   5.326   2.393   5.153
 1840SOL     OW 6418   3.514   5.926   1.827
 1840SOL    HW1 6419   3.467   5.860   1.886
 1840SOL    HW2 6420   3.446   5.974   1.771
 1841SOL     OW 6421   2.310   1.100   3.661
 1841SOL    HW1 6422   2.305   1.198   3.647
 1841SOL    HW2 6423   2.406   1.071   3.660
 1842SOL     OW 6424   1.507   5.382   0.242
 1842SOL    HW1 6425   1.582   5.322   0.270
 1842SOL    HW2 6426   1.426   5.360   0.296
 1843SOL     OW 6427   6.577   2.203   3.588
 1843SOL    HW1 6428   6.579   2.117   3.639
 1843SOL    HW2 6429   6.637   2.270   3.633
 1844SOL     OW 6430   3.203   0.419   5.367
 1844SOL    HW1 6431   3.198   0.433   5.268
 1844SOL    HW2 6432   3.151   0.490   5.414
 1845SOL     OW 6433   2.155   6.685   5.076
 1845SOL    HW1 6434   2.137   6.669   5.173
 1845SOL    HW2 6435   2.081   6.738   5.036
 1846SOL     OW 6436   4.322   2.131   1.011
 1846SOL    HW1 6437   4.252   2.076   0.965
 1846SOL    HW2 6438   4.399   2.147   0.950
 1847SOL     OW 6439   1.384   0.795   6.077
 1847SOL    HW1 6440   1.425   0.754   6.158
 1847SOL    HW2 6441   1.295   0.752   6.060
 1848SOL     OW 6442   1.039   0.093   2.936
 1848SOL    HW1 6443   0.970   0.030   2.972
 1848SOL    HW2 6444   1.126   0.045   2.926
 1849SOL     OW 6445   3.933   2.473   0.530
 1849SOL    HW1 6446   4.003   2.544   0.534
 1849SOL    HW2 6447   3.871   2.482   0.608
 1850SOL     OW 6448   0.883   2.690   2.267
 1850SOL    HW1 6449   0.827   2.637   2.203
 1850SOL    HW2 6450   0.887   2.642   2.355
 1851SOL     OW 6451   0.203   2.907   1.355
 1851SOL    HW1 6452   0.292   2.947   1.377
 1851SOL    HW2 6453   0.195   2.817   1.398
 1852SOL     OW 6454   5.962   3.743   2.633
 1852SOL    HW1 6455   5.877   3.698   2.606
 1852SOL    HW2 6456   5.994   3.801   2.558
 1853SOL     OW 6457   0.241   3.207   2.901
 1853SOL    HW1 6458   0.191   3.229   2.817
 1853SOL    HW2 6459   0.196   3.132   2.949
 1854SOL     OW 6460   2.639   5.838   3.371
 1854SOL    HW1 6461   2.546   5.860   3.401
 1854SOL    HW2 6462   2.697   5.919   3.378
 1855SOL     OW 6463   5.629   3.490   6.082
 1855SOL    HW1 6464   5.729   3.491   6.092
 1855SOL    HW2 6465   5.587   3.473   6.171
 1856SOL     OW 6466   6.066   3.821   5.590
 1856SOL    HW1 6467   6.046   3.815   5.492
 1856SOL    HW2 6468   6.143   3.883   5.605
 1857SOL     OW 6469   4.028   1.215   5.342
 1857SOL    HW1 6470   3.997   1.309   5.327
 1857SOL    HW2 6471   3.950   1.158   5.367
 1858SOL     OW 6472   6.312   3.603   3.863
 1858SOL    HW1 6473   6.396   3.576   3.817
 1858SOL    HW2 6474   6.319   3.583   3.961
 1859SOL     OW 6475   4.794   1.783   3.051
 1859SOL    HW1 6476   4.874   1.722   3.047
 1859SOL    HW2 6477   4.747   1.782   2.963
 1860SOL     OW 6478   6.706   0.434   4.723
 1860SOL    HW1 6479   6.723   0.356   4.664
 1860SOL    HW2 6480   6.609   0.439   4.746
 1861SOL     OW 6481   5.775   0.725   1.826
 1861SOL    HW1 6482   5.719   0.653   1.867
 1861SOL    HW2 6483   5.725   0.768   1.751
 1862SOL     OW 6484   2.524   0.614   6.028
 1862SOL    HW1 6485   2.521   0.683   5.956
 1862SOL    HW2 6486   2.473   0.647   6.108
 1863SOL     OW 6487   1.329   2.181   2.020
 1863SOL    HW1 6488   1.303   2.111   2.086
 1863SOL    HW2 6489   1.418   2.157   1.980
 1864SOL     OW 6490   0.851   6.928   5.204
 1864SOL    HW1 6491   0.813   7.020   5.191
 1864SOL    HW2 6492   0.789   6.861   5.163
 1865SOL     OW 6493   3.663   6.724   6.215
 1865SOL    HW1 6494   3.642   6.815   6.252
 1865SOL    HW2 6495   3.669   6.659   6.290
 1866SOL     OW 6496   4.242   4.748   3.196
 1866SOL    HW1 6497   4.183   4.679   3.239
 1866SOL    HW2 6498   4.240   4.832   3.252
 1867SOL     OW 6499   0.395   4.196   0.077
 1867SOL    HW1 6500   0.381   4.100   0.100
 1867SOL    HW2 6501   0.364   4.214   7.005
 1868SOL     OW 6502   4.885   4.341   6.868
 1868SOL    HW1 6503   4.877   4.427   6.816
 1868SOL    HW2 6504   4.796   4.298   6.875
 1869SOL     OW 6505   6.083   2.947   5.755
 1869SOL    HW1 6506   6.173   2.992   5.750
 1869SOL    HW2 6507   6.096   2.850   5.772
 1870SOL     OW 6508   1.913   2.912   5.572
 1870SOL    HW1 6509   1.870   2.947   5.489
 1870SOL    HW2 6510   1.934   2.988   5.633
 1871SOL     OW 6511   0.437   0.347   0.225
 1871SOL    HW1 6512   0.521   0.387   0.188
 1871SOL    HW2 6513   0.460   0.275   0.290
 1872SOL     OW 6514   3.767   1.834   5.987
 1872SOL    HW1 6515   3.692   1.863   6.046
 1872SOL    HW2 6516   3.730   1.804   5.899
 1873SOL     OW 6517   5.379   1.724   5.817
 1873SOL    HW1 6518   5.450   1.775   5.766
 1873SOL    HW2 6519   5.373   1.761   5.910
 1874SOL     OW 6520   3.281   1.685   0.719
 1874SOL    HW1 6521   3.345   1.705   0.645
 1874SOL    HW2 6522   3.263   1.587   0.721
 1875SOL     OW 6523   0.359   0.814   0.375
 1875SOL    HW1 6524   0.308   0.744   0.325
 1875SOL    HW2 6525   0.357   0.794   0.473
 1876SOL     OW 6526   4.016   6.552   6.276
 1876SOL    HW1 6527   3.966   6.638   6.288
 1876SOL    HW2 6528   4.081   6.561   6.201
 1877SOL     OW 6529   0.483   0.052   2.395
 1877SOL    HW1 6530   0.434   7.003   2.343
 1877SOL    HW2 6531   0.540   0.105   2.333
 1878SOL     OW 6532   6.929   2.388   3.368
 1878SOL    HW1 6533   6.911   2.295   3.338
 1878SOL    HW2 6534   6.907   2.397   3.465
 1879SOL     OW 6535   1.329   4.337   3.948
 1879SOL    HW1 6536   1.291   4.247   3.925
 1879SOL    HW2 6537   1.326   4.349   4.047
 1880SOL     OW 6538   6.312   1.534   4.335
 1880SOL    HW1 6539   6.332   1.586   4.418
 1880SOL    HW2 6540   6.393   1.483   4.306
 1881SOL     OW 6541   5.958   2.315   2.848
 1881SOL    HW1 6542   5.987   2.326   2.753
 1881SOL    HW2 6543   5.896   2.238   2.856
 1882SOL     OW 6544   1.111   3.637   6.267
 1882SOL    HW1 6545   1.184   3.695   6.232
 1882SOL    HW2 6546   1.057   3.687   6.335
 1883SOL     OW 6547   0.487   2.171   4.114
 1883SOL    HW1 6548   0.558   2.223   4.067
 1883SOL    HW2 6549   0.514   2.075   4.119
 1884SOL     OW 6550   6.676   3.150   0.563
 1884SOL    HW1 6551   6.591   3.112   0.599
 1884SOL    HW2 6552   6.721   3.083   0.504
 1885SOL     OW 6553   1.803   2.126   6.630
 1885SOL    HW1 6554   1.890   2.166   6.600
 1885SOL    HW2 6555   1.811   2.099   6.727
 1886SOL     OW 6556   2.032   1.121   1.296
 1886SOL    HW1 6557   2.005   1.125   1.392
 1886SOL    HW2 6558   2.023   1.027   1.263
 1887SOL     OW 6559   1.361   5.791   5.190
 1887SOL    HW1 6560   1.407   5.808   5.103
 1887SOL    HW2 6561   1.391   5.859   5.257
 1888SOL     OW 6562   2.535   1.784   0.199
 1888SOL    HW1 6563   2.442   1.788   0.234
 1888SOL    HW2 6564   2.548   1.699   0.148
 1889SOL     OW 6565   0.710   2.857   5.947
 1889SOL    HW1 6566   0.711   2.948   5.907
 1889SOL    HW2 6567   0.761   2.794   5.889
 1890SOL     OW 6568   1.942   6.422   4.307
 1890SOL    HW1 6569   1.945   6.361   4.228
 1890SOL    HW2 6570   1.910   6.371   4.387
 1891SOL     OW 6571   5.649   2.266   1.688
 1891SOL    HW1 6572   5.580   2.220   1.742
 1891SOL    HW2 6573   5.739   2.253   1.730
 1892SOL     OW 6574   2.687   0.645   2.707
 1892SOL    HW1 6575   2.771   0.699   2.716
 1892SOL    HW2 6576   2.670   0.594   2.792
 1893SOL     OW 6577   3.454   3.168   6.907
 1893SOL    HW1 6578   3.359   3.143   6.927
 1893SOL    HW2 6579   3.463   3.189   6.810
 1894SOL     OW 6580   3.655   4.132   3.980
 1894SOL    HW1 6581   3.669   4.128   4.079
 1894SOL    HW2 6582   3.566   4.172   3.960
 1895SOL     OW 6583   4.745   0.806   1.770
 1895SOL    HW1 6584   4.771   0.855   1.687
 1895SOL    HW2 6585   4.826   0.760   1.808
 1896SOL     OW 6586   5.196   0.341   1.368
 1896SOL    HW1 6587   5.282   0.304   1.331
 1896SOL    HW2 6588   5.132   0.266   1.384
 1897SOL     OW 6589   2.122   5.234   1.411
 1897SOL    HW1 6590   2.212   5.226   1.367
 1897SOL    HW2 6591   2.131   5.215   1.509
 1898SOL     OW 6592   2.125   5.727   3.314
 1898SOL    HW1 6593   2.222   5.709   3.296
 1898SOL    HW2 6594   2.071   5.706   3.232
 1899SOL     OW 6595   0.830   0.938   2.197
 1899SOL    HW1 6596   0.844   0.982   2.109
 1899SOL    HW2 6597   0.850   0.840   2.189
 1900SOL     OW 6598   1.612   0.488   6.147
 1900SOL    HW1 6599   1.521   0.485   6.106
 1900SOL    HW2 6600   1.680   0.509   6.077
 1901SOL     OW 6601   1.758   2.283   1.219
 1901SOL    HW1 6602   1.817   2.268   1.299
 1901SOL    HW2 6603   1.667   2.310   1.251
 1902SOL     OW 6604   1.935   1.370   5.023
 1902SOL    HW1 6605   1.933   1.295   5.088
 1902SOL    HW2 6606   2.012   1.358   4.960
 1903SOL     OW 6607   7.009   3.450   2.425
 1903SOL    HW1 6608   6.999   3.541   2.465
 1903SOL    HW2 6609   6.951   3.443   2.343
 1904SOL     OW 6610   5.242   5.467   3.509
 1904SOL    HW1 6611   5.154   5.466   3.462
 1904SOL    HW2 6612   5.237   5.410   3.591
 1905SOL     OW 6613   1.001   0.434   3.544
 1905SOL    HW1 6614   1.033   0.449   3.637
 1905SOL    HW2 6615   0.905   0.406   3.546
 1906SOL     OW 6616   2.607   6.944   4.909
 1906SOL    HW1 6617   2.543   6.903   4.974
 1906SOL    HW2 6618   2.675   6.998   4.958
 1907SOL     OW 6619   3.495   1.235   1.691
 1907SOL    HW1 6620   3.408   1.279   1.715
 1907SOL    HW2 6621   3.553   1.300   1.643
 1908SOL     OW 6622   3.746   6.814   5.582
 1908SOL    HW1 6623   3.708   6.800   5.491
 1908SOL    HW2 6624   3.758   6.912   5.598
 1909SOL     OW 6625   0.244   3.742   2.633
 1909SOL    HW1 6626   0.310   3.714   2.703
 1909SOL    HW2 6627   0.287   3.735   2.543
 1910SOL     OW 6628   0.250   4.755   6.956
 1910SOL    HW1 6629   0.252   4.807   6.871
 1910SOL    HW2 6630   0.321   4.789   7.018
 1911SOL     OW 6631   6.964   3.775   4.861
 1911SOL    HW1 6632   0.007   3.789   4.937
 1911SOL    HW2 6633   7.007   3.717   4.792
 1912SOL     OW 6634   3.500   5.927   0.397
 1912SOL    HW1 6635   3.499   6.021   0.364
 1912SOL    HW2 6636   3.432   5.873   0.346
 1913SOL     OW 6637   2.702   6.268   4.764
 1913SOL    HW1 6638   2.791   6.257   4.720
 1913SOL    HW2 6639   2.707   6.341   4.832
 1914SOL     OW 6640   3.950   2.672   6.056
 1914SOL    HW1 6641   3.973   2.653   5.960
 1914SOL    HW2 6642   3.896   2.596   6.093
 1915SOL     OW 6643   3.297   2.125   4.814
 1915SOL    HW1 6644   3.198   2.139   4.806
 1915SOL    HW2 6645   3.325   2.143   4.909
 1916SOL     OW 6646   3.699   5.350   1.319
 1916SOL    HW1 6647   3.782   5.296   1.304
 1916SOL    HW2 6648   3.635   5.299   1.377
 1917SOL     OW 6649   2.083   2.894   6.620
 1917SOL    HW1 6650   2.039   2.805   6.603
 1917SOL    HW2 6651   2.026   2.967   6.584
 1918SOL     OW 6652   1.216   1.034   5.108
 1918SOL    HW1 6653   1.214   1.129   5.140
 1918SOL    HW2 6654   1.123   1.002   5.091
 1919SOL     OW 6655   1.510   0.990   1.811
 1919SOL    HW1 6656   1.594   0.985   1.865
 1919SOL    HW2 6657   1.475   0.897   1.795
 1920SOL     OW 6658   0.449   4.134   2.878
 1920SOL    HW1 6659   0.405   4.189   2.950
 1920SOL    HW2 6660   0.475   4.045   2.915
 1921SOL     OW 6661   1.413   3.368   6.419
 1921SOL    HW1 6662   1.465   3.401   6.340
 1921SOL    HW2 6663   1.460   3.288   6.458
 1922SOL     OW 6664   2.410   3.369   1.436
 1922SOL    HW1 6665   2.477   3.429   1.393
 1922SOL    HW2 6666   2.407   3.282   1.387
 1923SOL     OW 6667   4.127   1.029   5.533
 1923SOL    HW1 6668   4.054   0.987   5.586
 1923SOL    HW2 6669   4.089   1.101   5.475
 1924SOL     OW 6670   5.002   6.363   0.272
 1924SOL    HW1 6671   5.067   6.418   0.219
 1924SOL    HW2 6672   4.979   6.281   0.220
 1925SOL     OW 6673   2.162   4.703   0.772
 1925SOL    HW1 6674   2.094   4.719   0.700
 1925SOL    HW2 6675   2.136   4.754   0.854
 1926SOL     OW 6676   2.611   6.658   2.886
 1926SOL    HW1 6677   2.650   6.566   2.890
 1926SOL    HW2 6678   2.512   6.651   2.871
 1927SOL     OW 6679   2.565   4.690   0.182
 1927SOL    HW1 6680   2.601   4.686   0.089
 1927SOL    HW2 6681   2.596   4.610   0.234
 1928SOL     OW 6682   5.831   3.961   5.007
 1928SOL    HW1 6683   5.767   3.925   4.939
 1928SOL    HW2 6684   5.925   3.953   4.973
 1929SOL     OW 6685   2.314   0.048   1.174
 1929SOL    HW1 6686   2.378   0.037   1.098
 1929SOL    HW2 6687   2.268   6.982   1.192
 1930SOL     OW 6688   4.408   3.662   6.648
 1930SOL    HW1 6689   4.345   3.737   6.629
 1930SOL    HW2 6690   4.501   3.689   6.622
 1931SOL     OW 6691   0.983   2.336   1.420
 1931SOL    HW1 6692   1.079   2.317   1.397
 1931SOL    HW2 6693   0.930   2.252   1.416
 1932SOL     OW 6694   4.793   2.319   2.937
 1932SOL    HW1 6695   4.870   2.363   2.892
 1932SOL    HW2 6696   4.723   2.296   2.869
 1933SOL     OW 6697   1.343   3.443   0.940
 1933SOL    HW1 6698   1.276   3.381   0.980
 1933SOL    HW2 6699   1.296   3.514   0.886
 1934SOL     OW 6700   6.870   0.224   5.122
 1934SOL    HW1 6701   6.835   0.226   5.215
 1934SOL    HW2 6702   6.846   0.309   5.075
 1935SOL     OW 6703   4.819   5.276   3.492
 1935SOL    HW1 6704   4.863   5.339   3.427
 1935SOL    HW2 6705   4.815   5.318   3.582
 1936SOL     OW 6706   5.356   4.641   3.981
 1936SOL    HW1 6707   5.321   4.671   4.069
 1936SOL    HW2 6708   5.282   4.595   3.931
 1937SOL     OW 6709   4.051   6.154   0.360
 1937SOL    HW1 6710   4.147   6.177   0.347
 1937SOL    HW2 6711   4.029   6.070   0.310
 1938SOL     OW 6712   1.335   1.715   1.986
 1938SOL    HW1 6713   1.350   1.778   1.910
 1938SOL    HW2 6714   1.304   1.767   2.066
 1939SOL     OW 6715   0.004   6.500   4.060
 1939SOL    HW1 6716   6.954   6.500   3.990
 1939SOL    HW2 6717   0.051   6.411   4.059
 1940SOL     OW 6718   5.885   5.142   0.838
 1940SOL    HW1 6719   5.894   5.241   0.826
 1940SOL    HW2 6720   5.824   5.105   0.768
 1941SOL     OW 6721   1.383   2.720   4.245
 1941SOL    HW1 6722   1.454   2.771   4.293
 1941SOL    HW2 6723   1.388   2.624   4.270
 1942SOL     OW 6724   5.572   2.500   1.576
 1942SOL    HW1 6725   5.560   2.546   1.664
 1942SOL    HW2 6726   5.569   2.401   1.589
 1943SOL     OW 6727   1.961   6.978   3.277
 1943SOL    HW1 6728   1.909   6.944   3.355
 1943SOL    HW2 6729   2.050   6.931   3.273
 1944SOL     OW 6730   6.295   4.003   6.971
 1944SOL    HW1 6731   6.316   3.957   6.885
 1944SOL    HW2 6732   6.380   4.040   7.011
 1945SOL     OW 6733   4.082   5.346   0.086
 1945SOL    HW1 6734   3.999   5.385   0.047
 1945SOL    HW2 6735   4.137   5.419   0.126
 1946SOL     OW 6736   5.644   6.759   1.265
 1946SOL    HW1 6737   5.693   6.681   1.225
 1946SOL    HW2 6738   5.616   6.736   1.358
 1947SOL     OW 6739   5.690   6.473   4.742
 1947SOL    HW1 6740   5.759   6.460   4.813
 1947SOL    HW2 6741   5.732   6.518   4.663
 1948SOL     OW 6742   6.287   4.798   2.726
 1948SOL    HW1 6743   6.309   4.889   2.689
 1948SOL    HW2 6744   6.340   4.782   2.809
 1949SOL     OW 6745   3.772   3.345   6.508
 1949SOL    HW1 6746   3.729   3.368   6.420
 1949SOL    HW2 6747   3.746   3.253   6.535
 1950SOL     OW 6748   3.558   2.981   1.766
 1950SOL    HW1 6749   3.534   2.907   1.829
 1950SOL    HW2 6750   3.475   3.033   1.744
 1951SOL     OW 6751   6.555   4.472   6.849
 1951SOL    HW1 6752   6.621   4.402   6.824
 1951SOL    HW2 6753   6.532   4.527   6.768
 1952SOL     OW 6754   4.494   4.150   0.848
 1952SOL    HW1 6755   4.532   4.196   0.928
 1952SOL    HW2 6756   4.443   4.069   0.877
 1953SOL     OW 6757   6.344   1.409   5.808
 1953SOL    HW1 6758   6.305   1.346   5.741
 1953SOL    HW2 6759   6.333   1.370   5.900
 1954SOL     OW 6760   6.199   0.483   1.222
 1954SOL    HW1 6761   6.282   0.533   1.245
 1954SOL    HW2 6762   6.119   0.543   1.236
 1955SOL     OW 6763   0.386   0.421   2.933
 1955SOL    HW1 6764   0.435   0.430   3.020
 1955SOL    HW2 6765   0.349   0.510   2.905
 1956SOL     OW 6766   5.070   0.121   1.664
 1956SOL    HW1 6767   4.986   0.147   1.616
 1956SOL    HW2 6768   5.149   0.142   1.608
 1957SOL     OW 6769   5.153   4.878   3.861
 1957SOL    HW1 6770   5.241   4.854   3.902
 1957SOL    HW2 6771   5.142   4.977   3.861
 1958SOL     OW 6772   4.650   1.587   1.580
 1958SOL    HW1 6773   4.696   1.560   1.665
 1958SOL    HW2 6774   4.620   1.682   1.586
 1959SOL     OW 6775   0.979   6.993   3.846
 1959SOL    HW1 6776   1.069   6.962   3.816
 1959SOL    HW2 6777   0.958   6.956   3.936
 1960SOL     OW 6778   0.027   3.950   2.762
 1960SOL    HW1 6779   0.101   3.899   2.717
 1960SOL    HW2 6780   6.984   3.983   2.693
 1961SOL     OW 6781   6.291   4.106   4.505
 1961SOL    HW1 6782   6.353   4.038   4.545
 1961SOL    HW2 6783   6.339   4.193   4.493
 1962SOL     OW 6784   1.523   6.728   2.299
 1962SOL    HW1 6785   1.455   6.658   2.322
 1962SOL    HW2 6786   1.495   6.776   2.216
 1963SOL     OW 6787   1.309   1.248   2.174
 1963SOL    HW1 6788   1.385   1.233   2.237
 1963SOL    HW2 6789   1.253   1.165   2.170
 1964SOL     OW 6790   4.566   4.571   1.614
 1964SOL    HW1 6791   4.576   4.602   1.520
 1964SOL    HW2 6792   4.471   4.542   1.630
 1965SOL     OW 6793   1.901   2.825   4.432
 1965SOL    HW1 6794   1.902   2.869   4.522
 1965SOL    HW2 6795   1.947   2.736   4.438
 1966SOL     OW 6796   0.528   5.829   1.520
 1966SOL    HW1 6797   0.508   5.795   1.612
 1966SOL    HW2 6798   0.608   5.780   1.484
 1967SOL     OW 6799   5.789   3.055   3.996
 1967SOL    HW1 6800   5.746   3.075   4.084
 1967SOL    HW2 6801   5.808   3.141   3.948
 1968SOL     OW 6802   1.977   0.351   5.470
 1968SOL    HW1 6803   1.933   0.433   5.507
 1968SOL    HW2 6804   2.001   0.366   5.374
 1969SOL     OW 6805   2.993   1.332   1.093
 1969SOL    HW1 6806   2.956   1.377   1.011
 1969SOL    HW2 6807   3.085   1.298   1.073
 1970SOL     OW 6808   1.155   7.004   5.321
 1970SOL    HW1 6809   1.067   6.978   5.281
 1970SOL    HW2 6810   1.224   6.936   5.295
 1971SOL     OW 6811   0.228   0.853   5.396
 1971SOL    HW1 6812   0.197   0.763   5.427
 1971SOL    HW2 6813   0.177   0.925   5.443
 1972SOL     OW 6814   5.820   2.231   1.041
 1972SOL    HW1 6815   5.896   2.236   1.107
 1972SOL    HW2 6816   5.733   2.231   1.090
 1973SOL     OW 6817   2.803   4.058   0.965
 1973SOL    HW1 6818   2.803   4.158   0.966
 1973SOL    HW2 6819   2.867   4.025   0.895
 1974SOL     OW 6820   5.186   0.452   5.037
 1974SOL    HW1 6821   5.283   0.474   5.046
 1974SOL    HW2 6822   5.147   0.504   4.961
 1975SOL     OW 6823   1.742   2.013   3.951
 1975SOL    HW1 6824   1.783   1.949   3.885
 1975SOL    HW2 6825   1.810   2.080   3.980
 1976SOL     OW 6826   5.759   6.221   0.765
 1976SOL    HW1 6827   5.754   6.137   0.712
 1976SOL    HW2 6828   5.825   6.284   0.722
 1977SOL     OW 6829   1.896   3.445   5.209
 1977SOL    HW1 6830   1.973   3.419   5.151
 1977SOL    HW2 6831   1.878   3.542   5.199
 1978SOL     OW 6832   1.990   6.359   2.882
 1978SOL    HW1 6833   2.034   6.270   2.871
 1978SOL    HW2 6834   1.998   6.389   2.977
 1979SOL     OW 6835   5.237   4.940   7.003
 1979SOL    HW1 6836   5.335   4.949   0.004
 1979SOL    HW2 6837   5.189   4.899   0.060
 1980SOL     OW 6838   4.070   0.313   3.604
 1980SOL    HW1 6839   4.132   0.252   3.554
 1980SOL    HW2 6840   4.123   0.384   3.650
 1981SOL     OW 6841   5.577   3.011   2.592
 1981SOL    HW1 6842   5.585   3.043   2.686
 1981SOL    HW2 6843   5.647   2.941   2.575
 1982SOL     OW 6844   6.702   4.019   3.679
 1982SOL    HW1 6845   6.612   4.007   3.636
 1982SOL    HW2 6846   6.757   4.081   3.623
 1983SOL     OW 6847   2.013   0.645   1.527
 1983SOL    HW1 6848   1.939   0.581   1.547
 1983SOL    HW2 6849   2.014   0.717   1.596
 1984SOL     OW 6850   4.505   2.517   5.050
 1984SOL    HW1 6851   4.524   2.583   5.123
 1984SOL    HW2 6852   4.406   2.506   5.041
 1985SOL     OW 6853   6.948   6.111   2.830
 1985SOL    HW1 6854   7.006   6.042   2.787
 1985SOL    HW2 6855   6.931   6.087   2.925
 1986SOL     OW 6856   3.171   1.286   6.311
 1986SOL    HW1 6857   3.138   1.335   6.230
 1986SOL    HW2 6858   3.127   1.323   6.392
 1987SOL     OW 6859   2.295   1.486   3.401
 1987SOL    HW1 6860   2.275   1.546   3.324
 1987SOL    HW2 6861   2.308   1.393   3.368
 1988SOL     OW 6862   6.942   2.981   0.545
 1988SOL    HW1 6863   6.866   2.994   0.610
 1988SOL    HW2 6864   7.007   3.056   0.555
 1989SOL     OW 6865   2.027   5.789   5.133
 1989SOL    HW1 6866   1.973   5.717   5.091
 1989SOL    HW2 6867   2.095   5.823   5.068
 1990SOL     OW 6868   3.848   5.786   0.580
 1990SOL    HW1 6869   3.870   5.853   0.651
 1990SOL    HW2 6870   3.828   5.698   0.622
 1991SOL     OW 6871   2.192   6.359   0.488
 1991SOL    HW1 6872   2.219   6.361   0.584
 1991SOL    HW2 6873   2.133   6.280   0.472
 1992SOL     OW 6874   0.308   0.732   0.622
 1992SOL    HW1 6875   0.322   0.636   0.596
 1992SOL    HW2 6876   0.360   0.752   0.705
 1993SOL     OW 6877   3.138   1.724   6.138
 1993SOL    HW1 6878   3.151   1.822   6.120
 1993SOL    HW2 6879   3.222   1.686   6.177
 1994SOL     OW 6880   6.147   2.573   0.962
 1994SOL    HW1 6881   6.163   2.480   0.927
 1994SOL    HW2 6882   6.060   2.607   0.926
 1995SOL     OW 6883   5.455   3.084   3.537
 1995SOL    HW1 6884   5.528   3.024   3.502
 1995SOL    HW2 6885   5.370   3.063   3.490
 1996SOL     OW 6886   2.573   1.916   0.938
 1996SOL    HW1 6887   2.482   1.957   0.941
 1996SOL    HW2 6888   2.612   1.928   0.847
 1997SOL     OW 6889   3.944   1.775   4.055
 1997SOL    HW1 6890   3.987   1.822   4.132
 1997SOL    HW2 6891   3.860   1.822   4.028
 1998SOL     OW 6892   1.269   3.658   0.734
 1998SOL    HW1 6893   1.219   3.596   0.673
 1998SOL    HW2 6894   1.344   3.700   0.684
 1999SOL     OW 6895   1.448   0.127   5.812
 1999SOL    HW1 6896   1.534   0.135   5.761
 1999SOL    HW2 6897   1.371   0.133   5.748
 2000SOL     OW 6898   3.812   2.843   5.788
 2000SOL    HW1 6899   3.768   2.760   5.823
 2000SOL    HW2 6900   3.860   2.822   5.703
 2001SOL     OW 6901   2.009   1.576   1.036
 2001SOL    HW1 6902   1.952   1.648   0.996
 2001SOL    HW2 6903   2.098   1.575   0.991
 2002SOL     OW 6904   0.219   5.097   0.546
 2002SOL    HW1 6905   0.286   5.042   0.497
 2002SOL    HW2 6906   0.130   5.090   0.502
 2003SOL     OW 6907   6.416   4.880   2.315
 2003SOL    HW1 6908   6.424   4.785   2.284
 2003SOL    HW2 6909   6.490   4.934   2.277
 2004SOL     OW 6910   4.980   0.980   4.603
 2004SOL    HW1 6911   4.908   0.929   4.650
 2004SOL    HW2 6912   5.004   0.934   4.518
 2005SOL     OW 6913   7.003   4.879   0.540
 2005SOL    HW1 6914   0.055   4.813   0.525
 2005SOL    HW2 6915   6.996   4.900   0.637
 2006SOL     OW 6916   5.510   0.160   3.714
 2006SOL    HW1 6917   5.538   0.089   3.650
 2006SOL    HW2 6918   5.525   0.250   3.672
 2007SOL     OW 6919   5.133   4.724   1.011
 2007SOL    HW1 6920   5.220   4.772   1.017
 2007SOL    HW2 6921   5.122   4.665   1.091
 2008SOL     OW 6922   2.041   3.589   3.360
 2008SOL    HW1 6923   1.958   3.565   3.412
 2008SOL    HW2 6924   2.026   3.674   3.310
 2009SOL     OW 6925   5.076   6.323   2.581
 2009SOL    HW1 6926   5.133   6.335   2.499
 2009SOL    HW2 6927   4.981   6.311   2.553
 2010SOL     OW 6928   2.400   1.714   1.518
 2010SOL    HW1 6929   2.471   1.779   1.492
 2010SOL    HW2 6930   2.329   1.761   1.570
 2011SOL     OW 6931   0.618   0.871   4.928
 2011SOL    HW1 6932   0.696   0.828   4.881
 2011SOL    HW2 6933   0.617   0.969   4.906
 2012SOL     OW 6934   1.515   3.795   2.470
 2012SOL    HW1 6935   1.500   3.888   2.437
 2012SOL    HW2 6936   1.471   3.730   2.407
 2013SOL     OW 6937   5.702   3.358   4.005
 2013SOL    HW1 6938   5.784   3.328   3.956
 2013SOL    HW2 6939   5.677   3.289   4.073
 2014SOL     OW 6940   3.039   0.276   3.384
 2014SOL    HW1 6941   3.057   0.308   3.477
 2014SOL    HW2 6942   3.085   0.188   3.370
 2015SOL     OW 6943   2.504   0.035   0.991
 2015SOL    HW1 6944   2.586   7.001   0.980
 2015SOL    HW2 6945   2.462   0.052   0.902
 2016SOL     OW 6946   1.479   5.499   5.851
 2016SOL    HW1 6947   1.460   5.459   5.940
 2016SOL    HW2 6948   1.516   5.591   5.862
 2017SOL     OW 6949   4.123   0.301   2.990
 2017SOL    HW1 6950   4.131   0.309   3.090
 2017SOL    HW2 6951   4.088   0.211   2.967
 2018SOL     OW 6952   6.307   2.998   3.624
 2018SOL    HW1 6953   6.374   2.946   3.571
 2018SOL    HW2 6954   6.350   3.031   3.709
 2019SOL     OW 6955   5.672   3.902   6.577
 2019SOL    HW1 6956   5.633   3.811   6.566
 2019SOL    HW2 6957   5.599   3.968   6.597
 2020SOL     OW 6958   2.375   6.811   6.044
 2020SOL    HW1 6959   2.432   6.766   5.975
 2020SOL    HW2 6960   2.425   6.813   6.131
 2021SOL     OW 6961   6.615   6.453   4.571
 2021SOL    HW1 6962   6.689   6.505   4.528
 2021SOL    HW2 6963   6.574   6.507   4.644
 2022SOL     OW 6964   1.447   4.868   4.170
 2022SOL    HW1 6965   1.504   4.826   4.099
 2022SOL    HW2 6966   1.503   4.931   4.224
 2023SOL     OW 6967   0.667   0.931   6.817
 2023SOL    HW1 6968   0.649   0.833   6.813
 2023SOL    HW2 6969   0.732   0.951   6.890
 2024SOL     OW 6970   0.134   5.599   3.939
 2024SOL    HW1 6971   0.082   5.678   3.906
 2024SOL    HW2 6972   0.074   5.519   3.944
 2025SOL     OW 6973   3.800   0.764   3.998
 2025SOL    HW1 6974   3.745   0.805   4.072
 2025SOL    HW2 6975   3.873   0.827   3.973
 2026SOL     OW 6976   6.331   2.509   6.799
 2026SOL    HW1 6977   6.300   2.604   6.809
 2026SOL    HW2 6978   6.346   2.470   6.890
 2027SOL     OW 6979   1.290   7.017   1.481
 2027SOL    HW1 6980   1.317   6.929   1.520
 2027SOL    HW2 6981   1.274   0.062   1.555
 2028SOL     OW 6982   3.495   5.506   4.084
 2028SOL    HW1 6983   3.507   5.419   4.036
 2028SOL    HW2 6984   3.571   5.566   4.062
 2029SOL     OW 6985   6.577   2.439   0.206
 2029SOL    HW1 6986   6.538   2.528   0.229
 2029SOL    HW2 6987   6.676   2.448   0.194
 2030SOL     OW 6988   3.175   0.221   2.932
 2030SOL    HW1 6989   3.200   0.316   2.952
 2030SOL    HW2 6990   3.099   0.194   2.991
 2031SOL     OW 6991   6.797   5.969   2.465
 2031SOL    HW1 6992   6.850   5.887   2.483
 2031SOL    HW2 6993   6.794   5.985   2.366
 2032SOL     OW 6994   3.339   1.451   1.488
 2032SOL    HW1 6995   3.432   1.482   1.471
 2032SOL    HW2 6996   3.277   1.530   1.490
 2033SOL     OW 6997   2.391   1.290   0.518
 2033SOL    HW1 6998   2.470   1.273   0.577
 2033SOL    HW2 6999   2.307   1.265   0.567
 2034SOL     OW 7000   2.277   5.303   5.845
 2034SOL    HW1 7001   2.323   5.390   5.823
 2034SOL    HW2 7002   2.271   5.247   5.763
 2035SOL     OW 7003   6.315   6.218   3.168
 2035SOL    HW1 7004   6.335   6.139   3.226
 2035SOL    HW2 7005   6.257   6.282   3.217
 2036SOL     OW 7006   1.104   3.350   2.819
 2036SOL    HW1 7007   1.071   3.418   2.753
 2036SOL    HW2 7008   1.036   3.278   2.828
 2037SOL     OW 7009   6.302   3.069   6.527
 2037SOL    HW1 7010   6.347   3.019   6.454
 2037SOL    HW2 7011   6.217   3.023   6.552
 2038SOL     OW 7012   2.299   1.551   0.475
 2038SOL    HW1 7013   2.327   1.577   0.567
 2038SOL    HW2 7014   2.327   1.457   0.457
 2039SOL     OW 7015   6.953   6.577   3.526
 2039SOL    HW1 7016   6.854   6.591   3.528
 2039SOL    HW2 7017   6.980   6.541   3.436
 2040SOL     OW 7018   2.222   1.885   6.962
 2040SOL    HW1 7019   2.208   1.843   6.872
 2040SOL    HW2 7020   2.241   1.814   0.008
 2041SOL     OW 7021   1.166   0.462   4.835
 2041SOL    HW1 7022   1.247   0.404   4.830
 2041SOL    HW2 7023   1.109   0.435   4.913
 2042SOL     OW 7024   5.158   0.150   5.843
 2042SOL    HW1 7025   5.075   0.180   5.889
 2042SOL    HW2 7026   5.135   0.082   5.774
 2043SOL     OW 7027   6.066   2.734   3.005
 2043SOL    HW1 7028   5.977   2.691   3.018
 2043SOL    HW2 7029   6.102   2.712   2.915
 2044SOL     OW 7030   6.009   0.299   0.961
 2044SOL    HW1 7031   5.950   0.378   0.945
 2044SOL    HW2 7032   5.972   0.245   1.037
 2045SOL     OW 7033   1.192   4.782   4.687
 2045SOL    HW1 7034   1.189   4.882   4.692
 2045SOL    HW2 7035   1.146   4.751   4.604
 2046SOL     OW 7036   6.769   1.989   5.105
 2046SOL    HW1 7037   6.671   1.980   5.088
 2046SOL    HW2 7038   6.812   1.899   5.102
 2047SOL     OW 7039   6.483   2.870   0.921
 2047SOL    HW1 7040   6.484   2.954   0.976
 2047SOL    HW2 7041   6.425   2.802   0.967
 2048SOL     OW 7042   0.454   0.465   5.021
 2048SOL    HW1 7043   0.449   0.522   5.103
 2048SOL    HW2 7044   0.379   0.488   4.959
 2049SOL     OW 7045   5.722   1.625   4.019
 2049SOL    HW1 7046   5.740   1.548   3.958
 2049SOL    HW2 7047   5.625   1.648   4.017
 2050SOL     OW 7048   6.693   2.355   4.152
 2050SOL    HW1 7049   6.652   2.390   4.236
 2050SOL    HW2 7050   6.629   2.364   4.076
 2051SOL     OW 7051   1.943   6.387   6.751
 2051SOL    HW1 7052   1.955   6.354   6.844
 2051SOL    HW2 7053   1.847   6.408   6.735
 2052SOL     OW 7054   1.497   2.824   0.961
 2052SOL    HW1 7055   1.547   2.755   0.909
 2052SOL    HW2 7056   1.457   2.781   1.042
 2053SOL     OW 7057   0.922   5.728   5.012
 2053SOL    HW1 7058   0.836   5.749   4.966
 2053SOL    HW2 7059   0.987   5.691   4.945
 2054SOL     OW 7060   3.202   3.837   3.090
 2054SOL    HW1 7061   3.121   3.888   3.118
 2054SOL    HW2 7062   3.246   3.797   3.171
 2055SOL     OW 7063   6.184   3.020   4.952
 2055SOL    HW1 7064   6.123   3.092   4.985
 2055SOL    HW2 7065   6.149   2.984   4.865
 2056SOL     OW 7066   4.006   4.784   2.021
 2056SOL    HW1 7067   3.982   4.837   1.940
 2056SOL    HW2 7068   3.924   4.769   2.076
 2057SOL     OW 7069   4.962   3.580   5.494
 2057SOL    HW1 7070   5.014   3.495   5.508
 2057SOL    HW2 7071   4.880   3.578   5.552
 2058SOL     OW 7072   0.295   6.360   2.568
 2058SOL    HW1 7073   0.362   6.286   2.581
 2058SOL    HW2 7074   0.281   6.375   2.470
 2059SOL     OW 7075   2.543   6.567   6.479
 2059SOL    HW1 7076   2.526   6.656   6.520
 2059SOL    HW2 7077   2.467   6.505   6.499
 2060SOL     OW 7078   0.195   4.145   1.847
 2060SOL    HW1 7079   0.170   4.048   1.856
 2060SOL    HW2 7080   0.294   4.154   1.851
 2061SOL     OW 7081   1.999   2.194   2.553
 2061SOL    HW1 7082   1.941   2.275   2.553
 2061SOL    HW2 7083   2.093   2.219   2.534
 2062SOL     OW 7084   0.079   6.071   5.230
 2062SOL    HW1 7085   0.024   6.146   5.265
 2062SOL    HW2 7086   0.024   5.988   5.225
 2063SOL     OW 7087   1.468   6.264   5.001
 2063SOL    HW1 7088   1.484   6.348   4.950
 2063SOL    HW2 7089   1.378   6.267   5.044
 2064SOL     OW 7090   0.219   2.766   4.660
 2064SOL    HW1 7091   0.282   2.732   4.589
 2064SOL    HW2 7092   0.234   2.864   4.674
 2065SOL     OW 7093   5.970   2.964   6.031
 2065SOL    HW1 7094   5.872   2.947   6.044
 2065SOL    HW2 7095   5.982   3.045   5.972
 2066SOL     OW 7096   6.300   3.998   5.604
 2066SOL    HW1 7097   6.344   4.069   5.660
 2066SOL    HW2 7098   6.299   4.027   5.509
 2067SOL     OW 7099   6.447   5.330   0.829
 2067SOL    HW1 7100   6.393   5.407   0.793
 2067SOL    HW2 7101   6.465   5.265   0.755
 2068SOL     OW 7102   4.004   0.447   4.412
 2068SOL    HW1 7103   4.053   0.525   4.372
 2068SOL    HW2 7104   4.061   0.365   4.405
 2069SOL     OW 7105   0.466   2.557   4.389
 2069SOL    HW1 7106   0.544   2.521   4.338
 2069SOL    HW2 7107   0.433   2.488   4.454
 2070SOL     OW 7108   1.114   2.512   1.072
 2070SOL    HW1 7109   1.101   2.416   1.096
 2070SOL    HW2 7110   1.069   2.531   0.985
 2071SOL     OW 7111   6.294   1.032   6.147
 2071SOL    HW1 7112   6.228   0.999   6.079
 2071SOL    HW2 7113   6.324   1.124   6.122
 2072SOL     OW 7114   4.649   5.198   4.833
 2072SOL    HW1 7115   4.611   5.109   4.810
 2072SOL    HW2 7116   4.713   5.226   4.761
 2073SOL     OW 7117   3.553   6.286   5.402
 2073SOL    HW1 7118   3.571   6.313   5.307
 2073SOL    HW2 7119   3.589   6.357   5.463
 2074SOL     OW 7120   2.358   2.292   6.863
 2074SOL    HW1 7121   2.404   2.273   6.950
 2074SOL    HW2 7122   2.272   2.341   6.882
 2075SOL     OW 7123   6.611   2.298   2.928
 2075SOL    HW1 7124   6.582   2.354   3.006
 2075SOL    HW2 7125   6.618   2.356   2.847
 2076SOL     OW 7126   5.683   0.080   5.927
 2076SOL    HW1 7127   5.708   0.157   5.986
 2076SOL    HW2 7128   5.717   7.016   5.967
 2077SOL     OW 7129   6.440   2.215   1.991
 2077SOL    HW1 7130   6.477   2.135   2.037
 2077SOL    HW2 7131   6.510   2.286   1.986
 2078SOL     OW 7132   1.697   4.741   6.515
 2078SOL    HW1 7133   1.759   4.809   6.476
 2078SOL    HW2 7134   1.712   4.653   6.472
 2079SOL     OW 7135   6.414   0.978   3.167
 2079SOL    HW1 7136   6.334   0.996   3.109
 2079SOL    HW2 7137   6.496   1.017   3.124
 2080SOL     OW 7138   3.131   1.462   4.746
 2080SOL    HW1 7139   3.144   1.561   4.744
 2080SOL    HW2 7140   3.033   1.442   4.743
 2081SOL     OW 7141   1.141   6.377   4.253
 2081SOL    HW1 7142   1.146   6.384   4.153
 2081SOL    HW2 7143   1.146   6.281   4.280
 2082SOL     OW 7144   0.749   6.657   3.194
 2082SOL    HW1 7145   0.669   6.661   3.134
 2082SOL    HW2 7146   0.744   6.574   3.250
 2083SOL     OW 7147   1.626   6.153   4.634
 2083SOL    HW1 7148   1.616   6.076   4.697
 2083SOL    HW2 7149   1.547   6.214   4.645
 2084SOL     OW 7150   0.981   3.153   1.896
 2084SOL    HW1 7151   0.903   3.202   1.860
 2084SOL    HW2 7152   1.019   3.094   1.825
 2085SOL     OW 7153   4.785   6.356   1.038
 2085SOL    HW1 7154   4.806   6.367   1.135
 2085SOL    HW2 7155   4.788   6.446   0.994
 2086SOL     OW 7156   3.799   6.176   0.030
 2086SOL    HW1 7157   3.776   6.079   0.029
 2086SOL    HW2 7158   3.796   6.210   0.124
 2087SOL     OW 7159   4.592   2.169   0.576
 2087SOL    HW1 7160   4.582   2.224   0.493
 2087SOL    HW2 7161   4.562   2.075   0.558
 2088SOL     OW 7162   1.418   5.766   5.935
 2088SOL    HW1 7163   1.429   5.760   5.836
 2088SOL    HW2 7164   1.325   5.741   5.959
 2089SOL     OW 7165   4.492   2.378   5.402
 2089SOL    HW1 7166   4.572   2.395   5.346
 2089SOL    HW2 7167   4.501   2.288   5.446
 2090SOL     OW 7168   4.733   3.106   5.249
 2090SOL    HW1 7169   4.749   3.205   5.256
 2090SOL    HW2 7170   4.686   3.074   5.331
 2091SOL     OW 7171   6.457   6.097   0.516
 2091SOL    HW1 7172   6.475   6.188   0.553
 2091SOL    HW2 7173   6.501   6.029   0.575
 2092SOL     OW 7174   5.445   4.114   1.308
 2092SOL    HW1 7175   5.443   4.212   1.329
 2092SOL    HW2 7176   5.365   4.091   1.252
 2093SOL     OW 7177   3.748   1.802   2.180
 2093SOL    HW1 7178   3.648   1.794   2.183
 2093SOL    HW2 7179   3.788   1.711   2.168
 2094SOL     OW 7180   5.411   2.077   0.877
 2094SOL    HW1 7181   5.403   2.132   0.960
 2094SOL    HW2 7182   5.490   2.107   0.825
 2095SOL     OW 7183   5.918   6.638   3.682
 2095SOL    HW1 7184   5.894   6.541   3.691
 2095SOL    HW2 7185   6.005   6.655   3.727
 2096SOL     OW 7186   4.598   5.288   3.114
 2096SOL    HW1 7187   4.577   5.255   3.206
 2096SOL    HW2 7188   4.634   5.212   3.059
 2097SOL     OW 7189   2.892   3.051   0.223
 2097SOL    HW1 7190   2.873   3.060   0.321
 2097SOL    HW2 7191   2.924   3.138   0.187
 2098SOL     OW 7192   4.088   5.825   3.143
 2098SOL    HW1 7193   4.148   5.784   3.074
 2098SOL    HW2 7194   4.039   5.753   3.192
 2099SOL     OW 7195   4.260   1.468   6.596
 2099SOL    HW1 7196   4.175   1.444   6.548
 2099SOL    HW2 7197   4.338   1.441   6.540
 2100SOL     OW 7198   4.719   1.732   0.051
 2100SOL    HW1 7199   4.768   1.654   0.011
 2100SOL    HW2 7200   4.780   1.782   0.112
 2101SOL     OW 7201   6.933   6.288   1.305
 2101SOL    HW1 7202   6.914   6.191   1.323
 2101SOL    HW2 7203   7.018   6.314   1.350
 2102SOL     OW 7204   5.023   3.758   1.664
 2102SOL    HW1 7205   5.066   3.684   1.717
 2102SOL    HW2 7206   4.925   3.741   1.656
 2103SOL     OW 7207   3.634   3.607   0.652
 2103SOL    HW1 7208   3.534   3.615   0.654
 2103SOL    HW2 7209   3.663   3.573   0.563
 2104SOL     OW 7210   1.414   4.953   1.745
 2104SOL    HW1 7211   1.400   4.875   1.807
 2104SOL    HW2 7212   1.502   4.944   1.700
 2105SOL     OW 7213   3.935   4.526   6.790
 2105SOL    HW1 7214   3.991   4.588   6.734
 2105SOL    HW2 7215   3.839   4.554   6.784
 2106SOL     OW 7216   5.292   4.004   1.107
 2106SOL    HW1 7217   5.338   3.921   1.075
 2106SOL    HW2 7218   5.193   3.992   1.096
 2107SOL     OW 7219   6.182   2.745   5.532
 2107SOL    HW1 7220   6.224   2.696   5.608
 2107SOL    HW2 7221   6.242   2.740   5.452
 2108SOL     OW 7222   5.714   5.967   5.299
 2108SOL    HW1 7223   5.801   6.015   5.295
 2108SOL    HW2 7224   5.704   5.923   5.388
 2109SOL     OW 7225   3.106   6.043   2.146
 2109SOL    HW1 7226   3.198   6.020   2.175
 2109SOL    HW2 7227   3.106   6.134   2.103
 2110SOL     OW 7228   3.724   0.403   5.851
 2110SOL    HW1 7229   3.789   0.337   5.888
 2110SOL    HW2 7230   3.631   0.369   5.864
 2111SOL     OW 7231   1.587   2.124   5.205
 2111SOL    HW1 7232   1.650   2.189   5.163
 2111SOL    HW2 7233   1.527   2.171   5.269
 2112SOL     OW 7234   5.628   2.370   6.858
 2112SOL    HW1 7235   5.602   2.448   6.801
 2112SOL    HW2 7236   5.548   2.337   6.908
 2113SOL     OW 7237   2.480   0.138   4.820
 2113SOL    HW1 7238   2.530   0.052   4.816
 2113SOL    HW2 7239   2.389   0.126   4.781
 2114SOL     OW 7240   2.227   2.977   6.847
 2114SOL    HW1 7241   2.189   2.960   6.756
 2114SOL    HW2 7242   2.191   3.063   6.882
 2115SOL     OW 7243   1.385   4.726   1.887
 2115SOL    HW1 7244   1.285   4.731   1.888
 2115SOL    HW2 7245   1.413   4.630   1.876
 2116SOL     OW 7246   1.027   2.677   1.542
 2116SOL    HW1 7247   1.029   2.770   1.579
 2116SOL    HW2 7248   1.004   2.680   1.445
 2117SOL     OW 7249   5.227   3.483   1.513
 2117SOL    HW1 7250   5.302   3.489   1.580
 2117SOL    HW2 7251   5.237   3.400   1.459
 2118SOL     OW 7252   5.975   3.799   2.907
 2118SOL    HW1 7253   6.063   3.841   2.927
 2118SOL    HW2 7254   5.975   3.766   2.812
 2119SOL     OW 7255   1.750   1.522   0.875
 2119SOL    HW1 7256   1.706   1.433   0.867
 2119SOL    HW2 7257   1.842   1.511   0.913
 2120SOL     OW 7258   6.853   2.605   2.673
 2120SOL    HW1 7259   6.935   2.551   2.697
 2120SOL    HW2 7260   6.788   2.547   2.624
 2121SOL     OW 7261   2.201   2.450   6.116
 2121SOL    HW1 7262   2.189   2.366   6.169
 2121SOL    HW2 7263   2.261   2.432   6.038
 2122SOL     OW 7264   6.263   6.657   5.995
 2122SOL    HW1 7265   6.184   6.627   5.941
 2122SOL    HW2 7266   6.318   6.721   5.942
 2123SOL     OW 7267   6.199   6.041   2.523
 2123SOL    HW1 7268   6.146   6.099   2.585
 2123SOL    HW2 7269   6.246   5.970   2.575
 2124SOL     OW 7270   3.050   1.707   6.418
 2124SOL    HW1 7271   2.986   1.652   6.472
 2124SOL    HW2 7272   3.066   1.662   6.330
 2125SOL     OW 7273   1.117   6.052   2.457
 2125SOL    HW1 7274   1.181   5.975   2.463
 2125SOL    HW2 7275   1.162   6.129   2.412
 2126SOL     OW 7276   4.069   2.381   6.615
 2126SOL    HW1 7277   4.096   2.443   6.542
 2126SOL    HW2 7278   4.032   2.433   6.692
 2127SOL     OW 7279   0.691   1.874   5.378
 2127SOL    HW1 7280   0.766   1.821   5.416
 2127SOL    HW2 7281   0.606   1.821   5.382
 2128SOL     OW 7282   6.016   2.908   1.114
 2128SOL    HW1 7283   6.112   2.925   1.091
 2128SOL    HW2 7284   6.010   2.829   1.174
 2129SOL     OW 7285   4.926   4.643   4.153
 2129SOL    HW1 7286   4.948   4.733   4.116
 2129SOL    HW2 7287   4.898   4.582   4.078
 2130SOL     OW 7288   2.607   1.478   1.029
 2130SOL    HW1 7289   2.541   1.552   1.013
 2130SOL    HW2 7290   2.664   1.467   0.948
 2131SOL     OW 7291   5.051   2.285   0.455
 2131SOL    HW1 7292   5.050   2.324   0.363
 2131SOL    HW2 7293   5.123   2.215   0.461
 2132SOL     OW 7294   3.497   1.386   6.876
 2132SOL    HW1 7295   3.583   1.342   6.900
 2132SOL    HW2 7296   3.474   1.455   6.945
 2133SOL     OW 7297   2.892   2.207   1.048
 2133SOL    HW1 7298   2.971   2.151   1.023
 2133SOL    HW2 7299   2.830   2.213   0.970
 2134SOL     OW 7300   1.182   1.102   4.755
 2134SOL    HW1 7301   1.129   1.163   4.696
 2134SOL    HW2 7302   1.170   1.129   4.850
 2135SOL     OW 7303   0.116   1.588   4.368
 2135SOL    HW1 7304   0.130   1.505   4.423
 2135SOL    HW2 7305   0.019   1.612   4.370
 2136SOL     OW 7306   1.334   3.966   4.453
 2136SOL    HW1 7307   1.354   4.063   4.444
 2136SOL    HW2 7308   1.410   3.912   4.417
 2137SOL     OW 7309   0.436   6.982   4.301
 2137SOL    HW1 7310   0.431   6.902   4.242
 2137SOL    HW2 7311   0.466   6.953   4.393
 2138SOL     OW 7312   5.600   3.142   1.811
 2138SOL    HW1 7313   5.604   3.113   1.715
 2138SOL    HW2 7314   5.546   3.077   1.863
 2139SOL     OW 7315   4.379   1.318   3.211
 2139SOL    HW1 7316   4.326   1.388   3.258
 2139SOL    HW2 7317   4.380   1.337   3.113
 2140SOL     OW 7318   2.978   6.361   2.851
 2140SOL    HW1 7319   2.978   6.461   2.844
 2140SOL    HW2 7320   3.068   6.326   2.824
 2141SOL     OW 7321   6.545   3.200   1.934
 2141SOL    HW1 7322   6.541   3.300   1.938
 2141SOL    HW2 7323   6.624   3.172   1.880
 2142SOL     OW 7324   1.328   2.333   3.134
 2142SOL    HW1 7325   1.275   2.351   3.218
 2142SOL    HW2 7326   1.424   2.357   3.150
 2143SOL     OW 7327   3.443   5.807   0.899
 2143SOL    HW1 7328   3.408   5.896   0.925
 2143SOL    HW2 7329   3.501   5.815   0.818
 2144SOL     OW 7330   2.201   0.441   2.957
 2144SOL    HW1 7331   2.247   0.470   3.041
 2144SOL    HW2 7332   2.129   0.376   2.980
 2145SOL     OW 7333   3.787   5.415   4.242
 2145SOL    HW1 7334   3.739   5.459   4.166
 2145SOL    HW2 7335   3.782   5.316   4.232
 2146SOL     OW 7336   3.093   3.967   2.787
 2146SOL    HW1 7337   3.052   3.949   2.698
 2146SOL    HW2 7338   3.137   3.884   2.822
 2147SOL     OW 7339   0.124   1.394   0.181
 2147SOL    HW1 7340   0.072   1.480   0.179
 2147SOL    HW2 7341   0.124   1.357   0.273
 2148SOL     OW 7342   4.865   3.318   4.275
 2148SOL    HW1 7343   4.855   3.334   4.373
 2148SOL    HW2 7344   4.929   3.385   4.236
 2149SOL     OW 7345   4.046   0.208   1.279
 2149SOL    HW1 7346   4.106   0.138   1.318
 2149SOL    HW2 7347   4.093   0.296   1.280
 2150SOL     OW 7348   2.926   2.127   2.498
 2150SOL    HW1 7349   2.936   2.199   2.429
 2150SOL    HW2 7350   2.863   2.157   2.569
 2151SOL     OW 7351   2.721   2.057   4.608
 2151SOL    HW1 7352   2.746   2.116   4.531
 2151SOL    HW2 7353   2.805   2.021   4.650
 2152SOL     OW 7354   4.712   6.319   1.921
 2152SOL    HW1 7355   4.791   6.343   1.978
 2152SOL    HW2 7356   4.697   6.220   1.924
 2153SOL     OW 7357   3.913   0.791   3.697
 2153SOL    HW1 7358   3.961   0.727   3.757
 2153SOL    HW2 7359   3.939   0.885   3.721
 2154SOL     OW 7360   3.529   6.047   4.868
 2154SOL    HW1 7361   3.605   6.104   4.838
 2154SOL    HW2 7362   3.443   6.098   4.861
 2155SOL     OW 7363   1.875   4.814   0.251
 2155SOL    HW1 7364   1.808   4.760   0.303
 2155SOL    HW2 7365   1.843   4.827   0.158
 2156SOL     OW 7366   2.775   0.229   1.354
 2156SOL    HW1 7367   2.797   0.318   1.395
 2156SOL    HW2 7368   2.676   0.222   1.341
 2157SOL     OW 7369   6.420   0.756   4.263
 2157SOL    HW1 7370   6.482   0.817   4.214
 2157SOL    HW2 7371   6.473   0.691   4.318
 2158SOL     OW 7372   3.690   6.474   0.464
 2158SOL    HW1 7373   3.713   6.569   0.445
 2158SOL    HW2 7374   3.604   6.470   0.516
 2159SOL     OW 7375   1.440   5.779   5.669
 2159SOL    HW1 7376   1.355   5.826   5.645
 2159SOL    HW2 7377   1.510   5.800   5.601
 2160SOL     OW 7378   4.491   3.787   1.688
 2160SOL    HW1 7379   4.435   3.717   1.645
 2160SOL    HW2 7380   4.434   3.867   1.708
 2161SOL     OW 7381   4.971   3.496   3.562
 2161SOL    HW1 7382   5.010   3.463   3.649
 2161SOL    HW2 7383   4.959   3.595   3.567
 2162SOL     OW 7384   1.937   0.735   0.440
 2162SOL    HW1 7385   1.920   0.755   0.344
 2162SOL    HW2 7386   2.015   0.789   0.473
 2163SOL     OW 7387   0.161   5.659   6.806
 2163SOL    HW1 7388   0.139   5.576   6.754
 2163SOL    HW2 7389   0.086   5.680   6.869
 2164SOL     OW 7390   1.777   1.070   6.265
 2164SOL    HW1 7391   1.719   1.120   6.200
 2164SOL    HW2 7392   1.813   1.134   6.332
 2165SOL     OW 7393   1.793   1.495   2.410
 2165SOL    HW1 7394   1.886   1.529   2.396
 2165SOL    HW2 7395   1.791   1.397   2.391
 2166SOL     OW 7396   2.215   2.494   5.689
 2166SOL    HW1 7397   2.189   2.485   5.593
 2166SOL    HW2 7398   2.229   2.403   5.728
 2167SOL     OW 7399   2.833   0.122   2.462
 2167SOL    HW1 7400   2.844   0.188   2.536
 2167SOL    HW2 7401   2.855   0.031   2.494
 2168SOL     OW 7402   6.452   2.470   5.145
 2168SOL    HW1 7403   6.488   2.435   5.059
 2168SOL    HW2 7404   6.355   2.447   5.153
 2169SOL     OW 7405   5.680   1.985   6.386
 2169SOL    HW1 7406   5.717   2.076   6.373
 2169SOL    HW2 7407   5.646   1.950   6.298
 2170SOL     OW 7408   5.488   4.710   4.946
 2170SOL    HW1 7409   5.465   4.654   4.867
 2170SOL    HW2 7410   5.404   4.740   4.992
 2171SOL     OW 7411   6.617   2.769   0.490
 2171SOL    HW1 7412   6.677   2.803   0.417
 2171SOL    HW2 7413   6.672   2.745   0.570
 2172SOL     OW 7414   3.256   1.399   0.765
 2172SOL    HW1 7415   3.225   1.379   0.672
 2172SOL    HW2 7416   3.179   1.391   0.828
 2173SOL     OW 7417   3.790   0.340   5.609
 2173SOL    HW1 7418   3.778   0.399   5.689
 2173SOL    HW2 7419   3.765   0.246   5.633
 2174SOL     OW 7420   6.192   4.822   5.855
 2174SOL    HW1 7421   6.125   4.748   5.862
 2174SOL    HW2 7422   6.152   4.900   5.807
 2175SOL     OW 7423   3.065   1.711   2.881
 2175SOL    HW1 7424   2.976   1.746   2.851
 2175SOL    HW2 7425   3.138   1.764   2.838
 2176SOL     OW 7426   0.996   2.085   1.825
 2176SOL    HW1 7427   0.905   2.109   1.790
 2176SOL    HW2 7428   0.993   1.994   1.868
 2177SOL     OW 7429   6.726   0.584   2.114
 2177SOL    HW1 7430   6.710   0.541   2.203
 2177SOL    HW2 7431   6.772   0.672   2.127
 2178SOL     OW 7432   1.001   4.043   0.343
 2178SOL    HW1 7433   1.082   3.984   0.343
 2178SOL    HW2 7434   0.934   4.008   0.408
 2179SOL     OW 7435   2.117   5.598   4.491
 2179SOL    HW1 7436   2.147   5.691   4.515
 2179SOL    HW2 7437   2.197   5.540   4.476
 2180SOL     OW 7438   3.198   3.116   2.350
 2180SOL    HW1 7439   3.264   3.042   2.339
 2180SOL    HW2 7440   3.106   3.080   2.340
 2181SOL     OW 7441   4.495   3.822   5.923
 2181SOL    HW1 7442   4.455   3.733   5.899
 2181SOL    HW2 7443   4.481   3.886   5.848
 2182SOL     OW 7444   0.040   3.777   6.470
 2182SOL    HW1 7445   0.064   3.691   6.515
 2182SOL    HW2 7446   6.962   3.791   6.476
 2183SOL     OW 7447   3.029   2.827   0.676
 2183SOL    HW1 7448   3.114   2.831   0.624
 2183SOL    HW2 7449   3.047   2.856   0.770
 2184SOL     OW 7450   3.710   6.967   5.924
 2184SOL    HW1 7451   3.788   6.910   5.951
 2184SOL    HW2 7452   3.626   6.914   5.931
 2185SOL     OW 7453   1.772   1.649   1.273
 2185SOL    HW1 7454   1.794   1.730   1.326
 2185SOL    HW2 7455   1.853   1.591   1.263
 2186SOL     OW 7456   6.594   4.588   2.461
 2186SOL    HW1 7457   6.648   4.672   2.474
 2186SOL    HW2 7458   6.633   4.514   2.516
 2187SOL     OW 7459   0.495   1.041   1.965
 2187SOL    HW1 7460   0.472   0.944   1.963
 2187SOL    HW2 7461   0.443   1.089   1.896
 2188SOL     OW 7462   4.755   5.865   3.924
 2188SOL    HW1 7463   4.705   5.839   3.842
 2188SOL    HW2 7464   4.715   5.819   4.004
 2189SOL     OW 7465   1.555   0.096   6.345
 2189SOL    HW1 7466   1.525   0.055   6.259
 2189SOL    HW2 7467   1.614   0.174   6.326
 2190SOL     OW 7468   5.834   2.896   1.678
 2190SOL    HW1 7469   5.764   2.956   1.640
 2190SOL    HW2 7470   5.791   2.829   1.738
 2191SOL     OW 7471   3.544   1.920   6.124
 2191SOL    HW1 7472   3.519   1.892   6.217
 2191SOL    HW2 7473   3.486   1.996   6.095
 2192SOL     OW 7474   4.457   6.716   5.276
 2192SOL    HW1 7475   4.504   6.674   5.198
 2192SOL    HW2 7476   4.430   6.645   5.340
 2193SOL     OW 7477   6.690   5.456   6.307
 2193SOL    HW1 7478   6.671   5.456   6.405
 2193SOL    HW2 7479   6.760   5.388   6.286
 2194SOL     OW 7480   1.861   5.755   0.556
 2194SOL    HW1 7481   1.947   5.705   0.544
 2194SOL    HW2 7482   1.784   5.698   0.527
 2195SOL     OW 7483   6.822   6.598   1.880
 2195SOL    HW1 7484   6.890   6.669   1.860
 2195SOL    HW2 7485   6.732   6.630   1.851
 2196SOL     OW 7486   2.233   0.610   5.607
 2196SOL    HW1 7487   2.330   0.633   5.614
 2196SOL    HW2 7488   2.188   0.631   5.694
 2197SOL     OW 7489   4.906   4.199   1.622
 2197SOL    HW1 7490   4.815   4.162   1.604
 2197SOL    HW2 7491   4.903   4.256   1.704
 2198SOL     OW 7492   6.908   3.144   0.010
 2198SOL    HW1 7493   6.933   3.137   6.934
 2198SOL    HW2 7494   6.953   3.224   0.050
 2199SOL     OW 7495   5.409   6.911   1.198
 2199SOL    HW1 7496   5.500   6.873   1.214
 2199SOL    HW2 7497   5.395   6.922   1.099
 2200SOL     OW 7498   4.252   0.514   4.690
 2200SOL    HW1 7499   4.228   0.420   4.666
 2200SOL    HW2 7500   4.198   0.577   4.635
 2201SOL     OW 7501   5.734   3.973   2.176
 2201SOL    HW1 7502   5.638   3.978   2.204
 2201SOL    HW2 7503   5.775   3.890   2.215
 2202SOL     OW 7504   3.281   5.165   4.161
 2202SOL    HW1 7505   3.247   5.237   4.221
 2202SOL    HW2 7506   3.246   5.077   4.193
 2203SOL     OW 7507   2.975   2.133   2.800
 2203SOL    HW1 7508   2.959   2.137   2.899
 2203SOL    HW2 7509   2.968   2.038   2.769
 2204SOL     OW 7510   3.839   1.010   6.957
 2204SOL    HW1 7511   3.779   0.959   7.017
 2204SOL    HW2 7512   3.834   0.973   6.864
 2205SOL     OW 7513   1.475   0.719   6.956
 2205SOL    HW1 7514   1.468   0.619   6.958
 2205SOL    HW2 7515   1.561   0.745   6.911
 2206SOL     OW 7516   2.893   3.871   5.768
 2206SOL    HW1 7517   2.868   3.921   5.685
 2206SOL    HW2 7518   2.964   3.922   5.817
 2207SOL     OW 7519   0.980   4.519   6.502
 2207SOL    HW1 7520   1.013   4.571   6.581
 2207SOL    HW2 7521   0.890   4.481   6.523
 2208SOL     OW 7522   1.456   4.353   2.114
 2208SOL    HW1 7523   1.549   4.364   2.148
 2208SOL    HW2 7524   1.403   4.434   2.135
 2209SOL     OW 7525   1.696   5.896   5.877
 2209SOL    HW1 7526   1.619   5.840   5.905
 2209SOL    HW2 7527   1.781   5.853   5.909
 2210SOL     OW 7528   1.288   5.110   2.799
 2210SOL    HW1 7529   1.209   5.088   2.856
 2210SOL    HW2 7530   1.259   5.121   2.704
 2211SOL     OW 7531   5.767   1.590   5.182
 2211SOL    HW1 7532   5.804   1.678   5.153
 2211SOL    HW2 7533   5.757   1.590   5.282
 2212SOL     OW 7534   0.337   6.463   6.386
 2212SOL    HW1 7535   0.376   6.435   6.299
 2212SOL    HW2 7536   0.409   6.470   6.455
 2213SOL     OW 7537   4.411   2.422   4.444
 2213SOL    HW1 7538   4.354   2.385   4.370
 2213SOL    HW2 7539   4.375   2.390   4.532
 2214SOL     OW 7540   4.499   0.696   5.524
 2214SOL    HW1 7541   4.460   0.669   5.436
 2214SOL    HW2 7542   4.598   0.707   5.514
 2215SOL     OW 7543   0.036   1.639   5.563
 2215SOL    HW1 7544   0.053   1.574   5.637
 2215SOL    HW2 7545   6.977   1.695   5.585
 2216SOL     OW 7546   1.697   0.589   0.270
 2216SOL    HW1 7547   1.675   0.675   0.316
 2216SOL    HW2 7548   1.672   0.512   0.328
 2217SOL     OW 7549   3.892   6.993   1.128
 2217SOL    HW1 7550   3.919   0.033   1.203
 2217SOL    HW2 7551   3.974   6.961   1.080
 2218SOL     OW 7552   0.807   6.634   0.003
 2218SOL    HW1 7553   0.886   6.572   0.007
 2218SOL    HW2 7554   0.822   6.702   6.952
 2219SOL     OW 7555   1.880   3.532   2.865
 2219SOL    HW1 7556   1.888   3.434   2.843
 2219SOL    HW2 7557   1.783   3.556   2.876
 2220SOL     OW 7558   0.231   1.417   4.166
 2220SOL    HW1 7559   0.312   1.441   4.112
 2220SOL    HW2 7560   0.215   1.487   4.235
 2221SOL     OW 7561   6.378   2.125   0.941
 2221SOL    HW1 7562   6.291   2.110   0.987
 2221SOL    HW2 7563   6.417   2.037   0.914
 2222SOL     OW 7564   4.318   0.769   1.207
 2222SOL    HW1 7565   4.303   0.853   1.155
 2222SOL    HW2 7566   4.229   0.730   1.233
 2223SOL     OW 7567   5.722   4.998   3.489
 2223SOL    HW1 7568   5.712   4.948   3.575
 2223SOL    HW2 7569   5.773   4.943   3.424
 2224SOL     OW 7570   1.962   4.549   1.168
 2224SOL    HW1 7571   1.864   4.542   1.153
 2224SOL    HW2 7572   1.980   4.614   1.242
 2225SOL     OW 7573   5.780   4.961   2.730
 2225SOL    HW1 7574   5.732   4.889   2.680
 2225SOL    HW2 7575   5.831   5.018   2.666
 2226SOL     OW 7576   3.832   3.423   0.992
 2226SOL    HW1 7577   3.867   3.515   1.009
 2226SOL    HW2 7578   3.839   3.403   0.894
 2227SOL     OW 7579   6.126   4.035   6.367
 2227SOL    HW1 7580   6.067   3.987   6.431
 2227SOL    HW2 7581   6.071   4.094   6.307
 2228SOL     OW 7582   3.280   5.730   0.247
 2228SOL    HW1 7583   3.200   5.754   0.302
 2228SOL    HW2 7584   3.253   5.664   0.177
 2229SOL     OW 7585   4.366   1.584   4.051
 2229SOL    HW1 7586   4.326   1.526   3.980
 2229SOL    HW2 7587   4.334   1.678   4.038
 2230SOL     OW 7588   1.331   5.620   3.935
 2230SOL    HW1 7589   1.322   5.648   4.031
 2230SOL    HW2 7590   1.394   5.543   3.929
 2231SOL     OW 7591   1.980   1.748   2.405
 2231SOL    HW1 7592   1.922   1.826   2.428
 2231SOL    HW2 7593   1.972   1.729   2.307
 2232SOL     OW 7594   0.473   3.301   3.761
 2232SOL    HW1 7595   0.426   3.314   3.674
 2232SOL    HW2 7596   0.408   3.268   3.830
 2233SOL     OW 7597   3.887   5.040   6.558
 2233SOL    HW1 7598   3.814   4.999   6.503
 2233SOL    HW2 7599   3.907   5.132   6.523
 2234SOL     OW 7600   3.771   2.486   0.770
 2234SOL    HW1 7601   3.807   2.401   0.806
 2234SOL    HW2 7602   3.673   2.475   0.750
 2235SOL     OW 7603   1.464   0.429   6.713
 2235SOL    HW1 7604   1.426   0.436   6.805
 2235SOL    HW2 7605   1.390   0.428   6.645
 2236SOL     OW 7606   0.731   4.368   0.701
 2236SOL    HW1 7607   0.727   4.315   0.786
 2236SOL    HW2 7608   0.811   4.427   0.703
 2237SOL     OW 7609   6.607   3.668   4.216
 2237SOL    HW1 7610   6.524   3.616   4.199
 2237SOL    HW2 7611   6.611   3.694   4.312
 2238SOL     OW 7612   6.974   5.481   1.974
 2238SOL    HW1 7613   0.003   5.394   1.971
 2238SOL    HW2 7614   6.982   5.521   2.065
 2239SOL     OW 7615   4.149   4.766   4.135
 2239SOL    HW1 7616   4.076   4.788   4.199
 2239SOL    HW2 7617   4.187   4.676   4.158
 2240SOL     OW 7618   6.306   5.389   3.354
 2240SOL    HW1 7619   6.279   5.400   3.450
 2240SOL    HW2 7620   6.334   5.294   3.338
 2241SOL     OW 7621   0.077   6.186   2.460
 2241SOL    HW1 7622   7.009   6.172   2.503
 2241SOL    HW2 7623   0.149   6.179   2.529
 2242SOL     OW 7624   5.410   1.471   3.032
 2242SOL    HW1 7625   5.425   1.376   3.060
 2242SOL    HW2 7626   5.463   1.532   3.090
 2243SOL     OW 7627   2.554   6.252   5.208
 2243SOL    HW1 7628   2.635   6.297   5.245
 2243SOL    HW2 7629   2.483   6.250   5.279
 2244SOL     OW 7630   4.162   0.806   3.213
 2244SOL    HW1 7631   4.169   0.741   3.288
 2244SOL    HW2 7632   4.112   0.888   3.243
 2245SOL     OW 7633   0.084   2.151   2.216
 2245SOL    HW1 7634   0.127   2.238   2.196
 2245SOL    HW2 7635   0.109   2.084   2.146
 2246SOL     OW 7636   1.704   2.769   5.270
 2246SOL    HW1 7637   1.780   2.709   5.294
 2246SOL    HW2 7638   1.672   2.747   5.178
 2247SOL     OW 7639   2.615   2.198   5.268
 2247SOL    HW1 7640   2.594   2.287   5.226
 2247SOL    HW2 7641   2.566   2.190   5.355
 2248SOL     OW 7642   5.376   3.624   5.440
 2248SOL    HW1 7643   5.397   3.526   5.442
 2248SOL    HW2 7644   5.376   3.660   5.533
 2249SOL     OW 7645   5.810   6.294   3.298
 2249SOL    HW1 7646   5.737   6.356   3.327
 2249SOL    HW2 7647   5.841   6.320   3.206
 2250SOL     OW 7648   5.192   4.240   1.751
 2250SOL    HW1 7649   5.189   4.142   1.773
 2250SOL    HW2 7650   5.149   4.256   1.662
 2251SOL     OW 7651   6.091   1.389   0.242
 2251SOL    HW1 7652   6.120   1.294   0.235
 2251SOL    HW2 7653   6.170   1.446   0.267
 2252SOL     OW 7654   6.166   3.115   5.273
 2252SOL    HW1 7655   6.165   3.117   5.373
 2252SOL    HW2 7656   6.123   3.031   5.240
 2253SOL     OW 7657   1.774   2.895   6.477
 2253SOL    HW1 7658   1.797   2.818   6.417
 2253SOL    HW2 7659   1.687   2.876   6.523
 2254SOL     OW 7660   2.488   3.248   5.952
 2254SOL    HW1 7661   2.477   3.149   5.954
 2254SOL    HW2 7662   2.493   3.279   5.857
 2255SOL     OW 7663   5.871   2.661   1.554
 2255SOL    HW1 7664   5.784   2.625   1.588
 2255SOL    HW2 7665   5.889   2.750   1.595
 2256SOL     OW 7666   3.731   5.199   1.918
 2256SOL    HW1 7667   3.652   5.138   1.913
 2256SOL    HW2 7668   3.793   5.180   1.842
 2257SOL     OW 7669   1.479   3.297   4.130
 2257SOL    HW1 7670   1.564   3.273   4.177
 2257SOL    HW2 7671   1.452   3.390   4.156
 2258SOL     OW 7672   1.410   4.987   4.438
 2258SOL    HW1 7673   1.362   5.025   4.517
 2258SOL    HW2 7674   1.462   4.906   4.466
 2259SOL     OW 7675   5.450   4.051   6.642
 2259SOL    HW1 7676   5.408   4.017   6.558
 2259SOL    HW2 7677   5.390   4.031   6.720
 2260SOL     OW 7678   4.309   4.646   2.826
 2260SOL    HW1 7679   4.338   4.558   2.865
 2260SOL    HW2 7680   4.358   4.663   2.741
 2261SOL     OW 7681   5.484   6.366   0.915
 2261SOL    HW1 7682   5.442   6.396   1.001
 2261SOL    HW2 7683   5.568   6.419   0.898
 2262SOL     OW 7684   5.693   2.041   3.750
 2262SOL    HW1 7685   5.609   2.056   3.802
 2262SOL    HW2 7686   5.769   2.087   3.795
 2263SOL     OW 7687   2.228   5.996   5.997
 2263SOL    HW1 7688   2.296   6.046   5.943
 2263SOL    HW2 7689   2.143   6.049   6.000
 2264SOL     OW 7690   2.915   3.693   2.340
 2264SOL    HW1 7691   2.860   3.627   2.289
 2264SOL    HW2 7692   2.994   3.720   2.285
 2265SOL     OW 7693   0.494   1.064   3.081
 2265SOL    HW1 7694   0.469   0.971   3.109
 2265SOL    HW2 7695   0.411   1.117   3.062
 2266SOL     OW 7696   6.796   1.409   0.749
 2266SOL    HW1 7697   6.834   1.370   0.665
 2266SOL    HW2 7698   6.870   1.443   0.807
 2267SOL     OW 7699   5.306   2.564   5.027
 2267SOL    HW1 7700   5.389   2.597   4.981
 2267SOL    HW2 7701   5.235   2.546   4.959
 2268SOL     OW 7702   6.501   5.934   0.292
 2268SOL    HW1 7703   6.460   6.005   0.350
 2268SOL    HW2 7704   6.542   5.976   0.211
 2269SOL     OW 7705   6.001   5.356   5.326
 2269SOL    HW1 7706   5.968   5.420   5.256
 2269SOL    HW2 7707   5.964   5.265   5.308
 2270SOL     OW 7708   3.708   3.796   1.174
 2270SOL    HW1 7709   3.668   3.705   1.168
 2270SOL    HW2 7710   3.727   3.817   1.270
 2271SOL     OW 7711   5.957   4.524   1.439
 2271SOL    HW1 7712   5.964   4.481   1.349
 2271SOL    HW2 7713   6.022   4.599   1.445
 2272SOL     OW 7714   5.796   2.191   4.687
 2272SOL    HW1 7715   5.799   2.277   4.637
 2272SOL    HW2 7716   5.701   2.162   4.699
 2273SOL     OW 7717   1.711   1.726   3.391
 2273SOL    HW1 7718   1.716   1.770   3.301
 2273SOL    HW2 7719   1.637   1.767   3.444
 2274SOL     OW 7720   1.540   4.143   4.649
 2274SOL    HW1 7721   1.610   4.076   4.623
 2274SOL    HW2 7722   1.484   4.106   4.722
 2275SOL     OW 7723   5.405   6.397   4.353
 2275SOL    HW1 7724   5.408   6.307   4.397
 2275SOL    HW2 7725   5.315   6.438   4.368
 2276SOL     OW 7726   3.834   5.004   1.327
 2276SOL    HW1 7727   3.895   5.083   1.330
 2276SOL    HW2 7728   3.755   5.024   1.270
 2277SOL     OW 7729   3.225   3.351   4.719
 2277SOL    HW1 7730   3.205   3.256   4.744
 2277SOL    HW2 7731   3.319   3.373   4.745
 2278SOL     OW 7732   4.478   5.951   3.220
 2278SOL    HW1 7733   4.545   5.917   3.286
 2278SOL    HW2 7734   4.522   5.966   3.132
 2279SOL     OW 7735   5.409   4.329   4.370
 2279SOL    HW1 7736   5.464   4.368   4.296
 2279SOL    HW2 7737   5.313   4.326   4.342
 2280SOL     OW 7738   6.694   6.130   5.150
 2280SOL    HW1 7739   6.673   6.125   5.248
 2280SOL    HW2 7740   6.685   6.039   5.109
 2281SOL     OW 7741   3.661   1.952   1.498
 2281SOL    HW1 7742   3.725   2.002   1.440
 2281SOL    HW2 7743   3.578   1.933   1.445
 2282SOL     OW 7744   5.102   5.839   4.771
 2282SOL    HW1 7745   5.051   5.817   4.688
 2282SOL    HW2 7746   5.190   5.792   4.770
 2283SOL     OW 7747   6.827   3.431   2.690
 2283SOL    HW1 7748   6.923   3.434   2.719
 2283SOL    HW2 7749   6.782   3.516   2.716
 2284SOL     OW 7750   2.519   2.096   1.779
 2284SOL    HW1 7751   2.492   2.161   1.707
 2284SOL    HW2 7752   2.612   2.117   1.810
 2285SOL     OW 7753   1.099   3.753   0.928
 2285SOL    HW1 7754   1.102   3.848   0.959
 2285SOL    HW2 7755   1.167   3.740   0.856
 2286SOL     OW 7756   6.861   5.864   5.283
 2286SOL    HW1 7757   6.825   5.799   5.216
 2286SOL    HW2 7758   6.950   5.832   5.316
 2287SOL     OW 7759   2.128   3.065   1.406
 2287SOL    HW1 7760   2.089   3.054   1.498
 2287SOL    HW2 7761   2.078   3.008   1.341
 2288SOL     OW 7762   0.975   5.648   3.584
 2288SOL    HW1 7763   1.043   5.661   3.512
 2288SOL    HW2 7764   0.888   5.688   3.555
 2289SOL     OW 7765   5.318   1.894   1.596
 2289SOL    HW1 7766   5.270   1.896   1.509
 2289SOL    HW2 7767   5.323   1.986   1.633
 2290SOL     OW 7768   2.888   3.258   2.551
 2290SOL    HW1 7769   2.845   3.263   2.461
 2290SOL    HW2 7770   2.898   3.162   2.577
 2291SOL     OW 7771   1.982   2.121   1.917
 2291SOL    HW1 7772   1.999   2.165   2.005
 2291SOL    HW2 7773   2.038   2.165   1.846
 2292SOL     OW 7774   5.256   3.241   3.785
 2292SOL    HW1 7775   5.289   3.272   3.696
 2292SOL    HW2 7776   5.316   3.169   3.820
 2293SOL     OW 7777   5.381   1.168   0.685
 2293SOL    HW1 7778   5.281   1.164   0.678
 2293SOL    HW2 7779   5.422   1.139   0.598
 2294SOL     OW 7780   3.072   1.969   5.602
 2294SOL    HW1 7781   3.130   1.944   5.525
 2294SOL    HW2 7782   3.128   2.016   5.671
 2295SOL     OW 7783   6.896   0.958   1.621
 2295SOL    HW1 7784   6.901   0.931   1.525
 2295SOL    HW2 7785   6.989   0.975   1.655
 2296SOL     OW 7786   2.569   4.949   3.172
 2296SOL    HW1 7787   2.604   5.011   3.243
 2296SOL    HW2 7788   2.615   4.861   3.179
 2297SOL     OW 7789   5.065   4.815   5.728
 2297SOL    HW1 7790   5.119   4.855   5.653
 2297SOL    HW2 7791   4.989   4.762   5.690
 2298SOL     OW 7792   3.893   3.894   3.289
 2298SOL    HW1 7793   3.840   3.893   3.203
 2298SOL    HW2 7794   3.855   3.963   3.350
 2299SOL     OW 7795   4.882   3.712   4.782
 2299SOL    HW1 7796   4.821   3.701   4.704
 2299SOL    HW2 7797   4.863   3.642   4.850
 2300SOL     OW 7798   2.938   6.776   3.319
 2300SOL    HW1 7799   3.028   6.795   3.281
 2300SOL    HW2 7800   2.879   6.856   3.309
 2301SOL     OW 7801   3.271   2.939   4.062
 2301SOL    HW1 7802   3.370   2.937   4.055
 2301SOL    HW2 7803   3.237   2.851   4.095
 2302SOL     OW 7804   3.749   0.801   0.082
 2302SOL    HW1 7805   3.825   0.738   0.098
 2302SOL    HW2 7806   3.710   0.829   0.170
 2303SOL     OW 7807   2.085   2.850   1.160
 2303SOL    HW1 7808   2.149   2.847   1.084
 2303SOL    HW2 7809   2.128   2.811   1.242
 2304SOL     OW 7810   6.458   5.850   4.235
 2304SOL    HW1 7811   6.414   5.839   4.324
 2304SOL    HW2 7812   6.528   5.780   4.224
 2305SOL     OW 7813   1.830   1.071   3.506
 2305SOL    HW1 7814   1.815   0.974   3.489
 2305SOL    HW2 7815   1.841   1.119   3.418
 2306SOL     OW 7816   1.449   5.220   2.300
 2306SOL    HW1 7817   1.524   5.258   2.354
 2306SOL    HW2 7818   1.476   5.132   2.262
 2307SOL     OW 7819   1.167   2.645   5.273
 2307SOL    HW1 7820   1.144   2.741   5.291
 2307SOL    HW2 7821   1.234   2.641   5.199
 2308SOL     OW 7822   2.316   5.223   0.829
 2308SOL    HW1 7823   2.381   5.271   0.770
 2308SOL    HW2 7824   2.315   5.126   0.806
 2309SOL     OW 7825   1.926   0.825   4.180
 2309SOL    HW1 7826   1.952   0.751   4.242
 2309SOL    HW2 7827   1.931   0.793   4.086
 2310SOL     OW 7828   5.211   6.677   2.064
 2310SOL    HW1 7829   5.262   6.749   2.111
 2310SOL    HW2 7830   5.145   6.637   2.128
 2311SOL     OW 7831   1.871   6.148   0.506
 2311SOL    HW1 7832   1.795   6.209   0.483
 2311SOL    HW2 7833   1.846   6.092   0.585
 2312SOL     OW 7834   3.779   5.364   3.166
 2312SOL    HW1 7835   3.860   5.319   3.128
 2312SOL    HW2 7836   3.704   5.360   3.100
 2313SOL     OW 7837   5.060   5.262   2.399
 2313SOL    HW1 7838   5.153   5.225   2.406
 2313SOL    HW2 7839   5.063   5.349   2.350
 2314SOL     OW 7840   3.638   6.020   3.456
 2314SOL    HW1 7841   3.594   6.104   3.422
 2314SOL    HW2 7842   3.575   5.943   3.443
 2315SOL     OW 7843   4.973   3.210   6.501
 2315SOL    HW1 7844   4.960   3.231   6.404
 2315SOL    HW2 7845   4.950   3.290   6.556
 2316SOL     OW 7846   4.785   2.829   3.357
 2316SOL    HW1 7847   4.835   2.755   3.403
 2316SOL    HW2 7848   4.709   2.859   3.415
 2317SOL     OW 7849   1.087   4.913   2.550
 2317SOL    HW1 7850   1.050   4.996   2.508
 2317SOL    HW2 7851   1.120   4.933   2.642
 2318SOL     OW 7852   0.475   2.156   3.337
 2318SOL    HW1 7853   0.499   2.238   3.285
 2318SOL    HW2 7854   0.456   2.181   3.432
 2319SOL     OW 7855   2.210   4.220   4.846
 2319SOL    HW1 7856   2.249   4.175   4.926
 2319SOL    HW2 7857   2.117   4.250   4.866
 2320SOL     OW 7858   0.252   2.161   4.253
 2320SOL    HW1 7859   0.334   2.201   4.211
 2320SOL    HW2 7860   0.267   2.152   4.352
 2321SOL     OW 7861   3.534   0.371   5.010
 2321SOL    HW1 7862   3.562   0.386   5.105
 2321SOL    HW2 7863   3.568   0.282   4.979
 2322SOL     OW 7864   1.304   1.995   5.672
 2322SOL    HW1 7865   1.391   1.975   5.715
 2322SOL    HW2 7866   1.248   2.051   5.733
 2323SOL     OW 7867   3.984   5.718   3.400
 2323SOL    HW1 7868   3.991   5.625   3.364
 2323SOL    HW2 7869   3.904   5.764   3.361
 2324SOL     OW 7870   0.938   6.542   2.341
 2324SOL    HW1 7871   1.007   6.611   2.324
 2324SOL    HW2 7872   0.915   6.539   2.438
 2325SOL     OW 7873   0.895   4.044   1.659
 2325SOL    HW1 7874   0.843   4.016   1.740
 2325SOL    HW2 7875   0.964   3.975   1.639
 2326SOL     OW 7876   1.696   3.776   6.357
 2326SOL    HW1 7877   1.754   3.749   6.434
 2326SOL    HW2 7878   1.643   3.857   6.382
 2327SOL     OW 7879   4.845   3.052   4.314
 2327SOL    HW1 7880   4.829   3.140   4.270
 2327SOL    HW2 7881   4.819   2.978   4.252
 2328SOL     OW 7882   5.279   1.133   2.930
 2328SOL    HW1 7883   5.192   1.134   2.881
 2328SOL    HW2 7884   5.341   1.199   2.887
 2329SOL     OW 7885   1.034   5.617   4.249
 2329SOL    HW1 7886   1.132   5.623   4.231
 2329SOL    HW2 7887   0.994   5.709   4.245
 2330SOL     OW 7888   0.135   5.112   1.431
 2330SOL    HW1 7889   0.082   5.052   1.492
 2330SOL    HW2 7890   0.208   5.156   1.483
 2331SOL     OW 7891   0.034   4.320   5.269
 2331SOL    HW1 7892   6.983   4.387   5.252
 2331SOL    HW2 7893   0.104   4.326   5.198
 2332SOL     OW 7894   5.396   2.892   5.914
 2332SOL    HW1 7895   5.451   2.893   5.997
 2332SOL    HW2 7896   5.307   2.933   5.932
 2333SOL     OW 7897   0.710   5.155   2.774
 2333SOL    HW1 7898   0.683   5.061   2.752
 2333SOL    HW2 7899   0.783   5.152   2.843
 2334SOL     OW 7900   3.321   6.626   6.825
 2334SOL    HW1 7901   3.337   6.721   6.852
 2334SOL    HW2 7902   3.341   6.565   6.902
 2335SOL     OW 7903   6.095   0.728   3.186
 2335SOL    HW1 7904   6.102   0.787   3.105
 2335SOL    HW2 7905   6.007   0.745   3.232
 2336SOL     OW 7906   4.876   1.103   5.391
 2336SOL    HW1 7907   4.913   1.194   5.412
 2336SOL    HW2 7908   4.776   1.106   5.393
 2337SOL     OW 7909   5.842   1.055   3.210
 2337SOL    HW1 7910   5.803   1.092   3.125
 2337SOL    HW2 7911   5.940   1.078   3.213
 2338SOL     OW 7912   6.997   6.647   0.023
 2338SOL    HW1 7913   0.006   6.640   6.949
 2338SOL    HW2 7914   6.919   6.586   0.039
 2339SOL     OW 7915   3.429   3.915   6.217
 2339SOL    HW1 7916   3.511   3.903   6.161
 2339SOL    HW2 7917   3.435   3.857   6.298
 2340SOL     OW 7918   3.689   6.096   5.228
 2340SOL    HW1 7919   3.675   6.157   5.306
 2340SOL    HW2 7920   3.727   6.009   5.260
 2341SOL     OW 7921   5.694   4.920   0.665
 2341SOL    HW1 7922   5.665   4.850   0.730
 2341SOL    HW2 7923   5.793   4.917   0.655
 2342SOL     OW 7924   0.258   6.539   5.736
 2342SOL    HW1 7925   0.184   6.485   5.777
 2342SOL    HW2 7926   0.245   6.636   5.759
 2343SOL     OW 7927   0.950   6.397   0.965
 2343SOL    HW1 7928   0.987   6.426   1.053
 2343SOL    HW2 7929   0.915   6.303   0.973
 2344SOL     OW 7930   2.819   1.802   2.903
 2344SOL    HW1 7931   2.814   1.832   2.998
 2344SOL    HW2 7932   2.799   1.704   2.898
 2345SOL     OW 7933   1.523   0.479   4.562
 2345SOL    HW1 7934   1.495   0.489   4.466
 2345SOL    HW2 7935   1.534   0.570   4.603
 2346SOL     OW 7936   4.402   2.874   5.501
 2346SOL    HW1 7937   4.447   2.949   5.453
 2346SOL    HW2 7938   4.313   2.856   5.457
 2347SOL     OW 7939   1.684   3.625   2.144
 2347SOL    HW1 7940   1.759   3.559   2.151
 2347SOL    HW2 7941   1.712   3.699   2.083
 2348SOL     OW 7942   2.226   6.567   3.348
 2348SOL    HW1 7943   2.172   6.522   3.277
 2348SOL    HW2 7944   2.196   6.536   3.438
 2349SOL     OW 7945   6.932   6.697   5.706
 2349SOL    HW1 7946   7.008   6.642   5.740
 2349SOL    HW2 7947   6.865   6.638   5.662
 2350SOL     OW 7948   3.000   0.801   5.203
 2350SOL    HW1 7949   3.064   0.862   5.250
 2350SOL    HW2 7950   2.907   0.834   5.216
 2351SOL     OW 7951   2.553   5.281   3.692
 2351SOL    HW1 7952   2.504   5.319   3.613
 2351SOL    HW2 7953   2.641   5.327   3.702
 2352SOL     OW 7954   6.245   3.984   3.169
 2352SOL    HW1 7955   6.190   3.940   3.240
 2352SOL    HW2 7956   6.236   4.084   3.177
 2353SOL     OW 7957   2.476   4.073   5.603
 2353SOL    HW1 7958   2.482   4.091   5.505
 2353SOL    HW2 7959   2.556   4.113   5.648
 2354SOL     OW 7960   3.688   2.440   0.103
 2354SOL    HW1 7961   3.622   2.496   0.053
 2354SOL    HW2 7962   3.672   2.449   0.201
 2355SOL     OW 7963   0.328   6.891   1.046
 2355SOL    HW1 7964   0.278   6.873   0.962
 2355SOL    HW2 7965   0.426   6.901   1.026
 2356SOL     OW 7966   2.452   5.177   2.152
 2356SOL    HW1 7967   2.501   5.093   2.174
 2356SOL    HW2 7968   2.514   5.255   2.161
 2357SOL     OW 7969   5.257   4.702   3.367
 2357SOL    HW1 7970   5.323   4.716   3.293
 2357SOL    HW2 7971   5.300   4.722   3.455
 2358SOL     OW 7972   3.000   6.867   4.117
 2358SOL    HW1 7973   3.093   6.894   4.095
 2358SOL    HW2 7974   2.973   6.790   4.060
 2359SOL     OW 7975   2.386   1.606   5.853
 2359SOL    HW1 7976   2.441   1.683   5.887
 2359SOL    HW2 7977   2.422   1.576   5.765
 2360SOL     OW 7978   3.799   4.596   0.299
 2360SOL    HW1 7979   3.889   4.640   0.296
 2360SOL    HW2 7980   3.761   4.592   0.207
 2361SOL     OW 7981   2.884   6.992   3.077
 2361SOL    HW1 7982   2.828   6.910   3.079
 2361SOL    HW2 7983   2.972   6.974   3.122
 2362SOL     OW 7984   4.435   5.967   4.794
 2362SOL    HW1 7985   4.449   5.890   4.856
 2362SOL    HW2 7986   4.382   6.039   4.840
 2363SOL     OW 7987   3.903   1.946   6.236
 2363SOL    HW1 7988   3.831   1.978   6.299
 2363SOL    HW2 7989   3.862   1.887   6.166
 2364SOL     OW 7990   5.189   1.576   1.815
 2364SOL    HW1 7991   5.124   1.640   1.855
 2364SOL    HW2 7992   5.213   1.505   1.882
 2365SOL     OW 7993   5.433   3.907   4.409
 2365SOL    HW1 7994   5.337   3.923   4.431
 2365SOL    HW2 7995   5.456   3.811   4.429
 2366SOL     OW 7996   1.548   3.888   5.557
 2366SOL    HW1 7997   1.590   3.849   5.475
 2366SOL    HW2 7998   1.539   3.987   5.547
 2367SOL     OW 7999   1.349   3.282   5.811
 2367SOL    HW1 8000   1.361   3.334   5.727
 2367SOL    HW2 8001   1.436   3.241   5.838
 2368SOL     OW 8002   4.373   1.364   4.450
 2368SOL    HW1 8003   4.392   1.348   4.353
 2368SOL    HW2 8004   4.459   1.367   4.501
 2369SOL     OW 8005   3.803   1.677   3.334
 2369SOL    HW1 8006   3.875   1.746   3.326
 2369SOL    HW2 8007   3.715   1.717   3.308
 2370SOL     OW 8008   4.972   2.650   0.860
 2370SOL    HW1 8009   5.038   2.612   0.795
 2370SOL    HW2 8010   4.882   2.608   0.845
 2371SOL     OW 8011   0.765   0.008   2.670
 2371SOL    HW1 8012   0.735   6.938   2.696
 2371SOL    HW2 8013   0.743   0.073   2.744
 2372SOL     OW 8014   6.517   0.843   6.146
 2372SOL    HW1 8015   6.598   0.901   6.147
 2372SOL    HW2 8016   6.435   0.900   6.153
 2373SOL     OW 8017   6.011   0.923   6.365
 2373SOL    HW1 8018   5.968   1.004   6.324
 2373SOL    HW2 8019   6.105   0.944   6.390
 2374SOL     OW 8020   5.955   5.690   3.415
 2374SOL    HW1 8021   5.917   5.781   3.427
 2374SOL    HW2 8022   5.923   5.651   3.329
 2375SOL     OW 8023   0.814   0.622   3.746
 2375SOL    HW1 8024   0.717   0.630   3.723
 2375SOL    HW2 8025   0.828   0.544   3.807
 2376SOL     OW 8026   0.022   2.011   3.489
 2376SOL    HW1 8027   0.080   2.062   3.552
 2376SOL    HW2 8028   6.956   1.990   3.533
 2377SOL     OW 8029   3.392   4.214   6.210
 2377SOL    HW1 8030   3.452   4.140   6.179
 2377SOL    HW2 8031   3.404   4.227   6.309
 2378SOL     OW 8032   5.689   1.915   0.215
 2378SOL    HW1 8033   5.765   1.941   0.156
 2378SOL    HW2 8034   5.651   1.996   0.259
 2379SOL     OW 8035   6.587   4.946   0.419
 2379SOL    HW1 8036   6.522   4.933   0.494
 2379SOL    HW2 8037   6.597   5.044   0.401
 2380SOL     OW 8038   6.256   2.702   5.248
 2380SOL    HW1 8039   6.274   2.772   5.179
 2380SOL    HW2 8040   6.266   2.611   5.207
 2381SOL     OW 8041   2.243   4.629   4.975
 2381SOL    HW1 8042   2.287   4.540   4.984
 2381SOL    HW2 8043   2.245   4.676   5.064
 2382SOL     OW 8044   1.873   5.739   2.530
 2382SOL    HW1 8045   1.969   5.713   2.537
 2382SOL    HW2 8046   1.855   5.818   2.587
 2383SOL     OW 8047   5.233   5.520   5.570
 2383SOL    HW1 8048   5.167   5.595   5.578
 2383SOL    HW2 8049   5.295   5.537   5.493
 2384SOL     OW 8050   0.324   1.850   1.670
 2384SOL    HW1 8051   0.273   1.935   1.658
 2384SOL    HW2 8052   0.273   1.788   1.729
 2385SOL     OW 8053   1.050   2.149   0.246
 2385SOL    HW1 8054   1.004   2.089   0.180
 2385SOL    HW2 8055   0.990   2.166   0.324
 2386SOL     OW 8056   3.194   5.178   4.782
 2386SOL    HW1 8057   3.187   5.081   4.760
 2386SOL    HW2 8058   3.276   5.216   4.740
 2387SOL     OW 8059   6.875   2.775   4.308
 2387SOL    HW1 8060   6.898   2.692   4.258
 2387SOL    HW2 8061   6.798   2.821   4.265
 2388SOL     OW 8062   0.346   2.129   5.966
 2388SOL    HW1 8063   0.251   2.150   5.988
 2388SOL    HW2 8064   0.369   2.165   5.876
 2389SOL     OW 8065   5.126   4.438   4.324
 2389SOL    HW1 8066   5.117   4.424   4.422
 2389SOL    HW2 8067   5.041   4.411   4.278
 2390SOL     OW 8068   4.084   3.437   5.473
 2390SOL    HW1 8069   4.160   3.382   5.509
 2390SOL    HW2 8070   4.025   3.379   5.417
 2391SOL     OW 8071   3.194   3.475   6.362
 2391SOL    HW1 8072   3.140   3.398   6.329
 2391SOL    HW2 8073   3.137   3.558   6.363
 2392SOL     OW 8074   3.592   4.294   5.823
 2392SOL    HW1 8075   3.494   4.309   5.811
 2392SOL    HW2 8076   3.639   4.382   5.828
 2393SOL     OW 8077   3.857   5.674   1.717
 2393SOL    HW1 8078   3.864   5.579   1.686
 2393SOL    HW2 8079   3.775   5.717   1.677
 2394SOL     OW 8080   0.128   4.448   3.866
 2394SOL    HW1 8081   0.090   4.380   3.929
 2394SOL    HW2 8082   0.220   4.419   3.838
 2395SOL     OW 8083   0.631   2.754   6.989
 2395SOL    HW1 8084   0.656   2.682   6.923
 2395SOL    HW2 8085   0.532   2.767   6.988
 2396SOL     OW 8086   5.404   0.391   6.463
 2396SOL    HW1 8087   5.386   0.430   6.373
 2396SOL    HW2 8088   5.492   0.422   6.496
 2397SOL     OW 8089   0.221   4.198   5.938
 2397SOL    HW1 8090   0.268   4.264   5.997
 2397SOL    HW2 8091   0.123   4.200   5.958
 2398SOL     OW 8092   2.911   5.700   4.274
 2398SOL    HW1 8093   2.953   5.635   4.337
 2398SOL    HW2 8094   2.976   5.725   4.202
 2399SOL     OW 8095   3.846   2.048   3.793
 2399SOL    HW1 8096   3.813   2.083   3.705
 2399SOL    HW2 8097   3.851   1.948   3.790
 2400SOL     OW 8098   1.847   3.359   0.572
 2400SOL    HW1 8099   1.868   3.452   0.543
 2400SOL    HW2 8100   1.768   3.360   0.633
 2401SOL     OW 8101   3.617   6.708   4.258
 2401SOL    HW1 8102   3.670   6.742   4.180
 2401SOL    HW2 8103   3.616   6.777   4.330
 2402SOL     OW 8104   0.270   2.428   3.189
 2402SOL    HW1 8105   0.331   2.388   3.121
 2402SOL    HW2 8106   0.244   2.359   3.256
 2403SOL     OW 8107   3.622   3.514   1.155
 2403SOL    HW1 8108   3.674   3.497   1.071
 2403SOL    HW2 8109   3.558   3.439   1.170
 2404SOL     OW 8110   6.068   1.374   1.437
 2404SOL    HW1 8111   6.062   1.323   1.352
 2404SOL    HW2 8112   6.018   1.325   1.509
 2405SOL     OW 8113   2.960   4.929   5.693
 2405SOL    HW1 8114   3.009   4.996   5.636
 2405SOL    HW2 8115   2.948   4.844   5.642
 2406SOL     OW 8116   2.523   0.278   3.910
 2406SOL    HW1 8117   2.438   0.226   3.904
 2406SOL    HW2 8118   2.588   0.229   3.969
 2407SOL     OW 8119   4.393   2.282   3.162
 2407SOL    HW1 8120   4.412   2.341   3.084
 2407SOL    HW2 8121   4.460   2.207   3.165
 2408SOL     OW 8122   2.508   5.436   2.768
 2408SOL    HW1 8123   2.542   5.526   2.792
 2408SOL    HW2 8124   2.556   5.402   2.688
 2409SOL     OW 8125   2.583   3.090   0.798
 2409SOL    HW1 8126   2.543   3.001   0.776
 2409SOL    HW2 8127   2.573   3.151   0.719
 2410SOL     OW 8128   6.659   3.427   5.953
 2410SOL    HW1 8129   6.759   3.425   5.957
 2410SOL    HW2 8130   6.630   3.508   5.903
 2411SOL     OW 8131   2.584   3.788   6.285
 2411SOL    HW1 8132   2.516   3.800   6.213
 2411SOL    HW2 8133   2.618   3.694   6.284
 2412SOL     OW 8134   2.486   2.929   6.949
 2412SOL    HW1 8135   2.533   3.008   6.911
 2412SOL    HW2 8136   2.388   2.937   6.933
 2413SOL     OW 8137   6.482   3.063   6.838
 2413SOL    HW1 8138   6.450   3.025   6.751
 2413SOL    HW2 8139   6.546   3.138   6.820
 2414SOL     OW 8140   5.470   1.795   3.731
 2414SOL    HW1 8141   5.497   1.840   3.646
 2414SOL    HW2 8142   5.444   1.864   3.798
 2415SOL     OW 8143   2.180   0.095   0.324
 2415SOL    HW1 8144   2.109   0.163   0.344
 2415SOL    HW2 8145   2.138   0.004   0.317
 2416SOL     OW 8146   0.770   3.288   3.249
 2416SOL    HW1 8147   0.818   3.360   3.199
 2416SOL    HW2 8148   0.790   3.296   3.347
 2417SOL     OW 8149   4.643   2.402   6.778
 2417SOL    HW1 8150   4.546   2.384   6.789
 2417SOL    HW2 8151   4.657   2.497   6.750
 2418SOL     OW 8152   3.775   4.021   5.507
 2418SOL    HW1 8153   3.806   4.045   5.415
 2418SOL    HW2 8154   3.676   4.011   5.507
 2419SOL     OW 8155   2.271   0.007   4.638
 2419SOL    HW1 8156   2.334   6.951   4.638
 2419SOL    HW2 8157   2.178   6.995   4.650
 2420SOL     OW 8158   3.405   5.634   1.772
 2420SOL    HW1 8159   3.435   5.627   1.677
 2420SOL    HW2 8160   3.445   5.560   1.826
 2421SOL     OW 8161   4.017   6.743   3.834
 2421SOL    HW1 8162   3.927   6.733   3.791
 2421SOL    HW2 8163   4.008   6.736   3.933
 2422SOL     OW 8164   4.020   6.860   0.916
 2422SOL    HW1 8165   4.006   6.905   0.827
 2422SOL    HW2 8166   4.076   6.779   0.903
 2423SOL     OW 8167   1.853   5.191   1.256
 2423SOL    HW1 8168   1.874   5.270   1.314
 2423SOL    HW2 8169   1.856   5.217   1.160
 2424SOL     OW 8170   5.892   6.425   6.863
 2424SOL    HW1 8171   5.974   6.481   6.851
 2424SOL    HW2 8172   5.912   6.349   6.925
 2425SOL     OW 8173   4.668   6.103   5.790
 2425SOL    HW1 8174   4.656   6.114   5.888
 2425SOL    HW2 8175   4.756   6.060   5.771
 2426SOL     OW 8176   0.902   5.645   5.296
 2426SOL    HW1 8177   0.997   5.626   5.274
 2426SOL    HW2 8178   0.854   5.675   5.214
 2427SOL     OW 8179   4.796   6.013   6.654
 2427SOL    HW1 8180   4.823   6.000   6.749
 2427SOL    HW2 8181   4.853   6.084   6.613
 2428SOL     OW 8182   0.167   0.955   2.830
 2428SOL    HW1 8183   0.225   1.012   2.773
 2428SOL    HW2 8184   0.189   0.859   2.815
 2429SOL     OW 8185   5.431   4.363   2.461
 2429SOL    HW1 8186   5.471   4.454   2.457
 2429SOL    HW2 8187   5.338   4.369   2.500
 2430SOL     OW 8188   5.949   2.272   0.559
 2430SOL    HW1 8189   6.003   2.210   0.502
 2430SOL    HW2 8190   5.915   2.222   0.639
 2431SOL     OW 8191   5.804   1.455   1.313
 2431SOL    HW1 8192   5.782   1.407   1.398
 2431SOL    HW2 8193   5.839   1.389   1.246
 2432SOL     OW 8194   3.353   6.071   1.663
 2432SOL    HW1 8195   3.418   6.144   1.645
 2432SOL    HW2 8196   3.279   6.074   1.595
 2433SOL     OW 8197   0.628   6.179   0.241
 2433SOL    HW1 8198   0.543   6.185   0.292
 2433SOL    HW2 8199   0.706   6.183   0.304
 2434SOL     OW 8200   4.957   2.035   2.154
 2434SOL    HW1 8201   5.010   2.090   2.089
 2434SOL    HW2 8202   5.003   2.036   2.243
 2435SOL     OW 8203   5.697   5.527   0.588
 2435SOL    HW1 8204   5.615   5.470   0.593
 2435SOL    HW2 8205   5.695   5.596   0.661
 2436SOL     OW 8206   1.569   1.136   1.598
 2436SOL    HW1 8207   1.527   1.083   1.672
 2436SOL    HW2 8208   1.547   1.233   1.610
 2437SOL     OW 8209   5.559   6.079   1.767
 2437SOL    HW1 8210   5.553   6.178   1.769
 2437SOL    HW2 8211   5.649   6.050   1.799
 2438SOL     OW 8212   4.296   1.612   4.401
 2438SOL    HW1 8213   4.201   1.632   4.377
 2438SOL    HW2 8214   4.311   1.513   4.399
 2439SOL     OW 8215   0.270   5.217   6.587
 2439SOL    HW1 8216   0.174   5.232   6.563
 2439SOL    HW2 8217   0.328   5.240   6.509
 2440SOL     OW 8218   4.621   6.915   5.409
 2440SOL    HW1 8219   4.567   6.855   5.350
 2440SOL    HW2 8220   4.623   6.878   5.502
 2441SOL     OW 8221   5.881   0.981   0.049
 2441SOL    HW1 8222   5.805   0.956   7.010
 2441SOL    HW2 8223   5.855   0.965   0.145
 2442SOL     OW 8224   5.783   4.359   3.108
 2442SOL    HW1 8225   5.838   4.298   3.051
 2442SOL    HW2 8226   5.763   4.315   3.195
 2443SOL     OW 8227   2.786   0.931   6.214
 2443SOL    HW1 8228   2.864   0.974   6.258
 2443SOL    HW2 8229   2.727   0.889   6.283
 2444SOL     OW 8230   4.184   4.790   6.974
 2444SOL    HW1 8231   4.182   4.774   6.875
 2444SOL    HW2 8232   4.164   4.886   6.993
 2445SOL     OW 8233   5.957   1.468   2.178
 2445SOL    HW1 8234   6.005   1.472   2.090
 2445SOL    HW2 8235   5.950   1.372   2.208
 2446SOL     OW 8236   0.992   2.769   3.362
 2446SOL    HW1 8237   1.072   2.763   3.301
 2446SOL    HW2 8238   0.917   2.814   3.314
 2447SOL     OW 8239   2.217   0.486   1.176
 2447SOL    HW1 8240   2.283   0.420   1.139
 2447SOL    HW2 8241   2.218   0.569   1.120
 2448SOL     OW 8242   6.157   1.741   4.246
 2448SOL    HW1 8243   6.192   1.819   4.299
 2448SOL    HW2 8244   6.213   1.661   4.265
 2449SOL     OW 8245   1.341   3.136   1.782
 2449SOL    HW1 8246   1.395   3.168   1.704
 2449SOL    HW2 8247   1.317   3.213   1.841
 2450SOL     OW 8248   2.489   5.305   6.707
 2450SOL    HW1 8249   2.478   5.206   6.716
 2450SOL    HW2 8250   2.551   5.325   6.630
 2451SOL     OW 8251   0.878   0.415   3.255
 2451SOL    HW1 8252   0.971   0.379   3.257
 2451SOL    HW2 8253   0.824   0.373   3.328
 2452SOL     OW 8254   2.882   1.896   3.546
 2452SOL    HW1 8255   2.874   1.823   3.614
 2452SOL    HW2 8256   2.957   1.957   3.572
 2453SOL     OW 8257   6.946   3.442   0.724
 2453SOL    HW1 8258   6.983   3.495   0.648
 2453SOL    HW2 8259   6.976   3.481   0.811
 2454SOL     OW 8260   2.461   6.454   6.931
 2454SOL    HW1 8261   2.532   6.490   6.992
 2454SOL    HW2 8262   2.503   6.425   6.845
 2455SOL     OW 8263   4.117   1.274   0.742
 2455SOL    HW1 8264   4.197   1.280   0.683
 2455SOL    HW2 8265   4.124   1.194   0.800
 2456SOL     OW 8266   0.621   2.524   6.817
 2456SOL    HW1 8267   0.720   2.531   6.820
 2456SOL    HW2 8268   0.591   2.505   6.723
 2457SOL     OW 8269   6.264   1.324   5.437
 2457SOL    HW1 8270   6.239   1.420   5.424
 2457SOL    HW2 8271   6.314   1.292   5.357
 2458SOL     OW 8272   1.200   6.793   3.798
 2458SOL    HW1 8273   1.257   6.782   3.717
 2458SOL    HW2 8274   1.123   6.730   3.793
 2459SOL     OW 8275   3.209   5.803   6.155
 2459SOL    HW1 8276   3.116   5.805   6.192
 2459SOL    HW2 8277   3.205   5.797   6.055
 2460SOL     OW 8278   1.183   1.188   0.839
 2460SOL    HW1 8279   1.210   1.133   0.919
 2460SOL    HW2 8280   1.150   1.277   0.870
 2461SOL     OW 8281   5.126   0.861   4.154
 2461SOL    HW1 8282   5.084   0.872   4.064
 2461SOL    HW2 8283   5.055   0.841   4.222
 2462SOL     OW 8284   2.376   5.200   6.975
 2462SOL    HW1 8285   2.343   5.290   6.947
 2462SOL    HW2 8286   2.468   5.186   6.939
 2463SOL     OW 8287   6.141   1.568   0.053
 2463SOL    HW1 8288   6.044   1.565   0.031
 2463SOL    HW2 8289   6.158   1.514   0.136
 2464SOL     OW 8290   1.658   3.322   3.134
 2464SOL    HW1 8291   1.579   3.383   3.132
 2464SOL    HW2 8292   1.709   3.337   3.219
 2465SOL     OW 8293   0.518   6.513   6.589
 2465SOL    HW1 8294   0.479   6.513   6.681
 2465SOL    HW2 8295   0.552   6.604   6.567
 2466SOL     OW 8296   2.049   1.332   2.693
 2466SOL    HW1 8297   1.991   1.254   2.668
 2466SOL    HW2 8298   2.071   1.385   2.610
 2467SOL     OW 8299   4.743   2.185   5.129
 2467SOL    HW1 8300   4.757   2.196   5.227
 2467SOL    HW2 8301   4.795   2.105   5.097
 2468SOL     OW 8302   4.220   6.647   0.947
 2468SOL    HW1 8303   4.288   6.714   0.977
 2468SOL    HW2 8304   4.212   6.574   1.015
 2469SOL     OW 8305   3.823   3.322   4.771
 2469SOL    HW1 8306   3.829   3.420   4.754
 2469SOL    HW2 8307   3.877   3.298   4.851
 2470SOL     OW 8308   3.956   4.800   5.486
 2470SOL    HW1 8309   4.010   4.766   5.409
 2470SOL    HW2 8310   4.012   4.802   5.568
 2471SOL     OW 8311   3.106   6.131   0.361
 2471SOL    HW1 8312   3.070   6.186   0.286
 2471SOL    HW2 8313   3.176   6.184   0.410
 2472SOL     OW 8314   4.750   2.281   3.224
 2472SOL    HW1 8315   4.742   2.282   3.124
 2472SOL    HW2 8316   4.685   2.215   3.261
 2473SOL     OW 8317   1.468   3.897   4.837
 2473SOL    HW1 8318   1.439   3.914   4.931
 2473SOL    HW2 8319   1.388   3.873   4.781
 2474SOL     OW 8320   0.581   5.955   1.054
 2474SOL    HW1 8321   0.495   5.982   1.010
 2474SOL    HW2 8322   0.576   5.971   1.152
 2475SOL     OW 8323   4.449   0.927   2.329
 2475SOL    HW1 8324   4.482   0.850   2.384
 2475SOL    HW2 8325   4.467   1.013   2.378
 2476SOL     OW 8326   5.312   0.556   2.000
 2476SOL    HW1 8327   5.265   0.497   1.934
 2476SOL    HW2 8328   5.286   0.529   2.093
 2477SOL     OW 8329   4.568   0.993   2.934
 2477SOL    HW1 8330   4.660   1.032   2.935
 2477SOL    HW2 8331   4.507   1.054   2.884
 2478SOL     OW 8332   6.337   1.212   1.399
 2478SOL    HW1 8333   6.384   1.269   1.466
 2478SOL    HW2 8334   6.279   1.145   1.447
 2479SOL     OW 8335   1.005   2.886   2.362
 2479SOL    HW1 8336   0.966   2.799   2.331
 2479SOL    HW2 8337   1.028   2.942   2.282
 2480SOL     OW 8338   4.774   3.598   0.775
 2480SOL    HW1 8339   4.816   3.508   0.785
 2480SOL    HW2 8340   4.674   3.588   0.776
 2481SOL     OW 8341   3.644   6.270   0.869
 2481SOL    HW1 8342   3.711   6.289   0.797
 2481SOL    HW2 8343   3.578   6.345   0.873
 2482SOL     OW 8344   5.407   3.577   5.960
 2482SOL    HW1 8345   5.344   3.511   5.919
 2482SOL    HW2 8346   5.489   3.530   5.992
 2483SOL     OW 8347   1.584   1.731   0.339
 2483SOL    HW1 8348   1.507   1.749   0.277
 2483SOL    HW2 8349   1.670   1.735   0.287
 2484SOL     OW 8350   3.595   0.333   6.938
 2484SOL    HW1 8351   3.653   0.269   6.987
 2484SOL    HW2 8352   3.644   0.369   6.859
 2485SOL     OW 8353   5.998   3.391   1.416
 2485SOL    HW1 8354   6.066   3.443   1.467
 2485SOL    HW2 8355   6.028   3.296   1.408
 2486SOL     OW 8356   1.396   4.881   5.243
 2486SOL    HW1 8357   1.389   4.787   5.277
 2486SOL    HW2 8358   1.423   4.879   5.147
 2487SOL     OW 8359   4.337   6.679   0.600
 2487SOL    HW1 8360   4.406   6.677   0.528
 2487SOL    HW2 8361   4.253   6.637   0.566
 2488SOL     OW 8362   1.251   4.133   1.879
 2488SOL    HW1 8363   1.347   4.106   1.867
 2488SOL    HW2 8364   1.244   4.232   1.870
 2489SOL     OW 8365   0.801   6.369   4.090
 2489SOL    HW1 8366   0.811   6.346   4.187
 2489SOL    HW2 8367   0.817   6.287   4.035
 2490SOL     OW 8368   6.900   5.084   1.145
 2490SOL    HW1 8369   6.937   5.170   1.178
 2490SOL    HW2 8370   6.809   5.099   1.106
 2491SOL     OW 8371   2.959   4.472   0.044
 2491SOL    HW1 8372   2.933   4.563   0.012
 2491SOL    HW2 8373   3.044   4.443   0.000
 2492SOL     OW 8374   4.752   3.844   0.914
 2492SOL    HW1 8375   4.814   3.869   0.987
 2492SOL    HW2 8376   4.783   3.759   0.871
 2493SOL     OW 8377   5.523   0.246   1.867
 2493SOL    HW1 8378   5.558   0.282   1.953
 2493SOL    HW2 8379   5.461   0.170   1.886
 2494SOL     OW 8380   5.488   4.314   3.050
 2494SOL    HW1 8381   5.583   4.316   3.019
 2494SOL    HW2 8382   5.468   4.224   3.089
 2495SOL     OW 8383   5.179   5.970   4.005
 2495SOL    HW1 8384   5.132   6.055   3.979
 2495SOL    HW2 8385   5.114   5.894   4.001
 2496SOL     OW 8386   0.013   2.127   6.623
 2496SOL    HW1 8387   0.076   2.055   6.595
 2496SOL    HW2 8388   0.057   2.216   6.610
 2497SOL     OW 8389   0.069   0.241   0.817
 2497SOL    HW1 8390   0.129   0.162   0.800
 2497SOL    HW2 8391   0.078   0.270   0.912
 2498SOL     OW 8392   3.028   2.139   4.778
 2498SOL    HW1 8393   3.002   2.206   4.708
 2498SOL    HW2 8394   3.032   2.185   4.867
 2499SOL     OW 8395   5.675   2.437   2.669
 2499SOL    HW1 8396   5.619   2.514   2.701
 2499SOL    HW2 8397   5.635   2.351   2.699
 2500SOL     OW 8398   4.049   4.309   6.636
 2500SOL    HW1 8399   4.137   4.340   6.599
 2500SOL    HW2 8400   4.016   4.377   6.703
 2501SOL     OW 8401   5.110   5.523   0.510
 2501SOL    HW1 8402   5.127   5.502   0.606
 2501SOL    HW2 8403   5.059   5.448   0.468
 2502SOL     OW 8404   1.204   0.543   3.348
 2502SOL    HW1 8405   1.132   0.488   3.390
 2502SOL    HW2 8406   1.222   0.623   3.406
 2503SOL     OW 8407   2.093   6.496   4.677
 2503SOL    HW1 8408   2.191   6.475   4.671
 2503SOL    HW2 8409   2.040   6.412   4.663
 2504SOL     OW 8410   3.778   5.478   4.516
 2504SOL    HW1 8411   3.737   5.569   4.523
 2504SOL    HW2 8412   3.786   5.453   4.420
 2505SOL     OW 8413   0.319   0.187   3.211
 2505SOL    HW1 8414   0.258   0.203   3.289
 2505SOL    HW2 8415   0.405   0.236   3.225
 2506SOL     OW 8416   6.217   3.898   5.907
 2506SOL    HW1 8417   6.280   3.843   5.853
 2506SOL    HW2 8418   6.265   3.938   5.985
 2507SOL     OW 8419   6.718   3.292   0.311
 2507SOL    HW1 8420   6.682   3.260   0.398
 2507SOL    HW2 8421   6.738   3.214   0.252
 2508SOL     OW 8422   2.842   1.591   3.463
 2508SOL    HW1 8423   2.904   1.582   3.541
 2508SOL    HW2 8424   2.894   1.586   3.378
 2509SOL     OW 8425   0.095   4.035   0.940
 2509SOL    HW1 8426   0.033   3.976   0.889
 2509SOL    HW2 8427   0.115   4.117   0.886
 2510SOL     OW 8428   3.044   5.254   1.116
 2510SOL    HW1 8429   3.116   5.198   1.074
 2510SOL    HW2 8430   2.966   5.196   1.140
 2511SOL     OW 8431   3.628   1.779   4.264
 2511SOL    HW1 8432   3.551   1.762   4.325
 2511SOL    HW2 8433   3.672   1.691   4.242
 2512SOL     OW 8434   4.817   2.966   5.782
 2512SOL    HW1 8435   4.724   2.947   5.815
 2512SOL    HW2 8436   4.821   3.061   5.750
 2513SOL     OW 8437   1.950   4.209   5.210
 2513SOL    HW1 8438   2.048   4.215   5.233
 2513SOL    HW2 8439   1.938   4.227   5.113
 2514SOL     OW 8440   0.306   3.557   4.960
 2514SOL    HW1 8441   0.231   3.584   4.899
 2514SOL    HW2 8442   0.334   3.636   5.014
 2515SOL     OW 8443   1.251   0.503   1.214
 2515SOL    HW1 8444   1.261   0.518   1.116
 2515SOL    HW2 8445   1.267   0.406   1.235
 2516SOL     OW 8446   5.840   1.875   2.572
 2516SOL    HW1 8447   5.807   1.969   2.580
 2516SOL    HW2 8448   5.922   1.873   2.515
 2517SOL     OW 8449   0.867   6.665   5.827
 2517SOL    HW1 8450   0.958   6.624   5.824
 2517SOL    HW2 8451   0.866   6.740   5.894
 2518SOL     OW 8452   1.460   4.451   7.006
 2518SOL    HW1 8453   1.527   4.516   0.018
 2518SOL    HW2 8454   1.477   4.430   6.910
 2519SOL     OW 8455   4.113   6.416   2.090
 2519SOL    HW1 8456   4.087   6.338   2.033
 2519SOL    HW2 8457   4.192   6.392   2.147
 2520SOL     OW 8458   2.832   1.637   0.525
 2520SOL    HW1 8459   2.782   1.553   0.549
 2520SOL    HW2 8460   2.782   1.716   0.559
 2521SOL     OW 8461   2.438   0.915   5.505
 2521SOL    HW1 8462   2.356   0.956   5.546
 2521SOL    HW2 8463   2.496   0.988   5.468
 2522SOL     OW 8464   1.016   2.653   4.894
 2522SOL    HW1 8465   1.099   2.606   4.922
 2522SOL    HW2 8466   0.938   2.618   4.947
 2523SOL     OW 8467   0.156   3.498   1.224
 2523SOL    HW1 8468   0.204   3.580   1.254
 2523SOL    HW2 8469   0.185   3.420   1.280
 2524SOL     OW 8470   0.949   6.255   5.261
 2524SOL    HW1 8471   0.925   6.298   5.173
 2524SOL    HW2 8472   0.896   6.172   5.273
 2525SOL     OW 8473   1.333   2.323   5.766
 2525SOL    HW1 8474   1.320   2.363   5.856
 2525SOL    HW2 8475   1.430   2.328   5.741
 2526SOL     OW 8476   1.278   4.461   6.311
 2526SOL    HW1 8477   1.309   4.491   6.401
 2526SOL    HW2 8478   1.188   4.420   6.319
 2527SOL     OW 8479   5.423   6.002   5.343
 2527SOL    HW1 8480   5.516   6.027   5.317
 2527SOL    HW2 8481   5.405   6.035   5.436
 2528SOL     OW 8482   5.834   5.111   0.082
 2528SOL    HW1 8483   5.752   5.163   0.105
 2528SOL    HW2 8484   5.811   5.040   0.015
 2529SOL     OW 8485   6.634   6.041   6.519
 2529SOL    HW1 8486   6.571   5.972   6.483
 2529SOL    HW2 8487   6.711   5.996   6.564
 2530SOL     OW 8488   3.001   6.231   5.485
 2530SOL    HW1 8489   3.099   6.213   5.473
 2530SOL    HW2 8490   2.949   6.150   5.460
 2531SOL     OW 8491   5.704   5.765   4.846
 2531SOL    HW1 8492   5.647   5.683   4.853
 2531SOL    HW2 8493   5.674   5.832   4.914
 2532SOL     OW 8494   0.249   5.881   0.961
 2532SOL    HW1 8495   0.198   5.889   1.047
 2532SOL    HW2 8496   0.189   5.902   0.884
 2533SOL     OW 8497   3.113   6.711   4.338
 2533SOL    HW1 8498   3.053   6.750   4.269
 2533SOL    HW2 8499   3.205   6.700   4.299
 2534SOL     OW 8500   3.825   0.658   2.769
 2534SOL    HW1 8501   3.739   0.671   2.819
 2534SOL    HW2 8502   3.843   0.737   2.711
 2535SOL     OW 8503   3.538   2.578   5.423
 2535SOL    HW1 8504   3.567   2.673   5.410
 2535SOL    HW2 8505   3.439   2.571   5.405
 2536SOL     OW 8506   1.548   1.656   4.376
 2536SOL    HW1 8507   1.550   1.744   4.328
 2536SOL    HW2 8508   1.454   1.637   4.404
 2537SOL     OW 8509   3.596   0.182   6.012
 2537SOL    HW1 8510   3.517   0.205   5.956
 2537SOL    HW2 8511   3.625   0.088   5.992
 2538SOL     OW 8512   0.908   4.511   3.032
 2538SOL    HW1 8513   0.913   4.423   3.081
 2538SOL    HW2 8514   1.000   4.537   3.003
 2539SOL     OW 8515   6.294   0.983   4.918
 2539SOL    HW1 8516   6.272   0.977   4.821
 2539SOL    HW2 8517   6.219   1.028   4.966
 2540SOL     OW 8518   4.056   1.800   3.339
 2540SOL    HW1 8519   4.124   1.863   3.302
 2540SOL    HW2 8520   4.048   1.720   3.279
 2541SOL     OW 8521   2.831   0.372   5.069
 2541SOL    HW1 8522   2.880   0.427   5.137
 2541SOL    HW2 8523   2.887   0.364   4.986
 2542SOL     OW 8524   3.509   1.498   5.719
 2542SOL    HW1 8525   3.434   1.495   5.653
 2542SOL    HW2 8526   3.472   1.496   5.812
 2543SOL     OW 8527   1.670   1.250   3.315
 2543SOL    HW1 8528   1.635   1.156   3.312
 2543SOL    HW2 8529   1.595   1.314   3.299
 2544SOL     OW 8530   0.381   6.623   1.530
 2544SOL    HW1 8531   0.447   6.577   1.590
 2544SOL    HW2 8532   0.385   6.721   1.546
 2545SOL     OW 8533   1.160   6.980   1.981
 2545SOL    HW1 8534   1.133   0.039   2.035
 2545SOL    HW2 8535   1.159   6.899   2.039
 2546SOL     OW 8536   0.145   0.982   1.726
 2546SOL    HW1 8537   0.229   1.036   1.735
 2546SOL    HW2 8538   0.162   0.905   1.665
 2547SOL     OW 8539   5.952   5.404   0.691
 2547SOL    HW1 8540   5.877   5.425   0.629
 2547SOL    HW2 8541   6.033   5.380   0.639
 2548SOL     OW 8542   1.528   6.803   5.841
 2548SOL    HW1 8543   1.439   6.789   5.798
 2548SOL    HW2 8544   1.533   6.895   5.880
 2549SOL     OW 8545   2.141   0.479   0.730
 2549SOL    HW1 8546   2.216   0.530   0.771
 2549SOL    HW2 8547   2.144   0.384   0.762
 2550SOL     OW 8548   6.754   0.232   6.826
 2550SOL    HW1 8549   6.755   0.297   6.750
 2550SOL    HW2 8550   6.748   0.282   6.912
 2551SOL     OW 8551   3.003   5.535   0.392
 2551SOL    HW1 8552   3.035   5.626   0.366
 2551SOL    HW2 8553   2.904   5.537   0.407
 2552SOL     OW 8554   1.852   5.485   5.377
 2552SOL    HW1 8555   1.903   5.469   5.292
 2552SOL    HW2 8556   1.756   5.505   5.354
 2553SOL     OW 8557   5.023   3.310   5.543
 2553SOL    HW1 8558   5.042   3.221   5.587
 2553SOL    HW2 8559   5.051   3.307   5.447
 2554SOL     OW 8560   1.713   6.859   0.308
 2554SOL    HW1 8561   1.763   6.941   0.336
 2554SOL    HW2 8562   1.615   6.874   0.318
 2555SOL     OW 8563   5.703   0.064   5.406
 2555SOL    HW1 8564   5.789   0.045   5.359
 2555SOL    HW2 8565   5.721   0.090   5.501
 2556SOL     OW 8566   4.340   5.920   0.573
 2556SOL    HW1 8567   4.257   5.872   0.544
 2556SOL    HW2 8568   4.316   5.990   0.640
 2557SOL     OW 8569   2.412   4.074   0.134
 2557SOL    HW1 8570   2.511   4.069   0.144
 2557SOL    HW2 8571   2.377   4.151   0.186
 2558SOL     OW 8572   5.143   2.017   4.164
 2558SOL    HW1 8573   5.235   2.045   4.138
 2558SOL    HW2 8574   5.130   1.920   4.142
 2559SOL     OW 8575   0.134   3.360   3.897
 2559SOL    HW1 8576   0.221   3.362   3.945
 2559SOL    HW2 8577   0.146   3.396   3.804
 2560SOL     OW 8578   5.710   3.613   4.147
 2560SOL    HW1 8579   5.760   3.621   4.233
 2560SOL    HW2 8580   5.687   3.517   4.131
 2561SOL     OW 8581   3.415   6.102   5.567
 2561SOL    HW1 8582   3.476   6.065   5.636
 2561SOL    HW2 8583   3.465   6.166   5.509
 2562SOL     OW 8584   2.068   5.842   1.816
 2562SOL    HW1 8585   1.981   5.891   1.826
 2562SOL    HW2 8586   2.139   5.890   1.867
 2563SOL     OW 8587   3.973   2.588   0.226
 2563SOL    HW1 8588   4.000   2.493   0.208
 2563SOL    HW2 8589   4.034   2.626   0.295
 2564SOL     OW 8590   2.148   6.277   5.712
 2564SOL    HW1 8591   2.219   6.289   5.643
 2564SOL    HW2 8592   2.126   6.366   5.753
 2565SOL     OW 8593   0.899   0.347   6.991
 2565SOL    HW1 8594   0.821   0.286   7.001
 2565SOL    HW2 8595   0.983   0.293   6.984
 2566SOL     OW 8596   2.738   6.976   0.851
 2566SOL    HW1 8597   2.829   6.967   0.892
 2566SOL    HW2 8598   2.712   6.889   0.809
 2567SOL     OW 8599   0.832   1.161   1.061
 2567SOL    HW1 8600   0.872   1.252   1.071
 2567SOL    HW2 8601   0.771   1.160   0.982
 2568SOL     OW 8602   3.860   0.071   6.774
 2568SOL    HW1 8603   3.846   0.100   6.869
 2568SOL    HW2 8604   3.957   0.080   6.751
 2569SOL     OW 8605   3.228   1.535   1.845
 2569SOL    HW1 8606   3.200   1.622   1.886
 2569SOL    HW2 8607   3.327   1.532   1.838
 2570SOL     OW 8608   5.917   6.950   6.424
 2570SOL    HW1 8609   5.998   6.894   6.440
 2570SOL    HW2 8610   5.837   6.891   6.414
 2571SOL     OW 8611   2.638   4.745   6.162
 2571SOL    HW1 8612   2.713   4.766   6.099
 2571SOL    HW2 8613   2.615   4.827   6.214
 2572SOL     OW 8614   2.562   4.886   0.359
 2572SOL    HW1 8615   2.555   4.794   0.321
 2572SOL    HW2 8616   2.645   4.930   0.324
 2573SOL     OW 8617   6.610   2.406   1.935
 2573SOL    HW1 8618   6.687   2.379   1.992
 2573SOL    HW2 8619   6.643   2.459   1.857
 2574SOL     OW 8620   6.099   4.175   0.631
 2574SOL    HW1 8621   6.012   4.211   0.664
 2574SOL    HW2 8622   6.166   4.176   0.705
 2575SOL     OW 8623   4.963   5.377   1.141
 2575SOL    HW1 8624   5.048   5.358   1.091
 2575SOL    HW2 8625   4.900   5.301   1.132
 2576SOL     OW 8626   4.435   6.418   4.731
 2576SOL    HW1 8627   4.403   6.494   4.674
 2576SOL    HW2 8628   4.529   6.395   4.705
 2577SOL     OW 8629   4.362   6.499   1.821
 2577SOL    HW1 8630   4.365   6.399   1.827
 2577SOL    HW2 8631   4.315   6.536   1.902
 2578SOL     OW 8632   4.621   1.837   5.143
 2578SOL    HW1 8633   4.696   1.847   5.077
 2578SOL    HW2 8634   4.582   1.745   5.136
 2579SOL     OW 8635   1.334   6.202   3.300
 2579SOL    HW1 8636   1.417   6.151   3.279
 2579SOL    HW2 8637   1.299   6.174   3.389
 2580SOL     OW 8638   2.943   3.961   6.280
 2580SOL    HW1 8639   3.011   4.014   6.229
 2580SOL    HW2 8640   2.896   4.021   6.345
 2581SOL     OW 8641   1.374   4.835   1.194
 2581SOL    HW1 8642   1.315   4.894   1.139
 2581SOL    HW2 8643   1.432   4.890   1.253
 2582SOL     OW 8644   0.452   4.234   1.924
 2582SOL    HW1 8645   0.452   4.241   1.825
 2582SOL    HW2 8646   0.464   4.325   1.964
 2583SOL     OW 8647   0.955   1.676   0.063
 2583SOL    HW1 8648   1.025   1.671   0.134
 2583SOL    HW2 8649   0.899   1.593   0.066
 2584SOL     OW 8650   4.078   4.810   6.200
 2584SOL    HW1 8651   4.105   4.906   6.193
 2584SOL    HW2 8652   3.986   4.799   6.163
 2585SOL     OW 8653   4.315   3.080   0.005
 2585SOL    HW1 8654   4.235   3.134   0.028
 2585SOL    HW2 8655   4.289   2.984   7.010
 2586SOL     OW 8656   3.938   1.335   3.167
 2586SOL    HW1 8657   3.946   1.286   3.254
 2586SOL    HW2 8658   3.848   1.320   3.128
 2587SOL     OW 8659   0.206   0.659   2.849
 2587SOL    HW1 8660   0.187   0.582   2.787
 2587SOL    HW2 8661   0.127   0.675   2.908
 2588SOL     OW 8662   5.066   1.343   6.410
 2588SOL    HW1 8663   5.004   1.355   6.332
 2588SOL    HW2 8664   5.044   1.258   6.457
 2589SOL     OW 8665   1.136   6.598   5.817
 2589SOL    HW1 8666   1.167   6.689   5.792
 2589SOL    HW2 8667   1.193   6.529   5.772
 2590SOL     OW 8668   3.302   5.488   0.547
 2590SOL    HW1 8669   3.238   5.542   0.602
 2590SOL    HW2 8670   3.270   5.485   0.453
 2591SOL     OW 8671   6.862   4.915   3.198
 2591SOL    HW1 8672   6.880   4.907   3.296
 2591SOL    HW2 8673   6.897   4.834   3.151
 2592SOL     OW 8674   3.588   5.437   6.909
 2592SOL    HW1 8675   3.575   5.536   6.916
 2592SOL    HW2 8676   3.623   5.401   6.996
 2593SOL     OW 8677   3.770   5.510   0.313
 2593SOL    HW1 8678   3.672   5.528   0.319
 2593SOL    HW2 8679   3.820   5.597   0.319
 2594SOL     OW 8680   1.622   4.674   6.147
 2594SOL    HW1 8681   1.528   4.691   6.117
 2594SOL    HW2 8682   1.675   4.639   6.071
 2595SOL     OW 8683   0.068   0.641   3.678
 2595SOL    HW1 8684   0.012   0.690   3.745
 2595SOL    HW2 8685   0.130   0.579   3.725
 2596SOL     OW 8686   3.286   2.244   1.828
 2596SOL    HW1 8687   3.244   2.201   1.908
 2596SOL    HW2 8688   3.378   2.208   1.815
 2597SOL     OW 8689   0.487   4.963   5.553
 2597SOL    HW1 8690   0.512   4.890   5.489
 2597SOL    HW2 8691   0.399   4.940   5.595
 2598SOL     OW 8692   6.358   1.264   2.986
 2598SOL    HW1 8693   6.438   1.283   3.043
 2598SOL    HW2 8694   6.367   1.173   2.945
 2599SOL     OW 8695   1.317   5.897   0.908
 2599SOL    HW1 8696   1.409   5.893   0.869
 2599SOL    HW2 8697   1.274   5.984   0.884
 2600SOL     OW 8698   5.666   2.817   4.743
 2600SOL    HW1 8699   5.758   2.782   4.725
 2600SOL    HW2 8700   5.627   2.856   4.659
 2601SOL     OW 8701   2.236   1.409   2.064
 2601SOL    HW1 8702   2.293   1.487   2.088
 2601SOL    HW2 8703   2.292   1.341   2.015
 2602SOL     OW 8704   0.968   4.709   4.961
 2602SOL    HW1 8705   1.012   4.783   4.911
 2602SOL    HW2 8706   0.980   4.723   5.059
 2603SOL     OW 8707   3.180   0.672   3.643
 2603SOL    HW1 8708   3.226   0.746   3.593
 2603SOL    HW2 8709   3.210   0.673   3.738
 2604SOL     OW 8710   4.646   2.271   2.732
 2604SOL    HW1 8711   4.605   2.313   2.651
 2604SOL    HW2 8712   4.632   2.172   2.728
 2605SOL     OW 8713   1.873   2.854   3.546
 2605SOL    HW1 8714   1.948   2.885   3.604
 2605SOL    HW2 8715   1.873   2.906   3.460
 2606SOL     OW 8716   5.372   4.960   1.493
 2606SOL    HW1 8717   5.404   5.009   1.412
 2606SOL    HW2 8718   5.312   4.885   1.464
 2607SOL     OW 8719   1.273   1.511   2.200
 2607SOL    HW1 8720   1.307   1.573   2.129
 2607SOL    HW2 8721   1.290   1.416   2.172
 2608SOL     OW 8722   4.108   5.172   0.703
 2608SOL    HW1 8723   4.129   5.075   0.715
 2608SOL    HW2 8724   4.135   5.223   0.785
 2609SOL     OW 8725   6.638   0.980   1.972
 2609SOL    HW1 8726   6.563   0.991   2.037
 2609SOL    HW2 8727   6.669   0.884   1.972
 2610SOL     OW 8728   0.678   3.894   4.216
 2610SOL    HW1 8729   0.617   3.817   4.235
 2610SOL    HW2 8730   0.652   3.972   4.273
 2611SOL     OW 8731   3.888   5.954   0.935
 2611SOL    HW1 8732   3.925   5.863   0.916
 2611SOL    HW2 8733   3.880   6.005   0.850
 2612SOL     OW 8734   6.608   6.738   4.652
 2612SOL    HW1 8735   6.655   6.713   4.567
 2612SOL    HW2 8736   6.572   6.831   4.644
 2613SOL     OW 8737   1.778   5.694   6.266
 2613SOL    HW1 8738   1.866   5.742   6.261
 2613SOL    HW2 8739   1.706   5.752   6.226
 2614SOL     OW 8740   6.391   1.931   0.307
 2614SOL    HW1 8741   6.308   1.918   0.254
 2614SOL    HW2 8742   6.446   2.003   0.266
 2615SOL     OW 8743   0.921   2.921   2.617
 2615SOL    HW1 8744   0.972   2.899   2.534
 2615SOL    HW2 8745   0.863   2.844   2.643
 2616SOL     OW 8746   2.477   2.968   5.810
 2616SOL    HW1 8747   2.549   2.978   5.742
 2616SOL    HW2 8748   2.408   3.039   5.798
 2617SOL     OW 8749   4.270   0.439   0.586
 2617SOL    HW1 8750   4.247   0.505   0.515
 2617SOL    HW2 8751   4.344   0.379   0.553
 2618SOL     OW 8752   0.032   0.278   4.015
 2618SOL    HW1 8753   0.075   0.361   4.050
 2618SOL    HW2 8754   0.087   0.198   4.040
 2619SOL     OW 8755   4.915   1.814   1.468
 2619SOL    HW1 8756   4.969   1.765   1.400
 2619SOL    HW2 8757   4.902   1.756   1.548
 2620SOL     OW 8758   6.766   6.784   3.550
 2620SOL    HW1 8759   6.800   6.850   3.483
 2620SOL    HW2 8760   6.788   6.815   3.642
 2621SOL     OW 8761   1.011   5.288   2.098
 2621SOL    HW1 8762   1.066   5.372   2.094
 2621SOL    HW2 8763   1.069   5.209   2.084
 2622SOL     OW 8764   1.566   3.753   6.112
 2622SOL    HW1 8765   1.566   3.665   6.063
 2622SOL    HW2 8766   1.624   3.746   6.193
 2623SOL     OW 8767   0.562   0.531   5.513
 2623SOL    HW1 8768   0.637   0.532   5.447
 2623SOL    HW2 8769   0.597   0.559   5.603
 2624SOL     OW 8770   0.527   1.139   4.816
 2624SOL    HW1 8771   0.431   1.130   4.788
 2624SOL    HW2 8772   0.557   1.233   4.800
 2625SOL     OW 8773   2.496   3.560   5.835
 2625SOL    HW1 8774   2.531   3.475   5.794
 2625SOL    HW2 8775   2.574   3.617   5.863
 2626SOL     OW 8776   6.974   0.276   6.287
 2626SOL    HW1 8777   0.012   0.323   6.221
 2626SOL    HW2 8778   0.004   0.204   6.333
 2627SOL     OW 8779   1.386   1.049   6.027
 2627SOL    HW1 8780   1.289   1.069   6.015
 2627SOL    HW2 8781   1.399   0.950   6.029
 2628SOL     OW 8782   2.189   4.203   5.408
 2628SOL    HW1 8783   2.173   4.153   5.494
 2628SOL    HW2 8784   2.284   4.190   5.379
 2629SOL     OW 8785   4.143   3.526   2.415
 2629SOL    HW1 8786   4.142   3.587   2.335
 2629SOL    HW2 8787   4.140   3.431   2.385
 2630SOL     OW 8788   3.670   1.416   2.538
 2630SOL    HW1 8789   3.737   1.355   2.580
 2630SOL    HW2 8790   3.695   1.511   2.557
 2631SOL     OW 8791   5.347   0.747   6.308
 2631SOL    HW1 8792   5.446   0.748   6.321
 2631SOL    HW2 8793   5.318   0.657   6.275
 2632SOL     OW 8794   5.605   3.075   0.672
 2632SOL    HW1 8795   5.607   3.030   0.583
 2632SOL    HW2 8796   5.605   3.007   0.744
 2633SOL     OW 8797   0.114   1.371   4.566
 2633SOL    HW1 8798   0.161   1.317   4.636
 2633SOL    HW2 8799   0.042   1.316   4.525
 2634SOL     OW 8800   1.071   5.367   3.520
 2634SOL    HW1 8801   1.167   5.383   3.539
 2634SOL    HW2 8802   1.015   5.430   3.574
 2635SOL     OW 8803   0.263   6.165   4.656
 2635SOL    HW1 8804   0.287   6.077   4.696
 2635SOL    HW2 8805   0.232   6.152   4.562
 2636SOL     OW 8806   4.013   0.469   6.143
 2636SOL    HW1 8807   3.923   0.468   6.187
 2636SOL    HW2 8808   4.076   0.409   6.194
 2637SOL     OW 8809   6.193   2.038   3.963
 2637SOL    HW1 8810   6.145   2.104   3.905
 2637SOL    HW2 8811   6.261   1.989   3.908
 2638SOL     OW 8812   6.798   6.585   4.445
 2638SOL    HW1 8813   6.879   6.547   4.489
 2638SOL    HW2 8814   6.809   6.580   4.345
 2639SOL     OW 8815   6.907   6.254   0.351
 2639SOL    HW1 8816   6.929   6.352   0.355
 2639SOL    HW2 8817   6.989   6.203   0.325
 2640SOL     OW 8818   6.610   6.630   5.269
 2640SOL    HW1 8819   6.564   6.719   5.277
 2640SOL    HW2 8820   6.575   6.568   5.340
 2641SOL     OW 8821   5.550   2.549   2.090
 2641SOL    HW1 8822   5.497   2.617   2.141
 2641SOL    HW2 8823   5.502   2.526   2.006
 2642SOL     OW 8824   6.340   0.254   3.802
 2642SOL    HW1 8825   6.259   0.312   3.813
 2642SOL    HW2 8826   6.347   0.225   3.707
 2643SOL     OW 8827   1.538   3.561   3.669
 2643SOL    HW1 8828   1.633   3.594   3.672
 2643SOL    HW2 8829   1.496   3.573   3.759
 2644SOL     OW 8830   4.720   5.008   5.078
 2644SOL    HW1 8831   4.784   5.082   5.098
 2644SOL    HW2 8832   4.644   5.043   5.023
 2645SOL     OW 8833   4.411   5.244   3.714
 2645SOL    HW1 8834   4.444   5.336   3.694
 2645SOL    HW2 8835   4.486   5.189   3.752
 2646SOL     OW 8836   6.541   2.132   0.186
 2646SOL    HW1 8837   6.613   2.072   0.150
 2646SOL    HW2 8838   6.581   2.216   0.221
 2647SOL     OW 8839   6.529   0.026   1.747
 2647SOL    HW1 8840   6.565   0.024   1.654
 2647SOL    HW2 8841   6.528   0.121   1.780
 2648SOL     OW 8842   0.424   6.245   4.034
 2648SOL    HW1 8843   0.460   6.316   4.095
 2648SOL    HW2 8844   0.428   6.278   3.939
 2649SOL     OW 8845   6.386   3.305   0.796
 2649SOL    HW1 8846   6.401   3.284   0.700
 2649SOL    HW2 8847   6.332   3.389   0.804
 2650SOL     OW 8848   1.700   5.006   3.908
 2650SOL    HW1 8849   1.716   4.909   3.924
 2650SOL    HW2 8850   1.786   5.050   3.882
 2651SOL     OW 8851   2.905   2.002   1.309
 2651SOL    HW1 8852   2.945   2.087   1.276
 2651SOL    HW2 8853   2.872   1.949   1.231
 2652SOL     OW 8854   4.204   3.128   5.386
 2652SOL    HW1 8855   4.257   3.166   5.462
 2652SOL    HW2 8856   4.198   3.196   5.313
 2653SOL     OW 8857   4.552   6.659   5.925
 2653SOL    HW1 8858   4.516   6.577   5.971
 2653SOL    HW2 8859   4.576   6.636   5.831
 2654SOL     OW 8860   4.373   0.023   1.353
 2654SOL    HW1 8861   4.340   6.979   1.422
 2654SOL    HW2 8862   4.471   0.010   1.339
 2655SOL     OW 8863   5.030   5.768   3.949
 2655SOL    HW1 8864   5.068   5.745   3.859
 2655SOL    HW2 8865   4.938   5.805   3.937
 2656SOL     OW 8866   3.391   5.323   4.668
 2656SOL    HW1 8867   3.386   5.416   4.633
 2656SOL    HW2 8868   3.450   5.268   4.609
 2657SOL     OW 8869   1.666   4.137   6.913
 2657SOL    HW1 8870   1.618   4.128   6.825
 2657SOL    HW2 8871   1.602   4.119   6.988
 2658SOL     OW 8872   4.644   4.803   0.451
 2658SOL    HW1 8873   4.713   4.812   0.379
 2658SOL    HW2 8874   4.558   4.774   0.410
 2659SOL     OW 8875   4.890   3.168   5.020
 2659SOL    HW1 8876   4.876   3.118   4.934
 2659SOL    HW2 8877   4.836   3.126   5.093
 2660SOL     OW 8878   1.388   0.110   1.919
 2660SOL    HW1 8879   1.315   0.043   1.937
 2660SOL    HW2 8880   1.385   0.182   1.988
 2661SOL     OW 8881   1.796   6.603   1.452
 2661SOL    HW1 8882   1.887   6.639   1.435
 2661SOL    HW2 8883   1.801   6.505   1.469
 2662SOL     OW 8884   3.286   6.933   4.786
 2662SOL    HW1 8885   3.288   6.908   4.689
 2662SOL    HW2 8886   3.345   7.012   4.801
 2663SOL     OW 8887   4.369   4.148   6.634
 2663SOL    HW1 8888   4.337   4.233   6.591
 2663SOL    HW2 8889   4.455   4.120   6.592
 2664SOL     OW 8890   4.552   3.128   5.457
 2664SOL    HW1 8891   4.532   3.112   5.553
 2664SOL    HW2 8892   4.573   3.225   5.443
 2665SOL     OW 8893   2.564   3.489   5.328
 2665SOL    HW1 8894   2.562   3.587   5.311
 2665SOL    HW2 8895   2.634   3.468   5.397
 2666SOL     OW 8896   1.534   4.601   1.507
 2666SOL    HW1 8897   1.528   4.531   1.578
 2666SOL    HW2 8898   1.459   4.667   1.518
 2667SOL     OW 8899   1.608   5.618   3.712
 2667SOL    HW1 8900   1.623   5.542   3.775
 2667SOL    HW2 8901   1.562   5.693   3.760
 2668SOL     OW 8902   6.291   2.729   4.525
 2668SOL    HW1 8903   6.377   2.753   4.570
 2668SOL    HW2 8904   6.305   2.723   4.426
 2669SOL     OW 8905   2.803   5.324   6.162
 2669SOL    HW1 8906   2.867   5.400   6.153
 2669SOL    HW2 8907   2.745   5.320   6.081
 2670SOL     OW 8908   5.916   3.162   4.658
 2670SOL    HW1 8909   5.846   3.098   4.626
 2670SOL    HW2 8910   5.957   3.127   4.742
 2671SOL     OW 8911   4.697   5.179   6.210
 2671SOL    HW1 8912   4.604   5.174   6.247
 2671SOL    HW2 8913   4.693   5.199   6.112
 2672SOL     OW 8914   3.108   6.358   1.131
 2672SOL    HW1 8915   3.177   6.287   1.138
 2672SOL    HW2 8916   3.033   6.326   1.073
 2673SOL     OW 8917   6.274   2.442   2.029
 2673SOL    HW1 8918   6.314   2.356   2.061
 2673SOL    HW2 8919   6.261   2.438   1.930
 2674SOL     OW 8920   1.331   4.645   4.263
 2674SOL    HW1 8921   1.410   4.584   4.257
 2674SOL    HW2 8922   1.353   4.732   4.218
 2675SOL     OW 8923   6.586   6.087   3.858
 2675SOL    HW1 8924   6.569   6.141   3.941
 2675SOL    HW2 8925   6.675   6.112   3.819
 2676SOL     OW 8926   3.089   3.178   1.415
 2676SOL    HW1 8927   3.135   3.210   1.332
 2676SOL    HW2 8928   3.010   3.122   1.390
 2677SOL     OW 8929   2.628   4.646   0.939
 2677SOL    HW1 8930   2.668   4.719   0.995
 2677SOL    HW2 8931   2.528   4.649   0.948
 2678SOL     OW 8932   0.236   2.908   2.160
 2678SOL    HW1 8933   0.177   2.839   2.204
 2678SOL    HW2 8934   0.266   2.974   2.229
 2679SOL     OW 8935   1.897   4.743   2.248
 2679SOL    HW1 8936   1.960   4.665   2.243
 2679SOL    HW2 8937   1.942   4.824   2.211
 2680SOL     OW 8938   0.877   2.200   0.468
 2680SOL    HW1 8939   0.900   2.158   0.556
 2680SOL    HW2 8940   0.831   2.288   0.483
 2681SOL     OW 8941   1.570   2.170   4.565
 2681SOL    HW1 8942   1.516   2.245   4.601
 2681SOL    HW2 8943   1.521   2.127   4.489
 2682SOL     OW 8944   4.623   4.391   4.027
 2682SOL    HW1 8945   4.715   4.395   3.989
 2682SOL    HW2 8946   4.627   4.405   4.126
 2683SOL     OW 8947   2.535   4.550   2.169
 2683SOL    HW1 8948   2.494   4.639   2.147
 2683SOL    HW2 8949   2.626   4.545   2.128
 2684SOL     OW 8950   4.737   6.939   2.117
 2684SOL    HW1 8951   4.646   6.958   2.154
 2684SOL    HW2 8952   4.741   6.846   2.082
 2685SOL     OW 8953   5.452   5.371   5.680
 2685SOL    HW1 8954   5.366   5.410   5.646
 2685SOL    HW2 8955   5.454   5.274   5.658
 2686SOL     OW 8956   1.048   1.276   5.416
 2686SOL    HW1 8957   1.130   1.307   5.369
 2686SOL    HW2 8958   1.066   1.186   5.457
 2687SOL     OW 8959   4.101   5.779   0.466
 2687SOL    HW1 8960   4.015   5.814   0.504
 2687SOL    HW2 8961   4.087   5.751   0.371
 2688SOL     OW 8962   2.280   2.562   0.462
 2688SOL    HW1 8963   2.379   2.547   0.471
 2688SOL    HW2 8964   2.231   2.480   0.494
 2689SOL     OW 8965   6.616   3.612   2.188
 2689SOL    HW1 8966   6.603   3.575   2.280
 2689SOL    HW2 8967   6.691   3.679   2.190
 2690SOL     OW 8968   2.983   3.255   6.169
 2690SOL    HW1 8969   2.975   3.351   6.140
 2690SOL    HW2 8970   2.952   3.196   6.095
 2691SOL     OW 8971   0.094   4.830   3.566
 2691SOL    HW1 8972   0.112   4.781   3.652
 2691SOL    HW2 8973   0.174   4.825   3.507
 2692SOL     OW 8974   2.595   6.919   3.553
 2692SOL    HW1 8975   2.587   6.827   3.515
 2692SOL    HW2 8976   2.555   6.921   3.645
 2693SOL     OW 8977   2.858   4.795   4.160
 2693SOL    HW1 8978   2.898   4.813   4.071
 2693SOL    HW2 8979   2.784   4.728   4.151
 2694SOL     OW 8980   3.645   6.659   3.365
 2694SOL    HW1 8981   3.581   6.733   3.343
 2694SOL    HW2 8982   3.636   6.636   3.462
 2695SOL     OW 8983   5.513   0.447   2.580
 2695SOL    HW1 8984   5.523   0.514   2.506
 2695SOL    HW2 8985   5.572   0.474   2.656
 2696SOL     OW 8986   4.531   3.425   5.560
 2696SOL    HW1 8987   4.568   3.509   5.519
 2696SOL    HW2 8988   4.508   3.443   5.656
 2697SOL     OW 8989   3.459   1.492   2.690
 2697SOL    HW1 8990   3.370   1.456   2.661
 2697SOL    HW2 8991   3.528   1.468   2.622
 2698SOL     OW 8992   2.274   4.547   0.072
 2698SOL    HW1 8993   2.248   4.515   7.002
 2698SOL    HW2 8994   2.281   4.647   0.071
 2699SOL     OW 8995   2.738   5.852   0.583
 2699SOL    HW1 8996   2.747   5.895   0.672
 2699SOL    HW2 8997   2.739   5.922   0.512
 2700SOL     OW 8998   2.831   1.853   1.086
 2700SOL    HW1 8999   2.912   1.819   1.039
 2700SOL    HW2 9000   2.751   1.842   1.026
 2701SOL     OW 9001   5.397   2.402   6.016
 2701SOL    HW1 9002   5.340   2.480   6.043
 2701SOL    HW2 9003   5.462   2.431   5.946
 2702SOL     OW 9004   0.954   2.507   3.056
 2702SOL    HW1 9005   0.983   2.603   3.056
 2702SOL    HW2 9006   1.023   2.452   3.009
 2703SOL     OW 9007   1.080   5.873   1.385
 2703SOL    HW1 9008   1.124   5.883   1.474
 2703SOL    HW2 9009   1.145   5.834   1.320
 2704SOL     OW 9010   6.341   6.343   2.078
 2704SOL    HW1 9011   6.339   6.273   2.151
 2704SOL    HW2 9012   6.269   6.323   2.012
 2705SOL     OW 9013   6.172   0.409   5.180
 2705SOL    HW1 9014   6.229   0.460   5.245
 2705SOL    HW2 9015   6.075   0.422   5.204
 2706SOL     OW 9016   6.436   4.698   3.393
 2706SOL    HW1 9017   6.412   4.657   3.305
 2706SOL    HW2 9018   6.353   4.731   3.437
 2707SOL     OW 9019   3.861   6.959   3.958
 2707SOL    HW1 9020   3.920   6.892   3.914
 2707SOL    HW2 9021   3.911   7.007   4.029
 2708SOL     OW 9022   6.292   2.649   1.379
 2708SOL    HW1 9023   6.196   2.635   1.357
 2708SOL    HW2 9024   6.300   2.705   1.462
 2709SOL     OW 9025   5.251   6.935   6.599
 2709SOL    HW1 9026   5.166   6.980   6.572
 2709SOL    HW2 9027   5.268   6.951   6.696
 2710SOL     OW 9028   1.436   2.811   3.973
 2710SOL    HW1 9029   1.371   2.829   3.899
 2710SOL    HW2 9030   1.391   2.823   4.061
 2711SOL     OW 9031   3.183   0.890   3.897
 2711SOL    HW1 9032   3.249   0.959   3.928
 2711SOL    HW2 9033   3.093   0.909   3.936
 2712SOL     OW 9034   2.383   5.688   2.204
 2712SOL    HW1 9035   2.457   5.712   2.141
 2712SOL    HW2 9036   2.414   5.615   2.265
 2713SOL     OW 9037   3.113   3.963   6.870
 2713SOL    HW1 9038   3.023   4.000   6.849
 2713SOL    HW2 9039   3.183   4.030   6.846
 2714SOL     OW 9040   3.516   3.278   6.658
 2714SOL    HW1 9041   3.430   3.319   6.628
 2714SOL    HW2 9042   3.582   3.350   6.680
 2715SOL     OW 9043   5.285   2.154   0.435
 2715SOL    HW1 9044   5.330   2.242   0.442
 2715SOL    HW2 9045   5.349   2.086   0.401
 2716SOL     OW 9046   4.896   3.431   3.855
 2716SOL    HW1 9047   4.801   3.461   3.855
 2716SOL    HW2 9048   4.901   3.336   3.823
 2717SOL     OW 9049   0.817   6.909   2.064
 2717SOL    HW1 9050   0.856   6.895   2.155
 2717SOL    HW2 9051   0.793   6.821   2.024
 2718SOL     OW 9052   0.353   1.089   5.151
 2718SOL    HW1 9053   0.327   1.145   5.073
 2718SOL    HW2 9054   0.373   0.996   5.121
 2719SOL     OW 9055   1.311   4.776   1.575
 2719SOL    HW1 9056   1.356   4.829   1.646
 2719SOL    HW2 9057   1.216   4.806   1.565
 2720SOL     OW 9058   1.408   0.219   2.674
 2720SOL    HW1 9059   1.503   0.232   2.705
 2720SOL    HW2 9060   1.373   0.305   2.637
 2721SOL     OW 9061   3.290   6.164   3.255
 2721SOL    HW1 9062   3.250   6.101   3.321
 2721SOL    HW2 9063   3.255   6.144   3.163
 2722SOL     OW 9064   5.244   5.045   6.746
 2722SOL    HW1 9065   5.334   5.081   6.721
 2722SOL    HW2 9066   5.250   5.003   6.837
 2723SOL     OW 9067   1.905   5.945   6.327
 2723SOL    HW1 9068   1.873   5.999   6.250
 2723SOL    HW2 9069   1.881   5.991   6.413
 2724SOL     OW 9070   1.510   6.543   5.962
 2724SOL    HW1 9071   1.503   6.632   5.918
 2724SOL    HW2 9072   1.425   6.522   6.009
 2725SOL     OW 9073   5.244   4.293   5.097
 2725SOL    HW1 9074   5.154   4.323   5.129
 2725SOL    HW2 9075   5.314   4.323   5.161
 2726SOL     OW 9076   0.290   2.601   2.010
 2726SOL    HW1 9077   0.279   2.700   2.017
 2726SOL    HW2 9078   0.385   2.577   2.029
 2727SOL     OW 9079   0.888   3.964   4.086
 2727SOL    HW1 9080   0.868   4.008   3.999
 2727SOL    HW2 9081   0.803   3.932   4.128
 2728SOL     OW 9082   5.022   6.328   5.951
 2728SOL    HW1 9083   5.107   6.377   5.970
 2728SOL    HW2 9084   4.976   6.370   5.873
 2729SOL     OW 9085   6.553   6.476   0.526
 2729SOL    HW1 9086   6.599   6.441   0.607
 2729SOL    HW2 9087   6.620   6.491   0.453
 2730SOL     OW 9088   1.372   6.062   1.851
 2730SOL    HW1 9089   1.373   6.098   1.758
 2730SOL    HW2 9090   1.318   5.978   1.854
 2731SOL     OW 9091   3.031   3.587   3.212
 2731SOL    HW1 9092   2.971   3.563   3.136
 2731SOL    HW2 9093   3.126   3.589   3.181
 2732SOL     OW 9094   5.674   1.705   0.804
 2732SOL    HW1 9095   5.667   1.776   0.875
 2732SOL    HW2 9096   5.698   1.618   0.846
 2733SOL     OW 9097   6.653   1.651   5.411
 2733SOL    HW1 9098   6.717   1.726   5.428
 2733SOL    HW2 9099   6.560   1.685   5.418
 2734SOL     OW 9100   2.657   5.680   0.874
 2734SOL    HW1 9101   2.675   5.586   0.844
 2734SOL    HW2 9102   2.685   5.691   0.969
 2735SOL     OW 9103   1.661   2.347   2.057
 2735SOL    HW1 9104   1.650   2.441   2.022
 2735SOL    HW2 9105   1.578   2.319   2.105
 2736SOL     OW 9106   6.568   5.936   4.922
 2736SOL    HW1 9107   6.492   5.993   4.891
 2736SOL    HW2 9108   6.591   5.870   4.850
 2737SOL     OW 9109   3.046   3.640   5.347
 2737SOL    HW1 9110   3.020   3.545   5.367
 2737SOL    HW2 9111   2.982   3.679   5.281
 2738SOL     OW 9112   5.912   6.043   2.060
 2738SOL    HW1 9113   5.970   6.022   2.138
 2738SOL    HW2 9114   5.908   6.142   2.047
 2739SOL     OW 9115   1.231   4.462   0.849
 2739SOL    HW1 9116   1.283   4.380   0.825
 2739SOL    HW2 9117   1.152   4.469   0.789
 2740SOL     OW 9118   0.020   5.002   1.642
 2740SOL    HW1 9119   0.017   4.906   1.670
 2740SOL    HW2 9120   7.014   5.060   1.719
 2741SOL     OW 9121   6.521   1.289   4.690
 2741SOL    HW1 9122   6.472   1.370   4.722
 2741SOL    HW2 9123   6.508   1.277   4.592
 2742SOL     OW 9124   2.084   4.897   0.538
 2742SOL    HW1 9125   2.184   4.901   0.545
 2742SOL    HW2 9126   2.049   4.984   0.504
 2743SOL     OW 9127   0.144   4.844   2.455
 2743SOL    HW1 9128   0.058   4.864   2.502
 2743SOL    HW2 9129   0.140   4.753   2.415
 2744SOL     OW 9130   4.515   2.953   0.371
 2744SOL    HW1 9131   4.422   2.978   0.398
 2744SOL    HW2 9132   4.537   2.862   0.406
 2745SOL     OW 9133   7.009   1.127   4.829
 2745SOL    HW1 9134   0.062   1.104   4.765
 2745SOL    HW2 9135   0.006   1.084   4.917
 2746SOL     OW 9136   1.388   2.429   4.790
 2746SOL    HW1 9137   1.354   2.382   4.872
 2746SOL    HW2 9138   1.488   2.423   4.788
 2747SOL     OW 9139   4.757   5.520   6.754
 2747SOL    HW1 9140   4.703   5.459   6.695
 2747SOL    HW2 9141   4.782   5.602   6.702
 2748SOL     OW 9142   4.493   1.457   1.943
 2748SOL    HW1 9143   4.579   1.466   1.893
 2748SOL    HW2 9144   4.483   1.533   2.007
 2749SOL     OW 9145   6.762   4.715   1.061
 2749SOL    HW1 9146   6.822   4.741   1.137
 2749SOL    HW2 9147   6.669   4.701   1.095
 2750SOL     OW 9148   2.184   4.045   1.992
 2750SOL    HW1 9149   2.245   4.122   2.010
 2750SOL    HW2 9150   2.238   3.960   1.989
 2751SOL     OW 9151   0.422   2.500   1.497
 2751SOL    HW1 9152   0.496   2.564   1.478
 2751SOL    HW2 9153   0.402   2.499   1.595
 2752SOL     OW 9154   3.379   4.455   6.083
 2752SOL    HW1 9155   3.385   4.369   6.134
 2752SOL    HW2 9156   3.380   4.435   5.985
 2753SOL     OW 9157   6.821   6.635   4.798
 2753SOL    HW1 9158   6.771   6.589   4.871
 2753SOL    HW2 9159   6.756   6.681   4.737
 2754SOL     OW 9160   0.422   0.217   0.697
 2754SOL    HW1 9161   0.435   0.259   0.787
 2754SOL    HW2 9162   0.420   0.118   0.706
 2755SOL     OW 9163   3.704   6.791   2.368
 2755SOL    HW1 9164   3.764   6.848   2.425
 2755SOL    HW2 9165   3.680   6.842   2.285
 2756SOL     OW 9166   4.278   6.153   6.961
 2756SOL    HW1 9167   4.308   6.112   6.874
 2756SOL    HW2 9168   4.211   6.225   6.943
 2757SOL     OW 9169   2.429   6.483   0.406
 2757SOL    HW1 9170   2.418   6.565   0.463
 2757SOL    HW2 9171   2.399   6.403   0.458
 2758SOL     OW 9172   4.282   0.492   3.660
 2758SOL    HW1 9173   4.310   0.568   3.601
 2758SOL    HW2 9174   4.359   0.430   3.674
 2759SOL     OW 9175   5.795   6.433   5.767
 2759SOL    HW1 9176   5.820   6.395   5.678
 2759SOL    HW2 9177   5.820   6.368   5.839
 2760SOL     OW 9178   0.434   5.897   1.756
 2760SOL    HW1 9179   0.385   5.829   1.811
 2760SOL    HW2 9180   0.370   5.942   1.694
 2761SOL     OW 9181   2.110   4.765   4.399
 2761SOL    HW1 9182   2.072   4.684   4.444
 2761SOL    HW2 9183   2.041   4.838   4.399
 2762SOL     OW 9184   1.571   0.989   5.219
 2762SOL    HW1 9185   1.516   0.909   5.243
 2762SOL    HW2 9186   1.668   0.967   5.231
 2763SOL     OW 9187   5.099   1.753   4.147
 2763SOL    HW1 9188   5.044   1.725   4.225
 2763SOL    HW2 9189   5.124   1.673   4.093
 2764SOL     OW 9190   6.272   0.780   0.925
 2764SOL    HW1 9191   6.302   0.687   0.944
 2764SOL    HW2 9192   6.187   0.778   0.872
 2765SOL     OW 9193   5.525   0.294   0.717
 2765SOL    HW1 9194   5.510   0.331   0.809
 2765SOL    HW2 9195   5.582   0.212   0.723
 2766SOL     OW 9196   4.610   2.321   0.331
 2766SOL    HW1 9197   4.664   2.405   0.335
 2766SOL    HW2 9198   4.631   2.272   0.246
 2767SOL     OW 9199   6.497   5.271   7.004
 2767SOL    HW1 9200   6.528   5.180   0.012
 2767SOL    HW2 9201   6.428   5.260   6.932
 2768SOL     OW 9202   4.695   0.451   0.680
 2768SOL    HW1 9203   4.671   0.522   0.614
 2768SOL    HW2 9204   4.794   0.448   0.692
 2769SOL     OW 9205   0.700   4.375   3.831
 2769SOL    HW1 9206   0.709   4.276   3.822
 2769SOL    HW2 9207   0.789   4.419   3.820
 2770SOL     OW 9208   2.785   5.346   5.534
 2770SOL    HW1 9209   2.814   5.284   5.607
 2770SOL    HW2 9210   2.859   5.356   5.467
 2771SOL     OW 9211   6.356   0.711   3.259
 2771SOL    HW1 9212   6.260   0.713   3.230
 2771SOL    HW2 9213   6.392   0.804   3.259
 2772SOL     OW 9214   4.318   1.345   0.559
 2772SOL    HW1 9215   4.407   1.346   0.605
 2772SOL    HW2 9216   4.284   1.439   0.550
 2773SOL     OW 9217   6.016   2.439   5.355
 2773SOL    HW1 9218   6.004   2.531   5.392
 2773SOL    HW2 9219   5.941   2.419   5.291
 2774SOL     OW 9220   6.310   3.664   3.506
 2774SOL    HW1 9221   6.361   3.592   3.459
 2774SOL    HW2 9222   6.213   3.640   3.510
 2775SOL     OW 9223   6.897   5.282   6.797
 2775SOL    HW1 9224   6.901   5.286   6.698
 2775SOL    HW2 9225   6.802   5.297   6.828
 2776SOL     OW 9226   4.794   4.524   5.900
 2776SOL    HW1 9227   4.747   4.612   5.894
 2776SOL    HW2 9228   4.846   4.519   5.985
 2777SOL     OW 9229   2.450   1.025   1.631
 2777SOL    HW1 9230   2.516   0.950   1.624
 2777SOL    HW2 9231   2.495   1.112   1.611
 2778SOL     OW 9232   1.298   0.013   4.942
 2778SOL    HW1 9233   1.333   7.003   5.031
 2778SOL    HW2 9234   1.207   0.053   4.954
 2779SOL     OW 9235   5.006   6.658   1.101
 2779SOL    HW1 9236   5.052   6.572   1.082
 2779SOL    HW2 9237   4.907   6.647   1.086
 2780SOL     OW 9238   6.418   6.192   6.706
 2780SOL    HW1 9239   6.330   6.189   6.754
 2780SOL    HW2 9240   6.411   6.141   6.621
 2781SOL     OW 9241   6.056   6.024   1.703
 2781SOL    HW1 9242   5.975   6.012   1.760
 2781SOL    HW2 9243   6.028   6.040   1.608
 2782SOL     OW 9244   3.596   1.924   5.254
 2782SOL    HW1 9245   3.545   1.889   5.175
 2782SOL    HW2 9246   3.545   1.906   5.337
 2783SOL     OW 9247   5.144   3.807   4.328
 2783SOL    HW1 9248   5.188   3.733   4.379
 2783SOL    HW2 9249   5.086   3.768   4.257
 2784SOL     OW 9250   3.452   2.208   1.269
 2784SOL    HW1 9251   3.381   2.248   1.213
 2784SOL    HW2 9252   3.412   2.171   1.354
 2785SOL     OW 9253   5.629   1.892   1.001
 2785SOL    HW1 9254   5.553   1.945   0.963
 2785SOL    HW2 9255   5.626   1.895   1.101
 2786SOL     OW 9256   4.503   5.707   2.314
 2786SOL    HW1 9257   4.593   5.730   2.352
 2786SOL    HW2 9258   4.492   5.607   2.315
 2787SOL     OW 9259   3.380   1.975   6.683
 2787SOL    HW1 9260   3.357   2.037   6.608
 2787SOL    HW2 9261   3.455   2.013   6.737
 2788SOL     OW 9262   2.300   4.996   6.293
 2788SOL    HW1 9263   2.310   4.910   6.243
 2788SOL    HW2 9264   2.283   5.070   6.228
 2789SOL     OW 9265   1.978   2.105   3.606
 2789SOL    HW1 9266   1.990   2.073   3.512
 2789SOL    HW2 9267   2.017   2.038   3.669
 2790SOL     OW 9268   3.065   5.619   2.094
 2790SOL    HW1 9269   3.156   5.646   2.062
 2790SOL    HW2 9270   2.996   5.671   2.044
 2791SOL     OW 9271   1.087   4.041   3.323
 2791SOL    HW1 9272   1.018   4.040   3.396
 2791SOL    HW2 9273   1.164   3.984   3.349
 2792SOL     OW 9274   0.954   6.523   4.717
 2792SOL    HW1 9275   0.859   6.508   4.743
 2792SOL    HW2 9276   0.994   6.593   4.777
 2793SOL     OW 9277   4.947   3.466   3.267
 2793SOL    HW1 9278   4.960   3.564   3.255
 2793SOL    HW2 9279   4.905   3.449   3.356
 2794SOL     OW 9280   0.476   3.195   0.632
 2794SOL    HW1 9281   0.443   3.289   0.643
 2794SOL    HW2 9282   0.450   3.162   0.541
 2795SOL     OW 9283   1.769   3.001   0.755
 2795SOL    HW1 9284   1.840   3.069   0.739
 2795SOL    HW2 9285   1.803   2.931   0.818
 2796SOL     OW 9286   6.452   5.270   2.634
 2796SOL    HW1 9287   6.547   5.281   2.664
 2796SOL    HW2 9288   6.405   5.358   2.639
 2797SOL     OW 9289   5.371   4.928   4.579
 2797SOL    HW1 9290   5.458   4.891   4.548
 2797SOL    HW2 9291   5.382   5.023   4.606
 2798SOL     OW 9292   1.111   5.100   1.362
 2798SOL    HW1 9293   1.194   5.154   1.358
 2798SOL    HW2 9294   1.072   5.104   1.454
 2799SOL     OW 9295   6.691   6.811   0.411
 2799SOL    HW1 9296   6.721   6.715   0.406
 2799SOL    HW2 9297   6.597   6.814   0.446
 2800SOL     OW 9298   4.354   5.124   6.904
 2800SOL    HW1 9299   4.338   5.110   7.002
 2800SOL    HW2 9300   4.320   5.214   6.877
 2801SOL     OW 9301   5.571   5.314   4.935
 2801SOL    HW1 9302   5.621   5.365   4.864
 2801SOL    HW2 9303   5.634   5.256   4.986
 2802SOL     OW 9304   4.644   2.136   5.939
 2802SOL    HW1 9305   4.658   2.110   5.844
 2802SOL    HW2 9306   4.562   2.193   5.947
 2803SOL     OW 9307   3.167   5.779   6.529
 2803SOL    HW1 9308   3.199   5.872   6.517
 2803SOL    HW2 9309   3.070   5.773   6.503
 2804SOL     OW 9310   0.077   4.604   5.077
 2804SOL    HW1 9311   0.078   4.650   4.988
 2804SOL    HW2 9312   0.146   4.532   5.079
 2805SOL     OW 9313   5.178   2.500   2.147
 2805SOL    HW1 9314   5.175   2.597   2.173
 2805SOL    HW2 9315   5.101   2.479   2.087
 2806SOL     OW 9316   0.025   5.436   4.645
 2806SOL    HW1 9317   0.029   5.359   4.582
 2806SOL    HW2 9318   6.996   5.410   4.727
 2807SOL     OW 9319   4.961   5.506   3.355
 2807SOL    HW1 9320   5.019   5.489   3.276
 2807SOL    HW2 9321   4.949   5.604   3.368
 2808SOL     OW 9322   5.398   3.244   2.624
 2808SOL    HW1 9323   5.429   3.155   2.589
 2808SOL    HW2 9324   5.402   3.243   2.724
 2809SOL     OW 9325   5.746   3.018   1.272
 2809SOL    HW1 9326   5.808   3.039   1.196
 2809SOL    HW2 9327   5.658   3.064   1.257
 2810SOL     OW 9328   3.302   5.678   4.004
 2810SOL    HW1 9329   3.221   5.624   3.982
 2810SOL    HW2 9330   3.379   5.616   4.019
 2811SOL     OW 9331   1.510   1.368   3.004
 2811SOL    HW1 9332   1.570   1.433   3.051
 2811SOL    HW2 9333   1.437   1.418   2.958
 2812SOL     OW 9334   5.141   3.912   0.091
 2812SOL    HW1 9335   5.141   3.821   0.049
 2812SOL    HW2 9336   5.048   3.938   0.114
 2813SOL     OW 9337   6.815   0.199   5.883
 2813SOL    HW1 9338   6.786   0.165   5.973
 2813SOL    HW2 9339   6.847   0.293   5.891
 2814SOL     OW 9340   4.682   3.385   6.435
 2814SOL    HW1 9341   4.758   3.370   6.498
 2814SOL    HW2 9342   4.602   3.334   6.467
 2815SOL     OW 9343   6.115   0.917   5.672
 2815SOL    HW1 9344   6.128   1.016   5.673
 2815SOL    HW2 9345   6.187   0.873   5.725
 2816SOL     OW 9346   6.178   5.603   3.569
 2816SOL    HW1 9347   6.184   5.508   3.600
 2816SOL    HW2 9348   6.095   5.614   3.514
 2817SOL     OW 9349   2.847   0.415   1.115
 2817SOL    HW1 9350   2.754   0.378   1.105
 2817SOL    HW2 9351   2.849   0.508   1.079
 2818SOL     OW 9352   0.024   0.459   0.420
 2818SOL    HW1 9353   7.000   0.528   0.364
 2818SOL    HW2 9354   7.011   0.465   0.514
 2819SOL     OW 9355   0.917   1.013   1.497
 2819SOL    HW1 9356   0.931   0.989   1.402
 2819SOL    HW2 9357   0.937   1.110   1.510
 2820SOL     OW 9358   1.188   2.100   3.194
 2820SOL    HW1 9359   1.257   2.160   3.153
 2820SOL    HW2 9360   1.168   2.024   3.132
 2821SOL     OW 9361   3.954   3.470   0.143
 2821SOL    HW1 9362   3.932   3.467   0.240
 2821SOL    HW2 9363   3.871   3.462   0.089
 2822SOL     OW 9364   4.617   2.032   0.121
 2822SOL    HW1 9365   4.671   2.050   0.038
 2822SOL    HW2 9366   4.678   2.004   0.195
 2823SOL     OW 9367   3.795   6.281   0.301
 2823SOL    HW1 9368   3.888   6.262   0.332
 2823SOL    HW2 9369   3.747   6.334   0.370
 2824SOL     OW 9370   3.104   1.009   3.110
 2824SOL    HW1 9371   3.166   1.087   3.102
 2824SOL    HW2 9372   3.151   0.934   3.156
 2825SOL     OW 9373   6.607   0.377   6.627
 2825SOL    HW1 9374   6.532   0.358   6.563
 2825SOL    HW2 9375   6.686   0.410   6.575
 2826SOL     OW 9376   4.444   1.684   6.595
 2826SOL    HW1 9377   4.366   1.623   6.600
 2826SOL    HW2 9378   4.512   1.656   6.663
 2827SOL     OW 9379   6.387   0.795   5.549
 2827SOL    HW1 9380   6.369   0.774   5.645
 2827SOL    HW2 9381   6.377   0.893   5.533
 2828SOL     OW 9382   3.218   1.403   0.506
 2828SOL    HW1 9383   3.192   1.475   0.442
 2828SOL    HW2 9384   3.292   1.348   0.467
 2829SOL     OW 9385   3.568   3.628   5.730
 2829SOL    HW1 9386   3.490   3.686   5.752
 2829SOL    HW2 9387   3.652   3.682   5.737
 2830SOL     OW 9388   1.231   3.236   6.132
 2830SOL    HW1 9389   1.180   3.273   6.054
 2830SOL    HW2 9390   1.284   3.157   6.102
 2831SOL     OW 9391   0.850   5.394   3.354
 2831SOL    HW1 9392   0.946   5.389   3.381
 2831SOL    HW2 9393   0.826   5.489   3.333
 2832SOL     OW 9394   1.236   0.520   2.121
 2832SOL    HW1 9395   1.211   0.506   2.217
 2832SOL    HW2 9396   1.291   0.604   2.113
 2833SOL     OW 9397   4.233   2.115   2.186
 2833SOL    HW1 9398   4.160   2.049   2.175
 2833SOL    HW2 9399   4.230   2.182   2.111
 2834SOL     OW 9400   2.620   5.665   6.272
 2834SOL    HW1 9401   2.701   5.608   6.283
 2834SOL    HW2 9402   2.618   5.734   6.344
 2835SOL     OW 9403   6.730   0.307   1.690
 2835SOL    HW1 9404   6.645   0.348   1.660
 2835SOL    HW2 9405   6.717   0.265   1.780
 2836SOL     OW 9406   5.886   0.191   2.362
 2836SOL    HW1 9407   5.845   0.100   2.360
 2836SOL    HW2 9408   5.845   0.245   2.436
 2837SOL     OW 9409   5.060   4.087   2.916
 2837SOL    HW1 9410   5.124   4.012   2.898
 2837SOL    HW2 9411   4.966   4.053   2.906
 2838SOL     OW 9412   2.318   4.437   0.733
 2838SOL    HW1 9413   2.274   4.516   0.773
 2838SOL    HW2 9414   2.368   4.386   0.804
 2839SOL     OW 9415   6.514   1.674   1.741
 2839SOL    HW1 9416   6.570   1.755   1.758
 2839SOL    HW2 9417   6.472   1.645   1.827
 2840SOL     OW 9418   2.496   1.093   3.092
 2840SOL    HW1 9419   2.500   1.046   3.004
 2840SOL    HW2 9420   2.494   1.026   3.165
 2841SOL     OW 9421   1.045   0.638   5.812
 2841SOL    HW1 9422   1.012   0.547   5.839
 2841SOL    HW2 9423   0.993   0.707   5.863
 2842SOL     OW 9424   0.127   3.521   4.152
 2842SOL    HW1 9425   0.079   3.451   4.099
 2842SOL    HW2 9426   0.159   3.482   4.238
 2843SOL     OW 9427   2.889   1.181   2.627
 2843SOL    HW1 9428   2.795   1.153   2.643
 2843SOL    HW2 9429   2.946   1.100   2.613
 2844SOL     OW 9430   0.490   5.597   0.212
 2844SOL    HW1 9431   0.452   5.626   0.299
 2844SOL    HW2 9432   0.553   5.521   0.227
 2845SOL     OW 9433   6.620   3.191   1.457
 2845SOL    HW1 9434   6.626   3.118   1.525
 2845SOL    HW2 9435   6.690   3.260   1.475
 2846SOL     OW 9436   4.157   1.011   6.351
 2846SOL    HW1 9437   4.111   0.928   6.319
 2846SOL    HW2 9438   4.220   0.988   6.424
 2847SOL     OW 9439   4.901   3.833   3.878
 2847SOL    HW1 9440   4.992   3.865   3.905
 2847SOL    HW2 9441   4.904   3.800   3.784
 2848SOL     OW 9442   1.566   3.141   5.850
 2848SOL    HW1 9443   1.588   3.092   5.766
 2848SOL    HW2 9444   1.648   3.145   5.908
 2849SOL     OW 9445   3.455   6.497   0.608
 2849SOL    HW1 9446   3.442   6.586   0.650
 2849SOL    HW2 9447   3.424   6.425   0.670
 2850SOL     OW 9448   2.352   0.119   2.392
 2850SOL    HW1 9449   2.289   0.070   2.332
 2850SOL    HW2 9450   2.374   0.062   2.470
 2851SOL     OW 9451   6.769   1.741   5.710
 2851SOL    HW1 9452   6.725   1.666   5.759
 2851SOL    HW2 9453   6.859   1.759   5.750
 2852SOL     OW 9454   5.480   4.998   0.070
 2852SOL    HW1 9455   5.531   5.084   0.066
 2852SOL    HW2 9456   5.536   4.929   0.117
 2853SOL     OW 9457   1.887   2.752   6.866
 2853SOL    HW1 9458   1.983   2.747   6.838
 2853SOL    HW2 9459   1.867   2.843   6.902
 2854SOL     OW 9460   3.965   0.975   4.821
 2854SOL    HW1 9461   3.940   0.879   4.818
 2854SOL    HW2 9462   4.029   0.991   4.897
 2855SOL     OW 9463   2.563   1.154   6.735
 2855SOL    HW1 9464   2.626   1.197   6.670
 2855SOL    HW2 9465   2.482   1.121   6.688
 2856SOL     OW 9466   1.590   2.758   6.195
 2856SOL    HW1 9467   1.646   2.676   6.201
 2856SOL    HW2 9468   1.649   2.839   6.193
 2857SOL     OW 9469   3.340   1.510   2.191
 2857SOL    HW1 9470   3.384   1.497   2.280
 2857SOL    HW2 9471   3.324   1.421   2.149
 2858SOL     OW 9472   5.110   4.348   3.026
 2858SOL    HW1 9473   5.104   4.275   2.957
 2858SOL    HW2 9474   5.109   4.308   3.117
 2859SOL     OW 9475   5.070   2.208   0.164
 2859SOL    HW1 9476   5.146   2.147   0.142
 2859SOL    HW2 9477   5.076   2.291   0.108
 2860SOL     OW 9478   3.404   1.824   1.677
 2860SOL    HW1 9479   3.446   1.750   1.730
 2860SOL    HW2 9480   3.466   1.851   1.603
 2861SOL     OW 9481   3.914   3.648   5.868
 2861SOL    HW1 9482   3.889   3.744   5.880
 2861SOL    HW2 9483   3.918   3.602   5.957
 2862SOL     OW 9484   5.338   1.824   3.081
 2862SOL    HW1 9485   5.411   1.778   3.131
 2862SOL    HW2 9486   5.271   1.861   3.146
 2863SOL     OW 9487   5.058   1.113   7.018
 2863SOL    HW1 9488   5.140   1.154   0.037
 2863SOL    HW2 9489   4.977   1.155   0.038
 2864SOL     OW 9490   4.196   1.193   1.353
 2864SOL    HW1 9491   4.151   1.248   1.423
 2864SOL    HW2 9492   4.261   1.249   1.302
 2865SOL     OW 9493   5.077   4.163   6.526
 2865SOL    HW1 9494   5.130   4.081   6.505
 2865SOL    HW2 9495   5.080   4.180   6.625
 2866SOL     OW 9496   6.257   5.647   6.873
 2866SOL    HW1 9497   6.264   5.618   6.777
 2866SOL    HW2 9498   6.225   5.742   6.877
 2867SOL     OW 9499   5.689   3.688   2.537
 2867SOL    HW1 9500   5.623   3.732   2.597
 2867SOL    HW2 9501   5.660   3.594   2.518
 2868SOL     OW 9502   6.847   2.259   5.629
 2868SOL    HW1 9503   6.903   2.191   5.580
 2868SOL    HW2 9504   6.906   2.327   5.671
 2869SOL     OW 9505   6.635   0.561   3.242
 2869SOL    HW1 9506   6.540   0.592   3.236
 2869SOL    HW2 9507   6.652   0.492   3.172
 2870SOL     OW 9508   6.924   1.030   4.539
 2870SOL    HW1 9509   6.891   0.937   4.522
 2870SOL    HW2 9510   7.014   1.041   4.497
 2871SOL     OW 9511   0.409   1.853   0.627
 2871SOL    HW1 9512   0.370   1.767   0.596
 2871SOL    HW2 9513   0.507   1.854   0.609
 2872SOL     OW 9514   2.904   1.470   2.668
 2872SOL    HW1 9515   2.863   1.495   2.756
 2872SOL    HW2 9516   2.905   1.371   2.659
 2873SOL     OW 9517   0.052   5.045   2.934
 2873SOL    HW1 9518   7.005   5.034   3.007
 2873SOL    HW2 9519   0.060   5.142   2.911
 2874SOL     OW 9520   2.934   6.362   3.494
 2874SOL    HW1 9521   2.966   6.409   3.412
 2874SOL    HW2 9522   2.893   6.429   3.556
 2875SOL     OW 9523   4.783   6.628   0.933
 2875SOL    HW1 9524   4.690   6.641   0.898
 2875SOL    HW2 9525   4.839   6.707   0.908
 2876SOL     OW 9526   0.852   6.982   1.795
 2876SOL    HW1 9527   0.885   0.055   1.784
 2876SOL    HW2 9528   0.809   6.973   1.885
 2877SOL     OW 9529   3.297   2.554   5.304
 2877SOL    HW1 9530   3.239   2.485   5.259
 2877SOL    HW2 9531   3.253   2.643   5.296
 2878SOL     OW 9532   4.354   5.324   4.639
 2878SOL    HW1 9533   4.286   5.299   4.708
 2878SOL    HW2 9534   4.397   5.241   4.603
 2879SOL     OW 9535   5.008   4.785   0.748
 2879SOL    HW1 9536   4.922   4.734   0.739
 2879SOL    HW2 9537   5.037   4.785   0.844
 2880SOL     OW 9538   5.782   6.684   1.640
 2880SOL    HW1 9539   5.691   6.686   1.599
 2880SOL    HW2 9540   5.851   6.672   1.569
 2881SOL     OW 9541   5.293   6.080   6.591
 2881SOL    HW1 9542   5.252   5.992   6.566
 2881SOL    HW2 9543   5.301   6.137   6.509
 2882SOL     OW 9544   0.746   4.490   2.625
 2882SOL    HW1 9545   0.664   4.506   2.570
 2882SOL    HW2 9546   0.757   4.565   2.691
 2883SOL     OW 9547   6.201   6.856   3.860
 2883SOL    HW1 9548   6.277   6.806   3.818
 2883SOL    HW2 9549   6.173   6.930   3.798
 2884SOL     OW 9550   0.858   5.765   3.148
 2884SOL    HW1 9551   0.764   5.764   3.181
 2884SOL    HW2 9552   0.888   5.860   3.136
 2885SOL     OW 9553   0.642   2.905   2.425
 2885SOL    HW1 9554   0.568   2.941   2.482
 2885SOL    HW2 9555   0.703   2.849   2.481
 2886SOL     OW 9556   2.553   4.099   6.044
 2886SOL    HW1 9557   2.545   4.140   6.135
 2886SOL    HW2 9558   2.463   4.075   6.009
 2887SOL     OW 9559   1.068   0.487   4.360
 2887SOL    HW1 9560   0.985   0.531   4.395
 2887SOL    HW2 9561   1.086   0.520   4.267
 2888SOL     OW 9562   0.975   4.434   7.021
 2888SOL    HW1 9563   1.067   4.469   7.003
 2888SOL    HW2 9564   0.976   4.376   0.082
 2889SOL     OW 9565   2.212   6.999   2.199
 2889SOL    HW1 9566   2.185   7.000   2.103
 2889SOL    HW2 9567   2.143   6.950   2.253
 2890SOL     OW 9568   2.338   7.012   0.737
 2890SOL    HW1 9569   2.262   6.953   0.709
 2890SOL    HW2 9570   2.395   0.011   0.657
 2891SOL     OW 9571   1.735   4.178   3.068
 2891SOL    HW1 9572   1.688   4.255   3.112
 2891SOL    HW2 9573   1.712   4.177   2.971
 2892SOL     OW 9574   5.720   3.701   6.785
 2892SOL    HW1 9575   5.644   3.714   6.849
 2892SOL    HW2 9576   5.802   3.746   6.820
 2893SOL     OW 9577   0.293   6.685   4.473
 2893SOL    HW1 9578   0.339   6.765   4.511
 2893SOL    HW2 9579   0.270   6.621   4.546
 2894SOL     OW 9580   2.856   3.162   0.768
 2894SOL    HW1 9581   2.761   3.131   0.778
 2894SOL    HW2 9582   2.859   3.240   0.705
 2895SOL     OW 9583   4.640   2.501   6.187
 2895SOL    HW1 9584   4.580   2.506   6.107
 2895SOL    HW2 9585   4.726   2.549   6.167
 2896SOL     OW 9586   4.054   5.343   6.436
 2896SOL    HW1 9587   4.096   5.286   6.365
 2896SOL    HW2 9588   3.975   5.391   6.398
 2897SOL     OW 9589   3.576   4.892   3.578
 2897SOL    HW1 9590   3.515   4.825   3.535
 2897SOL    HW2 9591   3.525   4.945   3.646
 2898SOL     OW 9592   4.035   5.853   4.320
 2898SOL    HW1 9593   4.107   5.874   4.386
 2898SOL    HW2 9594   4.026   5.754   4.310
 2899SOL     OW 9595   0.709   1.744   0.917
 2899SOL    HW1 9596   0.659   1.689   0.850
 2899SOL    HW2 9597   0.731   1.689   0.997
 2900SOL     OW 9598   2.349   4.881   5.527
 2900SOL    HW1 9599   2.420   4.881   5.456
 2900SOL    HW2 9600   2.386   4.838   5.610
 2901SOL     OW 9601   2.161   6.482   3.630
 2901SOL    HW1 9602   2.197   6.497   3.722
 2901SOL    HW2 9603   2.204   6.401   3.590
 2902SOL     OW 9604   4.712   6.579   1.474
 2902SOL    HW1 9605   4.698   6.487   1.439
 2902SOL    HW2 9606   4.641   6.601   1.541
 2903SOL     OW 9607   3.035   0.919   0.684
 2903SOL    HW1 9608   3.117   0.864   0.703
 2903SOL    HW2 9609   3.009   0.908   0.588
 2904SOL     OW 9610   2.251   3.894   5.347
 2904SOL    HW1 9611   2.226   3.823   5.281
 2904SOL    HW2 9612   2.331   3.944   5.313
 2905SOL     OW 9613   1.096   2.233   3.590
 2905SOL    HW1 9614   1.108   2.140   3.626
 2905SOL    HW2 9615   1.058   2.292   3.662
 2906SOL     OW 9616   4.672   5.734   2.645
 2906SOL    HW1 9617   4.692   5.832   2.646
 2906SOL    HW2 9618   4.680   5.699   2.551
 2907SOL     OW 9619   0.520   1.505   4.042
 2907SOL    HW1 9620   0.527   1.541   3.949
 2907SOL    HW2 9621   0.581   1.555   4.102
 2908SOL     OW 9622   4.915   6.970   4.615
 2908SOL    HW1 9623   5.001   6.976   4.666
 2908SOL    HW2 9624   4.908   0.028   4.553
 2909SOL     OW 9625   1.076   6.701   3.509
 2909SOL    HW1 9626   1.110   6.616   3.468
 2909SOL    HW2 9627   1.063   6.769   3.438
 2910SOL     OW 9628   4.998   6.701   4.734
 2910SOL    HW1 9629   4.955   6.763   4.668
 2910SOL    HW2 9630   5.052   6.754   4.799
 2911SOL     OW 9631   1.960   5.438   3.420
 2911SOL    HW1 9632   1.929   5.471   3.330
 2911SOL    HW2 9633   1.937   5.506   3.490
 2912SOL     OW 9634   4.435   0.009   6.811
 2912SOL    HW1 9635   4.366   0.024   6.881
 2912SOL    HW2 9636   4.519   0.057   6.836
 2913SOL     OW 9637   2.430   4.422   3.127
 2913SOL    HW1 9638   2.504   4.435   3.193
 2913SOL    HW2 9639   2.348   4.390   3.175
 2914SOL     OW 9640   6.018   6.594   5.893
 2914SOL    HW1 9641   6.015   6.565   5.989
 2914SOL    HW2 9642   5.927   6.585   5.852
 2915SOL     OW 9643   5.684   1.880   5.175
 2915SOL    HW1 9644   5.731   1.948   5.232
 2915SOL    HW2 9645   5.684   1.911   5.080
 2916SOL     OW 9646   6.999   6.240   6.453
 2916SOL    HW1 9647   6.964   6.334   6.455
 2916SOL    HW2 9648   6.941   6.184   6.395
 2917SOL     OW 9649   3.570   6.608   2.510
 2917SOL    HW1 9650   3.567   6.664   2.593
 2917SOL    HW2 9651   3.647   6.639   2.453
 2918SOL     OW 9652   6.901   4.005   4.109
 2918SOL    HW1 9653   6.875   4.044   4.022
 2918SOL    HW2 9654   6.899   4.075   4.180
 2919SOL     OW 9655   6.918   0.986   0.849
 2919SOL    HW1 9656   6.992   1.049   0.875
 2919SOL    HW2 9657   6.956   0.894   0.836
 2920SOL     OW 9658   2.774   2.133   1.886
 2920SOL    HW1 9659   2.847   2.182   1.934
 2920SOL    HW2 9660   2.770   2.039   1.918
 2921SOL     OW 9661   1.416   1.017   3.072
 2921SOL    HW1 9662   1.460   0.979   3.153
 2921SOL    HW2 9663   1.476   1.007   2.993
 2922SOL     OW 9664   4.951   6.798   0.733
 2922SOL    HW1 9665   4.859   6.835   0.720
 2922SOL    HW2 9666   5.017   6.853   0.683
 2923SOL     OW 9667   6.832   5.004   2.037
 2923SOL    HW1 9668   6.840   4.910   2.069
 2923SOL    HW2 9669   6.737   5.023   2.011
 2924SOL     OW 9670   0.181   1.907   6.882
 2924SOL    HW1 9671   0.258   1.876   6.938
 2924SOL    HW2 9672   0.187   2.006   6.868
 2925SOL     OW 9673   4.834   1.069   3.006
 2925SOL    HW1 9674   4.874   1.036   2.920
 2925SOL    HW2 9675   4.859   1.007   3.080
 2926SOL     OW 9676   6.772   1.290   4.584
 2926SOL    HW1 9677   6.785   1.195   4.554
 2926SOL    HW2 9678   6.692   1.295   4.643
 2927SOL     OW 9679   1.121   2.133   2.821
 2927SOL    HW1 9680   1.114   2.061   2.890
 2927SOL    HW2 9681   1.064   2.111   2.743
 2928SOL     OW 9682   0.078   2.208   6.168
 2928SOL    HW1 9683   0.170   2.186   6.199
 2928SOL    HW2 9684   0.082   2.259   6.083
 2929SOL     OW 9685   0.542   1.279   6.589
 2929SOL    HW1 9686   0.537   1.377   6.572
 2929SOL    HW2 9687   0.594   1.234   6.517
 2930SOL     OW 9688   4.218   6.444   5.205
 2930SOL    HW1 9689   4.155   6.518   5.229
 2930SOL    HW2 9690   4.264   6.466   5.120
 2931SOL     OW 9691   5.263   5.144   0.636
 2931SOL    HW1 9692   5.174   5.174   0.672
 2931SOL    HW2 9693   5.331   5.216   0.650
 2932SOL     OW 9694   0.792   5.208   1.031
 2932SOL    HW1 9695   0.707   5.197   0.980
 2932SOL    HW2 9696   0.869   5.179   0.974
 2933SOL     OW 9697   6.155   4.282   3.196
 2933SOL    HW1 9698   6.226   4.338   3.153
 2933SOL    HW2 9699   6.067   4.329   3.189
 2934SOL     OW 9700   4.759   1.459   0.352
 2934SOL    HW1 9701   4.695   1.504   0.290
 2934SOL    HW2 9702   4.850   1.457   0.312
 2935SOL     OW 9703   6.407   3.038   1.333
 2935SOL    HW1 9704   6.479   3.103   1.357
 2935SOL    HW2 9705   6.334   3.042   1.402
 2936SOL     OW 9706   3.861   5.264   2.172
 2936SOL    HW1 9707   3.781   5.256   2.112
 2936SOL    HW2 9708   3.900   5.356   2.163
 2937SOL     OW 9709   4.014   4.764   0.191
 2937SOL    HW1 9710   4.063   4.828   0.250
 2937SOL    HW2 9711   4.061   4.757   0.103
 2938SOL     OW 9712   4.988   4.610   6.140
 2938SOL    HW1 9713   5.060   4.540   6.141
 2938SOL    HW2 9714   4.972   4.641   6.234
 2939SOL     OW 9715   0.803   0.388   3.885
 2939SOL    HW1 9716   0.887   0.337   3.863
 2939SOL    HW2 9717   0.816   0.435   3.972
 2940SOL     OW 9718   5.578   6.110   6.457
 2940SOL    HW1 9719   5.514   6.052   6.406
 2940SOL    HW2 9720   5.548   6.116   6.552
 2941SOL     OW 9721   2.315   2.780   4.213
 2941SOL    HW1 9722   2.266   2.823   4.138
 2941SOL    HW2 9723   2.295   2.829   4.298
 2942SOL     OW 9724   3.197   2.506   1.237
 2942SOL    HW1 9725   3.200   2.409   1.212
 2942SOL    HW2 9726   3.288   2.535   1.268
 2943SOL     OW 9727   5.530   4.464   3.301
 2943SOL    HW1 9728   5.529   4.422   3.210
 2943SOL    HW2 9729   5.450   4.433   3.352
 2944SOL     OW 9730   3.048   5.598   5.727
 2944SOL    HW1 9731   3.079   5.507   5.699
 2944SOL    HW2 9732   2.955   5.613   5.694
 2945SOL     OW 9733   3.771   4.077   3.452
 2945SOL    HW1 9734   3.682   4.092   3.409
 2945SOL    HW2 9735   3.766   4.104   3.549
 2946SOL     OW 9736   0.825   5.722   6.982
 2946SOL    HW1 9737   0.827   5.658   6.905
 2946SOL    HW2 9738   0.807   5.814   6.949
 2947SOL     OW 9739   0.579   3.540   6.956
 2947SOL    HW1 9740   0.581   3.530   6.857
 2947SOL    HW2 9741   0.605   3.633   6.981
 2948SOL     OW 9742   0.093   4.567   5.695
 2948SOL    HW1 9743   0.190   4.570   5.719
 2948SOL    HW2 9744   0.083   4.567   5.596
 2949SOL     OW 9745   2.768   5.580   0.510
 2949SOL    HW1 9746   2.727   5.516   0.574
 2949SOL    HW2 9747   2.761   5.673   0.546
 2950SOL     OW 9748   4.904   3.661   4.418
 2950SOL    HW1 9749   4.931   3.675   4.323
 2950SOL    HW2 9750   4.940   3.573   4.450
 2951SOL     OW 9751   6.043   1.614   1.083
 2951SOL    HW1 9752   5.993   1.559   1.150
 2951SOL    HW2 9753   6.031   1.711   1.104
 2952SOL     OW 9754   0.817   5.658   5.545
 2952SOL    HW1 9755   0.871   5.628   5.467
 2952SOL    HW2 9756   0.857   5.622   5.630
 2953SOL     OW 9757   5.356   3.441   3.187
 2953SOL    HW1 9758   5.279   3.378   3.170
 2953SOL    HW2 9759   5.435   3.388   3.218
 2954SOL     OW 9760   0.492   5.486   1.569
 2954SOL    HW1 9761   0.573   5.441   1.531
 2954SOL    HW2 9762   0.440   5.528   1.495
 2955SOL     OW 9763   0.713   4.237   1.560
 2955SOL    HW1 9764   0.774   4.168   1.598
 2955SOL    HW2 9765   0.686   4.210   1.467
 2956SOL     OW 9766   6.193   6.406   3.332
 2956SOL    HW1 9767   6.114   6.461   3.307
 2956SOL    HW2 9768   6.193   6.391   3.431
 2957SOL     OW 9769   6.200   3.122   1.809
 2957SOL    HW1 9770   6.108   3.156   1.790
 2957SOL    HW2 9771   6.196   3.051   1.879
 2958SOL     OW 9772   2.730   4.688   4.551
 2958SOL    HW1 9773   2.820   4.724   4.527
 2958SOL    HW2 9774   2.731   4.655   4.646
 2959SOL     OW 9775   4.585   4.850   0.711
 2959SOL    HW1 9776   4.545   4.764   0.742
 2959SOL    HW2 9777   4.603   4.845   0.613
 2960SOL     OW 9778   4.212   6.950   6.093
 2960SOL    HW1 9779   4.293   6.951   6.034
 2960SOL    HW2 9780   4.237   6.913   6.183
 2961SOL     OW 9781   4.816   2.567   4.327
 2961SOL    HW1 9782   4.828   2.488   4.387
 2961SOL    HW2 9783   4.897   2.578   4.269
 2962SOL     OW 9784   4.588   0.943   3.393
 2962SOL    HW1 9785   4.544   0.924   3.305
 2962SOL    HW2 9786   4.586   1.042   3.410
 2963SOL     OW 9787   1.819   1.085   5.534
 2963SOL    HW1 9788   1.721   1.082   5.550
 2963SOL    HW2 9789   1.846   1.177   5.505
 2964SOL     OW 9790   6.951   0.280   2.718
 2964SOL    HW1 9791   6.907   0.255   2.804
 2964SOL    HW2 9792   7.015   0.355   2.733
 2965SOL     OW 9793   6.846   0.731   4.802
 2965SOL    HW1 9794   6.800   0.671   4.868
 2965SOL    HW2 9795   6.836   0.826   4.832
 2966SOL     OW 9796   6.189   5.587   4.316
 2966SOL    HW1 9797   6.131   5.507   4.302
 2966SOL    HW2 9798   6.278   5.571   4.273
 2967SOL     OW 9799   5.937   2.016   4.530
 2967SOL    HW1 9800   5.982   1.954   4.594
 2967SOL    HW2 9801   5.879   2.080   4.581
 2968SOL     OW 9802   0.858   3.207   6.410
 2968SOL    HW1 9803   0.843   3.238   6.504
 2968SOL    HW2 9804   0.924   3.267   6.365
 2969SOL     OW 9805   5.977   0.955   4.729
 2969SOL    HW1 9806   5.900   0.897   4.756
 2969SOL    HW2 9807   6.006   1.011   4.806
 2970SOL     OW 9808   1.056   4.195   6.053
 2970SOL    HW1 9809   1.018   4.235   6.137
 2970SOL    HW2 9810   0.994   4.124   6.019
 2971SOL     OW 9811   6.036   3.316   6.278
 2971SOL    HW1 9812   6.101   3.347   6.348
 2971SOL    HW2 9813   5.972   3.389   6.257
 2972SOL     OW 9814   6.473   4.381   6.428
 2972SOL    HW1 9815   6.375   4.395   6.411
 2972SOL    HW2 9816   6.521   4.372   6.341
 2973SOL     OW 9817   5.575   0.972   4.332
 2973SOL    HW1 9818   5.578   0.995   4.429
 2973SOL    HW2 9819   5.654   1.013   4.285
 2974SOL     OW 9820   0.682   4.028   2.559
 2974SOL    HW1 9821   0.781   4.016   2.550
 2974SOL    HW2 9822   0.659   4.038   2.656
 2975SOL     OW 9823   0.153   2.347   4.965
 2975SOL    HW1 9824   0.074   2.309   4.916
 2975SOL    HW2 9825   0.224   2.278   4.971
 2976SOL     OW 9826   4.093   2.259   3.034
 2976SOL    HW1 9827   4.091   2.275   2.935
 2976SOL    HW2 9828   4.187   2.259   3.066
 2977SOL     OW 9829   1.736   6.915   3.969
 2977SOL    HW1 9830   1.664   6.845   3.964
 2977SOL    HW2 9831   1.812   6.881   4.023
 2978SOL     OW 9832   4.371   4.642   6.539
 2978SOL    HW1 9833   4.448   4.655   6.602
 2978SOL    HW2 9834   4.403   4.646   6.445
 2979SOL     OW 9835   4.782   0.409   4.173
 2979SOL    HW1 9836   4.752   0.348   4.246
 2979SOL    HW2 9837   4.881   0.421   4.178
 2980SOL     OW 9838   1.171   6.148   3.812
 2980SOL    HW1 9839   1.108   6.163   3.888
 2980SOL    HW2 9840   1.184   6.050   3.799
 2981SOL     OW 9841   1.705   1.645   6.250
 2981SOL    HW1 9842   1.633   1.681   6.191
 2981SOL    HW2 9843   1.741   1.719   6.308
 2982SOL     OW 9844   3.904   5.993   3.068
 2982SOL    HW1 9845   3.977   5.931   3.096
 2982SOL    HW2 9846   3.926   6.085   3.100
 2983SOL     OW 9847   1.017   1.183   3.870
 2983SOL    HW1 9848   0.948   1.209   3.803
 2983SOL    HW2 9849   0.976   1.179   3.961
 2984SOL     OW 9850   5.109   5.530   1.794
 2984SOL    HW1 9851   5.037   5.544   1.726
 2984SOL    HW2 9852   5.083   5.457   1.857
 2985SOL     OW 9853   1.571   2.385   5.678
 2985SOL    HW1 9854   1.630   2.351   5.751
 2985SOL    HW2 9855   1.617   2.459   5.629
 2986SOL     OW 9856   2.288   3.906   6.344
 2986SOL    HW1 9857   2.375   3.896   6.392
 2986SOL    HW2 9858   2.220   3.943   6.406
 2987SOL     OW 9859   5.669   1.312   4.076
 2987SOL    HW1 9860   5.728   1.316   4.157
 2987SOL    HW2 9861   5.575   1.295   4.104
 2988SOL     OW 9862   0.540   6.733   3.057
 2988SOL    HW1 9863   0.474   6.808   3.054
 2988SOL    HW2 9864   0.507   6.657   3.000
 2989SOL     OW 9865   6.891   5.934   0.395
 2989SOL    HW1 9866   6.849   5.846   0.376
 2989SOL    HW2 9867   6.869   5.998   0.321
 2990SOL     OW 9868   4.352   1.623   4.660
 2990SOL    HW1 9869   4.291   1.556   4.703
 2990SOL    HW2 9870   4.357   1.605   4.562
 2991SOL     OW 9871   6.598   4.070   6.181
 2991SOL    HW1 9872   6.609   4.162   6.219
 2991SOL    HW2 9873   6.620   4.072   6.084
 2992SOL     OW 9874   2.033   5.090   5.795
 2992SOL    HW1 9875   1.966   5.150   5.752
 2992SOL    HW2 9876   2.124   5.110   5.759
 2993SOL     OW 9877   0.462   5.175   1.411
 2993SOL    HW1 9878   0.511   5.170   1.498
 2993SOL    HW2 9879   0.526   5.195   1.337
 2994SOL     OW 9880   3.745   6.754   0.466
 2994SOL    HW1 9881   3.707   6.835   0.512
 2994SOL    HW2 9882   3.844   6.761   0.464
 2995SOL     OW 9883   1.683   3.508   6.636
 2995SOL    HW1 9884   1.701   3.435   6.570
 2995SOL    HW2 9885   1.744   3.585   6.618
 2996SOL     OW 9886   1.989   0.078   4.387
 2996SOL    HW1 9887   1.983   0.022   4.305
 2996SOL    HW2 9888   2.083   0.110   4.399
 2997SOL     OW 9889   5.109   0.467   2.338
 2997SOL    HW1 9890   5.156   0.403   2.399
 2997SOL    HW2 9891   5.148   0.559   2.349
 2998SOL     OW 9892   5.005   0.477   4.449
 2998SOL    HW1 9893   5.074   0.431   4.394
 2998SOL    HW2 9894   4.990   0.425   4.534
 2999SOL     OW 9895   3.472   4.977   3.996
 2999SOL    HW1 9896   3.433   5.028   4.072
 2999SOL    HW2 9897   3.539   5.034   3.947
 3000SOL     OW 9898   2.119   4.085   6.791
 3000SOL    HW1 9899   2.193   4.041   6.842
 3000SOL    HW2 9900   2.031   4.059   6.832
 3001SOL     OW 9901   5.626   5.746   6.321
 3001SOL    HW1 9902   5.590   5.833   6.286
 3001SOL    HW2 9903   5.722   5.738   6.296
 3002SOL     OW 9904   3.967   6.816   6.052
 3002SOL    HW1 9905   3.945   6.770   5.966
 3002SOL    HW2 9906   4.055   6.863   6.043
 3003SOL     OW 9907   2.219   0.097   6.923
 3003SOL    HW1 9908   2.318   0.086   6.917
 3003SOL    HW2 9909   2.178   0.070   6.836
 3004SOL     OW 9910   1.432   5.068   3.470
 3004SOL    HW1 9911   1.403   5.059   3.565
 3004SOL    HW2 9912   1.480   4.985   3.441
 3005SOL     OW 9913   3.254   2.180   0.060
 3005SOL    HW1 9914   3.208   2.269   0.057
 3005SOL    HW2 9915   3.186   2.107   0.055
 3006SOL     OW 9916   4.887   2.479   6.487
 3006SOL    HW1 9917   4.920   2.518   6.572
 3006SOL    HW2 9918   4.867   2.382   6.501
 3007SOL     OW 9919   5.687   5.411   1.440
 3007SOL    HW1 9920   5.781   5.425   1.472
 3007SOL    HW2 9921   5.687   5.359   1.355
 3008SOL     OW 9922   3.573   0.606   6.441
 3008SOL    HW1 9923   3.515   0.594   6.360
 3008SOL    HW2 9924   3.520   0.584   6.523
 3009SOL     OW 9925   0.669   0.606   2.827
 3009SOL    HW1 9926   0.700   0.535   2.765
 3009SOL    HW2 9927   0.735   0.616   2.902
 3010SOL     OW 9928   3.089   6.148   3.863
 3010SOL    HW1 9929   3.183   6.122   3.840
 3010SOL    HW2 9930   3.033   6.144   3.780
 3011SOL     OW 9931   5.332   1.377   0.963
 3011SOL    HW1 9932   5.364   1.417   0.878
 3011SOL    HW2 9933   5.408   1.330   1.009
 3012SOL     OW 9934   1.047   3.676   4.939
 3012SOL    HW1 9935   1.001   3.608   4.997
 3012SOL    HW2 9936   1.144   3.679   4.961
 3013SOL     OW 9937   5.511   5.571   4.961
 3013SOL    HW1 9938   5.504   5.625   5.045
 3013SOL    HW2 9939   5.529   5.475   4.985
 3014SOL     OW 9940   4.860   3.156   4.652
 3014SOL    HW1 9941   4.939   3.097   4.667
 3014SOL    HW2 9942   4.778   3.100   4.640
 3015SOL     OW 9943   2.477   2.104   0.296
 3015SOL    HW1 9944   2.486   2.089   0.395
 3015SOL    HW2 9945   2.499   2.019   0.248
 3016SOL     OW 9946   2.881   5.794   3.905
 3016SOL    HW1 9947   2.920   5.808   3.814
 3016SOL    HW2 9948   2.867   5.883   3.949
 3017SOL     OW 9949   0.745   5.368   1.434
 3017SOL    HW1 9950   0.725   5.335   1.342
 3017SOL    HW2 9951   0.844   5.382   1.444
 3018SOL     OW 9952   2.307   6.850   5.684
 3018SOL    HW1 9953   2.221   6.886   5.649
 3018SOL    HW2 9954   2.295   6.756   5.714
 3019SOL     OW 9955   1.693   0.285   0.075
 3019SOL    HW1 9956   1.759   0.212   0.092
 3019SOL    HW2 9957   1.607   0.265   0.122
 3020SOL     OW 9958   4.084   3.692   2.108
 3020SOL    HW1 9959   4.167   3.644   2.083
 3020SOL    HW2 9960   4.005   3.648   2.065
 3021SOL     OW 9961   3.397   0.111   0.032
 3021SOL    HW1 9962   3.329   0.154   0.092
 3021SOL    HW2 9963   3.394   0.156   6.964
 3022SOL     OW 9964   3.884   4.895   4.604
 3022SOL    HW1 9965   3.803   4.858   4.560
 3022SOL    HW2 9966   3.858   4.949   4.684
 3023SOL     OW 9967   4.625   0.344   2.835
 3023SOL    HW1 9968   4.615   0.302   2.744
 3023SOL    HW2 9969   4.542   0.327   2.888
 3024SOL     OW 9970   4.384   6.278   5.704
 3024SOL    HW1 9971   4.449   6.209   5.672
 3024SOL    HW2 9972   4.292   6.252   5.674
 3025SOL     OW 9973   3.575   1.482   0.104
 3025SOL    HW1 9974   3.609   1.572   0.079
 3025SOL    HW2 9975   3.644   1.413   0.084
 3026SOL     OW 9976   1.457   1.475   0.812
 3026SOL    HW1 9977   1.438   1.500   0.907
 3026SOL    HW2 9978   1.374   1.484   0.758
 3027SOL     OW 9979   4.057   0.333   2.334
 3027SOL    HW1 9980   4.103   0.421   2.334
 3027SOL    HW2 9981   4.121   0.261   2.305
 3028SOL     OW 9982   1.713   3.839   5.771
 3028SOL    HW1 9983   1.639   3.849   5.705
 3028SOL    HW2 9984   1.680   3.866   5.862
 3029SOL     OW 9985   0.412   3.394   4.558
 3029SOL    HW1 9986   0.401   3.399   4.657
 3029SOL    HW2 9987   0.465   3.313   4.534
 3030SOL     OW 9988   0.954   2.226   5.947
 3030SOL    HW1 9989   1.041   2.248   5.990
 3030SOL    HW2 9990   0.968   2.210   5.849
 3031SOL     OW 9991   0.558   2.846   0.863
 3031SOL    HW1 9992   0.603   2.809   0.945
 3031SOL    HW2 9993   0.521   2.937   0.883
 3032SOL     OW 9994   4.381   6.232   1.860
 3032SOL    HW1 9995   4.361   6.172   1.938
 3032SOL    HW2 9996   4.433   6.181   1.792
 3033SOL     OW 9997   0.004   2.105   1.831
 3033SOL    HW1 9998   6.946   2.045   1.844
 3033SOL    HW2 9999   0.076   2.080   1.897
 3034SOL     OW10000   1.778   5.227   3.596
 3034SOL    HW110001   1.795   5.203   3.692
 3034SOL    HW210002   1.848   5.291   3.565
 3035SOL     OW10003   0.274   3.262   0.429
 3035SOL    HW110004   0.312   3.185   0.378
 3035SOL    HW210005   0.201   3.230   0.488
 3036SOL     OW10006   1.718   2.593   6.702
 3036SOL    HW110007   1.659   2.663   6.663
 3036SOL    HW210008   1.792   2.637   6.753
 3037SOL     OW10009   1.211   5.975   4.772
 3037SOL    HW110010   1.219   6.052   4.708
 3037SOL    HW210011   1.163   6.005   4.855
 3038SOL     OW10012   5.729   5.699   5.960
 3038SOL    HW110013   5.632   5.701   5.936
 3038SOL    HW210014   5.775   5.778   5.919
 3039SOL     OW10015   0.120   4.139   1.411
 3039SOL    HW110016   0.184   4.204   1.371
 3039SOL    HW210017   0.036   4.188   1.438
 3040SOL     OW10018   4.348   3.328   6.237
 3040SOL    HW110019   4.418   3.313   6.308
 3040SOL    HW210020   4.257   3.317   6.277
 3041SOL     OW10021   2.141   3.142   4.882
 3041SOL    HW110022   2.224   3.110   4.929
 3041SOL    HW210023   2.164   3.166   4.788
 3042SOL     OW10024   5.142   6.298   2.083
 3042SOL    HW110025   5.066   6.233   2.084
 3042SOL    HW210026   5.191   6.290   1.996
 3043SOL     OW10027   0.884   5.879   1.779
 3043SOL    HW110028   0.875   5.781   1.766
 3043SOL    HW210029   0.808   5.913   1.835
 3044SOL     OW10030   3.189   3.962   6.085
 3044SOL    HW110031   3.266   3.960   6.149
 3044SOL    HW210032   3.146   3.871   6.082
 3045SOL     OW10033   4.776   1.317   3.116
 3045SOL    HW110034   4.792   1.224   3.083
 3045SOL    HW210035   4.729   1.370   3.045
 3046SOL     OW10036   2.588   1.650   6.673
 3046SOL    HW110037   2.511   1.587   6.665
 3046SOL    HW210038   2.553   1.741   6.697
 3047SOL     OW10039   4.946   0.073   2.374
 3047SOL    HW110040   4.880   7.020   2.383
 3047SOL    HW210041   5.023   0.056   2.436
 3048SOL     OW10042   3.847   2.362   1.661
 3048SOL    HW110043   3.861   2.460   1.649
 3048SOL    HW210044   3.794   2.346   1.745
 3049SOL     OW10045   0.810   6.401   1.667
 3049SOL    HW110046   0.846   6.327   1.723
 3049SOL    HW210047   0.880   6.471   1.655
 3050SOL     OW10048   2.970   0.722   2.272
 3050SOL    HW110049   3.003   0.706   2.179
 3050SOL    HW210050   2.924   0.811   2.276
 3051SOL     OW10051   2.052   3.946   0.177
 3051SOL    HW110052   2.072   4.038   0.210
 3051SOL    HW210053   2.047   3.883   0.255
 3052SOL     OW10054   5.209   0.148   2.247
 3052SOL    HW110055   5.201   0.122   2.344
 3052SOL    HW210056   5.266   0.230   2.240
 3053SOL     OW10057   0.092   1.644   7.002
 3053SOL    HW110058   0.081   1.671   0.077
 3053SOL    HW210059   0.101   1.726   6.945
 3054SOL     OW10060   6.746   2.304   1.516
 3054SOL    HW110061   6.797   2.345   1.592
 3054SOL    HW210062   6.804   2.302   1.435
 3055SOL     OW10063   5.106   6.988   4.095
 3055SOL    HW110064   5.050   6.923   4.146
 3055SOL    HW210065   5.062   7.010   4.008
 3056SOL     OW10066   5.965   1.414   5.206
 3056SOL    HW110067   6.026   1.473   5.260
 3056SOL    HW210068   5.880   1.463   5.189
 3057SOL     OW10069   4.054   6.051   3.553
 3057SOL    HW110070   4.135   6.012   3.509
 3057SOL    HW210071   4.082   6.107   3.631
 3058SOL     OW10072   6.779   5.519   0.633
 3058SOL    HW110073   6.696   5.574   0.632
 3058SOL    HW210074   6.857   5.576   0.659
 3059SOL     OW10075   2.631   2.461   4.258
 3059SOL    HW110076   2.589   2.543   4.298
 3059SOL    HW210077   2.675   2.408   4.331
 3060SOL     OW10078   0.602   5.809   0.316
 3060SOL    HW110079   0.586   5.734   0.251
 3060SOL    HW210080   0.516   5.858   0.332
 3061SOL     OW10081   5.676   0.385   5.659
 3061SOL    HW110082   5.641   0.474   5.687
 3061SOL    HW210083   5.614   0.313   5.690
 3062SOL     OW10084   1.394   6.849   6.914
 3062SOL    HW110085   1.424   6.759   6.946
 3062SOL    HW210086   1.343   6.895   6.986
 3063SOL     OW10087   2.833   5.361   1.508
 3063SOL    HW110088   2.799   5.267   1.496
 3063SOL    HW210089   2.859   5.375   1.603
 3064SOL     OW10090   5.382   4.146   3.838
 3064SOL    HW110091   5.370   4.201   3.921
 3064SOL    HW210092   5.477   4.154   3.806
 3065SOL     OW10093   2.170   0.807   0.249
 3065SOL    HW110094   2.160   0.855   0.162
 3065SOL    HW210095   2.265   0.779   0.262
 3066SOL     OW10096   4.807   5.141   1.130
 3066SOL    HW110097   4.772   5.070   1.190
 3066SOL    HW210098   4.868   5.100   1.061
 3067SOL     OW10099   3.778   2.083   4.604
 3067SOL    HW110100   3.693   2.076   4.655
 3067SOL    HW210101   3.854   2.095   4.668
 3068SOL     OW10102   5.923   6.641   1.432
 3068SOL    HW110103   5.942   6.556   1.384
 3068SOL    HW210104   5.968   6.717   1.384
 3069SOL     OW10105   6.590   6.284   1.953
 3069SOL    HW110106   6.663   6.339   1.995
 3069SOL    HW210107   6.510   6.285   2.013
 3070SOL     OW10108   1.120   1.009   2.133
 3070SOL    HW110109   1.117   1.074   2.057
 3070SOL    HW210110   1.032   1.010   2.180
 3071SOL     OW10111   6.037   5.846   3.065
 3071SOL    HW110112   6.062   5.943   3.059
 3071SOL    HW210113   6.036   5.806   2.973
 3072SOL     OW10114   1.057   0.048   0.294
 3072SOL    HW110115   1.049   0.104   0.376
 3072SOL    HW210116   0.967   0.039   0.250
 3073SOL     OW10117   6.825   3.082   5.081
 3073SOL    HW110118   6.795   3.019   5.009
 3073SOL    HW210119   6.857   3.167   5.039
 3074SOL     OW10120   5.404   3.524   0.877
 3074SOL    HW110121   5.433   3.608   0.924
 3074SOL    HW210122   5.432   3.529   0.781
 3075SOL     OW10123   2.442   6.051   1.499
 3075SOL    HW110124   2.398   6.108   1.569
 3075SOL    HW210125   2.505   6.108   1.445
 3076SOL     OW10126   0.072   0.813   4.318
 3076SOL    HW110127   7.017   0.771   4.367
 3076SOL    HW210128   0.159   0.782   4.357
 3077SOL     OW10129   4.736   5.376   2.712
 3077SOL    HW110130   4.756   5.404   2.806
 3077SOL    HW210131   4.645   5.336   2.708
 3078SOL     OW10132   1.115   3.462   1.799
 3078SOL    HW110133   1.081   3.548   1.839
 3078SOL    HW210134   1.194   3.431   1.852
 3079SOL     OW10135   2.272   2.049   4.756
 3079SOL    HW110136   2.322   2.005   4.682
 3079SOL    HW210137   2.177   2.063   4.729
 3080SOL     OW10138   5.070   3.709   3.220
 3080SOL    HW110139   5.050   3.668   3.130
 3080SOL    HW210140   5.168   3.729   3.225
 3081SOL     OW10141   0.646   2.527   5.796
 3081SOL    HW110142   0.726   2.586   5.803
 3081SOL    HW210143   0.665   2.439   5.840
 3082SOL     OW10144   3.264   6.891   4.082
 3082SOL    HW110145   3.336   6.960   4.069
 3082SOL    HW210146   3.306   6.803   4.105
 3083SOL     OW10147   4.491   6.582   3.438
 3083SOL    HW110148   4.475   6.618   3.346
 3083SOL    HW210149   4.417   6.612   3.499
 3084SOL     OW10150   5.128   4.117   4.495
 3084SOL    HW110151   5.121   4.125   4.396
 3084SOL    HW210152   5.129   4.208   4.536
 3085SOL     OW10153   0.373   4.915   1.430
 3085SOL    HW110154   0.400   4.889   1.522
 3085SOL    HW210155   0.393   5.011   1.414
 3086SOL     OW10156   3.776   2.068   2.273
 3086SOL    HW110157   3.754   1.975   2.245
 3086SOL    HW210158   3.740   2.132   2.205
 3087SOL     OW10159   1.016   5.172   3.806
 3087SOL    HW110160   1.051   5.205   3.718
 3087SOL    HW210161   1.058   5.224   3.880
 3088SOL     OW10162   2.561   5.056   5.965
 3088SOL    HW110163   2.580   5.000   5.884
 3088SOL    HW210164   2.462   5.065   5.977
 3089SOL     OW10165   1.389   3.437   0.371
 3089SOL    HW110166   1.379   3.379   0.290
 3089SOL    HW210167   1.403   3.380   0.451
 3090SOL     OW10168   2.075   1.781   2.002
 3090SOL    HW110169   2.048   1.701   2.055
 3090SOL    HW210170   2.010   1.796   1.928
 3091SOL     OW10171   1.117   0.041   0.773
 3091SOL    HW110172   1.055   0.033   0.850
 3091SOL    HW210173   1.161   6.974   0.756
 3092SOL     OW10174   4.869   6.563   0.639
 3092SOL    HW110175   4.902   6.652   0.671
 3092SOL    HW210176   4.919   6.490   0.685
 3093SOL     OW10177   5.030   6.055   5.968
 3093SOL    HW110178   4.981   6.025   6.049
 3093SOL    HW210179   5.014   6.153   5.954
 3094SOL     OW10180   2.091   6.639   4.265
 3094SOL    HW110181   2.130   6.654   4.356
 3094SOL    HW210182   2.040   6.553   4.265
 3095SOL     OW10183   1.941   5.322   5.163
 3095SOL    HW110184   1.988   5.271   5.090
 3095SOL    HW210185   1.892   5.399   5.123
 3096SOL     OW10186   1.416   6.559   4.897
 3096SOL    HW110187   1.377   6.626   4.833
 3096SOL    HW210188   1.348   6.537   4.967
 3097SOL     OW10189   0.308   2.792   0.732
 3097SOL    HW110190   0.233   2.801   0.798
 3097SOL    HW210191   0.393   2.823   0.772
 3098SOL     OW10192   3.231   3.425   0.646
 3098SOL    HW110193   3.252   3.328   0.643
 3098SOL    HW210194   3.170   3.444   0.723
 3099SOL     OW10195   0.524   6.554   3.473
 3099SOL    HW110196   0.593   6.495   3.431
 3099SOL    HW210197   0.556   6.585   3.562
 3100SOL     OW10198   6.334   6.814   5.008
 3100SOL    HW110199   6.342   6.722   5.047
 3100SOL    HW210200   6.261   6.815   4.940
 3101SOL     OW10201   4.857   6.630   5.965
 3101SOL    HW110202   4.787   6.700   5.962
 3101SOL    HW210203   4.814   6.539   5.971
 3102SOL     OW10204   0.378   4.935   2.573
 3102SOL    HW110205   0.283   4.906   2.562
 3102SOL    HW210206   0.405   4.925   2.669
 3103SOL     OW10207   3.788   0.675   1.826
 3103SOL    HW110208   3.703   0.679   1.880
 3103SOL    HW210209   3.859   0.729   1.872
 3104SOL     OW10210   5.307   6.449   5.116
 3104SOL    HW110211   5.245   6.420   5.043
 3104SOL    HW210212   5.316   6.375   5.183
 3105SOL     OW10213   6.094   4.339   1.602
 3105SOL    HW110214   6.062   4.245   1.590
 3105SOL    HW210215   6.038   4.400   1.546
 3106SOL     OW10216   5.503   1.381   2.528
 3106SOL    HW110217   5.494   1.460   2.467
 3106SOL    HW210218   5.591   1.337   2.513
 3107SOL     OW10219   4.095   0.642   4.228
 3107SOL    HW110220   4.127   0.723   4.276
 3107SOL    HW210221   4.166   0.610   4.165
 3108SOL     OW10222   1.042   0.216   4.502
 3108SOL    HW110223   1.038   0.287   4.431
 3108SOL    HW210224   1.136   0.207   4.535
 3109SOL     OW10225   5.505   6.214   2.109
 3109SOL    HW110226   5.437   6.188   2.040
 3109SOL    HW210227   5.522   6.313   2.104
 3110SOL     OW10228   1.726   1.740   3.872
 3110SOL    HW110229   1.795   1.744   3.800
 3110SOL    HW210230   1.771   1.726   3.960
 3111SOL     OW10231   6.248   6.049   4.056
 3111SOL    HW110232   6.267   5.952   4.074
 3111SOL    HW210233   6.333   6.101   4.059
 3112SOL     OW10234   5.383   2.706   6.314
 3112SOL    HW110235   5.331   2.645   6.255
 3112SOL    HW210236   5.446   2.653   6.370
 3113SOL     OW10237   1.951   6.245   4.090
 3113SOL    HW110238   2.022   6.281   4.028
 3113SOL    HW210239   1.872   6.215   4.037
 3114SOL     OW10240   3.898   1.982   6.996
 3114SOL    HW110241   3.843   1.939   6.924
 3114SOL    HW210242   3.854   2.066   0.006
 3115SOL     OW10243   4.214   3.048   6.530
 3115SOL    HW110244   4.303   3.079   6.564
 3115SOL    HW210245   4.157   3.127   6.507
 3116SOL     OW10246   0.314   3.274   6.901
 3116SOL    HW110247   0.320   3.365   6.942
 3116SOL    HW210248   0.227   3.231   6.927
 3117SOL     OW10249   4.222   3.354   5.203
 3117SOL    HW110250   4.312   3.391   5.225
 3117SOL    HW210251   4.183   3.402   5.124
 3118SOL     OW10252   0.451   4.350   0.632
 3118SOL    HW110253   0.427   4.434   0.583
 3118SOL    HW210254   0.542   4.358   0.671
 3119SOL     OW10255   1.922   3.331   5.501
 3119SOL    HW110256   1.919   3.347   5.403
 3119SOL    HW210257   1.860   3.394   5.547
 3120SOL     OW10258   2.794   6.783   3.768
 3120SOL    HW110259   2.830   6.876   3.766
 3120SOL    HW210260   2.728   6.774   3.842
 3121SOL     OW10261   0.067   1.557   2.744
 3121SOL    HW110262   0.155   1.596   2.718
 3121SOL    HW210263   0.019   1.526   2.662
 3122SOL     OW10264   3.092   6.107   6.107
 3122SOL    HW110265   3.174   6.086   6.054
 3122SOL    HW210266   3.021   6.142   6.047
 3123SOL     OW10267   3.911   1.071   4.230
 3123SOL    HW110268   3.987   1.071   4.165
 3123SOL    HW210269   3.828   1.039   4.184
 3124SOL     OW10270   4.344   6.556   4.951
 3124SOL    HW110271   4.308   6.638   4.908
 3124SOL    HW210272   4.375   6.492   4.880
 3125SOL     OW10273   6.834   2.245   5.056
 3125SOL    HW110274   6.815   2.150   5.083
 3125SOL    HW210275   6.928   2.252   5.021
 3126SOL     OW10276   4.466   4.584   6.265
 3126SOL    HW110277   4.494   4.489   6.283
 3126SOL    HW210278   4.540   4.646   6.290
 3127SOL     OW10279   0.785   3.095   3.624
 3127SOL    HW110280   0.830   3.165   3.569
 3127SOL    HW210281   0.687   3.097   3.605
 3128SOL     OW10282   1.939   0.610   6.433
 3128SOL    HW110283   1.940   0.543   6.508
 3128SOL    HW210284   1.887   0.691   6.462
 3129SOL     OW10285   0.513   4.045   6.425
 3129SOL    HW110286   0.472   3.972   6.371
 3129SOL    HW210287   0.610   4.054   6.403
 3130SOL     OW10288   1.451   4.444   1.864
 3130SOL    HW110289   1.454   4.398   1.953
 3130SOL    HW210290   1.541   4.437   1.820
 3131SOL     OW10291   6.699   2.610   1.773
 3131SOL    HW110292   6.782   2.652   1.737
 3131SOL    HW210293   6.621   2.669   1.755
 3132SOL     OW10294   4.234   5.052   5.729
 3132SOL    HW110295   4.254   5.061   5.826
 3132SOL    HW210296   4.194   4.962   5.711
 3133SOL     OW10297   3.388   2.148   3.669
 3133SOL    HW110298   3.392   2.049   3.664
 3133SOL    HW210299   3.402   2.177   3.764
 3134SOL     OW10300   4.684   4.057   1.431
 3134SOL    HW110301   4.693   4.030   1.527
 3134SOL    HW210302   4.667   4.155   1.425
 3135SOL     OW10303   5.109   0.990   5.286
 3135SOL    HW110304   5.159   0.932   5.349
 3135SOL    HW210305   5.021   1.015   5.326
 3136SOL     OW10306   5.206   0.622   0.320
 3136SOL    HW110307   5.128   0.620   0.382
 3136SOL    HW210308   5.225   0.716   0.293
 3137SOL     OW10309   6.487   0.262   3.434
 3137SOL    HW110310   6.581   0.279   3.404
 3137SOL    HW210311   6.429   0.339   3.408
 3138SOL     OW10312   6.592   2.615   3.946
 3138SOL    HW110313   6.692   2.605   3.946
 3138SOL    HW210314   6.552   2.547   3.885
 3139SOL     OW10315   4.660   6.980   0.485
 3139SOL    HW110316   4.649   6.952   0.581
 3139SOL    HW210317   4.738   6.931   0.446
 3140SOL     OW10318   5.859   6.965   6.795
 3140SOL    HW110319   5.889   0.033   6.762
 3140SOL    HW210320   5.894   6.893   6.735
 3141SOL     OW10321   0.322   5.629   6.167
 3141SOL    HW110322   0.320   5.677   6.255
 3141SOL    HW210323   0.404   5.656   6.116
 3142SOL     OW10324   4.738   6.329   1.647
 3142SOL    HW110325   4.722   6.315   1.745
 3142SOL    HW210326   4.651   6.324   1.598
 3143SOL     OW10327   0.022   2.161   0.117
 3143SOL    HW110328   6.962   2.103   0.116
 3143SOL    HW210329   0.011   2.233   0.186
 3144SOL     OW10330   3.500   4.208   1.202
 3144SOL    HW110331   3.561   4.284   1.221
 3144SOL    HW210332   3.456   4.177   1.286
 3145SOL     OW10333   1.837   5.088   2.227
 3145SOL    HW110334   1.933   5.088   2.255
 3145SOL    HW210335   1.787   5.158   2.277
 3146SOL     OW10336   1.288   6.986   2.854
 3146SOL    HW110337   1.311   6.911   2.916
 3146SOL    HW210338   1.356   0.037   2.861
 3147SOL     OW10339   3.013   5.334   7.007
 3147SOL    HW110340   3.060   5.411   0.028
 3147SOL    HW210341   3.039   5.326   6.911
 3148SOL     OW10342   5.272   6.007   5.104
 3148SOL    HW110343   5.332   6.026   5.182
 3148SOL    HW210344   5.303   6.057   5.024
 3149SOL     OW10345   2.915   0.550   5.329
 3149SOL    HW110346   2.977   0.619   5.290
 3149SOL    HW210347   2.839   0.596   5.375
 3150SOL     OW10348   6.821   6.075   4.429
 3150SOL    HW110349   6.864   6.101   4.343
 3150SOL    HW210350   6.864   6.125   4.505
 3151SOL     OW10351   4.224   1.139   6.125
 3151SOL    HW110352   4.195   1.095   6.210
 3151SOL    HW210353   4.323   1.151   6.126
 3152SOL     OW10354   1.185   5.441   0.988
 3152SOL    HW110355   1.166   5.394   0.901
 3152SOL    HW210356   1.247   5.385   1.043
 3153SOL     OW10357   6.250   4.371   1.836
 3153SOL    HW110358   6.169   4.377   1.779
 3153SOL    HW210359   6.326   4.419   1.792
 3154SOL     OW10360   6.662   1.813   0.657
 3154SOL    HW110361   6.755   1.799   0.622
 3154SOL    HW210362   6.610   1.868   0.592
 3155SOL     OW10363   6.423   5.226   1.405
 3155SOL    HW110364   6.333   5.250   1.369
 3155SOL    HW210365   6.477   5.310   1.417
 3156SOL     OW10366   2.913   3.394   3.381
 3156SOL    HW110367   2.834   3.338   3.355
 3156SOL    HW210368   2.961   3.424   3.299
 3157SOL     OW10369   1.859   2.782   4.906
 3157SOL    HW110370   1.786   2.850   4.911
 3157SOL    HW210371   1.936   2.813   4.961
 3158SOL     OW10372   4.254   0.009   2.081
 3158SOL    HW110373   4.162   6.991   2.082
 3158SOL    HW210374   4.248   0.108   2.089
 3159SOL     OW10375   5.425   1.122   0.421
 3159SOL    HW110376   5.383   1.032   0.410
 3159SOL    HW210377   5.497   1.134   0.353
 3160SOL     OW10378   0.032   6.354   5.313
 3160SOL    HW110379   6.988   6.424   5.343
 3160SOL    HW210380   0.112   6.355   5.373
 3161SOL     OW10381   1.883   1.729   3.609
 3161SOL    HW110382   1.816   1.742   3.536
 3161SOL    HW210383   1.956   1.668   3.578
 3162SOL     OW10384   0.974   6.209   0.678
 3162SOL    HW110385   0.928   6.163   0.754
 3162SOL    HW210386   1.073   6.193   0.684
 3163SOL     OW10387   3.843   2.205   6.488
 3163SOL    HW110388   3.927   2.240   6.529
 3163SOL    HW210389   3.782   2.282   6.467
 3164SOL     OW10390   4.254   4.055   1.444
 3164SOL    HW110391   4.265   4.028   1.540
 3164SOL    HW210392   4.307   3.994   1.385
 3165SOL     OW10393   1.464   5.652   1.561
 3165SOL    HW110394   1.385   5.661   1.621
 3165SOL    HW210395   1.546   5.683   1.610
 3166SOL     OW10396   4.566   1.122   6.452
 3166SOL    HW110397   4.649   1.087   6.410
 3166SOL    HW210398   4.498   1.049   6.457
 3167SOL     OW10399   0.174   4.423   1.649
 3167SOL    HW110400   0.159   4.457   1.556
 3167SOL    HW210401   0.167   4.324   1.649
 3168SOL     OW10402   5.252   2.844   0.181
 3168SOL    HW110403   5.293   2.932   0.156
 3168SOL    HW210404   5.177   2.823   0.119
 3169SOL     OW10405   1.674   3.260   5.188
 3169SOL    HW110406   1.740   3.334   5.204
 3169SOL    HW210407   1.682   3.192   5.260
 3170SOL     OW10408   4.569   0.778   1.146
 3170SOL    HW110409   4.615   0.692   1.168
 3170SOL    HW210410   4.471   0.770   1.162
 3171SOL     OW10411   0.161   6.397   1.402
 3171SOL    HW110412   0.181   6.433   1.493
 3171SOL    HW210413   0.169   6.470   1.335
 3172SOL     OW10414   0.335   5.223   5.838
 3172SOL    HW110415   0.365   5.129   5.856
 3172SOL    HW210416   0.242   5.220   5.799
 3173SOL     OW10417   3.212   2.228   1.112
 3173SOL    HW110418   3.133   2.240   1.171
 3173SOL    HW210419   3.201   2.146   1.057
 3174SOL     OW10420   2.868   2.675   6.526
 3174SOL    HW110421   2.845   2.665   6.429
 3174SOL    HW210422   2.945   2.615   6.549
 3175SOL     OW10423   0.257   6.622   0.525
 3175SOL    HW110424   0.346   6.580   0.543
 3175SOL    HW210425   0.226   6.671   0.607
 3176SOL     OW10426   2.055   5.148   4.983
 3176SOL    HW110427   2.070   5.190   4.894
 3176SOL    HW210428   2.132   5.088   5.005
 3177SOL     OW10429   4.713   4.714   5.441
 3177SOL    HW110430   4.630   4.765   5.418
 3177SOL    HW210431   4.738   4.655   5.364
 3178SOL     OW10432   6.826   2.833   1.023
 3178SOL    HW110433   6.746   2.798   0.974
 3178SOL    HW210434   6.802   2.851   1.118
 3179SOL     OW10435   1.973   2.596   2.339
 3179SOL    HW110436   2.026   2.514   2.316
 3179SOL    HW210437   1.934   2.636   2.256
 3180SOL     OW10438   4.639   0.397   7.019
 3180SOL    HW110439   4.705   0.469   6.996
 3180SOL    HW210440   4.597   0.418   0.087
 3181SOL     OW10441   1.158   1.084   2.987
 3181SOL    HW110442   1.119   1.119   3.072
 3181SOL    HW210443   1.251   1.052   3.004
 3182SOL     OW10444   1.749   1.387   5.649
 3182SOL    HW110445   1.670   1.325   5.655
 3182SOL    HW210446   1.779   1.411   5.742
 3183SOL     OW10447   5.081   3.929   1.319
 3183SOL    HW110448   5.148   3.881   1.376
 3183SOL    HW210449   4.988   3.903   1.348
 3184SOL     OW10450   2.217   2.328   2.842
 3184SOL    HW110451   2.304   2.280   2.846
 3184SOL    HW210452   2.211   2.379   2.756
 3185SOL     OW10453   5.990   0.749   6.708
 3185SOL    HW110454   5.938   0.755   6.623
 3185SOL    HW210455   6.070   0.691   6.694
 3186SOL     OW10456   3.537   1.635   3.133
 3186SOL    HW110457   3.529   1.733   3.146
 3186SOL    HW210458   3.602   1.615   3.060
 3187SOL     OW10459   4.484   4.339   0.370
 3187SOL    HW110460   4.520   4.246   0.382
 3187SOL    HW210461   4.501   4.369   0.276
 3188SOL     OW10462   3.432   6.210   4.361
 3188SOL    HW110463   3.442   6.191   4.263
 3188SOL    HW210464   3.503   6.160   4.412
 3189SOL     OW10465   2.341   0.830   2.677
 3189SOL    HW110466   2.278   0.878   2.616
 3189SOL    HW210467   2.317   0.733   2.680
 3190SOL     OW10468   0.570   6.270   1.554
 3190SOL    HW110469   0.650   6.323   1.583
 3190SOL    HW210470   0.526   6.230   1.635
 3191SOL     OW10471   3.756   6.738   0.838
 3191SOL    HW110472   3.764   6.824   0.786
 3191SOL    HW210473   3.847   6.698   0.849
 3192SOL     OW10474   0.159   2.538   1.140
 3192SOL    HW110475   0.073   2.564   1.185
 3192SOL    HW210476   0.179   2.442   1.160
 3193SOL     OW10477   4.364   1.958   5.858
 3193SOL    HW110478   4.325   2.047   5.832
 3193SOL    HW210479   4.377   1.955   5.957
 3194SOL     OW10480   0.886   2.652   5.844
 3194SOL    HW110481   0.948   2.691   5.913
 3194SOL    HW210482   0.923   2.670   5.753
 3195SOL     OW10483   2.134   2.871   2.644
 3195SOL    HW110484   2.040   2.849   2.670
 3195SOL    HW210485   2.148   2.848   2.548
 3196SOL     OW10486   0.069   0.612   4.870
 3196SOL    HW110487   7.014   0.675   4.856
 3196SOL    HW210488   0.084   0.599   4.968
 3197SOL     OW10489   1.861   5.611   3.588
 3197SOL    HW110490   1.777   5.626   3.639
 3197SOL    HW210491   1.909   5.698   3.575
 3198SOL     OW10492   6.159   2.589   6.139
 3198SOL    HW110493   6.227   2.649   6.181
 3198SOL    HW210494   6.124   2.526   6.208
 3199SOL     OW10495   4.443   2.708   1.642
 3199SOL    HW110496   4.359   2.664   1.674
 3199SOL    HW210497   4.436   2.807   1.656
 3200SOL     OW10498   6.908   1.690   1.855
 3200SOL    HW110499   6.850   1.651   1.927
 3200SOL    HW210500   6.890   1.788   1.848
 3201SOL     OW10501   5.089   4.379   4.606
 3201SOL    HW110502   5.018   4.423   4.661
 3201SOL    HW210503   5.172   4.367   4.662
 3202SOL     OW10504   1.136   4.609   1.899
 3202SOL    HW110505   1.037   4.624   1.889
 3202SOL    HW210506   1.167   4.543   1.831
 3203SOL     OW10507   5.239   1.001   1.173
 3203SOL    HW110508   5.255   1.065   1.248
 3203SOL    HW210509   5.294   1.027   1.094
 3204SOL     OW10510   4.786   5.772   1.645
 3204SOL    HW110511   4.718   5.788   1.716
 3204SOL    HW210512   4.863   5.835   1.657
 3205SOL     OW10513   0.319   3.989   6.617
 3205SOL    HW110514   0.301   3.891   6.627
 3205SOL    HW210515   0.395   4.003   6.554
 3206SOL     OW10516   6.775   6.851   5.871
 3206SOL    HW110517   6.764   6.948   5.848
 3206SOL    HW210518   6.853   6.814   5.821
 3207SOL     OW10519   0.235   1.706   6.702
 3207SOL    HW110520   0.169   1.743   6.637
 3207SOL    HW210521   0.246   1.770   6.778
 3208SOL     OW10522   4.996   6.394   6.256
 3208SOL    HW110523   4.959   6.389   6.163
 3208SOL    HW210524   4.987   6.487   6.291
 3209SOL     OW10525   3.119   5.602   3.399
 3209SOL    HW110526   3.201   5.623   3.346
 3209SOL    HW210527   3.048   5.669   3.378
 3210SOL     OW10528   0.855   4.057   2.145
 3210SOL    HW110529   0.909   4.095   2.220
 3210SOL    HW210530   0.824   4.131   2.086
 3211SOL     OW10531   2.251   3.941   0.835
 3211SOL    HW110532   2.318   4.000   0.879
 3211SOL    HW210533   2.200   3.890   0.905
 3212SOL     OW10534   4.109   1.564   6.271
 3212SOL    HW110535   4.089   1.653   6.311
 3212SOL    HW210536   4.103   1.494   6.342
 3213SOL     OW10537   5.969   5.135   3.064
 3213SOL    HW110538   5.983   5.123   3.162
 3213SOL    HW210539   5.871   5.148   3.045
 3214SOL     OW10540   4.891   5.901   0.447
 3214SOL    HW110541   4.828   5.899   0.525
 3214SOL    HW210542   4.878   5.819   0.391
 3215SOL     OW10543   6.882   3.598   1.218
 3215SOL    HW110544   6.859   3.508   1.255
 3215SOL    HW210545   6.969   3.592   1.168
 3216SOL     OW10546   4.821   5.622   1.925
 3216SOL    HW110547   4.918   5.597   1.926
 3216SOL    HW210548   4.767   5.548   1.964
 3217SOL     OW10549   0.820   5.041   2.222
 3217SOL    HW110550   0.821   4.943   2.200
 3217SOL    HW210551   0.726   5.074   2.221
 3218SOL     OW10552   4.211   6.362   3.533
 3218SOL    HW110553   4.222   6.377   3.435
 3218SOL    HW210554   4.276   6.294   3.564
 3219SOL     OW10555   0.237   0.992   3.321
 3219SOL    HW110556   0.286   0.908   3.343
 3219SOL    HW210557   0.249   1.059   3.395
 3220SOL     OW10558   6.169   5.154   5.870
 3220SOL    HW110559   6.130   5.174   5.960
 3220SOL    HW210560   6.264   5.126   5.881
 3221SOL     OW10561   3.230   6.505   2.011
 3221SOL    HW110562   3.305   6.446   2.042
 3221SOL    HW210563   3.232   6.591   2.062
 3222SOL     OW10564   4.829   2.016   3.652
 3222SOL    HW110565   4.783   2.104   3.663
 3222SOL    HW210566   4.771   1.943   3.689
 3223SOL     OW10567   1.843   5.308   6.579
 3223SOL    HW110568   1.792   5.371   6.522
 3223SOL    HW210569   1.849   5.345   6.672
 3224SOL     OW10570   4.360   4.929   6.152
 3224SOL    HW110571   4.409   4.845   6.126
 3224SOL    HW210572   4.267   4.926   6.115
 3225SOL     OW10573   4.256   2.501   5.523
 3225SOL    HW110574   4.327   2.455   5.577
 3225SOL    HW210575   4.255   2.599   5.545
 3226SOL     OW10576   1.444   1.370   4.678
 3226SOL    HW110577   1.454   1.277   4.642
 3226SOL    HW210578   1.402   1.428   4.609
 3227SOL     OW10579   2.956   1.973   6.427
 3227SOL    HW110580   2.883   1.976   6.496
 3227SOL    HW210581   3.014   1.894   6.443
 3228SOL     OW10582   5.084   3.427   4.169
 3228SOL    HW110583   5.164   3.485   4.158
 3228SOL    HW210584   5.107   3.333   4.144
 3229SOL     OW10585   3.333   1.477   5.929
 3229SOL    HW110586   3.366   1.528   6.009
 3229SOL    HW210587   3.275   1.537   5.873
 3230SOL     OW10588   0.625   2.841   4.089
 3230SOL    HW110589   0.625   2.887   4.000
 3230SOL    HW210590   0.633   2.742   4.076
 3231SOL     OW10591   3.386   5.970   2.256
 3231SOL    HW110592   3.382   6.037   2.330
 3231SOL    HW210593   3.456   5.997   2.190
 3232SOL     OW10594   4.343   5.157   4.157
 3232SOL    HW110595   4.384   5.086   4.100
 3232SOL    HW210596   4.414   5.221   4.187
 3233SOL     OW10597   1.872   3.485   1.078
 3233SOL    HW110598   1.855   3.583   1.067
 3233SOL    HW210599   1.961   3.470   1.120
 3234SOL     OW10600   0.165   2.657   0.490
 3234SOL    HW110601   0.217   2.728   0.538
 3234SOL    HW210602   0.163   2.574   0.546
 3235SOL     OW10603   5.477   5.859   1.940
 3235SOL    HW110604   5.378   5.870   1.932
 3235SOL    HW210605   5.523   5.922   1.878
 3236SOL     OW10606   1.682   3.250   1.809
 3236SOL    HW110607   1.628   3.192   1.748
 3236SOL    HW210608   1.714   3.195   1.887
 3237SOL     OW10609   5.443   0.879   3.783
 3237SOL    HW110610   5.525   0.905   3.834
 3237SOL    HW210611   5.399   0.962   3.747
 3238SOL     OW10612   7.015   4.960   6.804
 3238SOL    HW110613   0.069   5.001   6.856
 3238SOL    HW210614   6.935   5.020   6.807
 3239SOL     OW10615   6.150   1.160   0.507
 3239SOL    HW110616   6.119   1.243   0.554
 3239SOL    HW210617   6.124   1.165   0.411
 3240SOL     OW10618   1.306   6.573   5.267
 3240SOL    HW110619   1.233   6.552   5.203
 3240SOL    HW210620   1.273   6.563   5.361
 3241SOL     OW10621   5.402   1.609   4.534
 3241SOL    HW110622   5.467   1.588   4.460
 3241SOL    HW210623   5.360   1.524   4.567
 3242SOL     OW10624   3.293   4.359   0.735
 3242SOL    HW110625   3.218   4.389   0.676
 3242SOL    HW210626   3.287   4.406   0.823
 3243SOL     OW10627   5.602   5.514   0.259
 3243SOL    HW110628   5.510   5.543   0.286
 3243SOL    HW210629   5.650   5.477   0.338
 3244SOL     OW10630   4.759   5.071   6.574
 3244SOL    HW110631   4.827   5.103   6.640
 3244SOL    HW210632   4.803   5.051   6.487
 3245SOL     OW10633   4.703   2.554   5.610
 3245SOL    HW110634   4.709   2.512   5.519
 3245SOL    HW210635   4.771   2.512   5.670
 3246SOL     OW10636   6.195   0.326   3.139
 3246SOL    HW110637   6.237   0.235   3.148
 3246SOL    HW210638   6.198   0.355   3.044
 3247SOL     OW10639   0.316   5.263   2.939
 3247SOL    HW110640   0.393   5.297   2.885
 3247SOL    HW210641   0.232   5.270   2.885
 3248SOL     OW10642   5.781   3.699   1.837
 3248SOL    HW110643   5.793   3.783   1.783
 3248SOL    HW210644   5.716   3.639   1.791
 3249SOL     OW10645   4.252   4.173   5.826
 3249SOL    HW110646   4.177   4.239   5.823
 3249SOL    HW210647   4.215   4.081   5.835
 3250SOL     OW10648   5.422   0.139   3.205
 3250SOL    HW110649   5.399   0.043   3.218
 3250SOL    HW210650   5.356   0.196   3.253
 3251SOL     OW10651   4.245   0.944   2.138
 3251SOL    HW110652   4.322   0.958   2.201
 3251SOL    HW210653   4.267   0.870   2.075
 3252SOL     OW10654   3.337   1.275   2.058
 3252SOL    HW110655   3.297   1.192   2.096
 3252SOL    HW210656   3.300   1.291   1.966
 3253SOL     OW10657   4.889   3.276   2.461
 3253SOL    HW110658   4.890   3.236   2.369
 3253SOL    HW210659   4.926   3.210   2.526
 3254SOL     OW10660   3.509   4.988   4.808
 3254SOL    HW110661   3.497   4.968   4.710
 3254SOL    HW210662   3.602   5.017   4.825
 3255SOL     OW10663   4.601   5.780   1.027
 3255SOL    HW110664   4.540   5.712   1.068
 3255SOL    HW210665   4.672   5.733   0.975
 3256SOL     OW10666   5.516   0.238   6.153
 3256SOL    HW110667   5.496   0.142   6.172
 3256SOL    HW210668   5.612   0.248   6.126
 3257SOL     OW10669   0.840   2.119   1.284
 3257SOL    HW110670   0.762   2.182   1.288
 3257SOL    HW210671   0.873   2.112   1.190
 3258SOL     OW10672   4.566   6.028   2.284
 3258SOL    HW110673   4.572   5.929   2.279
 3258SOL    HW210674   4.570   6.067   2.192
 3259SOL     OW10675   4.693   5.834   4.269
 3259SOL    HW110676   4.678   5.832   4.368
 3259SOL    HW210677   4.671   5.924   4.233
 3260SOL     OW10678   1.998   2.415   1.361
 3260SOL    HW110679   1.980   2.431   1.264
 3260SOL    HW210680   2.097   2.422   1.378
 3261SOL     OW10681   4.233   6.325   0.551
 3261SOL    HW110682   4.315   6.337   0.496
 3261SOL    HW210683   4.244   6.245   0.610
 3262SOL     OW10684   3.922   1.709   2.799
 3262SOL    HW110685   3.958   1.798   2.828
 3262SOL    HW210686   3.975   1.674   2.722
 3263SOL     OW10687   4.943   0.212   3.969
 3263SOL    HW110688   4.965   0.263   3.886
 3263SOL    HW210689   4.985   0.257   4.048
 3264SOL     OW10690   0.659   4.746   6.862
 3264SOL    HW110691   0.621   4.729   6.772
 3264SOL    HW210692   0.751   4.705   6.868
 3265SOL     OW10693   4.407   2.297   6.457
 3265SOL    HW110694   4.475   2.370   6.460
 3265SOL    HW210695   4.426   2.237   6.379
 3266SOL     OW10696   0.530   2.451   0.704
 3266SOL    HW110697   0.557   2.361   0.672
 3266SOL    HW210698   0.522   2.513   0.625
 3267SOL     OW10699   3.402   2.393   1.004
 3267SOL    HW110700   3.336   2.329   1.043
 3267SOL    HW210701   3.415   2.373   0.908
 3268SOL     OW10702   0.875   3.707   6.775
 3268SOL    HW110703   0.891   3.612   6.750
 3268SOL    HW210704   0.857   3.714   6.873
 3269SOL     OW10705   4.085   5.079   2.097
 3269SOL    HW110706   3.997   5.128   2.102
 3269SOL    HW210707   4.086   5.005   2.163
 3270SOL     OW10708   1.406   5.839   4.908
 3270SOL    HW110709   1.344   5.894   4.851
 3270SOL    HW210710   1.444   5.765   4.853
 3271SOL     OW10711   5.512   2.690   2.693
 3271SOL    HW110712   5.584   2.760   2.698
 3271SOL    HW210713   5.424   2.732   2.715
 3272SOL     OW10714   3.617   5.354   0.940
 3272SOL    HW110715   3.545   5.392   0.883
 3272SOL    HW210716   3.701   5.346   0.887
 3273SOL     OW10717   0.720   6.501   2.190
 3273SOL    HW110718   0.811   6.512   2.231
 3273SOL    HW210719   0.708   6.568   2.116
 3274SOL     OW10720   3.748   2.307   6.840
 3274SOL    HW110721   3.699   2.328   6.924
 3274SOL    HW210722   3.796   2.389   6.807
 3275SOL     OW10723   1.692   0.554   6.626
 3275SOL    HW110724   1.766   0.490   6.644
 3275SOL    HW210725   1.605   0.514   6.653
 3276SOL     OW10726   3.245   4.999   6.413
 3276SOL    HW110727   3.277   5.093   6.413
 3276SOL    HW210728   3.251   4.961   6.321
 3277SOL     OW10729   5.847   0.533   6.368
 3277SOL    HW110730   5.795   0.544   6.453
 3277SOL    HW210731   5.889   0.442   6.366
 3278SOL     OW10732   6.589   0.958   5.711
 3278SOL    HW110733   6.625   0.926   5.798
 3278SOL    HW210734   6.505   1.011   5.726
 3279SOL     OW10735   0.472   0.874   1.232
 3279SOL    HW110736   0.458   0.817   1.151
 3279SOL    HW210737   0.385   0.913   1.261
 3280SOL     OW10738   2.617   5.731   5.978
 3280SOL    HW110739   2.529   5.766   5.945
 3280SOL    HW210740   2.615   5.724   6.077
 3281SOL     OW10741   1.876   5.189   0.990
 3281SOL    HW110742   1.947   5.255   0.968
 3281SOL    HW210743   1.909   5.096   0.971
 3282SOL     OW10744   2.712   5.373   4.149
 3282SOL    HW110745   2.703   5.413   4.240
 3282SOL    HW210746   2.729   5.446   4.083
 3283SOL     OW10747   3.206   1.787   1.993
 3283SOL    HW110748   3.211   1.791   2.092
 3283SOL    HW210749   3.165   1.872   1.958
 3284SOL     OW10750   6.403   6.881   6.353
 3284SOL    HW110751   6.309   6.908   6.371
 3284SOL    HW210752   6.463   6.961   6.361
 3285SOL     OW10753   0.041   2.619   3.266
 3285SOL    HW110754   0.035   2.599   3.168
 3285SOL    HW210755   0.014   2.538   3.318
 3286SOL     OW10756   3.899   3.058   3.910
 3286SOL    HW110757   3.895   3.059   4.009
 3286SOL    HW210758   3.857   2.975   3.875
 3287SOL     OW10759   1.168   5.823   0.379
 3287SOL    HW110760   1.138   5.810   0.473
 3287SOL    HW210761   1.168   5.735   0.331
 3288SOL     OW10762   0.954   5.598   6.761
 3288SOL    HW110763   0.880   5.531   6.765
 3288SOL    HW210764   1.030   5.561   6.708
 3289SOL     OW10765   1.836   6.444   5.764
 3289SOL    HW110766   1.836   6.386   5.845
 3289SOL    HW210767   1.786   6.399   5.690
 3290SOL     OW10768   0.435   6.764   1.809
 3290SOL    HW110769   0.419   6.835   1.740
 3290SOL    HW210770   0.494   6.693   1.770
 3291SOL     OW10771   1.221   6.821   6.697
 3291SOL    HW110772   1.277   6.816   6.780
 3291SOL    HW210773   1.279   6.847   6.620
 3292SOL     OW10774   0.720   1.285   0.265
 3292SOL    HW110775   0.628   1.320   0.285
 3292SOL    HW210776   0.714   1.189   0.238
 3293SOL     OW10777   6.656   2.171   3.220
 3293SOL    HW110778   6.749   2.168   3.256
 3293SOL    HW210779   6.620   2.264   3.226
 3294SOL     OW10780   0.084   0.377   6.033
 3294SOL    HW110781   0.083   0.466   5.987
 3294SOL    HW210782   0.032   0.311   5.978
 3295SOL     OW10783   2.402   2.369   0.966
 3295SOL    HW110784   2.350   2.308   1.026
 3295SOL    HW210785   2.372   2.463   0.980
 3296SOL     OW10786   2.072   6.297   0.933
 3296SOL    HW110787   2.126   6.220   0.967
 3296SOL    HW210788   1.986   6.303   0.984
 3297SOL     OW10789   2.851   1.414   4.370
 3297SOL    HW110790   2.891   1.344   4.311
 3297SOL    HW210791   2.773   1.456   4.324
 3298SOL     OW10792   6.270   3.081   3.053
 3298SOL    HW110793   6.313   3.013   3.111
 3298SOL    HW210794   6.227   3.035   2.975
 3299SOL     OW10795   2.475   6.928   3.804
 3299SOL    HW110796   2.433   7.009   3.845
 3299SOL    HW210797   2.404   6.867   3.771
 3300SOL     OW10798   0.228   0.178   5.828
 3300SOL    HW110799   0.262   0.112   5.895
 3300SOL    HW210800   0.304   0.231   5.792
 3301SOL     OW10801   2.035   4.237   3.655
 3301SOL    HW110802   2.120   4.289   3.648
 3301SOL    HW210803   1.957   4.298   3.644
 3302SOL     OW10804   1.280   5.154   4.623
 3302SOL    HW110805   1.332   5.239   4.626
 3302SOL    HW210806   1.267   5.120   4.716
 3303SOL     OW10807   3.212   2.767   1.814
 3303SOL    HW110808   3.127   2.716   1.827
 3303SOL    HW210809   3.191   2.865   1.806
 3304SOL     OW10810   1.874   4.971   3.065
 3304SOL    HW110811   1.934   4.966   3.145
 3304SOL    HW210812   1.796   4.911   3.078
 3305SOL     OW10813   2.437   1.906   2.562
 3305SOL    HW110814   2.515   1.921   2.623
 3305SOL    HW210815   2.462   1.932   2.469
 3306SOL     OW10816   2.268   4.661   3.634
 3306SOL    HW110817   2.272   4.704   3.543
 3306SOL    HW210818   2.222   4.723   3.698
 3307SOL     OW10819   0.200   6.321   6.583
 3307SOL    HW110820   0.111   6.297   6.544
 3307SOL    HW210821   0.255   6.367   6.514
 3308SOL     OW10822   4.531   5.897   6.670
 3308SOL    HW110823   4.602   5.967   6.668
 3308SOL    HW210824   4.528   5.849   6.583
 3309SOL     OW10825   0.812   5.273   2.533
 3309SOL    HW110826   0.855   5.341   2.592
 3309SOL    HW210827   0.786   5.193   2.586
 3310SOL     OW10828   6.695   3.837   3.121
 3310SOL    HW110829   6.610   3.874   3.084
 3310SOL    HW210830   6.764   3.831   3.049
 3311SOL     OW10831   2.955   5.160   0.785
 3311SOL    HW110832   3.002   5.248   0.773
 3311SOL    HW210833   2.921   5.129   0.696
 3312SOL     OW10834   2.813   4.095   6.497
 3312SOL    HW110835   2.727   4.045   6.502
 3312SOL    HW210836   2.832   4.139   6.585
 3313SOL     OW10837   1.151   5.424   3.089
 3313SOL    HW110838   1.226   5.377   3.135
 3313SOL    HW210839   1.175   5.442   2.994
 3314SOL     OW10840   1.825   2.437   5.090
 3314SOL    HW110841   1.808   2.415   5.186
 3314SOL    HW210842   1.869   2.527   5.083
 3315SOL     OW10843   6.793   2.313   4.428
 3315SOL    HW110844   6.872   2.352   4.477
 3315SOL    HW210845   6.825   2.261   4.349
 3316SOL     OW10846   3.638   1.380   5.508
 3316SOL    HW110847   3.577   1.428   5.571
 3316SOL    HW210848   3.668   1.443   5.436
 3317SOL     OW10849   4.641   2.745   1.819
 3317SOL    HW110850   4.623   2.842   1.839
 3317SOL    HW210851   4.578   2.714   1.748
 3318SOL     OW10852   2.721   0.006   6.747
 3318SOL    HW110853   2.671   0.092   6.734
 3318SOL    HW210854   2.737   7.013   6.845
 3319SOL     OW10855   6.590   6.563   3.516
 3319SOL    HW110856   6.569   6.517   3.602
 3319SOL    HW210857   6.644   6.645   3.534
 3320SOL     OW10858   5.795   1.293   6.052
 3320SOL    HW110859   5.822   1.389   6.059
 3320SOL    HW210860   5.702   1.282   6.088
 3321SOL     OW10861   3.237   3.036   1.789
 3321SOL    HW110862   3.273   3.038   1.696
 3321SOL    HW210863   3.256   3.123   1.835
 3322SOL     OW10864   4.894   2.057   1.583
 3322SOL    HW110865   4.922   2.130   1.521
 3322SOL    HW210866   4.919   1.969   1.543
 3323SOL     OW10867   2.116   4.074   6.508
 3323SOL    HW110868   2.115   4.077   6.608
 3323SOL    HW210869   2.101   4.166   6.472
 3324SOL     OW10870   1.070   4.066   0.051
 3324SOL    HW110871   1.019   4.060   6.986
 3324SOL    HW210872   1.008   4.050   0.128
 3325SOL     OW10873   2.097   3.169   6.986
 3325SOL    HW110874   2.026   3.234   6.958
 3325SOL    HW210875   2.153   3.211   0.037
 3326SOL     OW10876   5.384   1.466   1.379
 3326SOL    HW110877   5.437   1.382   1.368
 3326SOL    HW210878   5.363   1.505   1.290
 3327SOL     OW10879   2.390   6.669   0.796
 3327SOL    HW110880   2.490   6.665   0.801
 3327SOL    HW210881   2.352   6.678   0.888
 3328SOL     OW10882   4.892   1.436   2.207
 3328SOL    HW110883   4.903   1.408   2.302
 3328SOL    HW210884   4.906   1.535   2.199
 3329SOL     OW10885   4.609   0.343   5.250
 3329SOL    HW110886   4.658   0.301   5.174
 3329SOL    HW210887   4.511   0.334   5.236
 3330SOL     OW10888   5.738   6.636   2.372
 3330SOL    HW110889   5.832   6.660   2.396
 3330SOL    HW210890   5.714   6.548   2.415
 3331SOL     OW10891   1.639   3.234   2.638
 3331SOL    HW110892   1.697   3.227   2.720
 3331SOL    HW210893   1.601   3.326   2.633
 3332SOL     OW10894   5.917   4.068   0.445
 3332SOL    HW110895   5.993   4.116   0.489
 3332SOL    HW210896   5.872   4.007   0.511
 3333SOL     OW10897   2.934   3.466   6.931
 3333SOL    HW110898   2.841   3.446   6.902
 3333SOL    HW210899   2.936   3.553   6.980
 3334SOL     OW10900   2.040   3.015   2.040
 3334SOL    HW110901   1.997   2.942   1.987
 3334SOL    HW210902   2.064   3.091   1.979
 3335SOL     OW10903   4.658   5.514   5.787
 3335SOL    HW110904   4.634   5.546   5.696
 3335SOL    HW210905   4.598   5.557   5.855
 3336SOL     OW10906   2.310   0.179   4.153
 3336SOL    HW110907   2.224   0.162   4.105
 3336SOL    HW210908   2.376   0.108   4.128
 3337SOL     OW10909   3.640   3.082   2.199
 3337SOL    HW110910   3.724   3.117   2.159
 3337SOL    HW210911   3.651   2.985   2.221
 3338SOL     OW10912   0.249   2.301   1.834
 3338SOL    HW110913   0.258   2.386   1.782
 3338SOL    HW210914   0.170   2.308   1.895
 3339SOL     OW10915   2.304   0.205   5.905
 3339SOL    HW110916   2.257   0.235   5.822
 3339SOL    HW210917   2.255   0.128   5.945
 3340SOL     OW10918   4.825   0.667   4.114
 3340SOL    HW110919   4.787   0.738   4.173
 3340SOL    HW210920   4.783   0.579   4.137
 3341SOL     OW10921   2.589   4.569   3.459
 3341SOL    HW110922   2.577   4.647   3.521
 3341SOL    HW210923   2.680   4.530   3.473
 3342SOL     OW10924   0.137   0.461   2.658
 3342SOL    HW110925   0.124   0.394   2.585
 3342SOL    HW210926   0.095   0.548   2.632
 3343SOL     OW10927   5.216   5.249   6.209
 3343SOL    HW110928   5.123   5.284   6.223
 3343SOL    HW210929   5.248   5.276   6.118
 3344SOL     OW10930   6.399   2.881   3.247
 3344SOL    HW110931   6.355   2.796   3.277
 3344SOL    HW210932   6.465   2.911   3.317
 3345SOL     OW10933   0.795   4.055   6.357
 3345SOL    HW110934   0.893   4.036   6.348
 3345SOL    HW210935   0.763   4.105   6.276
 3346SOL     OW10936   1.803   1.178   6.846
 3346SOL    HW110937   1.822   1.132   6.759
 3346SOL    HW210938   1.835   1.120   6.921
 3347SOL     OW10939   1.568   2.527   6.411
 3347SOL    HW110940   1.514   2.462   6.465
 3347SOL    HW210941   1.578   2.613   6.461
 3348SOL     OW10942   4.220   3.749   5.429
 3348SOL    HW110943   4.293   3.685   5.409
 3348SOL    HW210944   4.173   3.721   5.513
 3349SOL     OW10945   2.392   5.198   3.897
 3349SOL    HW110946   2.458   5.219   3.824
 3349SOL    HW210947   2.441   5.169   3.979
 3350SOL     OW10948   0.873   3.177   5.801
 3350SOL    HW110949   0.899   3.113   5.729
 3350SOL    HW210950   0.797   3.234   5.770
 3351SOL     OW10951   5.542   0.966   1.336
 3351SOL    HW110952   5.515   0.877   1.300
 3351SOL    HW210953   5.633   0.990   1.302
 3352SOL     OW10954   5.210   2.351   0.756
 3352SOL    HW110955   5.188   2.345   0.658
 3352SOL    HW210956   5.130   2.383   0.806
 3353SOL     OW10957   2.001   0.290   0.310
 3353SOL    HW110958   2.017   0.288   0.211
 3353SOL    HW210959   2.053   0.365   0.351
 3354SOL     OW10960   3.921   2.998   5.115
 3354SOL    HW110961   3.910   2.945   5.032
 3354SOL    HW210962   3.890   2.945   5.194
 3355SOL     OW10963   2.152   1.501   5.750
 3355SOL    HW110964   2.243   1.540   5.763
 3355SOL    HW210965   2.093   1.569   5.706
 3356SOL     OW10966   0.671   6.285   6.376
 3356SOL    HW110967   0.767   6.260   6.377
 3356SOL    HW210968   0.635   6.286   6.469
 3357SOL     OW10969   3.646   3.336   1.901
 3357SOL    HW110970   3.550   3.366   1.904
 3357SOL    HW210971   3.668   3.305   1.808
 3358SOL     OW10972   5.512   1.234   3.519
 3358SOL    HW110973   5.437   1.291   3.486
 3358SOL    HW210974   5.524   1.248   3.617
 3359SOL     OW10975   0.369   5.274   3.675
 3359SOL    HW110976   0.372   5.180   3.641
 3359SOL    HW210977   0.278   5.312   3.659
 3360SOL     OW10978   0.879   2.377   6.663
 3360SOL    HW110979   0.902   2.460   6.714
 3360SOL    HW210980   0.963   2.336   6.628
 3361SOL     OW10981   0.820   0.515   4.123
 3361SOL    HW110982   0.777   0.443   4.178
 3361SOL    HW210983   0.772   0.601   4.137
 3362SOL     OW10984   4.047   1.602   3.119
 3362SOL    HW110985   3.951   1.628   3.131
 3362SOL    HW210986   4.055   1.538   3.043
 3363SOL     OW10987   6.861   3.750   1.866
 3363SOL    HW110988   6.898   3.712   1.950
 3363SOL    HW210989   6.823   3.676   1.810
 3364SOL     OW10990   1.539   4.694   2.726
 3364SOL    HW110991   1.515   4.790   2.711
 3364SOL    HW210992   1.573   4.654   2.641
 3365SOL     OW10993   1.539   2.540   4.465
 3365SOL    HW110994   1.569   2.540   4.560
 3365SOL    HW210995   1.586   2.614   4.415
 3366SOL     OW10996   6.368   3.970   3.906
 3366SOL    HW110997   6.422   3.921   3.974
 3366SOL    HW210998   6.281   3.999   3.947
 3367SOL     OW10999   3.379   3.273   3.654
 3367SOL    HW111000   3.393   3.177   3.629
 3367SOL    HW211001   3.339   3.278   3.746
 3368SOL     OW11002   0.517   5.727   6.623
 3368SOL    HW111003   0.547   5.817   6.655
 3368SOL    HW211004   0.537   5.658   6.693
 3369SOL     OW11005   4.646   1.840   1.642
 3369SOL    HW111006   4.576   1.898   1.600
 3369SOL    HW211007   4.737   1.877   1.622
 3370SOL     OW11008   5.714   6.655   1.909
 3370SOL    HW111009   5.758   6.678   1.997
 3370SOL    HW211010   5.775   6.680   1.834
 3371SOL     OW11011   2.104   3.700   2.008
 3371SOL    HW111012   2.129   3.604   2.016
 3371SOL    HW211013   2.136   3.735   1.919
 3372SOL     OW11014   6.840   2.481   0.559
 3372SOL    HW111015   6.860   2.573   0.524
 3372SOL    HW211016   6.757   2.484   0.615
 3373SOL     OW11017   0.582   1.886   3.004
 3373SOL    HW111018   0.588   1.937   3.090
 3373SOL    HW211019   0.582   1.788   3.024
 3374SOL     OW11020   1.367   0.369   3.710
 3374SOL    HW111021   1.304   0.296   3.684
 3374SOL    HW211022   1.356   0.391   3.807
 3375SOL     OW11023   6.756   4.619   0.571
 3375SOL    HW111024   6.659   4.599   0.559
 3375SOL    HW211025   6.779   4.613   0.668
 3376SOL     OW11026   2.915   3.617   4.926
 3376SOL    HW111027   2.907   3.572   4.837
 3376SOL    HW211028   2.986   3.571   4.980
 3377SOL     OW11029   6.537   4.732   4.327
 3377SOL    HW111030   6.446   4.705   4.295
 3377SOL    HW211031   6.556   4.826   4.296
 3378SOL     OW11032   0.445   0.092   6.950
 3378SOL    HW111033   0.460   0.154   6.873
 3378SOL    HW211034   0.382   0.020   6.924
 3379SOL     OW11035   1.095   3.036   4.714
 3379SOL    HW111036   1.172   3.024   4.651
 3379SOL    HW211037   1.121   3.100   4.786
 3380SOL     OW11038   4.113   5.506   5.334
 3380SOL    HW111039   4.024   5.464   5.345
 3380SOL    HW211040   4.178   5.439   5.298
 3381SOL     OW11041   0.014   3.009   1.497
 3381SOL    HW111042   6.998   3.100   1.475
 3381SOL    HW211043   0.083   2.985   1.430
 3382SOL     OW11044   0.350   3.349   1.034
 3382SOL    HW111045   0.441   3.387   1.051
 3382SOL    HW211046   0.285   3.388   1.100
 3383SOL     OW11047   3.515   5.574   0.331
 3383SOL    HW111048   3.509   5.518   0.413
 3383SOL    HW211049   3.425   5.611   0.308
 3384SOL     OW11050   2.877   4.502   0.756
 3384SOL    HW111051   2.793   4.539   0.717
 3384SOL    HW211052   2.929   4.576   0.799
 3385SOL     OW11053   6.436   3.143   3.854
 3385SOL    HW111054   6.388   3.179   3.934
 3385SOL    HW211055   6.530   3.121   3.879
 3386SOL     OW11056   6.457   4.849   0.026
 3386SOL    HW111057   6.405   4.794   0.091
 3386SOL    HW211058   6.403   4.860   6.963
 3387SOL     OW11059   4.918   0.692   3.163
 3387SOL    HW111060   4.992   0.735   3.111
 3387SOL    HW211061   4.955   0.626   3.227
 3388SOL     OW11062   5.261   4.318   2.171
 3388SOL    HW111063   5.343   4.260   2.167
 3388SOL    HW211064   5.276   4.392   2.237
 3389SOL     OW11065   6.699   5.429   6.902
 3389SOL    HW111066   6.699   5.507   6.964
 3389SOL    HW211067   6.624   5.367   6.927
 3390SOL     OW11068   4.305   6.514   6.311
 3390SOL    HW111069   4.277   6.422   6.339
 3390SOL    HW211070   4.391   6.538   6.356
 3391SOL     OW11071   5.101   1.918   3.172
 3391SOL    HW111072   5.069   1.973   3.095
 3391SOL    HW211073   5.050   1.943   3.254
 3392SOL     OW11074   3.352   6.693   4.222
 3392SOL    HW111075   3.343   6.593   4.227
 3392SOL    HW211076   3.442   6.720   4.256
 3393SOL     OW11077   5.091   6.749   0.339
 3393SOL    HW111078   5.094   6.829   0.279
 3393SOL    HW211079   5.176   6.744   0.391
 3394SOL     OW11080   3.867   5.051   0.849
 3394SOL    HW111081   3.947   5.017   0.899
 3394SOL    HW211082   3.893   5.131   0.795
 3395SOL     OW11083   5.070   1.633   3.240
 3395SOL    HW111084   5.064   1.732   3.222
 3395SOL    HW211085   5.114   1.588   3.163
 3396SOL     OW11086   5.401   1.347   4.179
 3396SOL    HW111087   5.372   1.264   4.228
 3396SOL    HW211088   5.342   1.360   4.099
 3397SOL     OW11089   2.916   5.553   6.075
 3397SOL    HW111090   2.854   5.557   5.997
 3397SOL    HW211091   2.909   5.638   6.128
 3398SOL     OW11092   0.731   0.155   5.307
 3398SOL    HW111093   0.776   0.243   5.324
 3398SOL    HW211094   0.764   0.088   5.373
 3399SOL     OW11095   6.502   4.918   3.129
 3399SOL    HW111096   6.543   4.961   3.210
 3399SOL    HW211097   6.418   4.967   3.104
 3400SOL     OW11098   6.460   3.571   6.598
 3400SOL    HW111099   6.469   3.472   6.589
 3400SOL    HW211100   6.499   3.600   6.686
 3401SOL     OW11101   6.188   3.663   6.242
 3401SOL    HW111102   6.129   3.681   6.163
 3401SOL    HW211103   6.262   3.602   6.214
 3402SOL     OW11104   6.146   5.644   0.529
 3402SOL    HW111105   6.216   5.692   0.476
 3402SOL    HW211106   6.141   5.549   0.499
 3403SOL     OW11107   5.135   5.557   6.439
 3403SOL    HW111108   5.085   5.470   6.436
 3403SOL    HW211109   5.228   5.543   6.403
 3404SOL     OW11110   4.971   3.113   6.949
 3404SOL    HW111111   5.037   3.179   6.915
 3404SOL    HW211112   4.990   3.094   0.025
 3405SOL     OW11113   5.438   4.777   6.001
 3405SOL    HW111114   5.342   4.750   6.006
 3405SOL    HW211115   5.481   4.766   6.091
 3406SOL     OW11116   2.138   3.439   2.472
 3406SOL    HW111117   2.129   3.488   2.386
 3406SOL    HW211118   2.110   3.498   2.548
 3407SOL     OW11119   2.797   4.240   0.432
 3407SOL    HW111120   2.783   4.162   0.372
 3407SOL    HW211121   2.828   4.208   0.522
 3408SOL     OW11122   4.310   2.346   4.680
 3408SOL    HW111123   4.301   2.250   4.655
 3408SOL    HW211124   4.223   2.379   4.717
 3409SOL     OW11125   3.325   6.137   0.906
 3409SOL    HW111126   3.401   6.135   0.841
 3409SOL    HW211127   3.242   6.103   0.862
 3410SOL     OW11128   5.661   6.522   3.155
 3410SOL    HW111129   5.595   6.451   3.129
 3410SOL    HW211130   5.696   6.567   3.073
 3411SOL     OW11131   0.128   2.747   0.235
 3411SOL    HW111132   0.146   2.703   0.323
 3411SOL    HW211133   0.110   2.678   0.165
 3412SOL     OW11134   5.084   3.662   1.171
 3412SOL    HW111135   5.140   3.688   1.249
 3412SOL    HW211136   5.067   3.563   1.174
 3413SOL     OW11137   6.299   2.495   0.066
 3413SOL    HW111138   6.367   2.457   0.129
 3413SOL    HW211139   6.239   2.423   0.034
 3414SOL     OW11140   3.763   2.164   5.654
 3414SOL    HW111141   3.728   2.249   5.616
 3414SOL    HW211142   3.692   2.122   5.712
 3415SOL     OW11143   2.222   2.145   3.968
 3415SOL    HW111144   2.227   2.046   3.959
 3415SOL    HW211145   2.296   2.187   3.914
 3416SOL     OW11146   5.930   0.194   6.683
 3416SOL    HW111147   5.945   0.212   6.586
 3416SOL    HW211148   5.848   0.243   6.714
 3417SOL     OW11149   0.212   6.581   2.720
 3417SOL    HW111150   0.209   6.503   2.658
 3417SOL    HW211151   0.293   6.637   2.700
 3418SOL     OW11152   3.805   5.953   3.661
 3418SOL    HW111153   3.898   5.978   3.634
 3418SOL    HW211154   3.740   5.990   3.594
 3419SOL     OW11155   3.930   5.506   5.880
 3419SOL    HW111156   3.854   5.441   5.873
 3419SOL    HW211157   4.001   5.482   5.814
 3420SOL     OW11158   5.540   2.949   4.225
 3420SOL    HW111159   5.490   2.883   4.169
 3420SOL    HW211160   5.560   2.908   4.314
 3421SOL     OW11161   5.543   1.685   3.235
 3421SOL    HW111162   5.504   1.658   3.323
 3421SOL    HW211163   5.641   1.701   3.244
 3422SOL     OW11164   2.397   0.696   0.476
 3422SOL    HW111165   2.381   0.645   0.561
 3422SOL    HW211166   2.459   0.773   0.495
 3423SOL     OW11167   0.594   3.978   5.850
 3423SOL    HW111168   0.597   3.899   5.789
 3423SOL    HW211169   0.500   3.995   5.879
 3424SOL     OW11170   3.326   0.325   1.468
 3424SOL    HW111171   3.347   0.248   1.529
 3424SOL    HW211172   3.256   0.297   1.403
 3425SOL     OW11173   4.367   4.958   2.157
 3425SOL    HW111174   4.467   4.958   2.167
 3425SOL    HW211175   4.331   4.869   2.184
 3426SOL     OW11176   4.995   3.015   0.827
 3426SOL    HW111177   5.016   3.106   0.863
 3426SOL    HW211178   4.991   3.019   0.727
 3427SOL     OW11179   0.674   1.933   2.160
 3427SOL    HW111180   0.577   1.949   2.143
 3427SOL    HW211181   0.686   1.846   2.208
 3428SOL     OW11182   4.706   4.401   6.294
 3428SOL    HW111183   4.751   4.488   6.311
 3428SOL    HW211184   4.760   4.327   6.333
 3429SOL     OW11185   0.616   1.134   1.253
 3429SOL    HW111186   0.572   1.044   1.246
 3429SOL    HW211187   0.702   1.133   1.202
 3430SOL     OW11188   2.276   5.223   6.126
 3430SOL    HW111189   2.236   5.293   6.185
 3430SOL    HW211190   2.262   5.247   6.030
 3431SOL     OW11191   2.174   6.674   2.174
 3431SOL    HW111192   2.217   6.586   2.192
 3431SOL    HW211193   2.075   6.663   2.171
 3432SOL     OW11194   2.103   5.007   6.489
 3432SOL    HW111195   2.026   4.996   6.426
 3432SOL    HW211196   2.189   5.001   6.438
 3433SOL     OW11197   1.881   1.420   6.130
 3433SOL    HW111198   1.855   1.380   6.042
 3433SOL    HW211199   1.837   1.509   6.140
 3434SOL     OW11200   3.071   2.051   1.940
 3434SOL    HW111201   3.037   2.140   1.971
 3434SOL    HW211202   3.000   1.982   1.951
 3435SOL     OW11203   2.605   1.179   7.001
 3435SOL    HW111204   2.564   1.098   0.021
 3435SOL    HW211205   2.580   1.183   6.904
 3436SOL     OW11206   3.774   5.346   0.071
 3436SOL    HW111207   3.789   5.357   0.169
 3436SOL    HW211208   3.803   5.429   0.023
 3437SOL     OW11209   1.436   6.997   5.396
 3437SOL    HW111210   1.510   6.933   5.417
 3437SOL    HW211211   1.420   6.998   5.297
 3438SOL     OW11212   0.496   4.193   1.273
 3438SOL    HW111213   0.534   4.233   1.190
 3438SOL    HW211214   0.521   4.096   1.277
 3439SOL     OW11215   3.444   5.829   3.427
 3439SOL    HW111216   3.435   5.752   3.363
 3439SOL    HW211217   3.376   5.818   3.500
 3440SOL     OW11218   4.080   3.538   3.626
 3440SOL    HW111219   4.086   3.610   3.558
 3440SOL    HW211220   4.109   3.574   3.715
 3441SOL     OW11221   0.614   6.286   6.666
 3441SOL    HW111222   0.574   6.369   6.629
 3441SOL    HW211223   0.629   6.296   6.764
 3442SOL     OW11224   3.333   3.673   0.602
 3442SOL    HW111225   3.275   3.698   0.525
 3442SOL    HW211226   3.312   3.579   0.630
 3443SOL     OW11227   3.482   5.550   2.470
 3443SOL    HW111228   3.511   5.526   2.377
 3443SOL    HW211229   3.388   5.584   2.467
 3444SOL     OW11230   5.136   4.861   1.814
 3444SOL    HW111231   5.091   4.869   1.903
 3444SOL    HW211232   5.083   4.799   1.755
 3445SOL     OW11233   0.332   5.265   3.987
 3445SOL    HW111234   0.424   5.302   3.986
 3445SOL    HW211235   0.298   5.256   3.893
 3446SOL     OW11236   5.707   0.580   1.265
 3446SOL    HW111237   5.608   0.582   1.274
 3446SOL    HW211238   5.749   0.556   1.353
 3447SOL     OW11239   5.420   1.037   0.054
 3447SOL    HW111240   5.352   0.969   0.026
 3447SOL    HW211241   5.497   0.991   0.098
 3448SOL     OW11242   2.351   6.592   5.724
 3448SOL    HW111243   2.256   6.562   5.732
 3448SOL    HW211244   2.407   6.517   5.691
 3449SOL     OW11245   5.843   5.133   5.310
 3449SOL    HW111246   5.904   5.063   5.347
 3449SOL    HW211247   5.754   5.093   5.291
 3450SOL     OW11248   1.333   1.042   6.697
 3450SOL    HW111249   1.267   0.982   6.743
 3450SOL    HW211250   1.391   1.085   6.765
 3451SOL     OW11251   1.658   5.573   0.481
 3451SOL    HW111252   1.665   5.515   0.400
 3451SOL    HW211253   1.564   5.572   0.516
 3452SOL     OW11254   6.123   0.742   5.976
 3452SOL    HW111255   6.054   0.812   5.957
 3452SOL    HW211256   6.101   0.698   6.063
 3453SOL     OW11257   5.194   6.028   6.303
 3453SOL    HW111258   5.188   6.124   6.329
 3453SOL    HW211259   5.117   6.004   6.244
 3454SOL     OW11260   1.364   3.171   3.902
 3454SOL    HW111261   1.272   3.210   3.894
 3454SOL    HW211262   1.402   3.194   3.992
 3455SOL     OW11263   2.655   1.769   4.536
 3455SOL    HW111264   2.680   1.841   4.471
 3455SOL    HW211265   2.737   1.736   4.582
 3456SOL     OW11266   4.414   4.587   2.005
 3456SOL    HW111267   4.451   4.497   1.979
 3456SOL    HW211268   4.391   4.587   2.102
 3457SOL     OW11269   4.064   5.161   5.036
 3457SOL    HW111270   4.025   5.253   5.037
 3457SOL    HW211271   4.140   5.158   4.972
 3458SOL     OW11272   4.711   2.023   2.038
 3458SOL    HW111273   4.753   2.035   1.948
 3458SOL    HW211274   4.783   2.015   2.107
 3459SOL     OW11275   5.243   2.031   3.496
 3459SOL    HW111276   5.191   1.976   3.431
 3459SOL    HW211277   5.340   2.025   3.475
 3460SOL     OW11278   2.781   1.963   5.717
 3460SOL    HW111279   2.860   1.969   5.656
 3460SOL    HW211280   2.792   1.885   5.778
 3461SOL     OW11281   6.136   4.402   6.600
 3461SOL    HW111282   6.103   4.365   6.513
 3461SOL    HW211283   6.154   4.500   6.589
 3462SOL     OW11284   1.326   3.718   5.658
 3462SOL    HW111285   1.404   3.766   5.617
 3462SOL    HW211286   1.275   3.670   5.587
 3463SOL     OW11287   0.706   4.296   1.121
 3463SOL    HW111288   0.795   4.264   1.155
 3463SOL    HW211289   0.674   4.234   1.049
 3464SOL     OW11290   0.380   4.282   6.403
 3464SOL    HW111291   0.426   4.194   6.410
 3464SOL    HW211292   0.427   4.348   6.462
 3465SOL     OW11293   2.357   1.689   2.100
 3465SOL    HW111294   2.311   1.763   2.052
 3465SOL    HW211295   2.439   1.662   2.050
 3466SOL     OW11296   6.811   5.654   6.162
 3466SOL    HW111297   6.780   5.590   6.232
 3466SOL    HW211298   6.733   5.698   6.119
 3467SOL     OW11299   1.617   1.705   6.940
 3467SOL    HW111300   1.591   1.638   7.010
 3467SOL    HW211301   1.539   1.765   6.921
 3468SOL     OW11302   3.177   5.193   2.834
 3468SOL    HW111303   3.188   5.148   2.745
 3468SOL    HW211304   3.084   5.178   2.867
 3469SOL     OW11305   6.306   2.096   4.195
 3469SOL    HW111306   6.261   2.081   4.107
 3469SOL    HW211307   6.283   2.188   4.228
 3470SOL     OW11308   0.539   5.266   0.837
 3470SOL    HW111309   0.469   5.273   0.909
 3470SOL    HW211310   0.557   5.357   0.799
 3471SOL     OW11311   4.382   5.161   5.399
 3471SOL    HW111312   4.382   5.211   5.485
 3471SOL    HW211313   4.349   5.221   5.325
 3472SOL     OW11314   2.552   0.934   3.614
 3472SOL    HW111315   2.535   0.836   3.623
 3472SOL    HW211316   2.635   0.958   3.664
 3473SOL     OW11317   5.615   1.853   6.158
 3473SOL    HW111318   5.518   1.863   6.135
 3473SOL    HW211319   5.666   1.826   6.077
 3474SOL     OW11320   3.053   5.001   1.479
 3474SOL    HW111321   3.122   5.058   1.523
 3474SOL    HW211322   2.965   5.015   1.523
 3475SOL     OW11323   1.403   6.565   4.088
 3475SOL    HW111324   1.312   6.536   4.058
 3475SOL    HW211325   1.465   6.487   4.088
 3476SOL     OW11326   3.502   6.888   4.431
 3476SOL    HW111327   3.587   6.879   4.482
 3476SOL    HW211328   3.513   6.959   4.361
 3477SOL     OW11329   3.355   5.366   1.408
 3477SOL    HW111330   3.399   5.369   1.318
 3477SOL    HW211331   3.380   5.448   1.460
 3478SOL     OW11332   2.566   6.223   5.561
 3478SOL    HW111333   2.476   6.243   5.523
 3478SOL    HW211334   2.612   6.309   5.583
 3479SOL     OW11335   0.656   0.177   3.040
 3479SOL    HW111336   0.644   0.257   3.099
 3479SOL    HW211337   0.606   0.191   2.955
 3480SOL     OW11338   6.778   1.194   4.231
 3480SOL    HW111339   6.759   1.099   4.258
 3480SOL    HW211340   6.803   1.196   4.135
 3481SOL     OW11341   4.458   6.981   6.528
 3481SOL    HW111342   4.556   6.982   6.512
 3481SOL    HW211343   4.440   6.997   6.626
 3482SOL     OW11344   5.559   1.300   1.090
 3482SOL    HW111345   5.572   1.275   1.186
 3482SOL    HW211346   5.618   1.376   1.067
 3483SOL     OW11347   2.829   0.675   1.059
 3483SOL    HW111348   2.764   0.662   0.984
 3483SOL    HW211349   2.834   0.772   1.082
 3484SOL     OW11350   3.015   3.578   2.799
 3484SOL    HW111351   2.946   3.599   2.730
 3484SOL    HW211352   3.100   3.625   2.778
 3485SOL     OW11353   1.454   0.945   4.977
 3485SOL    HW111354   1.372   0.975   5.025
 3485SOL    HW211355   1.535   0.983   5.023
 3486SOL     OW11356   3.835   1.547   2.299
 3486SOL    HW111357   3.883   1.459   2.299
 3486SOL    HW211358   3.798   1.564   2.390
 3487SOL     OW11359   5.437   1.681   6.870
 3487SOL    HW111360   5.472   1.732   6.948
 3487SOL    HW211361   5.514   1.656   6.810
 3488SOL     OW11362   5.687   3.215   4.242
 3488SOL    HW111363   5.643   3.269   4.313
 3488SOL    HW211364   5.654   3.121   4.246
 3489SOL     OW11365   3.364   6.734   0.713
 3489SOL    HW111366   3.282   6.792   0.722
 3489SOL    HW211367   3.428   6.756   0.787
 3490SOL     OW11368   4.542   4.535   0.582
 3490SOL    HW111369   4.519   4.468   0.511
 3490SOL    HW211370   4.468   4.601   0.591
 3491SOL     OW11371   6.958   2.755   6.020
 3491SOL    HW111372   6.888   2.822   5.995
 3491SOL    HW211373   6.997   2.779   6.109
 3492SOL     OW11374   0.918   5.570   0.178
 3492SOL    HW111375   0.884   5.558   0.272
 3492SOL    HW211376   0.859   5.635   0.130
 3493SOL     OW11377   5.620   5.270   0.093
 3493SOL    HW111378   5.588   5.344   0.151
 3493SOL    HW211379   5.633   5.303   7.021
 3494SOL     OW11380   4.278   6.984   0.546
 3494SOL    HW111381   4.260   0.020   0.626
 3494SOL    HW211382   4.314   6.895   0.575
 3495SOL     OW11383   4.166   4.773   2.470
 3495SOL    HW111384   4.246   4.763   2.529
 3495SOL    HW211385   4.188   4.739   2.378
 3496SOL     OW11386   1.120   3.224   1.411
 3496SOL    HW111387   1.096   3.130   1.384
 3496SOL    HW211388   1.062   3.252   1.488
 3497SOL     OW11389   4.069   0.571   2.902
 3497SOL    HW111390   4.085   0.483   2.946
 3497SOL    HW211391   3.971   0.590   2.899
 3498SOL     OW11392   3.093   2.041   0.941
 3498SOL    HW111393   3.099   2.057   0.843
 3498SOL    HW211394   3.086   1.943   0.959
 3499SOL     OW11395   6.744   3.528   4.605
 3499SOL    HW111396   6.737   3.526   4.705
 3499SOL    HW211397   6.695   3.608   4.571
 3500SOL     OW11398   6.626   4.353   6.176
 3500SOL    HW111399   6.569   4.388   6.102
 3500SOL    HW211400   6.698   4.419   6.196
 3501SOL     OW11401   0.215   4.860   4.650
 3501SOL    HW111402   0.140   4.873   4.586
 3501SOL    HW211403   0.279   4.792   4.614
 3502SOL     OW11404   0.420   2.087   2.206
 3502SOL    HW111405   0.430   2.097   2.107
 3502SOL    HW211406   0.341   2.027   2.225
 3503SOL     OW11407   4.759   5.569   5.163
 3503SOL    HW111408   4.696   5.644   5.179
 3503SOL    HW211409   4.831   5.570   5.233
 3504SOL     OW11410   2.812   3.527   1.021
 3504SOL    HW111411   2.811   3.439   1.068
 3504SOL    HW211412   2.728   3.536   0.967
 3505SOL     OW11413   5.143   5.706   5.133
 3505SOL    HW111414   5.231   5.715   5.086
 3505SOL    HW211415   5.137   5.773   5.207
 3506SOL     OW11416   4.171   5.768   5.075
 3506SOL    HW111417   4.262   5.731   5.095
 3506SOL    HW211418   4.167   5.863   5.105
 3507SOL     OW11419   1.606   0.999   6.596
 3507SOL    HW111420   1.611   0.925   6.663
 3507SOL    HW211421   1.519   1.046   6.603
 3508SOL     OW11422   4.728   2.336   0.012
 3508SOL    HW111423   4.694   2.355   6.941
 3508SOL    HW211424   4.760   2.241   0.017
 3509SOL     OW11425   6.159   5.901   6.898
 3509SOL    HW111426   6.236   5.939   6.949
 3509SOL    HW211427   6.141   5.958   6.818
 3510SOL     OW11428   1.886   2.247   2.167
 3510SOL    HW111429   1.824   2.294   2.103
 3510SOL    HW211430   1.839   2.171   2.210
 3511SOL     OW11431   1.497   3.109   6.953
 3511SOL    HW111432   1.440   3.181   6.914
 3511SOL    HW211433   1.573   3.150   7.004
 3512SOL     OW11434   1.005   4.327   0.262
 3512SOL    HW111435   0.912   4.350   0.292
 3512SOL    HW211436   1.018   4.228   0.267
 3513SOL     OW11437   6.232   4.593   0.712
 3513SOL    HW111438   6.249   4.663   0.782
 3513SOL    HW211439   6.220   4.504   0.756
 3514SOL     OW11440   0.392   6.893   1.581
 3514SOL    HW111441   0.435   6.908   1.492
 3514SOL    HW211442   0.321   6.962   1.595
 3515SOL     OW11443   3.231   5.637   2.680
 3515SOL    HW111444   3.155   5.691   2.717
 3515SOL    HW211445   3.223   5.633   2.580
 3516SOL     OW11446   3.399   0.725   0.942
 3516SOL    HW111447   3.369   0.632   0.921
 3516SOL    HW211448   3.352   0.757   1.025
 3517SOL     OW11449   0.548   1.028   0.558
 3517SOL    HW111450   0.644   1.004   0.545
 3517SOL    HW211451   0.494   0.997   0.480
 3518SOL     OW11452   5.205   3.742   6.100
 3518SOL    HW111453   5.277   3.674   6.084
 3518SOL    HW211454   5.122   3.696   6.131
 3519SOL     OW11455   1.051   0.064   6.548
 3519SOL    HW111456   1.127   0.075   6.613
 3519SOL    HW211457   1.087   0.070   6.454
 3520SOL     OW11458   3.687   4.380   1.296
 3520SOL    HW111459   3.780   4.367   1.264
 3520SOL    HW211460   3.673   4.475   1.323
 3521SOL     OW11461   5.221   3.240   1.380
 3521SOL    HW111462   5.172   3.153   1.381
 3521SOL    HW211463   5.220   3.277   1.287
 3522SOL     OW11464   3.073   5.229   1.858
 3522SOL    HW111465   3.021   5.299   1.808
 3522SOL    HW211466   3.082   5.257   1.954
 3523SOL     OW11467   3.064   4.719   5.254
 3523SOL    HW111468   3.008   4.646   5.214
 3523SOL    HW211469   3.133   4.747   5.187
 3524SOL     OW11470   2.575   0.867   0.574
 3524SOL    HW111471   2.506   0.898   0.639
 3524SOL    HW211472   2.658   0.923   0.583
 3525SOL     OW11473   0.343   3.547   1.988
 3525SOL    HW111474   0.417   3.486   2.014
 3525SOL    HW211475   0.258   3.495   1.977
 3526SOL     OW11476   1.498   0.701   3.268
 3526SOL    HW111477   1.417   0.707   3.210
 3526SOL    HW211478   1.478   0.647   3.349
 3527SOL     OW11479   5.155   2.796   6.415
 3527SOL    HW111480   5.249   2.763   6.422
 3527SOL    HW211481   5.151   2.872   6.349
 3528SOL     OW11482   0.905   6.035   3.183
 3528SOL    HW111483   0.974   5.996   3.244
 3528SOL    HW211484   0.924   6.132   3.169
 3529SOL     OW11485   3.961   6.497   5.583
 3529SOL    HW111486   4.021   6.417   5.588
 3529SOL    HW211487   3.987   6.554   5.505
 3530SOL     OW11488   2.874   6.023   2.783
 3530SOL    HW111489   2.846   5.959   2.711
 3530SOL    HW211490   2.930   6.096   2.744
 3531SOL     OW11491   5.495   4.095   0.378
 3531SOL    HW111492   5.582   4.139   0.356
 3531SOL    HW211493   5.440   4.156   0.435
 3532SOL     OW11494   2.445   0.832   6.838
 3532SOL    HW111495   2.492   0.904   6.889
 3532SOL    HW211496   2.505   0.752   6.831
 3533SOL     OW11497   0.964   2.195   3.285
 3533SOL    HW111498   0.985   2.251   3.366
 3533SOL    HW211499   1.045   2.146   3.256
 3534SOL     OW11500   6.085   1.769   5.124
 3534SOL    HW111501   6.064   1.695   5.060
 3534SOL    HW211502   6.170   1.814   5.097
 3535SOL     OW11503   6.733   5.851   6.911
 3535SOL    HW111504   6.722   5.844   6.811
 3535SOL    HW211505   6.687   5.774   6.955
 3536SOL     OW11506   1.472   3.451   3.308
 3536SOL    HW111507   1.398   3.492   3.254
 3536SOL    HW211508   1.443   3.363   3.344
 3537SOL     OW11509   2.741   5.086   0.913
 3537SOL    HW111510   2.714   5.173   0.955
 3537SOL    HW211511   2.835   5.094   0.879
 3538SOL     OW11512   3.258   0.657   3.959
 3538SOL    HW111513   3.237   0.747   3.922
 3538SOL    HW211514   3.309   0.667   4.044
 3539SOL     OW11515   6.009   3.426   5.230
 3539SOL    HW111516   5.993   3.331   5.259
 3539SOL    HW211517   5.995   3.433   5.132
 3540SOL     OW11518   1.932   3.364   6.865
 3540SOL    HW111519   1.879   3.290   6.824
 3540SOL    HW211520   1.882   3.402   6.943
 3541SOL     OW11521   2.591   2.680   0.058
 3541SOL    HW111522   2.507   2.646   0.101
 3541SOL    HW211523   2.576   2.773   0.023
 3542SOL     OW11524   5.675   2.603   0.246
 3542SOL    HW111525   5.773   2.593   0.229
 3542SOL    HW211526   5.661   2.647   0.335
 3543SOL     OW11527   1.345   3.256   3.417
 3543SOL    HW111528   1.345   3.156   3.412
 3543SOL    HW211529   1.277   3.286   3.485
 3544SOL     OW11530   3.234   4.390   6.947
 3544SOL    HW111531   3.244   4.315   6.882
 3544SOL    HW211532   3.315   4.393   7.007
 3545SOL     OW11533   3.632   5.335   0.585
 3545SOL    HW111534   3.535   5.319   0.604
 3545SOL    HW211535   3.676   5.249   0.560
 3546SOL     OW11536   6.553   4.415   3.191
 3546SOL    HW111537   6.632   4.467   3.160
 3546SOL    HW211538   6.473   4.439   3.135
 3547SOL     OW11539   6.696   3.090   4.704
 3547SOL    HW111540   6.733   3.160   4.642
 3547SOL    HW211541   6.770   3.026   4.729
 3548SOL     OW11542   4.951   1.245   5.954
 3548SOL    HW111543   4.943   1.263   6.052
 3548SOL    HW211544   4.893   1.309   5.903
 3549SOL     OW11545   2.089   5.271   6.539
 3549SOL    HW111546   2.095   5.171   6.544
 3549SOL    HW211547   1.993   5.298   6.548
 3550SOL     OW11548   5.186   2.157   5.011
 3550SOL    HW111549   5.145   2.106   4.935
 3550SOL    HW211550   5.115   2.212   5.055
 3551SOL     OW11551   3.381   1.942   5.044
 3551SOL    HW111552   3.319   1.876   5.085
 3551SOL    HW211553   3.387   2.023   5.102
 3552SOL     OW11554   6.250   5.423   1.626
 3552SOL    HW111555   6.201   5.344   1.588
 3552SOL    HW211556   6.348   5.405   1.626
 3553SOL     OW11557   3.267   6.039   6.507
 3553SOL    HW111558   3.324   6.031   6.588
 3553SOL    HW211559   3.293   6.121   6.456
 3554SOL     OW11560   3.440   3.826   1.045
 3554SOL    HW111561   3.412   3.879   1.125
 3554SOL    HW211562   3.535   3.848   1.022
 3555SOL     OW11563   1.818   2.253   4.637
 3555SOL    HW111564   1.889   2.190   4.604
 3555SOL    HW211565   1.729   2.222   4.606
 3556SOL     OW11566   3.444   1.042   4.796
 3556SOL    HW111567   3.536   1.028   4.760
 3556SOL    HW211568   3.386   1.084   4.726
 3557SOL     OW11569   0.422   0.623   2.619
 3557SOL    HW111570   0.350   0.676   2.663
 3557SOL    HW211571   0.495   0.603   2.685
 3558SOL     OW11572   2.429   6.189   0.582
 3558SOL    HW111573   2.367   6.224   0.653
 3558SOL    HW211574   2.381   6.119   0.528
 3559SOL     OW11575   2.730   6.478   4.923
 3559SOL    HW111576   2.656   6.457   4.987
 3559SOL    HW211577   2.733   6.577   4.907
 3560SOL     OW11578   1.766   4.895   4.317
 3560SOL    HW111579   1.852   4.943   4.328
 3560SOL    HW211580   1.710   4.908   4.399
 3561SOL     OW11581   6.008   4.112   5.346
 3561SOL    HW111582   5.934   4.133   5.283
 3561SOL    HW211583   6.008   4.179   5.421
 3562SOL     OW11584   3.072   1.630   4.241
 3562SOL    HW111585   3.105   1.544   4.280
 3562SOL    HW211586   3.014   1.611   4.162
 3563SOL     OW11587   6.130   2.403   6.360
 3563SOL    HW111588   6.101   2.330   6.298
 3563SOL    HW211589   6.230   2.404   6.366
 3564SOL     OW11590   0.400   4.922   2.865
 3564SOL    HW111591   0.364   5.000   2.917
 3564SOL    HW211592   0.494   4.904   2.894
 3565SOL     OW11593   3.511   4.936   2.749
 3565SOL    HW111594   3.609   4.921   2.761
 3565SOL    HW211595   3.481   4.894   2.663
 3566SOL     OW11596   6.797   0.866   5.523
 3566SOL    HW111597   6.800   0.907   5.432
 3566SOL    HW211598   6.714   0.894   5.570
 3567SOL     OW11599   0.544   3.135   6.243
 3567SOL    HW111600   0.534   3.058   6.180
 3567SOL    HW211601   0.588   3.104   6.327
 3568SOL     OW11602   6.682   3.881   5.820
 3568SOL    HW111603   6.631   3.813   5.766
 3568SOL    HW211604   6.734   3.834   5.891
 3569SOL     OW11605   1.983   1.696   5.640
 3569SOL    HW111606   1.946   1.685   5.548
 3569SOL    HW211607   1.912   1.732   5.701
 3570SOL     OW11608   5.345   0.529   5.731
 3570SOL    HW111609   5.431   0.567   5.696
 3570SOL    HW211610   5.364   0.463   5.803
 3571SOL     OW11611   0.160   5.937   0.082
 3571SOL    HW111612   0.230   5.929   0.012
 3571SOL    HW211613   0.080   5.883   0.057
 3572SOL     OW11614   5.480   4.016   4.143
 3572SOL    HW111615   5.413   4.090   4.147
 3572SOL    HW211616   5.505   3.987   4.235
 3573SOL     OW11617   0.512   4.046   4.013
 3573SOL    HW111618   0.412   4.048   4.005
 3573SOL    HW211619   0.537   4.051   4.109
 3574SOL     OW11620   0.485   4.785   0.092
 3574SOL    HW111621   0.545   4.780   0.171
 3574SOL    HW211622   0.539   4.772   0.008
 3575SOL     OW11623   5.532   5.439   3.364
 3575SOL    HW111624   5.547   5.384   3.447
 3575SOL    HW211625   5.436   5.435   3.339
 3576SOL     OW11626   1.521   1.642   5.758
 3576SOL    HW111627   1.537   1.680   5.667
 3576SOL    HW211628   1.483   1.550   5.749
 3577SOL     OW11629   1.296   2.601   6.520
 3577SOL    HW111630   1.233   2.614   6.597
 3577SOL    HW211631   1.321   2.691   6.483
 3578SOL     OW11632   3.724   3.553   6.669
 3578SOL    HW111633   3.732   3.634   6.611
 3578SOL    HW211634   3.744   3.471   6.616
 3579SOL     OW11635   0.240   3.944   4.493
 3579SOL    HW111636   0.162   3.893   4.457
 3579SOL    HW211637   0.220   3.977   4.585
 3580SOL     OW11638   6.075   1.538   0.832
 3580SOL    HW111639   6.078   1.556   0.931
 3580SOL    HW211640   6.159   1.572   0.790
 3581SOL     OW11641   6.551   0.456   3.853
 3581SOL    HW111642   6.646   0.432   3.833
 3581SOL    HW211643   6.491   0.381   3.824
 3582SOL     OW11644   0.684   2.499   6.519
 3582SOL    HW111645   0.754   2.442   6.562
 3582SOL    HW211646   0.721   2.540   6.435
 3583SOL     OW11647   0.738   4.002   6.674
 3583SOL    HW111648   0.663   3.991   6.608
 3583SOL    HW211649   0.703   4.043   6.757
 3584SOL     OW11650   6.253   5.944   6.204
 3584SOL    HW111651   6.228   6.014   6.270
 3584SOL    HW211652   6.343   5.907   6.228
 3585SOL     OW11653   3.421   5.126   5.994
 3585SOL    HW111654   3.370   5.098   6.075
 3585SOL    HW211655   3.380   5.208   5.956
 3586SOL     OW11656   6.737   2.581   5.555
 3586SOL    HW111657   6.678   2.659   5.535
 3586SOL    HW211658   6.808   2.609   5.620
 3587SOL     OW11659   2.620   5.669   0.300
 3587SOL    HW111660   2.639   5.764   0.275
 3587SOL    HW211661   2.681   5.642   0.375
 3588SOL     OW11662   0.944   2.969   5.614
 3588SOL    HW111663   0.987   2.881   5.633
 3588SOL    HW211664   0.984   3.008   5.531
 3589SOL     OW11665   3.660   0.939   4.192
 3589SOL    HW111666   3.606   1.023   4.184
 3589SOL    HW211667   3.623   0.883   4.267
 3590SOL     OW11668   0.109   4.342   6.347
 3590SOL    HW111669   0.205   4.318   6.358
 3590SOL    HW211670   0.055   4.259   6.335
 3591SOL     OW11671   4.921   3.441   6.607
 3591SOL    HW111672   5.003   3.497   6.622
 3591SOL    HW211673   4.863   3.445   6.688
 3592SOL     OW11674   5.513   3.727   3.419
 3592SOL    HW111675   5.494   3.716   3.322
 3592SOL    HW211676   5.429   3.711   3.471
 3593SOL     OW11677   2.388   6.183   4.544
 3593SOL    HW111678   2.399   6.282   4.557
 3593SOL    HW211679   2.307   6.166   4.488
 3594SOL     OW11680   4.019   1.043   2.259
 3594SOL    HW111681   4.108   1.009   2.228
 3594SOL    HW211682   3.970   0.970   2.306
 3595SOL     OW11683   2.136   6.294   6.080
 3595SOL    HW111684   2.216   6.347   6.053
 3595SOL    HW211685   2.136   6.284   6.180
 3596SOL     OW11686   6.902   1.399   2.874
 3596SOL    HW111687   6.969   1.456   2.825
 3596SOL    HW211688   6.817   1.449   2.884
 3597SOL     OW11689   2.955   6.223   5.050
 3597SOL    HW111690   3.017   6.293   5.013
 3597SOL    HW211691   2.871   6.267   5.082
 3598SOL     OW11692   1.384   0.466   5.786
 3598SOL    HW111693   1.376   0.566   5.789
 3598SOL    HW211694   1.396   0.432   5.880
 3599SOL     OW11695   0.775   1.913   5.843
 3599SOL    HW111696   0.823   1.944   5.925
 3599SOL    HW211697   0.841   1.902   5.769
 3600SOL     OW11698   6.949   3.830   0.781
 3600SOL    HW111699   6.963   3.804   0.686
 3600SOL    HW211700   6.889   3.763   0.826
 3601SOL     OW11701   6.404   3.960   0.785
 3601SOL    HW111702   6.370   3.894   0.718
 3601SOL    HW211703   6.496   3.933   0.815
 3602SOL     OW11704   1.899   1.316   1.147
 3602SOL    HW111705   1.979   1.287   1.198
 3602SOL    HW211706   1.910   1.411   1.117
 3603SOL     OW11707   3.516   6.303   3.874
 3603SOL    HW111708   3.558   6.314   3.784
 3603SOL    HW211709   3.500   6.394   3.914
 3604SOL     OW11710   6.754   4.137   3.946
 3604SOL    HW111711   6.735   4.235   3.940
 3604SOL    HW211712   6.743   4.095   3.856
 3605SOL     OW11713   6.022   4.614   5.818
 3605SOL    HW111714   6.033   4.518   5.845
 3605SOL    HW211715   5.929   4.627   5.783
 3606SOL     OW11716   6.590   4.766   5.673
 3606SOL    HW111717   6.655   4.720   5.613
 3606SOL    HW211718   6.584   4.863   5.649
 3607SOL     OW11719   5.166   6.451   1.026
 3607SOL    HW111720   5.225   6.429   1.104
 3607SOL    HW211721   5.134   6.367   0.983
 3608SOL     OW11722   6.738   1.876   2.283
 3608SOL    HW111723   6.653   1.831   2.310
 3608SOL    HW211724   6.806   1.806   2.259
 3609SOL     OW11725   0.305   0.693   4.435
 3609SOL    HW111726   0.369   0.728   4.504
 3609SOL    HW211727   0.264   0.608   4.467
 3610SOL     OW11728   0.811   0.444   5.348
 3610SOL    HW111729   0.845   0.427   5.440
 3610SOL    HW211730   0.857   0.524   5.309
 3611SOL     OW11731   3.740   4.624   5.534
 3611SOL    HW111732   3.676   4.695   5.564
 3611SOL    HW211733   3.815   4.667   5.483
 3612SOL     OW11734   6.726   0.130   5.628
 3612SOL    HW111735   6.779   0.169   5.704
 3612SOL    HW211736   6.629   0.131   5.651
 3613SOL     OW11737   5.435   5.153   1.322
 3613SOL    HW111738   5.339   5.166   1.298
 3613SOL    HW211739   5.493   5.176   1.244
 3614SOL     OW11740   3.738   3.228   3.760
 3614SOL    HW111741   3.812   3.184   3.811
 3614SOL    HW211742   3.765   3.322   3.737
 3615SOL     OW11743   5.918   6.486   6.125
 3615SOL    HW111744   5.919   6.542   6.208
 3615SOL    HW211745   5.892   6.392   6.149
 3616SOL     OW11746   6.946   1.475   6.437
 3616SOL    HW111747   6.936   1.377   6.420
 3616SOL    HW211748   6.856   1.518   6.441
 3617SOL     OW11749   5.264   1.382   6.197
 3617SOL    HW111750   5.360   1.356   6.198
 3617SOL    HW211751   5.215   1.331   6.269
 3618SOL     OW11752   1.581   1.961   5.752
 3618SOL    HW111753   1.560   1.976   5.849
 3618SOL    HW211754   1.680   1.970   5.738
 3619SOL     OW11755   6.307   2.226   3.504
 3619SOL    HW111756   6.401   2.225   3.538
 3619SOL    HW211757   6.288   2.315   3.461
 3620SOL     OW11758   5.967   5.561   5.518
 3620SOL    HW111759   5.873   5.535   5.540
 3620SOL    HW211760   6.009   5.490   5.462
 3621SOL     OW11761   2.550   2.103   5.713
 3621SOL    HW111762   2.634   2.051   5.696
 3621SOL    HW211763   2.528   2.158   5.632
 3622SOL     OW11764   2.519   2.209   3.147
 3622SOL    HW111765   2.493   2.215   3.244
 3622SOL    HW211766   2.551   2.116   3.127
 3623SOL     OW11767   5.871   5.727   4.140
 3623SOL    HW111768   5.962   5.744   4.179
 3623SOL    HW211769   5.877   5.728   4.041
 3624SOL     OW11770   2.273   6.757   2.425
 3624SOL    HW111771   2.180   6.747   2.459
 3624SOL    HW211772   2.274   6.745   2.326
 3625SOL     OW11773   6.212   3.273   6.976
 3625SOL    HW111774   6.246   3.180   6.987
 3625SOL    HW211775   6.120   3.270   6.937
 3626SOL     OW11776   1.636   3.801   5.294
 3626SOL    HW111777   1.589   3.724   5.337
 3626SOL    HW211778   1.715   3.767   5.244
 3627SOL     OW11779   3.857   2.954   3.589
 3627SOL    HW111780   3.932   3.019   3.590
 3627SOL    HW211781   3.861   2.900   3.505
 3628SOL     OW11782   1.889   0.066   1.584
 3628SOL    HW111783   1.896   0.065   1.683
 3628SOL    HW211784   1.977   0.089   1.544
 3629SOL     OW11785   6.008   2.398   4.311
 3629SOL    HW111786   6.063   2.434   4.236
 3629SOL    HW211787   6.020   2.299   4.317
 3630SOL     OW11788   5.558   2.926   3.256
 3630SOL    HW111789   5.590   2.988   3.184
 3630SOL    HW211790   5.618   2.935   3.336
 3631SOL     OW11791   2.036   0.003   3.724
 3631SOL    HW111792   2.003   0.031   3.814
 3631SOL    HW211793   2.012   0.073   3.656
 3632SOL     OW11794   4.864   0.339   0.376
 3632SOL    HW111795   4.898   0.383   0.293
 3632SOL    HW211796   4.888   0.395   0.455
 3633SOL     OW11797   3.016   1.426   6.049
 3633SOL    HW111798   3.046   1.399   5.958
 3633SOL    HW211799   2.919   1.452   6.046
 3634SOL     OW11800   0.539   5.544   5.565
 3634SOL    HW111801   0.525   5.488   5.646
 3634SOL    HW211802   0.605   5.616   5.585
 3635SOL     OW11803   2.749   0.117   5.700
 3635SOL    HW111804   2.651   0.098   5.706
 3635SOL    HW211805   2.764   0.190   5.634
 3636SOL     OW11806   0.966   6.152   6.374
 3636SOL    HW111807   1.029   6.189   6.442
 3636SOL    HW211808   1.005   6.069   6.335
 3637SOL     OW11809   6.635   2.084   1.658
 3637SOL    HW111810   6.638   2.004   1.598
 3637SOL    HW211811   6.693   2.156   1.620
 3638SOL     OW11812   0.188   4.278   4.510
 3638SOL    HW111813   0.222   4.272   4.604
 3638SOL    HW211814   0.264   4.268   4.446
 3639SOL     OW11815   3.873   3.955   0.828
 3639SOL    HW111816   3.808   3.912   0.766
 3639SOL    HW211817   3.966   3.939   0.796
 3640SOL     OW11818   3.660   6.923   6.706
 3640SOL    HW111819   3.720   6.996   6.737
 3640SOL    HW211820   3.574   6.962   6.673
 3641SOL     OW11821   4.815   2.829   4.181
 3641SOL    HW111822   4.823   2.757   4.249
 3641SOL    HW211823   4.739   2.809   4.119
 3642SOL     OW11824   4.708   0.913   0.156
 3642SOL    HW111825   4.644   0.941   0.227
 3642SOL    HW211826   4.755   0.993   0.119
 3643SOL     OW11827   2.865   5.493   5.042
 3643SOL    HW111828   2.916   5.493   5.128
 3643SOL    HW211829   2.923   5.458   4.968
 3644SOL     OW11830   6.839   1.307   1.370
 3644SOL    HW111831   6.851   1.349   1.460
 3644SOL    HW211832   6.800   1.215   1.381
 3645SOL     OW11833   6.445   1.320   3.994
 3645SOL    HW111834   6.459   1.334   3.896
 3645SOL    HW211835   6.348   1.309   4.012
 3646SOL     OW11836   6.772   4.589   6.259
 3646SOL    HW111837   6.752   4.682   6.229
 3646SOL    HW211838   6.819   4.591   6.347
 3647SOL     OW11839   2.220   3.357   0.129
 3647SOL    HW111840   2.273   3.399   0.056
 3647SOL    HW211841   2.177   3.427   0.185
 3648SOL     OW11842   3.056   5.450   3.082
 3648SOL    HW111843   3.150   5.431   3.110
 3648SOL    HW211844   3.055   5.529   3.021
 3649SOL     OW11845   4.797   3.083   1.691
 3649SOL    HW111846   4.703   3.059   1.714
 3649SOL    HW211847   4.848   3.105   1.774
 3650SOL     OW11848   0.173   5.359   6.904
 3650SOL    HW111849   0.227   5.406   6.974
 3650SOL    HW211850   0.204   5.265   6.895
 3651SOL     OW11851   0.471   6.432   3.188
 3651SOL    HW111852   0.384   6.453   3.234
 3651SOL    HW211853   0.454   6.418   3.090
 3652SOL     OW11854   5.826   6.023   3.269
 3652SOL    HW111855   5.906   5.996   3.215
 3652SOL    HW211856   5.830   6.121   3.287
 3653SOL     OW11857   6.850   0.413   3.294
 3653SOL    HW111858   6.933   0.439   3.245
 3653SOL    HW211859   6.790   0.492   3.301
 3654SOL     OW11860   2.186   6.823   0.406
 3654SOL    HW111861   2.282   6.800   0.394
 3654SOL    HW211862   2.163   6.821   0.504
 3655SOL     OW11863   1.283   0.101   3.708
 3655SOL    HW111864   1.291   0.009   3.671
 3655SOL    HW211865   1.355   0.116   3.776
 3656SOL     OW11866   1.336   3.336   1.969
 3656SOL    HW111867   1.342   3.302   2.063
 3656SOL    HW211868   1.406   3.405   1.954
 3657SOL     OW11869   4.985   5.677   6.135
 3657SOL    HW111870   4.935   5.599   6.173
 3657SOL    HW211871   4.995   5.666   6.036
 3658SOL     OW11872   1.604   5.986   3.701
 3658SOL    HW111873   1.641   6.068   3.657
 3658SOL    HW211874   1.679   5.923   3.722
 3659SOL     OW11875   2.477   3.312   5.681
 3659SOL    HW111876   2.439   3.257   5.607
 3659SOL    HW211877   2.562   3.355   5.650
 3660SOL     OW11878   4.742   6.981   2.779
 3660SOL    HW111879   4.748   0.039   2.719
 3660SOL    HW211880   4.743   7.012   2.875
 3661SOL     OW11881   4.775   1.727   6.007
 3661SOL    HW111882   4.852   1.665   6.018
 3661SOL    HW211883   4.796   1.815   6.049
 3662SOL     OW11884   4.917   0.961   3.259
 3662SOL    HW111885   4.894   1.004   3.346
 3662SOL    HW211886   4.902   0.862   3.266
 3663SOL     OW11887   2.097   1.993   0.738
 3663SOL    HW111888   2.059   1.993   0.831
 3663SOL    HW211889   2.035   2.044   0.678
 3664SOL     OW11890   4.514   2.293   1.163
 3664SOL    HW111891   4.440   2.229   1.140
 3664SOL    HW211892   4.557   2.265   1.248
 3665SOL     OW11893   1.295   6.060   5.884
 3665SOL    HW111894   1.386   6.099   5.871
 3665SOL    HW211895   1.288   5.974   5.834
 3666SOL     OW11896   2.041   3.725   2.962
 3666SOL    HW111897   1.993   3.649   2.919
 3666SOL    HW211898   2.067   3.792   2.892
 3667SOL     OW11899   6.751   0.825   0.596
 3667SOL    HW111900   6.848   0.814   0.616
 3667SOL    HW211901   6.728   0.923   0.597
 3668SOL     OW11902   1.632   0.577   2.136
 3668SOL    HW111903   1.708   0.639   2.117
 3668SOL    HW211904   1.571   0.619   2.204
 3669SOL     OW11905   6.010   1.100   4.103
 3669SOL    HW111906   6.042   1.194   4.087
 3669SOL    HW211907   6.088   1.043   4.127
 3670SOL     OW11908   2.620   4.107   0.636
 3670SOL    HW111909   2.673   4.126   0.719
 3670SOL    HW211910   2.651   4.167   0.562
 3671SOL     OW11911   6.378   0.184   4.080
 3671SOL    HW111912   6.298   0.156   4.133
 3671SOL    HW211913   6.352   0.196   3.984
 3672SOL     OW11914   5.322   1.598   1.137
 3672SOL    HW111915   5.315   1.517   1.079
 3672SOL    HW211916   5.284   1.677   1.090
 3673SOL     OW11917   3.787   0.070   5.707
 3673SOL    HW111918   3.747   0.034   5.791
 3673SOL    HW211919   3.887   0.064   5.712
 3674SOL     OW11920   0.342   0.190   4.709
 3674SOL    HW111921   0.427   0.150   4.744
 3674SOL    HW211922   0.264   0.137   4.743
 3675SOL     OW11923   1.849   3.119   4.841
 3675SOL    HW111924   1.948   3.130   4.851
 3675SOL    HW211925   1.806   3.209   4.839
 3676SOL     OW11926   4.577   4.883   4.819
 3676SOL    HW111927   4.542   4.893   4.912
 3676SOL    HW211928   4.535   4.803   4.776
 3677SOL     OW11929   1.799   6.867   3.488
 3677SOL    HW111930   1.766   6.919   3.566
 3677SOL    HW211931   1.818   6.773   3.516
 3678SOL     OW11932   1.025   3.698   3.573
 3678SOL    HW111933   0.967   3.707   3.492
 3678SOL    HW211934   0.980   3.641   3.641
 3679SOL     OW11935   1.938   0.740   3.200
 3679SOL    HW111936   1.917   0.692   3.115
 3679SOL    HW211937   2.034   0.769   3.199
 3680SOL     OW11938   5.778   1.999   3.498
 3680SOL    HW111939   5.810   2.092   3.483
 3680SOL    HW211940   5.776   1.980   3.597
 3681SOL     OW11941   0.818   0.817   4.724
 3681SOL    HW111942   0.842   0.721   4.710
 3681SOL    HW211943   0.864   0.873   4.655
 3682SOL     OW11944   5.483   2.592   6.774
 3682SOL    HW111945   5.408   2.531   6.748
 3682SOL    HW211946   5.471   2.622   6.869
 3683SOL     OW11947   6.854   6.566   3.861
 3683SOL    HW111948   6.896   6.653   3.835
 3683SOL    HW211949   6.758   6.565   3.833
 3684SOL     OW11950   1.688   3.518   6.907
 3684SOL    HW111951   1.717   3.541   6.813
 3684SOL    HW211952   1.633   3.593   6.943
 3685SOL     OW11953   6.412   6.680   6.555
 3685SOL    HW111954   6.433   6.741   6.478
 3685SOL    HW211955   6.498   6.645   6.593
 3686SOL     OW11956   6.700   5.910   3.665
 3686SOL    HW111957   6.656   5.953   3.744
 3686SOL    HW211958   6.632   5.892   3.595
 3687SOL     OW11959   3.651   6.320   5.956
 3687SOL    HW111960   3.600   6.311   6.041
 3687SOL    HW211961   3.721   6.391   5.966
 3688SOL     OW11962   0.711   3.464   6.492
 3688SOL    HW111963   0.736   3.370   6.512
 3688SOL    HW211964   0.672   3.469   6.399
 3689SOL     OW11965   1.671   0.800   6.785
 3689SOL    HW111966   1.706   0.723   6.732
 3689SOL    HW211967   1.744   0.836   6.844
 3690SOL     OW11968   4.363   0.215   6.044
 3690SOL    HW111969   4.357   0.209   6.144
 3690SOL    HW211970   4.289   0.273   6.010
 3691SOL     OW11971   2.737   2.185   0.201
 3691SOL    HW111972   2.788   2.262   0.240
 3691SOL    HW211973   2.648   2.177   0.247
 3692SOL     OW11974   0.601   6.121   4.964
 3692SOL    HW111975   0.601   6.037   5.018
 3692SOL    HW211976   0.685   6.125   4.910
 3693SOL     OW11977   2.322   2.846   2.868
 3693SOL    HW111978   2.299   2.880   2.959
 3693SOL    HW211979   2.270   2.896   2.799
 3694SOL     OW11980   1.947   5.674   3.116
 3694SOL    HW111981   1.987   5.650   3.027
 3694SOL    HW211982   1.863   5.621   3.130
 3695SOL     OW11983   6.165   2.659   2.735
 3695SOL    HW111984   6.215   2.722   2.676
 3695SOL    HW211985   6.165   2.568   2.694
 3696SOL     OW11986   3.511   5.859   5.140
 3696SOL    HW111987   3.560   5.933   5.094
 3696SOL    HW211988   3.413   5.867   5.120
 3697SOL     OW11989   0.302   5.915   3.023
 3697SOL    HW111990   0.271   5.992   3.078
 3697SOL    HW211991   0.225   5.854   3.004
 3698SOL     OW11992   2.912   6.597   5.141
 3698SOL    HW111993   2.902   6.656   5.060
 3698SOL    HW211994   2.992   6.537   5.129
 3699SOL     OW11995   6.890   3.361   3.011
 3699SOL    HW111996   6.925   3.393   2.923
 3699SOL    HW211997   6.871   3.263   3.006
 3700SOL     OW11998   0.293   0.470   4.802
 3700SOL    HW111999   0.284   0.382   4.755
 3700SOL    HW212000   0.201   0.506   4.821
 3701SOL     OW12001   0.668   0.826   3.333
 3701SOL    HW112002   0.621   0.883   3.400
 3701SOL    HW212003   0.724   0.758   3.380
 3702SOL     OW12004   5.673   6.376   2.431
 3702SOL    HW112005   5.636   6.323   2.508
 3702SOL    HW212006   5.654   6.327   2.346
 3703SOL     OW12007   4.839   2.193   6.727
 3703SOL    HW112008   4.774   2.137   6.675
 3703SOL    HW212009   4.796   2.279   6.753
 3704SOL     OW12010   3.096   1.037   1.733
 3704SOL    HW112011   3.152   0.954   1.725
 3704SOL    HW212012   3.078   1.074   1.641
 3705SOL     OW12013   5.244   5.615   3.983
 3705SOL    HW112014   5.158   5.667   3.974
 3705SOL    HW212015   5.319   5.678   3.999
 3706SOL     OW12016   1.198   3.393   5.168
 3706SOL    HW112017   1.295   3.417   5.175
 3706SOL    HW212018   1.184   3.331   5.090
 3707SOL     OW12019   6.161   3.515   5.431
 3707SOL    HW112020   6.094   3.496   5.359
 3707SOL    HW212021   6.219   3.592   5.403
 3708SOL     OW12022   6.478   0.640   5.971
 3708SOL    HW112023   6.515   0.704   6.039
 3708SOL    HW212024   6.437   0.562   6.018
 3709SOL     OW12025   3.921   0.629   0.193
 3709SOL    HW112026   3.897   0.585   0.279
 3709SOL    HW212027   4.008   0.593   0.159
 3710SOL     OW12028   0.092   6.000   0.528
 3710SOL    HW112029   0.008   5.971   0.482
 3710SOL    HW212030   0.143   6.062   0.469
 3711SOL     OW12031   6.766   6.477   2.110
 3711SOL    HW112032   6.830   6.486   2.187
 3711SOL    HW212033   6.811   6.504   2.025
 3712SOL     OW12034   6.514   6.367   6.926
 3712SOL    HW112035   6.438   6.332   6.871
 3712SOL    HW212036   6.590   6.301   6.924
 3713SOL     OW12037   1.822   6.209   4.449
 3713SOL    HW112038   1.761   6.192   4.527
 3713SOL    HW212039   1.881   6.129   4.436
 3714SOL     OW12040   4.880   5.292   5.471
 3714SOL    HW112041   4.962   5.274   5.416
 3714SOL    HW212042   4.867   5.391   5.480
 3715SOL     OW12043   6.009   4.014   3.710
 3715SOL    HW112044   5.913   4.024   3.682
 3715SOL    HW212045   6.029   3.918   3.726
 3716SOL     OW12046   5.908   6.508   5.436
 3716SOL    HW112047   5.809   6.496   5.446
 3716SOL    HW212048   5.935   6.594   5.480
 3717SOL     OW12049   5.600   5.453   6.073
 3717SOL    HW112050   5.657   5.531   6.048
 3717SOL    HW212051   5.504   5.475   6.057
 3718SOL     OW12052   2.168   0.412   6.233
 3718SOL    HW112053   2.134   0.471   6.159
 3718SOL    HW212054   2.251   0.366   6.202
 3719SOL     OW12055   5.699   4.786   1.202
 3719SOL    HW112056   5.779   4.743   1.160
 3719SOL    HW212057   5.721   4.880   1.227
 3720SOL     OW12058   6.290   2.091   5.456
 3720SOL    HW112059   6.255   2.176   5.494
 3720SOL    HW212060   6.360   2.054   5.518
 3721SOL     OW12061   5.174   4.773   1.499
 3721SOL    HW112062   5.125   4.731   1.422
 3721SOL    HW212063   5.195   4.702   1.567
 3722SOL     OW12064   6.195   6.868   2.281
 3722SOL    HW112065   6.274   6.897   2.226
 3722SOL    HW212066   6.112   6.876   2.227
 3723SOL     OW12067   6.029   6.593   2.024
 3723SOL    HW112068   6.048   6.520   2.090
 3723SOL    HW212069   6.100   6.662   2.030
 3724SOL     OW12070   1.928   4.955   6.046
 3724SOL    HW112071   1.995   4.995   5.983
 3724SOL    HW212072   1.836   4.984   6.019
 3725SOL     OW12073   5.304   5.600   0.688
 3725SOL    HW112074   5.319   5.644   0.777
 3725SOL    HW212075   5.335   5.660   0.615
 3726SOL     OW12076   6.581   5.713   0.528
 3726SOL    HW112077   6.504   5.680   0.582
 3726SOL    HW212078   6.551   5.785   0.466
 3727SOL     OW12079   0.042   2.842   6.242
 3727SOL    HW112080   0.130   2.849   6.195
 3727SOL    HW212081   0.056   2.843   6.341
 3728SOL     OW12082   1.433   3.831   0.254
 3728SOL    HW112083   1.376   3.783   0.187
 3728SOL    HW212084   1.442   3.927   0.228
 3729SOL     OW12085   1.447   2.307   3.662
 3729SOL    HW112086   1.464   2.238   3.733
 3729SOL    HW212087   1.349   2.326   3.658
 3730SOL     OW12088   2.653   5.363   6.418
 3730SOL    HW112089   2.583   5.382   6.349
 3730SOL    HW212090   2.739   5.340   6.372
 3731SOL     OW12091   4.379   0.101   0.883
 3731SOL    HW112092   4.303   0.108   0.817
 3731SOL    HW212093   4.374   0.178   0.947
 3732SOL     OW12094   1.369   2.338   6.508
 3732SOL    HW112095   1.354   2.426   6.553
 3732SOL    HW212096   1.398   2.271   6.577
 3733SOL     OW12097   1.518   3.524   1.574
 3733SOL    HW112098   1.438   3.495   1.522
 3733SOL    HW212099   1.518   3.479   1.664
 3734SOL     OW12100   4.337   1.381   1.710
 3734SOL    HW112101   4.425   1.346   1.676
 3734SOL    HW212102   4.350   1.419   1.802
 3735SOL     OW12103   2.071   0.919   3.464
 3735SOL    HW112104   2.145   0.910   3.398
 3735SOL    HW212105   2.101   0.975   3.541
 3736SOL     OW12106   6.623   2.919   1.215
 3736SOL    HW112107   6.610   2.821   1.225
 3736SOL    HW212108   6.536   2.966   1.234
 3737SOL     OW12109   5.259   0.502   3.060
 3737SOL    HW112110   5.253   0.517   3.159
 3737SOL    HW212111   5.353   0.521   3.030
 3738SOL     OW12112   0.095   5.609   2.445
 3738SOL    HW112113   0.193   5.618   2.461
 3738SOL    HW212114   0.045   5.666   2.510
 3739SOL     OW12115   2.310   4.836   1.538
 3739SOL    HW112116   2.344   4.927   1.561
 3739SOL    HW212117   2.262   4.797   1.616
 3740SOL     OW12118   4.660   0.185   0.303
 3740SOL    HW112119   4.740   0.240   0.328
 3740SOL    HW212120   4.657   0.103   0.359
 3741SOL     OW12121   4.494   3.357   1.404
 3741SOL    HW112122   4.588   3.374   1.433
 3741SOL    HW212123   4.479   3.259   1.394
 3742SOL     OW12124   2.612   2.370   6.241
 3742SOL    HW112125   2.565   2.458   6.235
 3742SOL    HW212126   2.565   2.311   6.306
 3743SOL     OW12127   5.160   4.370   1.202
 3743SOL    HW112128   5.111   4.310   1.265
 3743SOL    HW212129   5.252   4.333   1.186
 3744SOL     OW12130   0.310   6.043   2.627
 3744SOL    HW112131   0.350   5.967   2.678
 3744SOL    HW212132   0.382   6.088   2.573
 3745SOL     OW12133   3.495   4.893   2.462
 3745SOL    HW112134   3.593   4.880   2.471
 3745SOL    HW212135   3.465   4.865   2.371
 3746SOL     OW12136   5.213   1.906   2.564
 3746SOL    HW112137   5.177   1.828   2.513
 3746SOL    HW212138   5.193   1.895   2.661
 3747SOL     OW12139   3.462   6.872   5.625
 3747SOL    HW112140   3.556   6.853   5.652
 3747SOL    HW212141   3.439   6.967   5.649
 3748SOL     OW12142   5.105   0.768   1.432
 3748SOL    HW112143   5.160   0.780   1.349
 3748SOL    HW212144   5.122   0.845   1.494
 3749SOL     OW12145   1.749   6.534   4.139
 3749SOL    HW112146   1.700   6.611   4.181
 3749SOL    HW212147   1.810   6.494   4.207
 3750SOL     OW12148   1.740   3.936   0.817
 3750SOL    HW112149   1.686   4.021   0.813
 3750SOL    HW212150   1.829   3.951   0.774
 3751SOL     OW12151   6.546   3.365   2.622
 3751SOL    HW112152   6.636   3.341   2.657
 3751SOL    HW212153   6.552   3.451   2.572
 3752SOL     OW12154   5.101   0.477   5.914
 3752SOL    HW112155   5.107   0.543   5.990
 3752SOL    HW212156   5.185   0.423   5.910
 3753SOL     OW12157   6.409   0.725   5.165
 3753SOL    HW112158   6.377   0.669   5.241
 3753SOL    HW212159   6.385   0.821   5.182
 3754SOL     OW12160   2.655   0.478   1.918
 3754SOL    HW112161   2.673   0.502   2.013
 3754SOL    HW212162   2.557   0.483   1.899
 3755SOL     OW12163   3.882   5.394   4.951
 3755SOL    HW112164   3.862   5.384   4.854
 3755SOL    HW212165   3.818   5.340   5.005
 3756SOL     OW12166   2.475   5.663   6.779
 3756SOL    HW112167   2.467   5.741   6.841
 3756SOL    HW212168   2.419   5.588   6.813
 3757SOL     OW12169   6.253   5.070   1.630
 3757SOL    HW112170   6.351   5.053   1.624
 3757SOL    HW212171   6.222   5.055   1.724
 3758SOL     OW12172   2.078   1.537   4.204
 3758SOL    HW112173   2.032   1.457   4.245
 3758SOL    HW212174   2.009   1.604   4.176
 3759SOL     OW12175   4.831   0.532   4.907
 3759SOL    HW112176   4.764   0.463   4.880
 3759SOL    HW212177   4.788   0.600   4.965
 3760SOL     OW12178   1.053   1.589   3.672
 3760SOL    HW112179   0.966   1.546   3.697
 3760SOL    HW212180   1.102   1.531   3.607
 3761SOL     OW12181   6.703   0.698   5.079
 3761SOL    HW112182   6.746   0.777   5.123
 3761SOL    HW212183   6.605   0.697   5.101
 3762SOL     OW12184   1.664   4.168   1.361
 3762SOL    HW112185   1.598   4.209   1.298
 3762SOL    HW212186   1.630   4.078   1.389
 3763SOL     OW12187   6.576   4.355   0.665
 3763SOL    HW112188   6.518   4.366   0.745
 3763SOL    HW212189   6.661   4.310   0.691
 3764SOL     OW12190   1.801   6.677   2.609
 3764SOL    HW112191   1.813   6.698   2.512
 3764SOL    HW212192   1.851   6.593   2.632
 3765SOL     OW12193   6.011   1.265   0.886
 3765SOL    HW112194   6.056   1.204   0.822
 3765SOL    HW212195   6.017   1.359   0.852
 3766SOL     OW12196   2.378   2.234   4.235
 3766SOL    HW112197   2.354   2.286   4.153
 3766SOL    HW212198   2.323   2.151   4.238
 3767SOL     OW12199   3.081   4.097   6.520
 3767SOL    HW112200   2.981   4.095   6.516
 3767SOL    HW212201   3.117   4.006   6.501
 3768SOL     OW12202   0.746   0.402   4.938
 3768SOL    HW112203   0.805   0.444   4.868
 3768SOL    HW212204   0.656   0.445   4.934
 3769SOL     OW12205   6.243   5.173   5.147
 3769SOL    HW112206   6.189   5.104   5.098
 3769SOL    HW212207   6.201   5.263   5.135
 3770SOL     OW12208   1.128   1.029   7.020
 3770SOL    HW112209   1.191   0.986   0.064
 3770SOL    HW212210   1.145   1.127   7.018
 3771SOL     OW12211   5.811   4.547   6.896
 3771SOL    HW112212   5.730   4.501   6.933
 3771SOL    HW212213   5.886   4.481   6.888
 3772SOL     OW12214   0.346   0.596   0.202
 3772SOL    HW112215   0.364   0.507   0.243
 3772SOL    HW212216   0.431   0.635   0.168
 3773SOL     OW12217   6.311   3.085   5.732
 3773SOL    HW112218   6.256   3.155   5.687
 3773SOL    HW212219   6.404   3.119   5.747
 3774SOL     OW12220   5.472   5.694   1.561
 3774SOL    HW112221   5.522   5.780   1.568
 3774SOL    HW212222   5.374   5.713   1.548
 3775SOL     OW12223   4.207   4.903   3.885
 3775SOL    HW112224   4.188   4.845   3.964
 3775SOL    HW212225   4.138   4.887   3.815
 3776SOL     OW12226   3.873   2.442   6.185
 3776SOL    HW112227   3.817   2.466   6.265
 3776SOL    HW212228   3.939   2.371   6.211
 3777SOL     OW12229   2.232   5.709   4.232
 3777SOL    HW112230   2.316   5.712   4.178
 3777SOL    HW212231   2.164   5.653   4.184
 3778SOL     OW12232   2.203   5.692   3.580
 3778SOL    HW112233   2.274   5.761   3.597
 3778SOL    HW212234   2.166   5.704   3.488
 3779SOL     OW12235   0.490   4.953   0.768
 3779SOL    HW112236   0.552   4.941   0.846
 3779SOL    HW212237   0.434   5.034   0.783
 3780SOL     OW12238   6.923   3.787   3.891
 3780SOL    HW112239   6.864   3.708   3.902
 3780SOL    HW212240   6.910   3.850   3.968
 3781SOL     OW12241   0.681   0.312   4.233
 3781SOL    HW112242   0.586   0.280   4.238
 3781SOL    HW212243   0.715   0.327   4.326
 3782SOL     OW12244   3.383   6.526   2.338
 3782SOL    HW112245   3.453   6.539   2.409
 3782SOL    HW212246   3.369   6.613   2.290
 3783SOL     OW12247   6.730   5.620   4.165
 3783SOL    HW112248   6.762   5.672   4.085
 3783SOL    HW212249   6.804   5.613   4.231
 3784SOL     OW12250   5.379   2.496   2.555
 3784SOL    HW112251   5.357   2.425   2.622
 3784SOL    HW212252   5.420   2.575   2.602
 3785SOL     OW12253   1.740   3.344   4.916
 3785SOL    HW112254   1.651   3.356   4.872
 3785SOL    HW212255   1.727   3.311   5.009
 3786SOL     OW12256   2.264   3.978   3.330
 3786SOL    HW112257   2.217   3.903   3.284
 3786SOL    HW212258   2.304   4.039   3.262
 3787SOL     OW12259   5.522   0.608   2.375
 3787SOL    HW112260   5.441   0.658   2.405
 3787SOL    HW212261   5.587   0.672   2.334
 3788SOL     OW12262   6.017   4.413   5.048
 3788SOL    HW112263   5.996   4.482   5.118
 3788SOL    HW212264   6.036   4.458   4.961
 3789SOL     OW12265   0.062   3.668   3.054
 3789SOL    HW112266   0.154   3.704   3.044
 3789SOL    HW212267   0.058   3.608   3.134
 3790SOL     OW12268   0.742   4.981   6.370
 3790SOL    HW112269   0.754   5.024   6.281
 3790SOL    HW212270   0.688   4.897   6.360
 3791SOL     OW12271   5.233   1.867   6.830
 3791SOL    HW112272   5.307   1.802   6.817
 3791SOL    HW212273   5.238   1.938   6.759
 3792SOL     OW12274   1.319   1.531   4.453
 3792SOL    HW112275   1.287   1.475   4.376
 3792SOL    HW212276   1.246   1.542   4.519
 3793SOL     OW12277   5.504   6.363   1.766
 3793SOL    HW112278   5.596   6.400   1.780
 3793SOL    HW212279   5.437   6.434   1.784
 3794SOL     OW12280   2.586   3.122   1.614
 3794SOL    HW112281   2.505   3.173   1.643
 3794SOL    HW212282   2.557   3.032   1.580
 3795SOL     OW12283   3.979   4.877   1.093
 3795SOL    HW112284   3.981   4.786   1.053
 3795SOL    HW212285   3.889   4.894   1.133
 3796SOL     OW12286   4.037   1.960   1.436
 3796SOL    HW112287   4.082   1.917   1.514
 3796SOL    HW212288   4.029   1.894   1.361
 3797SOL     OW12289   0.917   3.741   2.927
 3797SOL    HW112290   0.842   3.703   2.871
 3797SOL    HW212291   0.984   3.785   2.867
 3798SOL     OW12292   3.065   6.303   2.087
 3798SOL    HW112293   3.110   6.390   2.070
 3798SOL    HW212294   2.992   6.315   2.154
 3799SOL     OW12295   0.033   2.694   3.677
 3799SOL    HW112296   6.980   2.704   3.611
 3799SOL    HW212297   0.088   2.614   3.653
 3800SOL     OW12298   4.905   2.192   3.918
 3800SOL    HW112299   4.913   2.134   3.999
 3800SOL    HW212300   4.889   2.135   3.837
 3801SOL     OW12301   5.545   6.487   2.068
 3801SOL    HW112302   5.606   6.538   2.008
 3801SOL    HW212303   5.493   6.550   2.124
 3802SOL     OW12304   0.399   1.130   2.396
 3802SOL    HW112305   0.366   1.041   2.428
 3802SOL    HW212306   0.482   1.117   2.340
 3803SOL     OW12307   4.078   3.318   3.291
 3803SOL    HW112308   4.062   3.278   3.382
 3803SOL    HW212309   4.076   3.418   3.298
 3804SOL     OW12310   3.976   1.064   3.671
 3804SOL    HW112311   3.994   1.095   3.577
 3804SOL    HW212312   3.933   1.138   3.723
 3805SOL     OW12313   1.611   2.621   2.085
 3805SOL    HW112314   1.589   2.619   1.987
 3805SOL    HW212315   1.528   2.637   2.137
 3806SOL     OW12316   3.176   3.788   5.691
 3806SOL    HW112317   3.202   3.789   5.594
 3806SOL    HW212318   3.133   3.875   5.715
 3807SOL     OW12319   2.155   5.288   3.797
 3807SOL    HW112320   2.167   5.387   3.810
 3807SOL    HW212321   2.227   5.240   3.847
 3808SOL     OW12322   4.230   1.036   6.872
 3808SOL    HW112323   4.279   1.123   6.864
 3808SOL    HW212324   4.164   1.042   6.948
 3809SOL     OW12325   5.414   2.807   1.455
 3809SOL    HW112326   5.461   2.720   1.474
 3809SOL    HW212327   5.376   2.804   1.363
 3810SOL     OW12328   6.235   2.499   3.411
 3810SOL    HW112329   6.313   2.554   3.439
 3810SOL    HW212330   6.150   2.549   3.427
 3811SOL     OW12331   0.473   6.403   4.606
 3811SOL    HW112332   0.451   6.329   4.541
 3811SOL    HW212333   0.390   6.429   4.655
 3812SOL     OW12334   3.342   4.406   5.788
 3812SOL    HW112335   3.284   4.334   5.749
 3812SOL    HW212336   3.330   4.490   5.735
 3813SOL     OW12337   5.506   3.876   0.547
 3813SOL    HW112338   5.471   3.917   0.463
 3813SOL    HW212339   5.464   3.921   0.626
 3814SOL     OW12340   6.858   6.923   4.465
 3814SOL    HW112341   6.893   6.906   4.558
 3814SOL    HW212342   6.788   6.995   4.469
 3815SOL     OW12343   3.724   3.166   1.016
 3815SOL    HW112344   3.790   3.127   0.951
 3815SOL    HW212345   3.743   3.264   1.026
 3816SOL     OW12346   0.902   5.308   6.311
 3816SOL    HW112347   0.832   5.249   6.269
 3816SOL    HW212348   0.909   5.286   6.408
 3817SOL     OW12349   4.905   4.029   2.464
 3817SOL    HW112350   4.899   4.022   2.365
 3817SOL    HW212351   5.000   4.046   2.491
 3818SOL     OW12352   6.998   0.964   1.139
 3818SOL    HW112353   0.027   1.050   1.140
 3818SOL    HW212354   0.023   0.899   1.078
 3819SOL     OW12355   5.566   4.725   2.732
 3819SOL    HW112356   5.495   4.666   2.772
 3819SOL    HW212357   5.611   4.678   2.657
 3820SOL     OW12358   5.773   6.893   3.645
 3820SOL    HW112359   5.790   6.794   3.647
 3820SOL    HW212360   5.684   6.911   3.603
 3821SOL     OW12361   1.323   0.779   2.046
 3821SOL    HW112362   1.272   0.863   2.065
 3821SOL    HW212363   1.337   0.769   1.947
 3822SOL     OW12364   2.207   6.659   6.998
 3822SOL    HW112365   2.228   6.612   0.063
 3822SOL    HW212366   2.263   6.742   6.991
 3823SOL     OW12367   4.005   3.297   6.185
 3823SOL    HW112368   3.914   3.258   6.172
 3823SOL    HW212369   4.022   3.308   6.283
 3824SOL     OW12370   1.011   2.570   0.802
 3824SOL    HW112371   0.946   2.644   0.782
 3824SOL    HW212372   1.034   2.523   0.717
 3825SOL     OW12373   0.974   4.774   0.372
 3825SOL    HW112374   1.068   4.739   0.366
 3825SOL    HW212375   0.966   4.856   0.315
 3826SOL     OW12376   0.248   3.749   1.332
 3826SOL    HW112377   0.254   3.812   1.254
 3826SOL    HW212378   0.193   3.791   1.404
 3827SOL     OW12379   0.961   1.288   1.495
 3827SOL    HW112380   1.038   1.256   1.440
 3827SOL    HW212381   0.951   1.387   1.485
 3828SOL     OW12382   3.624   3.861   4.010
 3828SOL    HW112383   3.660   3.948   3.977
 3828SOL    HW212384   3.667   3.838   4.097
 3829SOL     OW12385   0.313   4.776   2.190
 3829SOL    HW112386   0.297   4.680   2.166
 3829SOL    HW212387   0.300   4.833   2.109
 3830SOL     OW12388   0.376   1.368   5.595
 3830SOL    HW112389   0.386   1.355   5.496
 3830SOL    HW212390   0.466   1.378   5.637
 3831SOL     OW12391   4.509   2.408   2.555
 3831SOL    HW112392   4.469   2.381   2.467
 3831SOL    HW212393   4.569   2.487   2.542
 3832SOL     OW12394   0.162   0.305   2.174
 3832SOL    HW112395   0.187   0.368   2.248
 3832SOL    HW212396   0.063   0.309   2.160
 3833SOL     OW12397   0.178   5.905   6.673
 3833SOL    HW112398   0.174   5.814   6.713
 3833SOL    HW212399   0.203   5.972   6.743
 3834SOL     OW12400   3.790   4.560   0.660
 3834SOL    HW112401   3.739   4.512   0.732
 3834SOL    HW212402   3.725   4.600   0.595
 3835SOL     OW12403   3.928   6.158   5.416
 3835SOL    HW112404   3.904   6.241   5.365
 3835SOL    HW212405   3.873   6.081   5.384
 3836SOL     OW12406   6.875   5.013   5.697
 3836SOL    HW112407   6.935   5.093   5.705
 3836SOL    HW212408   6.918   4.934   5.740
 3837SOL     OW12409   4.523   4.945   5.652
 3837SOL    HW112410   4.606   5.002   5.650
 3837SOL    HW212411   4.444   5.002   5.672
 3838SOL     OW12412   1.009   2.570   3.620
 3838SOL    HW112413   0.961   2.523   3.546
 3838SOL    HW212414   1.092   2.613   3.585
 3839SOL     OW12415   5.379   1.607   2.800
 3839SOL    HW112416   5.464   1.654   2.777
 3839SOL    HW212417   5.387   1.566   2.891
 3840SOL     OW12418   2.818   1.508   6.566
 3840SOL    HW112419   2.767   1.434   6.524
 3840SOL    HW212420   2.754   1.569   6.614
 3841SOL     OW12421   0.518   3.538   4.166
 3841SOL    HW112422   0.481   3.611   4.223
 3841SOL    HW212423   0.603   3.504   4.206
 3842SOL     OW12424   2.294   2.764   3.579
 3842SOL    HW112425   2.216   2.768   3.641
 3842SOL    HW212426   2.318   2.857   3.549
 3843SOL     OW12427   5.235   3.579   2.348
 3843SOL    HW112428   5.185   3.647   2.294
 3843SOL    HW212429   5.177   3.544   2.421
 3844SOL     OW12430   1.382   3.030   6.070
 3844SOL    HW112431   1.430   3.068   5.991
 3844SOL    HW212432   1.381   2.930   6.063
 3845SOL     OW12433   3.321   4.736   6.004
 3845SOL    HW112434   3.234   4.770   6.040
 3845SOL    HW212435   3.330   4.639   6.024
 3846SOL     OW12436   1.305   4.230   3.548
 3846SOL    HW112437   1.292   4.162   3.620
 3846SOL    HW212438   1.316   4.183   3.460
 3847SOL     OW12439   5.498   3.042   4.553
 3847SOL    HW112440   5.455   3.092   4.628
 3847SOL    HW212441   5.427   2.997   4.498
 3848SOL     OW12442   4.782   4.501   2.846
 3848SOL    HW112443   4.869   4.459   2.822
 3848SOL    HW212444   4.771   4.500   2.946
 3849SOL     OW12445   1.082   1.559   6.511
 3849SOL    HW112446   1.009   1.611   6.465
 3849SOL    HW212447   1.149   1.529   6.443
 3850SOL     OW12448   2.999   3.206   1.670
 3850SOL    HW112449   3.065   3.147   1.718
 3850SOL    HW212450   3.020   3.205   1.572
 3851SOL     OW12451   0.324   4.172   3.142
 3851SOL    HW112452   0.384   4.114   3.196
 3851SOL    HW212453   0.230   4.139   3.151
 3852SOL     OW12454   4.102   6.493   3.966
 3852SOL    HW112455   4.063   6.517   3.877
 3852SOL    HW212456   4.161   6.567   3.998
 3853SOL     OW12457   0.841   3.926   3.109
 3853SOL    HW112458   0.870   3.846   3.056
 3853SOL    HW212459   0.764   3.970   3.062
 3854SOL     OW12460   1.790   2.575   3.016
 3854SOL    HW112461   1.863   2.551   2.953
 3854SOL    HW212462   1.704   2.583   2.966
 3855SOL     OW12463   4.875   6.499   6.599
 3855SOL    HW112464   4.805   6.493   6.671
 3855SOL    HW212465   4.867   6.420   6.538
 3856SOL     OW12466   0.351   0.373   5.495
 3856SOL    HW112467   0.301   0.385   5.409
 3856SOL    HW212468   0.441   0.416   5.487
 3857SOL     OW12469   0.666   6.007   6.639
 3857SOL    HW112470   0.624   6.084   6.591
 3857SOL    HW212471   0.734   6.042   6.705
 3858SOL     OW12472   2.443   0.859   5.834
 3858SOL    HW112473   2.443   0.957   5.854
 3858SOL    HW212474   2.356   0.834   5.790
 3859SOL     OW12475   6.713   1.082   1.375
 3859SOL    HW112476   6.637   1.065   1.438
 3859SOL    HW212477   6.703   1.024   1.294
 3860SOL     OW12478   1.482   1.866   4.183
 3860SOL    HW112479   1.452   1.886   4.090
 3860SOL    HW212480   1.582   1.857   4.184
 3861SOL     OW12481   4.370   5.638   4.110
 3861SOL    HW112482   4.306   5.561   4.109
 3861SOL    HW212483   4.341   5.706   4.042
 3862SOL     OW12484   0.930   1.115   4.132
 3862SOL    HW112485   0.989   1.063   4.194
 3862SOL    HW212486   0.915   1.207   4.169
 3863SOL     OW12487   6.186   2.281   6.946
 3863SOL    HW112488   6.208   2.194   6.902
 3863SOL    HW212489   6.089   2.301   6.935
 3864SOL     OW12490   1.888   1.151   5.829
 3864SOL    HW112491   1.858   1.077   5.889
 3864SOL    HW212492   1.852   1.137   5.737
 3865SOL     OW12493   3.772   1.240   1.130
 3865SOL    HW112494   3.856   1.239   1.076
 3865SOL    HW212495   3.795   1.242   1.228
 3866SOL     OW12496   3.761   0.247   0.484
 3866SOL    HW112497   3.801   0.299   0.558
 3866SOL    HW212498   3.735   0.156   0.518
 3867SOL     OW12499   0.664   5.751   3.698
 3867SOL    HW112500   0.617   5.665   3.718
 3867SOL    HW212501   0.627   5.823   3.756
 3868SOL     OW12502   2.884   0.634   0.158
 3868SOL    HW112503   2.837   0.711   0.201
 3868SOL    HW212504   2.979   0.631   0.189
 3869SOL     OW12505   6.030   2.987   4.343
 3869SOL    HW112506   6.053   2.890   4.330
 3869SOL    HW212507   5.956   2.995   4.410
 3870SOL     OW12508   6.485   6.639   7.005
 3870SOL    HW112509   6.511   6.543   7.014
 3870SOL    HW212510   6.433   6.667   0.065
 3871SOL     OW12511   4.256   1.081   3.330
 3871SOL    HW112512   4.316   1.024   3.274
 3871SOL    HW212513   4.256   1.174   3.295
 3872SOL     OW12514   3.398   2.911   3.771
 3872SOL    HW112515   3.329   2.933   3.840
 3872SOL    HW212516   3.359   2.928   3.680
 3873SOL     OW12517   6.428   4.099   1.471
 3873SOL    HW112518   6.399   4.193   1.489
 3873SOL    HW212519   6.528   4.095   1.466
 3874SOL     OW12520   4.833   6.033   6.950
 3874SOL    HW112521   4.888   6.018   0.011
 3874SOL    HW212522   4.736   6.034   6.974
 3875SOL     OW12523   2.178   3.218   2.637
 3875SOL    HW112524   2.276   3.208   2.658
 3875SOL    HW212525   2.164   3.303   2.585
 3876SOL     OW12526   3.726   5.531   1.126
 3876SOL    HW112527   3.716   5.467   1.202
 3876SOL    HW212528   3.694   5.487   1.042
 3877SOL     OW12529   5.833   2.577   0.901
 3877SOL    HW112530   5.793   2.511   0.965
 3877SOL    HW212531   5.817   2.669   0.935
 3878SOL     OW12532   3.855   6.707   4.493
 3878SOL    HW112533   3.783   6.714   4.561
 3878SOL    HW212534   3.816   6.681   4.405
 3879SOL     OW12535   6.067   5.050   1.045
 3879SOL    HW112536   6.161   5.065   1.014
 3879SOL    HW212537   6.004   5.073   0.971
 3880SOL     OW12538   5.841   4.925   4.650
 3880SOL    HW112539   5.821   5.017   4.682
 3880SOL    HW212540   5.938   4.918   4.627
 3881SOL     OW12541   1.638   2.972   1.971
 3881SOL    HW112542   1.644   3.012   2.062
 3881SOL    HW212543   1.564   2.905   1.969
 3882SOL     OW12544   1.389   1.375   5.773
 3882SOL    HW112545   1.296   1.338   5.775
 3882SOL    HW212546   1.447   1.316   5.717
 3883SOL     OW12547   4.565   1.144   2.458
 3883SOL    HW112548   4.644   1.107   2.506
 3883SOL    HW212549   4.596   1.194   2.377
 3884SOL     OW12550   0.996   5.599   2.485
 3884SOL    HW112551   1.084   5.578   2.530
 3884SOL    HW212552   0.943   5.515   2.476
 3885SOL     OW12553   5.803   6.307   2.692
 3885SOL    HW112554   5.706   6.288   2.678
 3885SOL    HW212555   5.846   6.232   2.742
 3886SOL     OW12556   5.925   5.128   4.963
 3886SOL    HW112557   5.993   5.055   4.964
 3886SOL    HW212558   5.834   5.090   4.981
 3887SOL     OW12559   0.601   0.653   6.812
 3887SOL    HW112560   0.659   0.595   6.755
 3887SOL    HW212561   0.516   0.605   6.834
 3888SOL     OW12562   6.972   0.458   4.681
 3888SOL    HW112563   7.014   0.519   4.749
 3888SOL    HW212564   6.894   0.411   4.722
 3889SOL     OW12565   0.126   3.926   0.288
 3889SOL    HW112566   0.042   3.928   0.233
 3889SOL    HW212567   0.160   4.019   0.302
 3890SOL     OW12568   5.959   5.566   3.886
 3890SOL    HW112569   5.862   5.591   3.878
 3890SOL    HW212570   6.013   5.622   3.823
 3891SOL     OW12571   6.013   4.591   4.408
 3891SOL    HW112572   5.923   4.600   4.364
 3891SOL    HW212573   6.022   4.658   4.481
 3892SOL     OW12574   6.905   2.367   1.721
 3892SOL    HW112575   6.927   2.271   1.740
 3892SOL    HW212576   6.945   2.424   1.792
 3893SOL     OW12577   4.413   4.752   0.320
 3893SOL    HW112578   4.431   4.720   0.227
 3893SOL    HW212579   4.343   4.694   0.362
 3894SOL     OW12580   3.540   1.694   0.878
 3894SOL    HW112581   3.565   1.706   0.782
 3894SOL    HW212582   3.526   1.597   0.898
 3895SOL     OW12583   1.636   0.775   4.880
 3895SOL    HW112584   1.562   0.836   4.909
 3895SOL    HW212585   1.637   0.695   4.939
 3896SOL     OW12586   6.859   0.681   5.982
 3896SOL    HW112587   6.796   0.758   5.980
 3896SOL    HW212588   6.826   0.613   6.048
 3897SOL     OW12589   3.370   5.436   2.820
 3897SOL    HW112590   3.342   5.521   2.775
 3897SOL    HW212591   3.300   5.366   2.806
 3898SOL     OW12592   2.867   3.752   5.181
 3898SOL    HW112593   2.870   3.680   5.112
 3898SOL    HW212594   2.778   3.751   5.228
 3899SOL     OW12595   5.535   6.851   4.894
 3899SOL    HW112596   5.537   6.792   4.975
 3899SOL    HW212597   5.575   6.940   4.916
 3900SOL     OW12598   5.154   3.492   3.820
 3900SOL    HW112599   5.196   3.402   3.802
 3900SOL    HW212600   5.059   3.479   3.848
 3901SOL     OW12601   2.982   0.418   5.703
 3901SOL    HW112602   3.035   0.473   5.638
 3901SOL    HW212603   2.884   0.432   5.686
 3902SOL     OW12604   5.383   3.644   1.970
 3902SOL    HW112605   5.483   3.648   1.961
 3902SOL    HW212606   5.341   3.664   1.882
 3903SOL     OW12607   3.828   6.071   6.676
 3903SOL    HW112608   3.778   6.010   6.616
 3903SOL    HW212609   3.780   6.158   6.683
 3904SOL     OW12610   2.220   1.577   5.025
 3904SOL    HW112611   2.161   1.497   5.014
 3904SOL    HW212612   2.238   1.618   4.935
 3905SOL     OW12613   0.304   0.342   6.173
 3905SOL    HW112614   0.213   0.349   6.132
 3905SOL    HW212615   0.368   0.401   6.123
 3906SOL     OW12616   4.656   4.763   6.347
 3906SOL    HW112617   4.748   4.739   6.376
 3906SOL    HW212618   4.613   4.821   6.416
 3907SOL     OW12619   5.660   0.070   4.981
 3907SOL    HW112620   5.628   0.116   5.064
 3907SOL    HW212621   5.755   0.041   4.993
 3908SOL     OW12622   1.230   2.104   0.836
 3908SOL    HW112623   1.241   2.167   0.913
 3908SOL    HW212624   1.291   2.025   0.849
 3909SOL     OW12625   0.494   5.171   5.347
 3909SOL    HW112626   0.466   5.104   5.416
 3909SOL    HW212627   0.441   5.158   5.264
 3910SOL     OW12628   3.754   3.443   1.504
 3910SOL    HW112629   3.706   3.473   1.422
 3910SOL    HW212630   3.694   3.449   1.583
 3911SOL     OW12631   4.832   1.164   0.150
 3911SOL    HW112632   4.760   1.226   0.117
 3911SOL    HW212633   4.861   1.192   0.241
 3912SOL     OW12634   4.566   0.118   5.893
 3912SOL    HW112635   4.602   0.172   5.817
 3912SOL    HW212636   4.491   0.167   5.937
 3913SOL     OW12637   2.126   6.948   5.957
 3913SOL    HW112638   2.045   6.946   6.015
 3913SOL    HW212639   2.200   6.897   6.001
 3914SOL     OW12640   3.628   1.652   0.615
 3914SOL    HW112641   3.637   1.751   0.603
 3914SOL    HW212642   3.624   1.607   0.526
 3915SOL     OW12643   3.673   5.607   2.661
 3915SOL    HW112644   3.682   5.693   2.712
 3915SOL    HW212645   3.584   5.605   2.615
 3916SOL     OW12646   1.698   5.895   4.119
 3916SOL    HW112647   1.626   5.853   4.064
 3916SOL    HW212648   1.660   5.925   4.207
 3917SOL     OW12649   0.631   5.037   6.850
 3917SOL    HW112650   0.533   5.032   6.870
 3917SOL    HW212651   0.664   4.945   6.827
 3918SOL     OW12652   4.700   0.159   2.606
 3918SOL    HW112653   4.793   0.174   2.573
 3918SOL    HW212654   4.637   0.158   2.529
 3919SOL     OW12655   2.260   5.913   6.251
 3919SOL    HW112656   2.286   5.818   6.235
 3919SOL    HW212657   2.231   5.954   6.164
 3920SOL     OW12658   2.827   2.628   0.231
 3920SOL    HW112659   2.753   2.653   0.168
 3920SOL    HW212660   2.832   2.695   0.305
 3921SOL     OW12661   6.942   3.247   1.371
 3921SOL    HW112662   0.019   3.263   1.358
 3921SOL    HW212663   6.898   3.235   1.282
 3922SOL     OW12664   6.143   4.138   1.925
 3922SOL    HW112665   6.200   4.061   1.894
 3922SOL    HW212666   6.196   4.223   1.919
 3923SOL     OW12667   6.939   1.924   6.791
 3923SOL    HW112668   6.920   2.002   6.733
 3923SOL    HW212669   0.013   1.927   6.822
 3924SOL     OW12670   0.958   5.216   3.028
 3924SOL    HW112671   0.881   5.245   3.086
 3924SOL    HW212672   1.028   5.288   3.028
 3925SOL     OW12673   3.636   4.939   0.704
 3925SOL    HW112674   3.655   4.977   0.614
 3925SOL    HW212675   3.718   4.946   0.762
 3926SOL     OW12676   6.291   5.613   3.203
 3926SOL    HW112677   6.207   5.625   3.150
 3926SOL    HW212678   6.285   5.529   3.257
 3927SOL     OW12679   6.702   3.159   3.492
 3927SOL    HW112680   6.685   3.165   3.394
 3927SOL    HW212681   6.800   3.167   3.509
 3928SOL     OW12682   2.888   6.048   6.285
 3928SOL    HW112683   2.969   6.066   6.229
 3928SOL    HW212684   2.864   6.131   6.336
 3929SOL     OW12685   0.476   1.901   6.074
 3929SOL    HW112686   0.497   1.823   6.015
 3929SOL    HW212687   0.436   1.974   6.019
 3930SOL     OW12688   2.381   1.807   4.037
 3930SOL    HW112689   2.457   1.812   3.972
 3930SOL    HW212690   2.416   1.816   4.130
 3931SOL     OW12691   1.668   1.969   2.536
 3931SOL    HW112692   1.745   1.997   2.479
 3931SOL    HW212693   1.662   2.027   2.617
 3932SOL     OW12694   1.645   4.033   2.642
 3932SOL    HW112695   1.635   4.017   2.544
 3932SOL    HW212696   1.558   4.017   2.688
 3933SOL     OW12697   1.748   6.482   0.054
 3933SOL    HW112698   1.746   6.530   0.142
 3933SOL    HW212699   1.843   6.469   0.026
 3934SOL     OW12700   6.989   0.709   0.799
 3934SOL    HW112701   6.909   0.707   0.858
 3934SOL    HW212702   7.004   0.619   0.758
 3935SOL     OW12703   2.526   0.262   0.117
 3935SOL    HW112704   2.625   0.267   0.128
 3935SOL    HW212705   2.483   0.263   0.207
 3936SOL     OW12706   6.813   5.102   5.366
 3936SOL    HW112707   6.757   5.071   5.443
 3936SOL    HW212708   6.794   5.045   5.286
 3937SOL     OW12709   6.921   0.418   2.016
 3937SOL    HW112710   6.876   0.345   1.965
 3937SOL    HW212711   6.853   0.484   2.048
 3938SOL     OW12712   0.157   1.852   3.718
 3938SOL    HW112713   0.126   1.758   3.707
 3938SOL    HW212714   0.203   1.882   3.634
 3939SOL     OW12715   2.345   1.919   1.918
 3939SOL    HW112716   2.349   1.975   2.001
 3939SOL    HW212717   2.410   1.955   1.851
 3940SOL     OW12718   4.038   5.281   2.416
 3940SOL    HW112719   4.099   5.228   2.357
 3940SOL    HW212720   4.042   5.378   2.391
 3941SOL     OW12721   4.982   1.782   6.570
 3941SOL    HW112722   4.975   1.812   6.475
 3941SOL    HW212723   5.040   1.701   6.576
 3942SOL     OW12724   0.570   0.654   6.277
 3942SOL    HW112725   0.616   0.611   6.199
 3942SOL    HW212726   0.514   0.585   6.325
 3943SOL     OW12727   1.103   3.852   2.783
 3943SOL    HW112728   1.201   3.865   2.768
 3943SOL    HW212729   1.052   3.919   2.729
 3944SOL     OW12730   5.680   3.065   5.521
 3944SOL    HW112731   5.591   3.021   5.506
 3944SOL    HW212732   5.698   3.071   5.619
 3945SOL     OW12733   0.679   2.308   2.001
 3945SOL    HW112734   0.736   2.262   2.068
 3945SOL    HW212735   0.722   2.304   1.911
 3946SOL     OW12736   5.459   5.663   5.929
 3946SOL    HW112737   5.433   5.683   5.835
 3946SOL    HW212738   5.376   5.654   5.985
 3947SOL     OW12739   6.183   5.584   1.347
 3947SOL    HW112740   6.253   5.567   1.277
 3947SOL    HW212741   6.175   5.504   1.406
 3948SOL     OW12742   1.212   5.700   1.704
 3948SOL    HW112743   1.131   5.649   1.674
 3948SOL    HW212744   1.185   5.766   1.774
 3949SOL     OW12745   6.255   0.412   2.848
 3949SOL    HW112746   6.259   0.512   2.836
 3949SOL    HW212747   6.293   0.368   2.767
 3950SOL     OW12748   2.866   4.175   1.745
 3950SOL    HW112749   2.802   4.103   1.717
 3950SOL    HW212750   2.824   4.265   1.731
 3951SOL     OW12751   6.679   6.854   1.170
 3951SOL    HW112752   6.621   6.906   1.106
 3951SOL    HW212753   6.754   6.911   1.200
 3952SOL     OW12754   6.259   3.859   2.911
 3952SOL    HW112755   6.262   3.762   2.888
 3952SOL    HW212756   6.351   3.890   2.934
 3953SOL     OW12757   3.991   4.169   0.586
 3953SOL    HW112758   4.058   4.108   0.629
 3953SOL    HW212759   3.900   4.145   0.618
 3954SOL     OW12760   5.927   5.641   4.962
 3954SOL    HW112761   5.841   5.655   4.914
 3954SOL    HW212762   5.916   5.670   5.058
 3955SOL     OW12763   3.068   5.221   5.900
 3955SOL    HW112764   3.075   5.125   5.926
 3955SOL    HW212765   3.106   5.278   5.973
 3956SOL     OW12766   0.387   1.058   2.669
 3956SOL    HW112767   0.432   1.102   2.591
 3956SOL    HW212768   0.442   0.981   2.701
 3957SOL     OW12769   4.634   6.731   3.671
 3957SOL    HW112770   4.597   6.667   3.604
 3957SOL    HW212771   4.594   6.712   3.761
 3958SOL     OW12772   5.621   0.753   6.302
 3958SOL    HW112773   5.664   0.826   6.249
 3958SOL    HW212774   5.691   0.699   6.348
 3959SOL     OW12775   3.751   5.796   1.157
 3959SOL    HW112776   3.767   5.698   1.160
 3959SOL    HW212777   3.767   5.830   1.064
 3960SOL     OW12778   4.481   1.284   6.804
 3960SOL    HW112779   4.455   1.247   6.715
 3960SOL    HW212780   4.413   1.351   6.833
 3961SOL     OW12781   6.047   2.395   1.859
 3961SOL    HW112782   5.982   2.411   1.934
 3961SOL    HW212783   6.011   2.326   1.797
 3962SOL     OW12784   2.776   4.938   6.869
 3962SOL    HW112785   2.822   4.853   6.847
 3962SOL    HW212786   2.804   4.969   6.960
 3963SOL     OW12787   4.487   4.472   4.557
 3963SOL    HW112788   4.408   4.417   4.581
 3963SOL    HW212789   4.518   4.448   4.465
 3964SOL     OW12790   4.023   4.784   3.682
 3964SOL    HW112791   4.097   4.727   3.647
 3964SOL    HW212792   3.977   4.830   3.605
 3965SOL     OW12793   4.691   3.076   6.144
 3965SOL    HW112794   4.655   3.126   6.065
 3965SOL    HW212795   4.627   3.004   6.170
 3966SOL     OW12796   5.503   6.041   0.970
 3966SOL    HW112797   5.536   6.126   0.930
 3966SOL    HW212798   5.447   6.062   1.051
 3967SOL     OW12799   1.531   4.065   2.398
 3967SOL    HW112800   1.588   4.100   2.324
 3967SOL    HW212801   1.435   4.088   2.381
 3968SOL     OW12802   5.090   0.189   1.066
 3968SOL    HW112803   5.101   0.101   1.113
 3968SOL    HW212804   4.999   0.193   1.025
 3969SOL     OW12805   1.788   3.827   2.476
 3969SOL    HW112806   1.816   3.854   2.568
 3969SOL    HW212807   1.689   3.812   2.474
 3970SOL     OW12808   5.744   5.787   3.863
 3970SOL    HW112809   5.752   5.877   3.906
 3970SOL    HW212810   5.714   5.797   3.769
 3971SOL     OW12811   2.413   5.052   1.656
 3971SOL    HW112812   2.460   5.046   1.745
 3971SOL    HW212813   2.345   5.125   1.659
 3972SOL     OW12814   1.134   5.325   0.722
 3972SOL    HW112815   1.229   5.296   0.734
 3972SOL    HW212816   1.100   5.292   0.634
 3973SOL     OW12817   0.981   4.414   5.786
 3973SOL    HW112818   1.073   4.373   5.786
 3973SOL    HW212819   0.987   4.510   5.761
 3974SOL     OW12820   1.317   0.905   4.448
 3974SOL    HW112821   1.295   0.807   4.449
 3974SOL    HW212822   1.349   0.933   4.539
 3975SOL     OW12823   5.608   0.679   5.650
 3975SOL    HW112824   5.563   0.748   5.706
 3975SOL    HW212825   5.592   0.699   5.553
 3976SOL     OW12826   1.287   6.225   2.059
 3976SOL    HW112827   1.291   6.312   2.010
 3976SOL    HW212828   1.318   6.151   1.999
 3977SOL     OW12829   2.866   4.349   5.667
 3977SOL    HW112830   2.834   4.422   5.727
 3977SOL    HW212831   2.965   4.338   5.677
 3978SOL     OW12832   5.534   6.546   5.230
 3978SOL    HW112833   5.444   6.549   5.187
 3978SOL    HW212834   5.595   6.488   5.177
 3979SOL     OW12835   3.135   5.972   0.693
 3979SOL    HW112836   3.076   6.026   0.634
 3979SOL    HW212837   3.090   5.958   0.781
 3980SOL     OW12838   0.439   5.791   7.013
 3980SOL    HW112839   0.462   5.764   0.085
 3980SOL    HW212840   0.396   5.714   6.965
 3981SOL     OW12841   1.965   1.442   0.554
 3981SOL    HW112842   2.024   1.422   0.633
 3981SOL    HW212843   1.949   1.540   0.548
 3982SOL     OW12844   2.113   0.423   4.211
 3982SOL    HW112845   2.136   0.516   4.184
 3982SOL    HW212846   2.044   0.387   4.149
 3983SOL     OW12847   5.135   5.433   4.658
 3983SOL    HW112848   5.141   5.343   4.702
 3983SOL    HW212849   5.180   5.501   4.715
 3984SOL     OW12850   6.976   0.948   2.631
 3984SOL    HW112851   6.998   1.013   2.704
 3984SOL    HW212852   6.907   0.987   2.571
 3985SOL     OW12853   3.472   4.545   6.333
 3985SOL    HW112854   3.438   4.507   6.247
 3985SOL    HW212855   3.497   4.641   6.319
 3986SOL     OW12856   6.670   1.672   3.335
 3986SOL    HW112857   6.626   1.586   3.361
 3986SOL    HW212858   6.623   1.749   3.379
 3987SOL     OW12859   2.823   5.377   3.750
 3987SOL    HW112860   2.879   5.303   3.788
 3987SOL    HW212861   2.859   5.403   3.660
 3988SOL     OW12862   4.213   3.672   6.905
 3988SOL    HW112863   4.137   3.633   6.853
 3988SOL    HW212864   4.200   3.771   6.913
 3989SOL     OW12865   6.859   2.578   0.195
 3989SOL    HW112866   6.906   2.621   0.273
 3989SOL    HW212867   6.791   2.641   0.159
 3990SOL     OW12868   5.285   2.245   2.979
 3990SOL    HW112869   5.195   2.217   3.011
 3990SOL    HW212870   5.300   2.342   3.001
 3991SOL     OW12871   6.057   0.901   2.198
 3991SOL    HW112872   6.101   0.814   2.176
 3991SOL    HW212873   6.118   0.954   2.257
 3992SOL     OW12874   3.531   2.363   6.646
 3992SOL    HW112875   3.449   2.351   6.703
 3992SOL    HW212876   3.611   2.332   6.697
 3993SOL     OW12877   0.975   1.860   2.731
 3993SOL    HW112878   1.070   1.857   2.700
 3993SOL    HW212879   0.920   1.914   2.667
 3994SOL     OW12880   0.594   1.183   6.319
 3994SOL    HW112881   0.502   1.219   6.308
 3994SOL    HW212882   0.595   1.086   6.295
 3995SOL     OW12883   1.982   3.960   5.360
 3995SOL    HW112884   2.082   3.956   5.370
 3995SOL    HW212885   1.958   4.020   5.285
 3996SOL     OW12886   1.249   1.047   4.047
 3996SOL    HW112887   1.200   1.087   3.970
 3996SOL    HW212888   1.339   1.017   4.017
 3997SOL     OW12889   5.179   1.247   3.805
 3997SOL    HW112890   5.092   1.263   3.852
 3997SOL    HW212891   5.162   1.197   3.720
 3998SOL     OW12892   4.621   1.198   3.307
 3998SOL    HW112893   4.536   1.245   3.283
 3998SOL    HW212894   4.695   1.232   3.249
 3999SOL     OW12895   5.642   3.638   3.735
 3999SOL    HW112896   5.575   3.580   3.783
 3999SOL    HW212897   5.629   3.630   3.637
 4000SOL     OW12898   2.992   5.677   2.961
 4000SOL    HW112899   3.056   5.748   2.932
 4000SOL    HW212900   2.912   5.719   3.003
 4001SOL     OW12901   2.633   2.360   3.981
 4001SOL    HW112902   2.635   2.427   4.055
 4001SOL    HW212903   2.541   2.356   3.941
 4002SOL     OW12904   2.207   3.007   0.774
 4002SOL    HW112905   2.130   3.072   0.769
 4002SOL    HW212906   2.244   2.992   0.683
 4003SOL     OW12907   3.150   5.841   4.171
 4003SOL    HW112908   3.200   5.776   4.113
 4003SOL    HW212909   3.194   5.846   4.261
 4004SOL     OW12910   5.454   2.008   3.906
 4004SOL    HW112911   5.440   2.044   3.998
 4004SOL    HW212912   5.369   2.017   3.854
 4005SOL     OW12913   4.705   6.206   0.690
 4005SOL    HW112914   4.682   6.266   0.614
 4005SOL    HW212915   4.645   6.226   0.768
 4006SOL     OW12916   3.616   5.593   3.246
 4006SOL    HW112917   3.612   5.692   3.256
 4006SOL    HW212918   3.711   5.563   3.246
 4007SOL     OW12919   0.746   2.502   1.386
 4007SOL    HW112920   0.834   2.464   1.414
 4007SOL    HW212921   0.695   2.433   1.336
 4008SOL     OW12922   3.391   1.870   3.701
 4008SOL    HW112923   3.467   1.820   3.659
 4008SOL    HW212924   3.396   1.861   3.800
 4009SOL     OW12925   5.295   3.416   1.166
 4009SOL    HW112926   5.198   3.395   1.150
 4009SOL    HW212927   5.329   3.474   1.091
 4010SOL     OW12928   2.450   2.730   1.874
 4010SOL    HW112929   2.393   2.810   1.854
 4010SOL    HW212930   2.395   2.659   1.918
 4011SOL     OW12931   0.127   0.602   2.030
 4011SOL    HW112932   0.065   0.524   2.015
 4011SOL    HW212933   0.086   0.685   1.993
 4012SOL     OW12934   3.934   5.570   1.425
 4012SOL    HW112935   3.959   5.493   1.484
 4012SOL    HW212936   3.840   5.558   1.393
 4013SOL     OW12937   2.921   0.020   6.543
 4013SOL    HW112938   2.867   0.024   6.627
 4013SOL    HW212939   3.016   7.020   6.564
 4014SOL     OW12940   4.220   5.935   3.370
 4014SOL    HW112941   4.315   5.946   3.340
 4014SOL    HW212942   4.169   5.883   3.302
 4015SOL     OW12943   4.885   5.029   6.347
 4015SOL    HW112944   4.935   4.968   6.286
 4015SOL    HW212945   4.828   5.091   6.294
 4016SOL     OW12946   2.396   5.870   6.586
 4016SOL    HW112947   2.300   5.845   6.579
 4016SOL    HW212948   2.439   5.816   6.659
 4017SOL     OW12949   0.105   5.956   1.174
 4017SOL    HW112950   0.008   5.978   1.184
 4017SOL    HW212951   0.156   5.997   1.249
 4018SOL     OW12952   5.092   5.973   3.548
 4018SOL    HW112953   5.161   5.974   3.620
 4018SOL    HW212954   5.116   6.040   3.478
 4019SOL     OW12955   5.883   3.956   3.217
 4019SOL    HW112956   5.872   3.908   3.304
 4019SOL    HW212957   5.972   3.934   3.178
 4020SOL     OW12958   5.340   2.245   5.783
 4020SOL    HW112959   5.381   2.325   5.825
 4020SOL    HW212960   5.302   2.185   5.853
 4021SOL     OW12961   3.785   3.763   6.198
 4021SOL    HW112962   3.775   3.840   6.260
 4021SOL    HW212963   3.702   3.752   6.143
 4022SOL     OW12964   4.019   0.023   0.074
 4022SOL    HW112965   3.924   0.051   0.061
 4022SOL    HW212966   4.058   0.071   0.152
 4023SOL     OW12967   5.943   2.141   4.962
 4023SOL    HW112968   5.880   2.064   4.976
 4023SOL    HW212969   5.932   2.177   4.870
 4024SOL     OW12970   3.936   6.346   3.637
 4024SOL    HW112971   4.016   6.362   3.579
 4024SOL    HW212972   3.960   6.280   3.708
 4025SOL     OW12973   0.839   6.131   3.872
 4025SOL    HW112974   0.784   6.122   3.789
 4025SOL    HW212975   0.843   6.043   3.920
 4026SOL     OW12976   6.402   6.011   4.739
 4026SOL    HW112977   6.398   5.924   4.690
 4026SOL    HW212978   6.472   6.069   4.697
 4027SOL     OW12979   3.740   3.966   2.050
 4027SOL    HW112980   3.711   4.010   1.965
 4027SOL    HW212981   3.710   3.870   2.050
 4028SOL     OW12982   1.060   2.398   3.799
 4028SOL    HW112983   1.122   2.447   3.860
 4028SOL    HW212984   1.021   2.462   3.733
 4029SOL     OW12985   1.501   3.987   6.403
 4029SOL    HW112986   1.441   3.937   6.465
 4029SOL    HW212987   1.447   4.026   6.328
 4030SOL     OW12988   1.514   1.989   6.030
 4030SOL    HW112989   1.434   2.041   6.062
 4030SOL    HW212990   1.595   2.047   6.036
 4031SOL     OW12991   4.597   5.984   2.977
 4031SOL    HW112992   4.631   6.077   2.989
 4031SOL    HW212993   4.649   5.938   2.905
 4032SOL     OW12994   5.765   0.264   2.862
 4032SOL    HW112995   5.683   0.208   2.874
 4032SOL    HW212996   5.819   0.261   2.946
 4033SOL     OW12997   3.738   2.927   3.090
 4033SOL    HW112998   3.823   2.945   3.139
 4033SOL    HW212999   3.688   3.013   3.076
 4034SOL     OW13000   5.587   1.729   5.436
 4034SOL    HW113001   5.625   1.780   5.359
 4034SOL    HW213002   5.488   1.723   5.427
 4035SOL     OW13003   6.505   4.388   1.316
 4035SOL    HW113004   6.416   4.351   1.289
 4035SOL    HW213005   6.577   4.348   1.259
 4036SOL     OW13006   5.382   6.686   2.913
 4036SOL    HW113007   5.461   6.645   2.867
 4036SOL    HW213008   5.407   6.776   2.948
 4037SOL     OW13009   1.585   2.484   0.634
 4037SOL    HW113010   1.677   2.492   0.597
 4037SOL    HW213011   1.521   2.467   0.559
 4038SOL     OW13012   4.634   4.896   2.173
 4038SOL    HW113013   4.671   4.849   2.093
 4038SOL    HW213014   4.702   4.961   2.207
 4039SOL     OW13015   5.141   5.180   1.324
 4039SOL    HW113016   5.112   5.093   1.283
 4039SOL    HW213017   5.072   5.210   1.390
 4040SOL     OW13018   2.738   6.410   0.292
 4040SOL    HW113019   2.700   6.457   0.212
 4040SOL    HW213020   2.772   6.478   0.357
 4041SOL     OW13021   1.705   5.597   2.110
 4041SOL    HW113022   1.701   5.697   2.110
 4041SOL    HW213023   1.644   5.561   2.181
 4042SOL     OW13024   6.155   4.357   2.514
 4042SOL    HW113025   6.075   4.370   2.572
 4042SOL    HW213026   6.221   4.430   2.530
 4043SOL     OW13027   5.795   2.259   3.877
 4043SOL    HW113028   5.703   2.297   3.873
 4043SOL    HW213029   5.805   2.204   3.960
 4044SOL     OW13030   5.638   0.815   4.846
 4044SOL    HW113031   5.635   0.865   4.760
 4044SOL    HW213032   5.549   0.819   4.891
 4045SOL     OW13033   2.627   4.343   6.234
 4045SOL    HW113034   2.710   4.370   6.282
 4045SOL    HW213035   2.547   4.366   6.291
 4046SOL     OW13036   0.741   2.029   3.308
 4046SOL    HW113037   0.653   2.075   3.301
 4046SOL    HW213038   0.815   2.096   3.306
 4047SOL     OW13039   2.135   3.339   0.849
 4047SOL    HW113040   2.204   3.412   0.852
 4047SOL    HW213041   2.044   3.379   0.855
 4048SOL     OW13042   5.881   1.071   1.919
 4048SOL    HW113043   5.976   1.095   1.898
 4048SOL    HW213044   5.827   1.072   1.834
 4049SOL     OW13045   6.344   6.121   6.445
 4049SOL    HW113046   6.436   6.136   6.409
 4049SOL    HW213047   6.281   6.188   6.406
 4050SOL     OW13048   1.461   6.828   0.172
 4050SOL    HW113049   1.419   6.756   0.227
 4050SOL    HW213050   1.525   6.787   0.107
 4051SOL     OW13051   2.925   3.706   0.049
 4051SOL    HW113052   2.890   3.722   0.141
 4051SOL    HW213053   3.024   3.717   0.048
 4052SOL     OW13054   1.073   6.923   1.314
 4052SOL    HW113055   1.009   6.991   1.277
 4052SOL    HW213056   1.146   6.969   1.364
 4053SOL     OW13057   3.379   5.032   3.734
 4053SOL    HW113058   3.412   4.973   3.808
 4053SOL    HW213059   3.346   5.118   3.773
 4054SOL     OW13060   2.174   3.144   0.414
 4054SOL    HW113061   2.263   3.179   0.384
 4054SOL    HW213062   2.102   3.204   0.378
 4055SOL     OW13063   2.848   3.205   5.584
 4055SOL    HW113064   2.779   3.134   5.601
 4055SOL    HW213065   2.932   3.162   5.550
 4056SOL     OW13066   4.348   3.294   6.803
 4056SOL    HW113067   4.361   3.214   6.861
 4056SOL    HW213068   4.397   3.372   6.843
 4057SOL     OW13069   4.952   3.461   0.520
 4057SOL    HW113070   4.965   3.529   0.448
 4057SOL    HW213071   4.863   3.416   0.508
 4058SOL     OW13072   1.672   1.079   4.438
 4058SOL    HW113073   1.604   1.059   4.508
 4058SOL    HW213074   1.629   1.130   4.363
 4059SOL     OW13075   2.235   2.189   3.170
 4059SOL    HW113076   2.193   2.279   3.179
 4059SOL    HW213077   2.333   2.198   3.152
 4060SOL     OW13078   3.585   5.080   5.141
 4060SOL    HW113079   3.680   5.048   5.142
 4060SOL    HW213080   3.524   5.005   5.117
 4061SOL     OW13081   3.376   4.535   1.555
 4061SOL    HW113082   3.326   4.460   1.513
 4061SOL    HW213083   3.436   4.499   1.626
 4062SOL     OW13084   4.215   1.497   3.309
 4062SOL    HW113085   4.139   1.522   3.249
 4062SOL    HW213086   4.275   1.576   3.323
 4063SOL     OW13087   4.274   6.227   6.068
 4063SOL    HW113088   4.189   6.279   6.081
 4063SOL    HW213089   4.263   6.163   5.993
 4064SOL     OW13090   2.420   6.565   2.545
 4064SOL    HW113091   2.358   6.620   2.489
 4064SOL    HW213092   2.515   6.588   2.523
 4065SOL     OW13093   0.729   0.134   0.559
 4065SOL    HW113094   0.713   0.099   0.466
 4065SOL    HW213095   0.821   0.172   0.565
 4066SOL     OW13096   5.363   4.887   2.219
 4066SOL    HW113097   5.412   4.810   2.178
 4066SOL    HW213098   5.349   4.958   2.150
 4067SOL     OW13099   5.626   1.751   2.828
 4067SOL    HW113100   5.636   1.814   2.751
 4067SOL    HW213101   5.664   1.793   2.910
 4068SOL     OW13102   4.664   0.296   4.711
 4068SOL    HW113103   4.599   0.306   4.636
 4068SOL    HW213104   4.617   0.306   4.798
 4069SOL     OW13105   4.527   3.556   0.226
 4069SOL    HW113106   4.427   3.558   0.219
 4069SOL    HW213107   4.565   3.636   0.180
 4070SOL     OW13108   1.795   3.278   2.862
 4070SOL    HW113109   1.879   3.224   2.870
 4070SOL    HW213110   1.759   3.298   2.953
 4071SOL     OW13111   1.481   1.086   4.646
 4071SOL    HW113112   1.561   1.122   4.693
 4071SOL    HW213113   1.405   1.078   4.711
 4072SOL     OW13114   1.936   6.884   4.220
 4072SOL    HW113115   1.850   6.833   4.226
 4072SOL    HW213116   2.013   6.821   4.230
 4073SOL     OW13117   2.142   5.592   5.984
 4073SOL    HW113118   2.069   5.553   6.041
 4073SOL    HW213119   2.223   5.608   6.040
 4074SOL     OW13120   0.716   3.307   1.859
 4074SOL    HW113121   0.642   3.247   1.888
 4074SOL    HW213122   0.701   3.334   1.763
 4075SOL     OW13123   4.937   2.001   2.683
 4075SOL    HW113124   5.004   1.939   2.725
 4075SOL    HW213125   4.850   1.995   2.733
 4076SOL     OW13126   2.485   4.170   5.355
 4076SOL    HW113127   2.554   4.236   5.328
 4076SOL    HW213128   2.495   4.087   5.300
 4077SOL     OW13129   2.679   6.190   0.794
 4077SOL    HW113130   2.641   6.099   0.813
 4077SOL    HW213131   2.690   6.202   0.695
 4078SOL     OW13132   5.748   5.383   2.089
 4078SOL    HW113133   5.683   5.454   2.116
 4078SOL    HW213134   5.722   5.296   2.131
 4079SOL     OW13135   1.866   0.450   3.267
 4079SOL    HW113136   1.887   0.547   3.277
 4079SOL    HW213137   1.918   0.412   3.191
 4080SOL     OW13138   3.162   3.847   0.088
 4080SOL    HW113139   3.168   3.880   7.015
 4080SOL    HW213140   3.253   3.849   0.129
 4081SOL     OW13141   2.046   0.854   4.717
 4081SOL    HW113142   2.023   0.757   4.725
 4081SOL    HW213143   2.144   0.866   4.732
 4082SOL     OW13144   1.729   1.519   6.596
 4082SOL    HW113145   1.660   1.455   6.630
 4082SOL    HW213146   1.686   1.606   6.574
 4083SOL     OW13147   5.966   4.377   3.849
 4083SOL    HW113148   5.918   4.369   3.761
 4083SOL    HW213149   5.906   4.346   3.922
 4084SOL     OW13150   4.795   2.999   3.154
 4084SOL    HW113151   4.802   2.920   3.215
 4084SOL    HW213152   4.810   3.082   3.207
 4085SOL     OW13153   2.701   5.331   1.010
 4085SOL    HW113154   2.617   5.383   1.027
 4085SOL    HW213155   2.742   5.304   1.097
 4086SOL     OW13156   0.211   5.072   0.194
 4086SOL    HW113157   0.163   4.985   0.196
 4086SOL    HW213158   0.169   5.135   0.259
 4087SOL     OW13159   3.000   0.926   2.558
 4087SOL    HW113160   3.080   0.882   2.516
 4087SOL    HW213161   2.985   0.888   2.649
 4088SOL     OW13162   6.382   1.119   5.840
 4088SOL    HW113163   6.286   1.099   5.859
 4088SOL    HW213164   6.423   1.165   5.919
 4089SOL     OW13165   0.417   5.453   4.509
 4089SOL    HW113166   0.353   5.501   4.449
 4089SOL    HW213167   0.474   5.391   4.454
 4090SOL     OW13168   2.055   6.348   5.222
 4090SOL    HW113169   2.112   6.271   5.253
 4090SOL    HW213170   1.995   6.377   5.297
 4091SOL     OW13171   1.003   4.988   0.204
 4091SOL    HW113172   1.051   4.974   0.117
 4091SOL    HW213173   1.058   5.045   0.264
 4092SOL     OW13174   4.966   3.397   4.852
 4092SOL    HW113175   4.940   3.455   4.929
 4092SOL    HW213176   4.890   3.336   4.829
 4093SOL     OW13177   5.816   5.949   1.812
 4093SOL    HW113178   5.824   5.988   1.904
 4093SOL    HW213179   5.833   5.851   1.816
 4094SOL     OW13180   0.952   4.839   6.752
 4094SOL    HW113181   0.933   4.907   6.681
 4094SOL    HW213182   0.992   4.883   6.832
 4095SOL     OW13183   0.935   3.337   0.509
 4095SOL    HW113184   0.932   3.241   0.539
 4095SOL    HW213185   0.856   3.386   0.547
 4096SOL     OW13186   2.289   1.242   6.389
 4096SOL    HW113187   2.388   1.249   6.379
 4096SOL    HW213188   2.244   1.260   6.301
 4097SOL     OW13189   6.003   4.448   5.503
 4097SOL    HW113190   6.036   4.452   5.409
 4097SOL    HW213191   6.070   4.402   5.561
 4098SOL     OW13192   2.033   3.049   1.665
 4098SOL    HW113193   1.956   3.002   1.707
 4098SOL    HW213194   2.071   3.115   1.730
 4099SOL     OW13195   3.745   4.968   6.811
 4099SOL    HW113196   3.820   5.005   6.756
 4099SOL    HW213197   3.782   4.900   6.874
 4100SOL     OW13198   1.240   0.737   3.520
 4100SOL    HW113199   1.174   0.794   3.569
 4100SOL    HW213200   1.313   0.708   3.582
 4101SOL     OW13201   6.725   1.049   6.221
 4101SOL    HW113202   6.815   1.057   6.178
 4101SOL    HW213203   6.731   0.988   6.300
 4102SOL     OW13204   2.016   0.654   0.912
 4102SOL    HW113205   2.010   0.567   0.863
 4102SOL    HW213206   1.925   0.682   0.941
 4103SOL     OW13207   0.157   0.029   2.136
 4103SOL    HW113208   0.141   0.049   2.232
 4103SOL    HW213209   0.169   0.115   2.085
 4104SOL     OW13210   0.295   5.062   3.114
 4104SOL    HW113211   0.202   5.050   3.146
 4104SOL    HW213212   0.297   5.129   3.039
 4105SOL     OW13213   4.736   1.377   1.784
 4105SOL    HW113214   4.827   1.411   1.762
 4105SOL    HW213215   4.744   1.298   1.844
 4106SOL     OW13216   7.005   2.387   3.859
 4106SOL    HW113217   6.995   2.307   3.919
 4106SOL    HW213218   0.002   2.468   3.914
 4107SOL     OW13219   0.264   6.126   6.798
 4107SOL    HW113220   0.295   6.176   6.879
 4107SOL    HW213221   0.253   6.190   6.722
 4108SOL     OW13222   0.851   5.831   4.259
 4108SOL    HW113223   0.775   5.873   4.308
 4108SOL    HW213224   0.848   5.858   4.163
 4109SOL     OW13225   5.903   6.070   3.752
 4109SOL    HW113226   5.841   6.062   3.830
 4109SOL    HW213227   5.997   6.050   3.781
 4110SOL     OW13228   3.972   2.962   6.650
 4110SOL    HW113229   4.062   2.994   6.621
 4110SOL    HW213230   3.968   2.862   6.641
 4111SOL     OW13231   5.733   5.069   6.195
 4111SOL    HW113232   5.704   5.157   6.234
 4111SOL    HW213233   5.667   4.998   6.218
 4112SOL     OW13234   5.166   0.159   4.794
 4112SOL    HW113235   5.257   0.194   4.772
 4112SOL    HW213236   5.110   0.234   4.830
 4113SOL     OW13237   4.310   5.252   4.928
 4113SOL    HW113238   4.359   5.181   4.980
 4113SOL    HW213239   4.371   5.330   4.913
 4114SOL     OW13240   6.209   1.306   3.384
 4114SOL    HW113241   6.299   1.266   3.368
 4114SOL    HW213242   6.219   1.394   3.431
 4115SOL     OW13243   2.869   4.758   3.356
 4115SOL    HW113244   2.801   4.766   3.429
 4115SOL    HW213245   2.961   4.760   3.396
 4116SOL     OW13246   5.403   2.807   3.433
 4116SOL    HW113247   5.327   2.760   3.388
 4116SOL    HW213248   5.462   2.849   3.364
 4117SOL     OW13249   1.325   2.008   2.589
 4117SOL    HW113250   1.374   2.085   2.631
 4117SOL    HW213251   1.316   2.024   2.491
 4118SOL     OW13252   6.458   6.653   6.249
 4118SOL    HW113253   6.398   6.614   6.179
 4118SOL    HW213254   6.424   6.742   6.278
 4119SOL     OW13255   3.192   0.750   3.161
 4119SOL    HW113256   3.272   0.809   3.168
 4119SOL    HW213257   3.181   0.700   3.247
 4120SOL     OW13258   4.362   1.482   6.231
 4120SOL    HW113259   4.421   1.556   6.201
 4120SOL    HW213260   4.266   1.509   6.219
 4121SOL     OW13261   6.545   6.634   2.464
 4121SOL    HW113262   6.641   6.647   2.487
 4121SOL    HW213263   6.536   6.596   2.372
 4122SOL     OW13264   0.689   6.363   4.792
 4122SOL    HW113265   0.682   6.298   4.868
 4122SOL    HW213266   0.614   6.348   4.728
 4123SOL     OW13267   4.472   5.549   4.583
 4123SOL    HW113268   4.438   5.466   4.626
 4123SOL    HW213269   4.509   5.610   4.653
 4124SOL     OW13270   6.621   6.580   1.164
 4124SOL    HW113271   6.564   6.535   1.233
 4124SOL    HW213272   6.581   6.669   1.140
 4125SOL     OW13273   4.799   2.871   2.607
 4125SOL    HW113274   4.757   2.874   2.697
 4125SOL    HW213275   4.888   2.825   2.613
 4126SOL     OW13276   1.756   2.958   2.265
 4126SOL    HW113277   1.765   2.871   2.216
 4126SOL    HW213278   1.662   2.971   2.294
 4127SOL     OW13279   4.253   2.112   4.574
 4127SOL    HW113280   4.250   2.012   4.574
 4127SOL    HW213281   4.190   2.146   4.504
 4128SOL     OW13282   0.559   3.143   2.028
 4128SOL    HW113283   0.517   3.221   2.073
 4128SOL    HW213284   0.622   3.097   2.091
 4129SOL     OW13285   3.354   1.823   0.471
 4129SOL    HW113286   3.377   1.852   0.378
 4129SOL    HW213287   3.256   1.808   0.478
 4130SOL     OW13288   6.157   2.803   0.760
 4130SOL    HW113289   6.073   2.847   0.727
 4130SOL    HW213290   6.195   2.858   0.834
 4131SOL     OW13291   6.571   0.702   2.628
 4131SOL    HW113292   6.578   0.746   2.717
 4131SOL    HW213293   6.657   0.656   2.607
 4132SOL     OW13294   5.853   4.057   4.159
 4132SOL    HW113295   5.786   4.021   4.224
 4132SOL    HW213296   5.936   4.001   4.163
 4133SOL     OW13297   4.568   6.297   1.362
 4133SOL    HW113298   4.608   6.295   1.271
 4133SOL    HW213299   4.539   6.204   1.388
 4134SOL     OW13300   2.626   3.489   0.715
 4134SOL    HW113301   2.591   3.500   0.808
 4134SOL    HW213302   2.549   3.486   0.651
 4135SOL     OW13303   0.293   2.253   2.837
 4135SOL    HW113304   0.385   2.266   2.876
 4135SOL    HW213305   0.282   2.157   2.811
 4136SOL     OW13306   1.074   3.810   1.637
 4136SOL    HW113307   1.019   3.738   1.594
 4136SOL    HW213308   1.071   3.799   1.736
 4137SOL     OW13309   1.180   2.670   0.089
 4137SOL    HW113310   1.132   2.752   0.060
 4137SOL    HW213311   1.184   2.605   0.014
 4138SOL     OW13312   4.166   5.074   1.099
 4138SOL    HW113313   4.117   4.990   1.076
 4138SOL    HW213314   4.202   5.067   1.192
 4139SOL     OW13315   1.204   2.179   3.895
 4139SOL    HW113316   1.253   2.155   3.811
 4139SOL    HW213317   1.152   2.264   3.880
 4140SOL     OW13318   3.428   2.110   3.992
 4140SOL    HW113319   3.338   2.079   4.022
 4140SOL    HW213320   3.495   2.096   4.065
 4141SOL     OW13321   4.656   0.169   6.889
 4141SOL    HW113322   4.641   0.248   6.948
 4141SOL    HW213323   4.679   0.089   6.945
 4142SOL     OW13324   6.935   4.270   1.807
 4142SOL    HW113325   6.886   4.183   1.815
 4142SOL    HW213326   7.009   4.272   1.874
 4143SOL     OW13327   5.477   3.232   0.886
 4143SOL    HW113328   5.461   3.330   0.873
 4143SOL    HW213329   5.500   3.191   0.797
 4144SOL     OW13330   5.267   1.720   0.328
 4144SOL    HW113331   5.306   1.777   0.400
 4144SOL    HW213332   5.300   1.626   0.339
 4145SOL     OW13333   1.245   6.143   0.729
 4145SOL    HW113334   1.260   6.241   0.718
 4145SOL    HW213335   1.275   6.095   0.646
 4146SOL     OW13336   6.032   0.298   4.115
 4146SOL    HW113337   6.021   0.211   4.066
 4146SOL    HW213338   6.075   0.280   4.204
 4147SOL     OW13339   5.730   4.563   6.188
 4147SOL    HW113340   5.812   4.517   6.220
 4147SOL    HW213341   5.653   4.542   6.248
 4148SOL     OW13342   2.890   0.296   5.400
 4148SOL    HW113343   2.914   0.389   5.373
 4148SOL    HW213344   2.791   0.291   5.419
 4149SOL     OW13345   0.304   3.410   1.707
 4149SOL    HW113346   0.325   3.476   1.635
 4149SOL    HW213347   0.213   3.428   1.744
 4150SOL     OW13348   6.720   2.137   5.345
 4150SOL    HW113349   6.755   2.074   5.415
 4150SOL    HW213350   6.750   2.106   5.255
 4151SOL     OW13351   1.796   0.081   5.056
 4151SOL    HW113352   1.876   0.104   5.000
 4151SOL    HW213353   1.768   0.162   5.108
 4152SOL     OW13354   4.023   5.918   1.826
 4152SOL    HW113355   3.969   5.838   1.799
 4152SOL    HW213356   4.003   5.994   1.764
 4153SOL     OW13357   6.973   5.150   1.848
 4153SOL    HW113358   6.920   5.103   1.919
 4153SOL    HW213359   6.918   5.223   1.807
 4154SOL     OW13360   0.552   5.584   3.260
 4154SOL    HW113361   0.529   5.486   3.258
 4154SOL    HW213362   0.512   5.629   3.180
 4155SOL     OW13363   6.734   2.116   1.122
 4155SOL    HW113364   6.757   2.212   1.104
 4155SOL    HW213365   6.668   2.085   1.053
 4156SOL     OW13366   6.667   5.226   4.972
 4156SOL    HW113367   6.579   5.236   4.927
 4156SOL    HW213368   6.682   5.303   5.035
 4157SOL     OW13369   6.036   6.019   2.794
 4157SOL    HW113370   6.068   6.074   2.872
 4157SOL    HW213371   5.952   5.971   2.818
 4158SOL     OW13372   2.046   2.658   1.889
 4158SOL    HW113373   2.117   2.595   1.920
 4158SOL    HW213374   2.052   2.669   1.790
 4159SOL     OW13375   2.782   2.173   3.316
 4159SOL    HW113376   2.694   2.193   3.360
 4159SOL    HW213377   2.833   2.109   3.373
 4160SOL     OW13378   5.691   0.163   7.011
 4160SOL    HW113379   5.775   0.128   0.030
 4160SOL    HW213380   5.628   0.190   0.062
 4161SOL     OW13381   1.588   2.198   1.667
 4161SOL    HW113382   1.498   2.242   1.666
 4161SOL    HW213383   1.647   2.242   1.599
 4162SOL     OW13384   6.430   5.774   1.554
 4162SOL    HW113385   6.453   5.800   1.648
 4162SOL    HW213386   6.400   5.679   1.552
 4163SOL     OW13387   5.754   1.362   2.863
 4163SOL    HW113388   5.722   1.285   2.918
 4163SOL    HW213389   5.792   1.432   2.924
 4164SOL     OW13390   0.834   6.985   5.492
 4164SOL    HW113391   0.758   6.960   5.552
 4164SOL    HW213392   0.852   6.911   5.428
 4165SOL     OW13393   4.489   6.896   6.018
 4165SOL    HW113394   4.491   6.958   5.939
 4165SOL    HW213395   4.520   6.805   5.989
 4166SOL     OW13396   5.731   1.362   1.554
 4166SOL    HW113397   5.650   1.413   1.583
 4166SOL    HW213398   5.767   1.310   1.631
 4167SOL     OW13399   2.928   5.022   6.207
 4167SOL    HW113400   2.892   4.941   6.254
 4167SOL    HW213401   2.859   5.095   6.209
 4168SOL     OW13402   0.045   4.132   0.569
 4168SOL    HW113403   0.020   4.157   0.476
 4168SOL    HW213404   0.090   4.210   0.613
 4169SOL     OW13405   6.017   3.845   5.302
 4169SOL    HW113406   5.946   3.779   5.278
 4169SOL    HW213407   5.976   3.931   5.332
 4170SOL     OW13408   4.790   2.947   4.856
 4170SOL    HW113409   4.772   2.915   4.949
 4170SOL    HW213410   4.725   2.904   4.793
 4171SOL     OW13411   0.957   5.423   1.140
 4171SOL    HW113412   0.897   5.358   1.093
 4171SOL    HW213413   1.042   5.434   1.088
 4172SOL     OW13414   2.552   2.953   0.334
 4172SOL    HW113415   2.615   2.875   0.326
 4172SOL    HW213416   2.528   2.986   0.242
 4173SOL     OW13417   4.853   2.789   5.570
 4173SOL    HW113418   4.768   2.739   5.554
 4173SOL    HW213419   4.846   2.841   5.655
 4174SOL     OW13420   5.063   1.653   2.464
 4174SOL    HW113421   5.135   1.604   2.513
 4174SOL    HW213422   4.977   1.646   2.514
 4175SOL     OW13423   1.680   4.492   4.980
 4175SOL    HW113424   1.711   4.448   4.896
 4175SOL    HW213425   1.760   4.514   5.036
 4176SOL     OW13426   4.161   6.642   1.654
 4176SOL    HW113427   4.248   6.600   1.679
 4176SOL    HW213428   4.092   6.571   1.638
 4177SOL     OW13429   5.257   4.633   5.117
 4177SOL    HW113430   5.169   4.592   5.144
 4177SOL    HW213431   5.332   4.582   5.160
 4178SOL     OW13432   4.345   0.079   3.052
 4178SOL    HW113433   4.280   0.048   3.122
 4178SOL    HW213434   4.341   0.179   3.046
 4179SOL     OW13435   5.228   4.041   3.402
 4179SOL    HW113436   5.316   4.070   3.365
 4179SOL    HW213437   5.243   3.979   3.479
 4180SOL     OW13438   4.916   2.870   1.056
 4180SOL    HW113439   4.957   2.952   1.017
 4180SOL    HW213440   4.946   2.790   1.004
 4181SOL     OW13441   5.059   0.945   6.793
 4181SOL    HW113442   5.095   0.859   6.830
 4181SOL    HW213443   5.083   1.021   6.853
 4182SOL     OW13444   0.578   5.104   3.128
 4182SOL    HW113445   0.483   5.080   3.151
 4182SOL    HW213446   0.628   5.022   3.103
 4183SOL     OW13447   2.773   1.095   0.549
 4183SOL    HW113448   2.764   1.081   0.451
 4183SOL    HW213449   2.843   1.163   0.567
 4184SOL     OW13450   3.800   0.365   2.236
 4184SOL    HW113451   3.890   0.345   2.275
 4184SOL    HW213452   3.770   0.289   2.178
 4185SOL     OW13453   0.729   4.022   2.828
 4185SOL    HW113454   0.829   4.026   2.828
 4185SOL    HW213455   0.692   4.115   2.837
 4186SOL     OW13456   2.315   6.148   6.395
 4186SOL    HW113457   2.301   6.064   6.342
 4186SOL    HW213458   2.325   6.125   6.492
 4187SOL     OW13459   2.522   3.009   6.293
 4187SOL    HW113460   2.550   3.000   6.198
 4187SOL    HW213461   2.527   2.919   6.338
 4188SOL     OW13462   5.406   0.956   4.935
 4188SOL    HW113463   5.435   1.052   4.938
 4188SOL    HW213464   5.322   0.948   4.883
 4189SOL     OW13465   3.684   4.915   4.414
 4189SOL    HW113466   3.586   4.906   4.435
 4189SOL    HW213467   3.705   4.861   4.332
 4190SOL     OW13468   0.615   6.890   0.995
 4190SOL    HW113469   0.686   6.825   0.969
 4190SOL    HW213470   0.614   6.966   0.929
 4191SOL     OW13471   5.400   3.827   5.088
 4191SOL    HW113472   5.435   3.775   5.166
 4191SOL    HW213473   5.408   3.925   5.107
 4192SOL     OW13474   1.287   1.413   2.501
 4192SOL    HW113475   1.247   1.499   2.532
 4192SOL    HW213476   1.264   1.397   2.405
 4193SOL     OW13477   4.973   0.469   0.624
 4193SOL    HW113478   4.970   0.553   0.570
 4193SOL    HW213479   5.061   0.463   0.672
 4194SOL     OW13480   4.961   0.127   4.375
 4194SOL    HW113481   4.959   0.032   4.341
 4194SOL    HW213482   5.054   0.150   4.402
 4195SOL     OW13483   4.153   5.096   1.816
 4195SOL    HW113484   4.135   5.072   1.911
 4195SOL    HW213485   4.140   5.195   1.804
 4196SOL     OW13486   6.862   2.403   2.949
 4196SOL    HW113487   6.932   2.343   2.987
 4196SOL    HW213488   6.773   2.380   2.989
 4197SOL     OW13489   4.441   5.316   5.618
 4197SOL    HW113490   4.505   5.390   5.601
 4197SOL    HW213491   4.360   5.351   5.665
 4198SOL     OW13492   6.284   1.513   1.353
 4198SOL    HW113493   6.282   1.605   1.393
 4198SOL    HW213494   6.205   1.461   1.386
 4199SOL     OW13495   1.020   2.392   5.242
 4199SOL    HW113496   1.067   2.323   5.297
 4199SOL    HW213497   1.058   2.482   5.263
 4200SOL     OW13498   2.913   0.698   6.440
 4200SOL    HW113499   2.980   0.772   6.439
 4200SOL    HW213500   2.904   0.659   6.348
 4201SOL     OW13501   6.291   0.126   3.532
 4201SOL    HW113502   6.357   0.187   3.486
 4201SOL    HW213503   6.314   0.031   3.511
 4202SOL     OW13504   2.346   5.648   6.218
 4202SOL    HW113505   2.314   5.564   6.261
 4202SOL    HW213506   2.444   5.657   6.231
 4203SOL     OW13507   4.922   4.508   0.532
 4203SOL    HW113508   5.018   4.525   0.509
 4203SOL    HW213509   4.901   4.552   0.619
 4204SOL     OW13510   3.926   3.565   4.705
 4204SOL    HW113511   3.967   3.656   4.710
 4204SOL    HW213512   3.893   3.548   4.612
 4205SOL     OW13513   4.335   6.208   4.858
 4205SOL    HW113514   4.244   6.228   4.896
 4205SOL    HW213515   4.366   6.286   4.804
 4206SOL     OW13516   6.421   1.707   5.142
 4206SOL    HW113517   6.444   1.795   5.100
 4206SOL    HW213518   6.419   1.718   5.241
 4207SOL     OW13519   2.265   2.909   1.787
 4207SOL    HW113520   2.269   3.009   1.780
 4207SOL    HW213521   2.172   2.881   1.813
 4208SOL     OW13522   6.903   3.612   5.591
 4208SOL    HW113523   6.844   3.692   5.581
 4208SOL    HW213524   6.987   3.625   5.538
 4209SOL     OW13525   6.991   6.182   3.507
 4209SOL    HW113526   6.935   6.155   3.429
 4209SOL    HW213527   0.066   6.186   3.479
 4210SOL     OW13528   3.206   2.958   2.795
 4210SOL    HW113529   3.138   2.926   2.862
 4210SOL    HW213530   3.295   2.919   2.817
 4211SOL     OW13531   3.681   0.391   5.294
 4211SOL    HW113532   3.651   0.347   5.379
 4211SOL    HW213533   3.771   0.355   5.268
 4212SOL     OW13534   6.339   1.792   3.072
 4212SOL    HW113535   6.315   1.771   2.977
 4212SOL    HW213536   6.438   1.802   3.079
 4213SOL     OW13537   2.913   0.412   2.333
 4213SOL    HW113538   2.957   0.481   2.391
 4213SOL    HW213539   2.871   0.342   2.391
 4214SOL     OW13540   0.255   5.586   5.399
 4214SOL    HW113541   0.201   5.521   5.451
 4214SOL    HW213542   0.339   5.542   5.366
 4215SOL     OW13543   5.097   6.933   5.343
 4215SOL    HW113544   5.175   6.922   5.281
 4215SOL    HW213545   5.099   0.004   5.382
 4216SOL     OW13546   1.537   1.161   2.804
 4216SOL    HW113547   1.566   1.231   2.739
 4216SOL    HW213548   1.513   1.203   2.891
 4217SOL     OW13549   1.087   0.982   2.629
 4217SOL    HW113550   1.026   0.936   2.693
 4217SOL    HW213551   1.145   0.914   2.583
 4218SOL     OW13552   3.285   0.781   1.720
 4218SOL    HW113553   3.193   0.763   1.686
 4218SOL    HW213554   3.341   0.698   1.711
 4219SOL     OW13555   4.556   5.883   4.563
 4219SOL    HW113556   4.595   5.799   4.601
 4219SOL    HW213557   4.478   5.911   4.619
 4220SOL     OW13558   6.446   3.135   2.473
 4220SOL    HW113559   6.467   3.230   2.498
 4220SOL    HW213560   6.505   3.107   2.397
 4221SOL     OW13561   5.560   4.243   5.825
 4221SOL    HW113562   5.477   4.191   5.806
 4221SOL    HW213563   5.542   4.311   5.895
 4222SOL     OW13564   6.574   0.944   2.498
 4222SOL    HW113565   6.635   1.006   2.548
 4222SOL    HW213566   6.583   0.851   2.535
 4223SOL     OW13567   3.310   3.897   0.764
 4223SOL    HW113568   3.296   3.892   0.863
 4223SOL    HW213569   3.292   3.808   0.723
 4224SOL     OW13570   5.610   5.163   4.673
 4224SOL    HW113571   5.544   5.213   4.618
 4224SOL    HW213572   5.616   5.204   4.764
 4225SOL     OW13573   2.061   2.601   5.146
 4225SOL    HW113574   2.074   2.696   5.116
 4225SOL    HW213575   2.050   2.598   5.245
 4226SOL     OW13576   0.876   6.248   2.880
 4226SOL    HW113577   0.896   6.253   2.978
 4226SOL    HW213578   0.917   6.166   2.841
 4227SOL     OW13579   3.716   5.472   1.974
 4227SOL    HW113580   3.743   5.386   1.931
 4227SOL    HW213581   3.798   5.523   2.002
 4228SOL     OW13582   0.596   6.198   5.835
 4228SOL    HW113583   0.555   6.195   5.743
 4228SOL    HW213584   0.652   6.281   5.844
 4229SOL     OW13585   4.692   5.858   6.047
 4229SOL    HW113586   4.684   5.955   6.068
 4229SOL    HW213587   4.788   5.831   6.052
 4230SOL     OW13588   1.834   6.333   3.211
 4230SOL    HW113589   1.803   6.375   3.296
 4230SOL    HW213590   1.759   6.282   3.169
 4231SOL     OW13591   5.126   6.971   6.179
 4231SOL    HW113592   5.052   0.004   6.140
 4231SOL    HW213593   5.117   6.876   6.148
 4232SOL     OW13594   1.290   4.459   2.923
 4232SOL    HW113595   1.384   4.491   2.917
 4232SOL    HW213596   1.288   4.360   2.909
 4233SOL     OW13597   6.314   0.706   4.895
 4233SOL    HW113598   6.320   0.806   4.891
 4233SOL    HW213599   6.358   0.674   4.979
 4234SOL     OW13600   1.887   5.220   5.491
 4234SOL    HW113601   1.976   5.179   5.470
 4234SOL    HW213602   1.873   5.301   5.434
 4235SOL     OW13603   6.379   4.199   5.844
 4235SOL    HW113604   6.334   4.150   5.919
 4235SOL    HW213605   6.465   4.239   5.878
 4236SOL     OW13606   6.236   3.822   2.160
 4236SOL    HW113607   6.315   3.824   2.098
 4236SOL    HW213608   6.181   3.904   2.145
 4237SOL     OW13609   6.137   5.206   4.096
 4237SOL    HW113610   6.070   5.173   4.029
 4237SOL    HW213611   6.190   5.280   4.057
 4238SOL     OW13612   1.567   6.614   3.270
 4238SOL    HW113613   1.589   6.711   3.272
 4238SOL    HW213614   1.591   6.576   3.181
 4239SOL     OW13615   4.842   1.476   3.310
 4239SOL    HW113616   4.923   1.526   3.278
 4239SOL    HW213617   4.803   1.424   3.234
 4240SOL     OW13618   2.097   5.652   0.491
 4240SOL    HW113619   2.193   5.675   0.474
 4240SOL    HW213620   2.091   5.575   0.554
 4241SOL     OW13621   5.451   1.080   0.945
 4241SOL    HW113622   5.424   1.111   0.854
 4241SOL    HW213623   5.481   1.159   0.999
 4242SOL     OW13624   3.125   2.061   4.080
 4242SOL    HW113625   3.033   2.045   4.046
 4242SOL    HW213626   3.164   1.974   4.112
 4243SOL     OW13627   5.352   2.523   3.034
 4243SOL    HW113628   5.344   2.622   3.040
 4243SOL    HW213629   5.442   2.494   3.067
 4244SOL     OW13630   4.247   4.317   1.452
 4244SOL    HW113631   4.243   4.218   1.469
 4244SOL    HW213632   4.296   4.361   1.527
 4245SOL     OW13633   6.553   1.893   6.083
 4245SOL    HW113634   6.650   1.913   6.099
 4245SOL    HW213635   6.498   1.928   6.159
 4246SOL     OW13636   6.657   3.615   2.818
 4246SOL    HW113637   6.667   3.560   2.902
 4246SOL    HW213638   6.715   3.697   2.826
 4247SOL     OW13639   2.393   5.926   3.597
 4247SOL    HW113640   2.407   5.883   3.686
 4247SOL    HW213641   2.418   6.023   3.603
 4248SOL     OW13642   3.409   1.348   3.709
 4248SOL    HW113643   3.491   1.344   3.652
 4248SOL    HW213644   3.362   1.260   3.706
 4249SOL     OW13645   6.801   2.839   4.883
 4249SOL    HW113646   6.827   2.819   4.788
 4249SOL    HW213647   6.876   2.886   4.929
 4250SOL     OW13648   6.413   4.246   2.666
 4250SOL    HW113649   6.379   4.335   2.635
 4250SOL    HW213650   6.478   4.259   2.741
 4251SOL     OW13651   5.838   4.617   0.945
 4251SOL    HW113652   5.879   4.645   1.032
 4251SOL    HW213653   5.885   4.535   0.910
 4252SOL     OW13654   6.067   6.270   5.429
 4252SOL    HW113655   6.010   6.351   5.416
 4252SOL    HW213656   6.097   6.266   5.525
 4253SOL     OW13657   3.182   6.611   0.872
 4253SOL    HW113658   3.265   6.633   0.821
 4253SOL    HW213659   3.116   6.567   0.811
 4254SOL     OW13660   0.865   2.543   2.494
 4254SOL    HW113661   0.822   2.482   2.427
 4254SOL    HW213662   0.896   2.490   2.573
 4255SOL     OW13663   5.781   3.793   3.436
 4255SOL    HW113664   5.811   3.850   3.512
 4255SOL    HW213665   5.681   3.784   3.438
 4256SOL     OW13666   1.466   0.017   0.753
 4256SOL    HW113667   1.484   0.073   0.833
 4256SOL    HW213668   1.391   0.056   0.699
 4257SOL     OW13669   3.571   0.315   3.788
 4257SOL    HW113670   3.617   0.227   3.776
 4257SOL    HW213671   3.576   0.342   3.885
 4258SOL     OW13672   5.363   6.276   1.444
 4258SOL    HW113673   5.297   6.322   1.503
 4258SOL    HW213674   5.453   6.320   1.453
 4259SOL     OW13675   2.696   0.857   6.981
 4259SOL    HW113676   2.728   0.929   0.021
 4259SOL    HW213677   2.775   0.816   6.933
 4260SOL     OW13678   4.689   0.266   6.282
 4260SOL    HW113679   4.721   0.302   6.370
 4260SOL    HW213680   4.591   0.248   6.288
 4261SOL     OW13681   1.852   0.082   1.858
 4261SOL    HW113682   1.879   0.176   1.837
 4261SOL    HW213683   1.830   0.076   1.956
 4262SOL     OW13684   0.523   4.103   5.215
 4262SOL    HW113685   0.454   4.077   5.148
 4262SOL    HW213686   0.527   4.203   5.223
 4263SOL     OW13687   2.615   6.362   3.481
 4263SOL    HW113688   2.665   6.439   3.522
 4263SOL    HW213689   2.585   6.387   3.389
 4264SOL     OW13690   0.286   2.521   2.822
 4264SOL    HW113691   0.262   2.424   2.828
 4264SOL    HW213692   0.270   2.564   2.910
 4265SOL     OW13693   5.441   1.422   0.734
 4265SOL    HW113694   5.436   1.323   0.718
 4265SOL    HW213695   5.504   1.464   0.669
 4266SOL     OW13696   2.154   4.813   0.273
 4266SOL    HW113697   2.133   4.843   0.366
 4266SOL    HW213698   2.069   4.792   0.225
 4267SOL     OW13699   2.041   3.625   4.561
 4267SOL    HW113700   2.045   3.714   4.516
 4267SOL    HW213701   1.954   3.616   4.610
 4268SOL     OW13702   1.261   6.290   6.230
 4268SOL    HW113703   1.238   6.291   6.327
 4268SOL    HW213704   1.186   6.249   6.178
 4269SOL     OW13705   2.233   1.173   1.540
 4269SOL    HW113706   2.201   1.096   1.596
 4269SOL    HW213707   2.333   1.179   1.546
 4270SOL     OW13708   3.798   3.485   3.673
 4270SOL    HW113709   3.893   3.508   3.655
 4270SOL    HW213710   3.748   3.475   3.587
 4271SOL     OW13711   0.339   1.410   0.010
 4271SOL    HW113712   0.337   1.443   6.937
 4271SOL    HW213713   0.245   1.401   0.043
 4272SOL     OW13714   0.428   3.338   4.824
 4272SOL    HW113715   0.438   3.414   4.889
 4272SOL    HW213716   0.341   3.291   4.842
 4273SOL     OW13717   4.607   5.801   5.370
 4273SOL    HW113718   4.524   5.853   5.350
 4273SOL    HW213719   4.641   5.828   5.460
 4274SOL     OW13720   1.857   0.078   2.139
 4274SOL    HW113721   1.761   0.059   2.158
 4274SOL    HW213722   1.914   0.006   2.178
 4275SOL     OW13723   6.527   1.097   4.899
 4275SOL    HW113724   6.432   1.066   4.900
 4275SOL    HW213725   6.535   1.176   4.838
 4276SOL     OW13726   2.056   4.854   3.857
 4276SOL    HW113727   2.066   4.837   3.955
 4276SOL    HW213728   2.140   4.896   3.822
 4277SOL     OW13729   6.294   4.692   4.213
 4277SOL    HW113730   6.299   4.598   4.177
 4277SOL    HW213731   6.200   4.712   4.240
 4278SOL     OW13732   0.499   0.787   4.618
 4278SOL    HW113733   0.472   0.834   4.702
 4278SOL    HW213734   0.572   0.838   4.573
 4279SOL     OW13735   3.793   6.971   5.012
 4279SOL    HW113736   3.865   0.018   4.994
 4279SOL    HW213737   3.704   7.010   4.987
 4280SOL     OW13738   5.195   0.762   5.766
 4280SOL    HW113739   5.205   0.662   5.765
 4280SOL    HW213740   5.160   0.790   5.855
 4281SOL     OW13741   1.163   5.338   3.962
 4281SOL    HW113742   1.196   5.368   4.051
 4281SOL    HW213743   1.113   5.413   3.918
 4282SOL     OW13744   3.488   3.777   6.493
 4282SOL    HW113745   3.461   3.681   6.487
 4282SOL    HW213746   3.585   3.783   6.517
 4283SOL     OW13747   2.538   0.912   3.289
 4283SOL    HW113748   2.628   0.901   3.333
 4283SOL    HW213749   2.469   0.863   3.343
 4284SOL     OW13750   4.355   5.076   1.281
 4284SOL    HW113751   4.380   5.171   1.298
 4284SOL    HW213752   4.416   5.016   1.332
 4285SOL     OW13753   0.553   0.914   6.018
 4285SOL    HW113754   0.612   0.908   6.099
 4285SOL    HW213755   0.467   0.866   6.037
 4286SOL     OW13756   4.727   5.963   6.341
 4286SOL    HW113757   4.644   6.007   6.307
 4286SOL    HW213758   4.744   5.992   6.436
 4287SOL     OW13759   5.734   1.093   6.624
 4287SOL    HW113760   5.660   1.160   6.619
 4287SOL    HW213761   5.812   1.125   6.569
 4288SOL     OW13762   1.461   5.890   3.456
 4288SOL    HW113763   1.477   5.918   3.551
 4288SOL    HW213764   1.386   5.824   3.452
 4289SOL     OW13765   6.680   3.417   0.609
 4289SOL    HW113766   6.770   3.444   0.642
 4289SOL    HW213767   6.686   3.326   0.568
 4290SOL     OW13768   2.213   6.989   2.924
 4290SOL    HW113769   2.256   0.056   2.905
 4290SOL    HW213770   2.114   6.998   2.916
 4291SOL     OW13771   3.785   4.084   1.179
 4291SOL    HW113772   3.701   4.137   1.190
 4291SOL    HW213773   3.763   3.991   1.152
 4292SOL     OW13774   6.238   4.432   6.279
 4292SOL    HW113775   6.266   4.375   6.202
 4292SOL    HW213776   6.164   4.493   6.249
 4293SOL     OW13777   0.899   3.197   0.941
 4293SOL    HW113778   0.936   3.140   0.868
 4293SOL    HW213779   0.975   3.243   0.989
 4294SOL     OW13780   3.063   2.878   0.106
 4294SOL    HW113781   3.037   2.835   0.020
 4294SOL    HW213782   2.992   2.943   0.134
 4295SOL     OW13783   4.146   5.870   4.615
 4295SOL    HW113784   4.165   5.774   4.598
 4295SOL    HW213785   4.228   5.924   4.593
 4296SOL     OW13786   4.286   0.717   0.490
 4296SOL    HW113787   4.243   0.795   0.536
 4296SOL    HW213788   4.327   0.746   0.404
 4297SOL     OW13789   5.631   0.807   6.651
 4297SOL    HW113790   5.634   0.849   6.742
 4297SOL    HW213791   5.659   0.875   6.583
 4298SOL     OW13792   3.227   5.530   0.072
 4298SOL    HW113793   3.171   5.592   0.017
 4298SOL    HW213794   3.284   5.474   0.012
 4299SOL     OW13795   1.216   3.053   0.222
 4299SOL    HW113796   1.221   3.076   0.319
 4299SOL    HW213797   1.292   2.993   0.197
 4300SOL     OW13798   3.640   0.822   0.325
 4300SOL    HW113799   3.668   0.740   0.375
 4300SOL    HW213800   3.563   0.865   0.372
 4301SOL     OW13801   3.420   1.995   0.931
 4301SOL    HW113802   3.427   1.901   0.900
 4301SOL    HW213803   3.505   2.022   0.977
 4302SOL     OW13804   1.350   6.672   5.516
 4302SOL    HW113805   1.426   6.704   5.460
 4302SOL    HW213806   1.384   6.609   5.587
 4303SOL     OW13807   5.942   4.682   4.109
 4303SOL    HW113808   5.857   4.667   4.059
 4303SOL    HW213809   6.018   4.637   4.062
 4304SOL     OW13810   3.181   4.025   3.318
 4304SOL    HW113811   3.213   4.091   3.385
 4304SOL    HW213812   3.250   4.015   3.245
 4305SOL     OW13813   6.464   0.735   4.680
 4305SOL    HW113814   6.419   0.704   4.763
 4305SOL    HW213815   6.558   0.701   4.678
 4306SOL     OW13816   6.630   3.606   6.819
 4306SOL    HW113817   6.709   3.546   6.822
 4306SOL    HW213818   6.557   3.567   6.875
 4307SOL     OW13819   4.517   3.257   6.022
 4307SOL    HW113820   4.544   3.325   5.954
 4307SOL    HW213821   4.465   3.301   6.095
 4308SOL     OW13822   5.397   5.576   6.335
 4308SOL    HW113823   5.351   5.599   6.250
 4308SOL    HW213824   5.476   5.636   6.348
 4309SOL     OW13825   1.213   1.547   0.691
 4309SOL    HW113826   1.132   1.536   0.633
 4309SOL    HW213827   1.208   1.634   0.740
 4310SOL     OW13828   1.752   2.660   3.294
 4310SOL    HW113829   1.664   2.614   3.309
 4310SOL    HW213830   1.802   2.614   3.222
 4311SOL     OW13831   1.803   5.819   3.806
 4311SOL    HW113832   1.898   5.850   3.807
 4311SOL    HW213833   1.793   5.740   3.866
 4312SOL     OW13834   1.434   4.831   0.656
 4312SOL    HW113835   1.371   4.897   0.613
 4312SOL    HW213836   1.387   4.786   0.731
 4313SOL     OW13837   4.853   1.465   1.411
 4313SOL    HW113838   4.797   1.517   1.475
 4313SOL    HW213839   4.820   1.371   1.406
 4314SOL     OW13840   5.859   1.604   4.268
 4314SOL    HW113841   5.833   1.621   4.173
 4314SOL    HW213842   5.913   1.682   4.301
 4315SOL     OW13843   2.762   6.819   2.014
 4315SOL    HW113844   2.741   6.721   2.005
 4315SOL    HW213845   2.678   6.872   2.002
 4316SOL     OW13846   5.022   6.896   1.206
 4316SOL    HW113847   5.012   6.912   1.304
 4316SOL    HW213848   5.042   6.800   1.189
 4317SOL     OW13849   4.130   1.807   5.185
 4317SOL    HW113850   4.125   1.746   5.106
 4317SOL    HW213851   4.060   1.878   5.177
 4318SOL     OW13852   0.850   3.579   3.727
 4318SOL    HW113853   0.801   3.655   3.769
 4318SOL    HW213854   0.853   3.502   3.790
 4319SOL     OW13855   2.175   2.774   0.059
 4319SOL    HW113856   2.197   2.815   6.991
 4319SOL    HW213857   2.141   2.845   0.121
 4320SOL     OW13858   6.323   6.168   2.279
 4320SOL    HW113859   6.414   6.143   2.314
 4320SOL    HW213860   6.254   6.151   2.349
 4321SOL     OW13861   6.683   6.513   5.030
 4321SOL    HW113862   6.762   6.457   5.053
 4321SOL    HW213863   6.657   6.568   5.110
 4322SOL     OW13864   6.222   2.034   6.831
 4322SOL    HW113865   6.190   2.045   6.737
 4322SOL    HW213866   6.221   1.938   6.856
 4323SOL     OW13867   5.079   4.187   1.405
 4323SOL    HW113868   5.082   4.092   1.373
 4323SOL    HW213869   5.006   4.197   1.473
 4324SOL     OW13870   5.626   3.807   6.228
 4324SOL    HW113871   5.708   3.799   6.284
 4324SOL    HW213872   5.624   3.733   6.160
 4325SOL     OW13873   2.305   0.974   1.162
 4325SOL    HW113874   2.328   1.071   1.158
 4325SOL    HW213875   2.363   0.928   1.229
 4326SOL     OW13876   5.520   3.406   5.222
 4326SOL    HW113877   5.606   3.455   5.236
 4326SOL    HW213878   5.506   3.342   5.297
 4327SOL     OW13879   6.060   5.323   2.050
 4327SOL    HW113880   5.976   5.360   2.088
 4327SOL    HW213881   6.066   5.225   2.071
 4328SOL     OW13882   4.104   3.291   5.869
 4328SOL    HW113883   4.029   3.230   5.846
 4328SOL    HW213884   4.097   3.317   5.966
 4329SOL     OW13885   4.106   1.880   5.625
 4329SOL    HW113886   4.173   1.856   5.555
 4329SOL    HW213887   4.101   1.807   5.693
 4330SOL     OW13888   2.705   0.714   4.947
 4330SOL    HW113889   2.735   0.676   4.859
 4330SOL    HW213890   2.632   0.658   4.985
 4331SOL     OW13891   4.971   2.925   0.530
 4331SOL    HW113892   4.903   2.988   0.494
 4331SOL    HW213893   4.939   2.831   0.520
 4332SOL     OW13894   5.217   4.734   2.447
 4332SOL    HW113895   5.279   4.783   2.386
 4332SOL    HW213896   5.162   4.800   2.499
 4333SOL     OW13897   4.129   0.511   5.179
 4333SOL    HW113898   4.198   0.535   5.247
 4333SOL    HW213899   4.066   0.588   5.168
 4334SOL     OW13900   1.656   2.144   2.735
 4334SOL    HW113901   1.567   2.179   2.767
 4334SOL    HW213902   1.726   2.214   2.750
 4335SOL     OW13903   3.481   3.801   2.752
 4335SOL    HW113904   3.468   3.897   2.727
 4335SOL    HW213905   3.577   3.775   2.737
 4336SOL     OW13906   1.625   6.844   6.214
 4336SOL    HW113907   1.561   6.786   6.163
 4336SOL    HW213908   1.651   6.799   6.299
 4337SOL     OW13909   0.791   4.647   0.504
 4337SOL    HW113910   0.826   4.583   0.572
 4337SOL    HW213911   0.867   4.686   0.452
 4338SOL     OW13912   4.995   5.750   4.522
 4338SOL    HW113913   4.950   5.668   4.557
 4338SOL    HW213914   4.992   5.751   4.422
 4339SOL     OW13915   6.395   3.204   5.132
 4339SOL    HW113916   6.306   3.175   5.167
 4339SOL    HW213917   6.467   3.163   5.187
 4340SOL     OW13918   6.349   4.465   1.547
 4340SOL    HW113919   6.354   4.452   1.448
 4340SOL    HW213920   6.261   4.429   1.580
 4341SOL     OW13921   0.504   6.107   2.206
 4341SOL    HW113922   0.474   6.014   2.186
 4341SOL    HW213923   0.434   6.172   2.176
 4342SOL     OW13924   6.329   3.572   4.195
 4342SOL    HW113925   6.238   3.536   4.172
 4342SOL    HW213926   6.318   3.657   4.247
 4343SOL     OW13927   2.529   6.230   6.241
 4343SOL    HW113928   2.449   6.206   6.295
 4343SOL    HW213929   2.562   6.149   6.193
 4344SOL     OW13930   1.758   5.505   3.229
 4344SOL    HW113931   1.690   5.543   3.293
 4344SOL    HW213932   1.719   5.425   3.184
 4345SOL     OW13933   2.066   2.872   5.077
 4345SOL    HW113934   2.142   2.923   5.035
 4345SOL    HW213935   2.033   2.922   5.157
 4346SOL     OW13936   1.825   3.232   2.129
 4346SOL    HW113937   1.853   3.316   2.083
 4346SOL    HW213938   1.796   3.253   2.223
 4347SOL     OW13939   5.760   6.981   2.939
 4347SOL    HW113940   5.799   6.924   2.867
 4347SOL    HW213941   5.766   6.933   3.027
 4348SOL     OW13942   6.711   4.159   3.049
 4348SOL    HW113943   6.800   4.146   3.004
 4348SOL    HW213944   6.726   4.184   3.145
 4349SOL     OW13945   6.714   2.179   2.553
 4349SOL    HW113946   6.779   2.177   2.629
 4349SOL    HW213947   6.765   2.182   2.466
 4350SOL     OW13948   5.208   1.999   3.769
 4350SOL    HW113949   5.133   1.940   3.800
 4350SOL    HW213950   5.200   2.014   3.671
 4351SOL     OW13951   1.746   6.611   1.143
 4351SOL    HW113952   1.777   6.674   1.072
 4351SOL    HW213953   1.784   6.639   1.231
 4352SOL     OW13954   0.737   2.733   2.629
 4352SOL    HW113955   0.782   2.654   2.588
 4352SOL    HW213956   0.659   2.703   2.684
 4353SOL     OW13957   3.452   3.506   0.016
 4353SOL    HW113958   3.394   3.432   7.004
 4353SOL    HW213959   3.467   3.573   6.964
 4354SOL     OW13960   2.594   0.042   6.006
 4354SOL    HW113961   2.571   0.084   5.919
 4354SOL    HW213962   2.591   6.964   5.997
 4355SOL     OW13963   3.350   0.381   2.407
 4355SOL    HW113964   3.448   0.366   2.405
 4355SOL    HW213965   3.304   0.312   2.352
 4356SOL     OW13966   4.868   4.194   1.055
 4356SOL    HW113967   4.910   4.105   1.038
 4356SOL    HW213968   4.938   4.265   1.050
 4357SOL     OW13969   5.888   0.042   0.152
 4357SOL    HW113970   5.967   0.027   0.093
 4357SOL    HW213971   5.848   6.975   0.177
 4358SOL     OW13972   0.059   6.363   0.021
 4358SOL    HW113973   0.071   6.407   6.953
 4358SOL    HW213974   0.146   6.363   0.071
 4359SOL     OW13975   2.241   2.216   6.255
 4359SOL    HW113976   2.277   2.169   6.336
 4359SOL    HW213977   2.234   2.152   6.179
 4360SOL     OW13978   1.348   2.224   4.120
 4360SOL    HW113979   1.404   2.307   4.121
 4360SOL    HW213980   1.289   2.224   4.040
 4361SOL     OW13981   2.760   3.323   1.442
 4361SOL    HW113982   2.840   3.287   1.394
 4361SOL    HW213983   2.755   3.282   1.533
 4362SOL     OW13984   6.306   4.988   2.973
 4362SOL    HW113985   6.258   4.927   3.036
 4362SOL    HW213986   6.241   5.026   2.908
 4363SOL     OW13987   5.001   2.708   0.026
 4363SOL    HW113988   4.940   2.730   6.971
 4363SOL    HW213989   4.958   2.639   0.085
 4364SOL     OW13990   3.298   3.665   5.460
 4364SOL    HW113991   3.204   3.653   5.428
 4364SOL    HW213992   3.361   3.636   5.389
 4365SOL     OW13993   2.235   2.506   1.989
 4365SOL    HW113994   2.264   2.429   1.933
 4365SOL    HW213995   2.207   2.473   2.080
 4366SOL     OW13996   5.800   6.015   0.406
 4366SOL    HW113997   5.710   6.056   0.421
 4366SOL    HW213998   5.858   6.080   0.357
 4367SOL     OW13999   1.969   4.536   4.835
 4367SOL    HW114000   2.039   4.554   4.904
 4367SOL    HW214001   1.908   4.615   4.828
 4368SOL     OW14002   4.058   4.498   0.728
 4368SOL    HW114003   4.106   4.492   0.641
 4368SOL    HW214004   3.960   4.501   0.712
 4369SOL     OW14005   3.738   5.606   3.987
 4369SOL    HW114006   3.697   5.549   3.916
 4369SOL    HW214007   3.817   5.654   3.950
 4370SOL     OW14008   4.972   5.094   2.975
 4370SOL    HW114009   5.027   5.178   2.973
 4370SOL    HW214010   5.031   5.015   2.960
 4371SOL     OW14011   0.576   1.169   1.535
 4371SOL    HW114012   0.531   1.241   1.483
 4371SOL    HW214013   0.627   1.109   1.473
 4372SOL     OW14014   4.061   1.283   2.910
 4372SOL    HW114015   4.084   1.193   2.873
 4372SOL    HW214016   4.044   1.276   3.008
 4373SOL     OW14017   0.150   2.270   6.913
 4373SOL    HW114018   0.087   2.211   6.964
 4373SOL    HW214019   0.179   2.346   6.972
 4374SOL     OW14020   1.281   2.039   2.266
 4374SOL    HW114021   1.220   1.961   2.250
 4374SOL    HW214022   1.376   2.008   2.262
 4375SOL     OW14023   3.925   0.691   3.180
 4375SOL    HW114024   3.921   0.592   3.194
 4375SOL    HW214025   4.015   0.716   3.144
 4376SOL     OW14026   6.483   6.679   2.757
 4376SOL    HW114027   6.443   6.706   2.670
 4376SOL    HW214028   6.557   6.741   2.782
 4377SOL     OW14029   5.249   4.268   0.758
 4377SOL    HW114030   5.226   4.280   0.662
 4377SOL    HW214031   5.239   4.355   0.806
 4378SOL     OW14032   2.234   1.244   2.881
 4378SOL    HW114033   2.182   1.276   2.802
 4378SOL    HW214034   2.204   1.152   2.905
 4379SOL     OW14035   2.151   0.970   2.564
 4379SOL    HW114036   2.193   1.058   2.587
 4379SOL    HW214037   2.059   0.986   2.526
 4380SOL     OW14038   1.573   6.720   2.750
 4380SOL    HW114039   1.541   6.814   2.743
 4380SOL    HW214040   1.644   6.703   2.682
 4381SOL     OW14041   0.715   6.086   5.365
 4381SOL    HW114042   0.755   6.042   5.446
 4381SOL    HW214043   0.627   6.127   5.389
 4382SOL     OW14044   1.043   3.581   5.254
 4382SOL    HW114045   0.953   3.564   5.212
 4382SOL    HW214046   1.110   3.518   5.215
 4383SOL     OW14047   0.614   3.202   0.159
 4383SOL    HW114048   0.606   3.169   0.065
 4383SOL    HW214049   0.591   3.128   0.222
 4384SOL     OW14050   5.880   0.359   4.752
 4384SOL    HW114051   5.950   0.291   4.728
 4384SOL    HW214052   5.903   0.447   4.711
 4385SOL     OW14053   4.725   2.654   4.811
 4385SOL    HW114054   4.685   2.680   4.898
 4385SOL    HW214055   4.656   2.609   4.754
 4386SOL     OW14056   1.844   3.290   6.004
 4386SOL    HW114057   1.759   3.330   5.971
 4386SOL    HW214058   1.921   3.346   5.973
 4387SOL     OW14059   6.717   2.627   1.325
 4387SOL    HW114060   6.779   2.665   1.394
 4387SOL    HW214061   6.655   2.561   1.368
 4388SOL     OW14062   4.252   2.207   5.751
 4388SOL    HW114063   4.156   2.232   5.765
 4388SOL    HW214064   4.268   2.184   5.655
 4389SOL     OW14065   6.253   3.342   1.150
 4389SOL    HW114066   6.344   3.377   1.173
 4389SOL    HW214067   6.194   3.344   1.231
 4390SOL     OW14068   3.580   6.781   1.709
 4390SOL    HW114069   3.663   6.778   1.764
 4390SOL    HW214070   3.531   6.694   1.718
 4391SOL     OW14071   2.185   5.816   0.088
 4391SOL    HW114072   2.170   5.740   0.025
 4391SOL    HW214073   2.116   5.813   0.161
 4392SOL     OW14074   0.842   2.488   5.081
 4392SOL    HW114075   0.909   2.441   5.137
 4392SOL    HW214076   0.773   2.531   5.139
 4393SOL     OW14077   6.547   0.976   1.585
 4393SOL    HW114078   6.546   0.884   1.625
 4393SOL    HW214079   6.597   1.038   1.645
 4394SOL     OW14080   6.613   5.610   2.499
 4394SOL    HW114081   6.657   5.643   2.582
 4394SOL    HW214082   6.604   5.686   2.434
 4395SOL     OW14083   2.004   0.578   1.877
 4395SOL    HW114084   1.915   0.594   1.920
 4395SOL    HW214085   2.074   0.629   1.926
 4396SOL     OW14086   1.814   1.388   3.766
 4396SOL    HW114087   1.725   1.404   3.724
 4396SOL    HW214088   1.805   1.392   3.866
 4397SOL     OW14089   1.746   2.377   4.053
 4397SOL    HW114090   1.725   2.341   4.144
 4397SOL    HW214091   1.835   2.343   4.023
 4398SOL     OW14092   1.437   3.511   5.958
 4398SOL    HW114093   1.398   3.601   5.978
 4398SOL    HW214094   1.363   3.446   5.938
 4399SOL     OW14095   3.547   5.938   2.628
 4399SOL    HW114096   3.450   5.952   2.606
 4399SOL    HW214097   3.598   6.021   2.606
 4400SOL     OW14098   2.446   6.809   4.723
 4400SOL    HW114099   2.533   6.848   4.754
 4400SOL    HW214100   2.412   6.744   4.791
 4401SOL     OW14101   3.147   6.900   5.685
 4401SOL    HW114102   3.052   6.898   5.718
 4401SOL    HW214103   3.161   6.981   5.628
 4402SOL     OW14104   1.688   0.195   2.832
 4402SOL    HW114105   1.752   0.269   2.809
 4402SOL    HW214106   1.718   0.111   2.787
 4403SOL     OW14107   0.879   6.987   0.106
 4403SOL    HW114108   0.872   7.015   0.010
 4403SOL    HW214109   0.806   6.922   0.126
 4404SOL     OW14110   1.576   6.142   5.890
 4404SOL    HW114111   1.666   6.185   5.893
 4404SOL    HW214112   1.582   6.055   5.842
 4405SOL     OW14113   1.922   4.515   1.558
 4405SOL    HW114114   1.840   4.491   1.506
 4405SOL    HW214115   1.938   4.614   1.551
 4406SOL     OW14116   0.795   2.706   0.706
 4406SOL    HW114117   0.810   2.789   0.651
 4406SOL    HW214118   0.703   2.710   0.746
 4407SOL     OW14119   6.780   5.508   1.324
 4407SOL    HW114120   6.844   5.439   1.358
 4407SOL    HW214121   6.828   5.595   1.314
 4408SOL     OW14122   2.337   0.309   0.367
 4408SOL    HW114123   2.294   0.392   0.332
 4408SOL    HW214124   2.278   0.230   0.348
 4409SOL     OW14125   4.440   1.721   2.021
 4409SOL    HW114126   4.519   1.729   1.960
 4409SOL    HW214127   4.363   1.772   1.981
 4410SOL     OW14128   0.735   4.579   0.165
 4410SOL    HW114129   0.710   4.650   0.231
 4410SOL    HW214130   0.802   4.615   0.100
 4411SOL     OW14131   3.728   4.138   4.954
 4411SOL    HW114132   3.686   4.048   4.958
 4411SOL    HW214133   3.824   4.129   4.927
 4412SOL     OW14134   4.924   6.093   4.407
 4412SOL    HW114135   4.936   6.189   4.383
 4412SOL    HW214136   4.986   6.036   4.352
 4413SOL     OW14137   5.702   5.052   3.886
 4413SOL    HW114138   5.798   5.081   3.889
 4413SOL    HW214139   5.669   5.037   3.979
 4414SOL     OW14140   3.277   5.844   1.233
 4414SOL    HW114141   3.313   5.755   1.207
 4414SOL    HW214142   3.352   5.908   1.245
 4415SOL     OW14143   4.598   3.061   0.010
 4415SOL    HW114144   4.498   3.066   0.008
 4415SOL    HW214145   4.634   3.128   0.075
 4416SOL     OW14146   4.262   1.878   4.153
 4416SOL    HW114147   4.320   1.878   4.234
 4416SOL    HW214148   4.171   1.911   4.178
 4417SOL     OW14149   5.889   3.559   3.926
 4417SOL    HW114150   5.854   3.577   4.018
 4417SOL    HW214151   5.819   3.580   3.858
 4418SOL     OW14152   6.353   1.502   2.771
 4418SOL    HW114153   6.270   1.512   2.717
 4418SOL    HW214154   6.333   1.448   2.852
 4419SOL     OW14155   6.367   0.319   5.517
 4419SOL    HW114156   6.453   0.339   5.470
 4419SOL    HW214157   6.368   0.225   5.551
 4420SOL     OW14158   4.040   1.657   2.134
 4420SOL    HW114159   4.036   1.757   2.127
 4420SOL    HW214160   3.970   1.626   2.199
 4421SOL     OW14161   2.012   1.847   4.865
 4421SOL    HW114162   2.041   1.934   4.904
 4421SOL    HW214163   2.083   1.812   4.803
 4422SOL     OW14164   1.101   4.627   6.740
 4422SOL    HW114165   1.044   4.709   6.742
 4422SOL    HW214166   1.128   4.603   6.833
 4423SOL     OW14167   0.121   3.693   5.460
 4423SOL    HW114168   0.168   3.773   5.497
 4423SOL    HW214169   0.184   3.639   5.405
 4424SOL     OW14170   5.465   0.357   4.411
 4424SOL    HW114171   5.414   0.441   4.390
 4424SOL    HW214172   5.401   0.287   4.444
 4425SOL     OW14173   3.389   5.064   0.267
 4425SOL    HW114174   3.480   5.022   0.258
 4425SOL    HW214175   3.321   4.993   0.284
 4426SOL     OW14176   0.904   1.239   3.635
 4426SOL    HW114177   0.952   1.303   3.575
 4426SOL    HW214178   0.901   1.149   3.591
 4427SOL     OW14179   5.618   6.979   2.572
 4427SOL    HW114180   5.689   6.911   2.589
 4427SOL    HW214181   5.606   0.015   2.654
 4428SOL     OW14182   4.147   0.695   3.857
 4428SOL    HW114183   4.183   0.647   3.777
 4428SOL    HW214184   4.208   0.680   3.935
 4429SOL     OW14185   3.188   6.988   2.334
 4429SOL    HW114186   3.192   0.066   2.324
 4429SOL    HW214187   3.110   6.952   2.283
 4430SOL     OW14188   5.306   4.893   5.262
 4430SOL    HW114189   5.214   4.930   5.273
 4430SOL    HW214190   5.302   4.793   5.262
 4431SOL     OW14191   2.958   0.751   2.768
 4431SOL    HW114192   2.919   0.799   2.847
 4431SOL    HW214193   3.037   0.697   2.798
 4432SOL     OW14194   2.672   3.413   6.077
 4432SOL    HW114195   2.768   3.410   6.048
 4432SOL    HW214196   2.623   3.336   6.036
 4433SOL     OW14197   6.468   2.602   4.221
 4433SOL    HW114198   6.502   2.612   4.314
 4433SOL    HW214199   6.532   2.645   4.157
 4434SOL     OW14200   5.871   1.551   3.056
 4434SOL    HW114201   5.946   1.553   3.121
 4434SOL    HW214202   5.824   1.639   3.056
 4435SOL     OW14203   4.133   3.593   1.147
 4435SOL    HW114204   4.088   3.648   1.076
 4435SOL    HW214205   4.190   3.523   1.103
 4436SOL     OW14206   4.549   1.045   1.614
 4436SOL    HW114207   4.526   1.058   1.711
 4436SOL    HW214208   4.644   1.015   1.606
 4437SOL     OW14209   1.211   2.939   2.585
 4437SOL    HW114210   1.286   3.004   2.590
 4437SOL    HW214211   1.150   2.964   2.510
 4438SOL     OW14212   4.715   6.877   6.176
 4438SOL    HW114213   4.635   6.900   6.121
 4438SOL    HW214214   4.714   6.928   6.262
 4439SOL     OW14215   0.097   4.762   1.719
 4439SOL    HW114216   0.055   4.671   1.712
 4439SOL    HW214217   0.195   4.752   1.736
 4440SOL     OW14218   3.153   4.786   0.588
 4440SOL    HW114219   3.086   4.804   0.660
 4440SOL    HW214220   3.185   4.691   0.595
 4441SOL     OW14221   6.968   1.705   1.597
 4441SOL    HW114222   6.897   1.647   1.559
 4441SOL    HW214223   6.962   1.705   1.697
 4442SOL     OW14224   1.705   4.970   4.772
 4442SOL    HW114225   1.628   4.945   4.713
 4442SOL    HW214226   1.764   4.890   4.785
 4443SOL     OW14227   1.672   3.475   5.847
 4443SOL    HW114228   1.684   3.486   5.749
 4443SOL    HW214229   1.578   3.499   5.872
 4444SOL     OW14230   3.792   3.850   6.804
 4444SOL    HW114231   3.834   3.822   6.891
 4444SOL    HW214232   3.704   3.894   6.822
 4445SOL     OW14233   1.428   6.257   0.321
 4445SOL    HW114234   1.364   6.334   0.312
 4445SOL    HW214235   1.389   6.189   0.383
 4446SOL     OW14236   5.144   2.049   0.748
 4446SOL    HW114237   5.104   2.054   0.840
 4446SOL    HW214238   5.237   2.085   0.750
 4447SOL     OW14239   6.360   4.126   5.049
 4447SOL    HW114240   6.333   4.204   4.994
 4447SOL    HW214241   6.386   4.050   4.989
 4448SOL     OW14242   2.145   5.470   1.210
 4448SOL    HW114243   2.083   5.404   1.253
 4448SOL    HW214244   2.208   5.505   1.279
 4449SOL     OW14245   5.270   1.020   6.191
 4449SOL    HW114246   5.268   1.034   6.290
 4449SOL    HW214247   5.180   1.037   6.152
 4450SOL     OW14248   3.394   1.845   6.355
 4450SOL    HW114249   3.328   1.918   6.375
 4450SOL    HW214250   3.386   1.774   6.425
 4451SOL     OW14251   4.897   5.063   4.508
 4451SOL    HW114252   4.830   5.138   4.511
 4451SOL    HW214253   4.880   5.001   4.585
 4452SOL     OW14254   5.689   5.547   4.205
 4452SOL    HW114255   5.758   5.619   4.200
 4452SOL    HW214256   5.609   5.573   4.151
 4453SOL     OW14257   1.408   2.819   1.688
 4453SOL    HW114258   1.438   2.902   1.736
 4453SOL    HW214259   1.381   2.843   1.595
 4454SOL     OW14260   1.306   1.717   6.946
 4454SOL    HW114261   1.207   1.733   6.939
 4454SOL    HW214262   1.324   1.619   6.948
 4455SOL     OW14263   5.659   5.551   5.495
 4455SOL    HW114264   5.689   5.523   5.586
 4455SOL    HW214265   5.655   5.650   5.490
 4456SOL     OW14266   2.706   6.375   2.980
 4456SOL    HW114267   2.645   6.317   2.926
 4456SOL    HW214268   2.801   6.349   2.962
 4457SOL     OW14269   3.506   1.545   3.403
 4457SOL    HW114270   3.540   1.585   3.319
 4457SOL    HW214271   3.406   1.545   3.402
 4458SOL     OW14272   2.532   3.245   1.051
 4458SOL    HW114273   2.531   3.169   0.987
 4458SOL    HW214274   2.511   3.211   1.143
 4459SOL     OW14275   4.016   2.163   4.403
 4459SOL    HW114276   3.974   2.244   4.361
 4459SOL    HW214277   3.988   2.156   4.498
 4460SOL     OW14278   1.149   3.021   0.511
 4460SOL    HW114279   1.204   2.938   0.526
 4460SOL    HW214280   1.089   3.008   0.432
 4461SOL     OW14281   1.605   0.909   1.187
 4461SOL    HW114282   1.530   0.962   1.147
 4461SOL    HW214283   1.691   0.934   1.143
 4462SOL     OW14284   5.816   5.044   2.322
 4462SOL    HW114285   5.849   4.951   2.303
 4462SOL    HW214286   5.729   5.058   2.275
 4463SOL     OW14287   4.561   1.329   0.739
 4463SOL    HW114288   4.576   1.412   0.793
 4463SOL    HW214289   4.543   1.252   0.800
 4464SOL     OW14290   0.322   5.844   0.314
 4464SOL    HW114291   0.263   5.809   0.386
 4464SOL    HW214292   0.266   5.867   0.234
 4465SOL     OW14293   3.450   5.494   0.769
 4465SOL    HW114294   3.395   5.483   0.687
 4465SOL    HW214295   3.435   5.584   0.809
 4466SOL     OW14296   1.126   1.896   3.012
 4466SOL    HW114297   1.095   1.880   2.918
 4466SOL    HW214298   1.078   1.835   3.074
 4467SOL     OW14299   2.318   5.060   3.214
 4467SOL    HW114300   2.404   5.020   3.184
 4467SOL    HW214301   2.241   5.011   3.172
 4468SOL     OW14302   1.692   4.226   0.843
 4468SOL    HW114303   1.752   4.255   0.770
 4468SOL    HW214304   1.714   4.276   0.927
 4469SOL     OW14305   3.271   0.818   1.211
 4469SOL    HW114306   3.193   0.758   1.226
 4469SOL    HW214307   3.351   0.782   1.259
 4470SOL     OW14308   0.832   1.607   2.544
 4470SOL    HW114309   0.775   1.535   2.504
 4470SOL    HW214310   0.885   1.568   2.620
 4471SOL     OW14311   1.044   2.888   7.010
 4471SOL    HW114312   1.111   2.960   0.009
 4471SOL    HW214313   1.003   2.905   6.920
 4472SOL     OW14314   0.183   2.645   1.435
 4472SOL    HW114315   0.108   2.581   1.451
 4472SOL    HW214316   0.269   2.604   1.465
 4473SOL     OW14317   5.756   2.960   4.494
 4473SOL    HW114318   5.665   3.000   4.505
 4473SOL    HW214319   5.747   2.865   4.464
 4474SOL     OW14320   3.388   6.571   1.678
 4474SOL    HW114321   3.376   6.487   1.732
 4474SOL    HW214322   3.308   6.630   1.691
 4475SOL     OW14323   1.385   3.712   1.885
 4475SOL    HW114324   1.428   3.625   1.861
 4475SOL    HW214325   1.443   3.761   1.950
 4476SOL     OW14326   6.514   1.104   3.720
 4476SOL    HW114327   6.518   1.077   3.817
 4476SOL    HW214328   6.461   1.036   3.669
 4477SOL     OW14329   2.048   0.495   4.985
 4477SOL    HW114330   2.038   0.398   4.960
 4477SOL    HW214331   1.974   0.521   5.047
 4478SOL     OW14332   2.667   6.623   2.488
 4478SOL    HW114333   2.734   6.555   2.520
 4478SOL    HW214334   2.656   6.694   2.557
 4479SOL     OW14335   0.201   2.105   1.638
 4479SOL    HW114336   0.123   2.057   1.598
 4479SOL    HW214337   0.169   2.171   1.706
 4480SOL     OW14338   0.171   4.059   4.763
 4480SOL    HW114339   0.113   4.141   4.769
 4480SOL    HW214340   0.118   3.979   4.789
 4481SOL     OW14341   2.279   5.028   5.152
 4481SOL    HW114342   2.300   5.097   5.082
 4481SOL    HW214343   2.236   5.073   5.230
 4482SOL     OW14344   2.072   3.030   5.300
 4482SOL    HW114345   2.115   2.940   5.304
 4482SOL    HW214346   2.142   3.100   5.288
 4483SOL     OW14347   6.865   2.605   2.089
 4483SOL    HW114348   6.814   2.690   2.081
 4483SOL    HW214349   6.803   2.531   2.116
 4484SOL     OW14350   3.113   2.444   6.564
 4484SOL    HW114351   3.194   2.497   6.537
 4484SOL    HW214352   3.124   2.414   6.659
 4485SOL     OW14353   5.749   2.501   4.870
 4485SOL    HW114354   5.702   2.422   4.829
 4485SOL    HW214355   5.681   2.565   4.907
 4486SOL     OW14356   6.413   5.053   4.549
 4486SOL    HW114357   6.448   5.029   4.458
 4486SOL    HW214358   6.313   5.058   4.545
 4487SOL     OW14359   2.995   2.809   6.874
 4487SOL    HW114360   2.919   2.744   6.879
 4487SOL    HW214361   3.002   2.845   6.781
 4488SOL     OW14362   1.254   3.268   4.795
 4488SOL    HW114363   1.347   3.305   4.789
 4488SOL    HW214364   1.198   3.306   4.722
 4489SOL     OW14365   4.481   5.439   4.865
 4489SOL    HW114366   4.533   5.523   4.881
 4489SOL    HW214367   4.540   5.372   4.821
 4490SOL     OW14368   5.432   2.055   1.206
 4490SOL    HW114369   5.343   2.084   1.241
 4490SOL    HW214370   5.450   1.962   1.236
 4491SOL     OW14371   0.162   3.491   3.626
 4491SOL    HW114372   0.217   3.575   3.626
 4491SOL    HW214373   0.066   3.514   3.608
 4492SOL     OW14374   5.868   3.415   1.658
 4492SOL    HW114375   5.885   3.380   1.566
 4492SOL    HW214376   5.919   3.360   1.724
 4493SOL     OW14377   5.112   6.319   4.952
 4493SOL    HW114378   5.120   6.236   5.006
 4493SOL    HW214379   5.102   6.296   4.855
 4494SOL     OW14380   0.276   0.797   6.007
 4494SOL    HW114381   0.212   0.720   6.012
 4494SOL    HW214382   0.287   0.824   5.911
 4495SOL     OW14383   4.597   0.267   4.003
 4495SOL    HW114384   4.634   0.343   4.057
 4495SOL    HW214385   4.672   0.205   3.978
 4496SOL     OW14386   5.395   6.254   0.663
 4496SOL    HW114387   5.411   6.294   0.753
 4496SOL    HW214388   5.375   6.327   0.597
 4497SOL     OW14389   4.653   2.069   6.432
 4497SOL    HW114390   4.658   2.096   6.529
 4497SOL    HW214391   4.673   2.148   6.375
 4498SOL     OW14392   6.867   4.636   6.531
 4498SOL    HW114393   6.895   4.693   6.608
 4498SOL    HW214394   6.789   4.579   6.558
 4499SOL     OW14395   6.146   3.117   3.433
 4499SOL    HW114396   6.231   3.071   3.454
 4499SOL    HW214397   6.152   3.159   3.343
 4500SOL     OW14398   3.637   4.080   6.061
 4500SOL    HW114399   3.613   4.140   5.986
 4500SOL    HW214400   3.713   4.119   6.113
 4501SOL     OW14401   6.651   3.464   3.065
 4501SOL    HW114402   6.738   3.416   3.063
 4501SOL    HW214403   6.576   3.399   3.050
 4502SOL     OW14404   1.234   3.661   0.142
 4502SOL    HW114405   1.180   3.627   0.065
 4502SOL    HW214406   1.307   3.595   0.164
 4503SOL     OW14407   3.707   6.887   2.106
 4503SOL    HW114408   3.611   6.872   2.085
 4503SOL    HW214409   3.764   6.840   2.038
 4504SOL     OW14410   0.288   1.870   4.137
 4504SOL    HW114411   0.203   1.847   4.090
 4504SOL    HW214412   0.268   1.897   4.231
 4505SOL     OW14413   6.403   4.608   1.876
 4505SOL    HW114414   6.437   4.695   1.839
 4505SOL    HW214415   6.465   4.574   1.946
 4506SOL     OW14416   5.104   2.905   3.585
 4506SOL    HW114417   5.199   2.879   3.607
 4506SOL    HW214418   5.046   2.823   3.587
 4507SOL     OW14419   6.851   3.368   3.709
 4507SOL    HW114420   6.753   3.378   3.693
 4507SOL    HW214421   6.896   3.457   3.703
 4508SOL     OW14422   1.512   5.077   6.731
 4508SOL    HW114423   1.450   5.155   6.722
 4508SOL    HW214424   1.541   5.068   6.826
 4509SOL     OW14425   4.912   2.015   3.374
 4509SOL    HW114426   4.911   2.042   3.471
 4509SOL    HW214427   4.849   1.939   3.360
 4510SOL     OW14428   4.108   1.341   4.255
 4510SOL    HW114429   4.119   1.269   4.323
 4510SOL    HW214430   4.160   1.317   4.173
 4511SOL     OW14431   6.163   3.710   6.905
 4511SOL    HW114432   6.222   3.750   6.976
 4511SOL    HW214433   6.068   3.732   6.926
 4512SOL     OW14434   3.319   0.943   5.552
 4512SOL    HW114435   3.396   0.995   5.515
 4512SOL    HW214436   3.354   0.869   5.610
 4513SOL     OW14437   1.239   5.591   6.642
 4513SOL    HW114438   1.264   5.688   6.639
 4513SOL    HW214439   1.307   5.537   6.593
 4514SOL     OW14440   3.577   2.606   6.095
 4514SOL    HW114441   3.509   2.537   6.069
 4514SOL    HW214442   3.649   2.609   6.026
 4515SOL     OW14443   6.055   1.929   5.371
 4515SOL    HW114444   6.135   1.988   5.386
 4515SOL    HW214445   6.065   1.882   5.284
 4516SOL     OW14446   2.483   0.124   6.896
 4516SOL    HW114447   2.516   0.181   6.821
 4516SOL    HW214448   2.493   0.174   6.983
 4517SOL     OW14449   4.592   6.726   6.650
 4517SOL    HW114450   4.493   6.728   6.664
 4517SOL    HW214451   4.637   6.689   6.731
 4518SOL     OW14452   0.345   6.509   2.289
 4518SOL    HW114453   0.348   6.602   2.324
 4518SOL    HW214454   0.438   6.478   2.269
 4519SOL     OW14455   5.408   6.688   0.698
 4519SOL    HW114456   5.332   6.690   0.764
 4519SOL    HW214457   5.489   6.728   0.740
 4520SOL     OW14458   4.191   5.684   6.238
 4520SOL    HW114459   4.234   5.594   6.237
 4520SOL    HW214460   4.127   5.690   6.315
 4521SOL     OW14461   5.268   1.942   5.298
 4521SOL    HW114462   5.319   2.019   5.336
 4521SOL    HW214463   5.289   1.860   5.350
 4522SOL     OW14464   5.782   4.508   3.390
 4522SOL    HW114465   5.688   4.499   3.359
 4522SOL    HW214466   5.811   4.603   3.381
 4523SOL     OW14467   1.282   4.147   6.912
 4523SOL    HW114468   1.197   4.129   6.962
 4523SOL    HW214469   1.274   4.236   6.865
 4524SOL     OW14470   6.175   3.523   2.636
 4524SOL    HW114471   6.113   3.523   2.558
 4524SOL    HW214472   6.186   3.617   2.669
 4525SOL     OW14473   3.977   2.067   5.506
 4525SOL    HW114474   3.893   2.086   5.556
 4525SOL    HW214475   4.026   1.992   5.552
 4526SOL     OW14476   6.261   0.288   7.014
 4526SOL    HW114477   6.168   0.258   0.013
 4526SOL    HW214478   6.324   0.212   0.009
 4527SOL     OW14479   6.810   6.795   2.528
 4527SOL    HW114480   6.849   6.885   2.548
 4527SOL    HW214481   6.852   6.727   2.589
 4528SOL     OW14482   4.350   0.952   6.572
 4528SOL    HW114483   4.309   0.972   6.661
 4528SOL    HW214484   4.372   0.854   6.567
 4529SOL     OW14485   2.256   1.207   5.231
 4529SOL    HW114486   2.337   1.265   5.223
 4529SOL    HW214487   2.264   1.149   5.312
 4530SOL     OW14488   2.464   5.674   3.251
 4530SOL    HW114489   2.508   5.712   3.333
 4530SOL    HW214490   2.477   5.575   3.250
 4531SOL     OW14491   0.751   2.871   6.239
 4531SOL    HW114492   0.738   2.874   6.140
 4531SOL    HW214493   0.808   2.792   6.262
 4532SOL     OW14494   6.111   1.138   2.671
 4532SOL    HW114495   6.077   1.190   2.592
 4532SOL    HW214496   6.114   1.041   2.648
 4533SOL     OW14497   2.265   0.569   2.732
 4533SOL    HW114498   2.338   0.530   2.676
 4533SOL    HW214499   2.248   0.510   2.811
 4534SOL     OW14500   5.150   3.038   5.288
 4534SOL    HW114501   5.130   2.990   5.373
 4534SOL    HW214502   5.095   2.998   5.214
 4535SOL     OW14503   3.934   1.270   1.822
 4535SOL    HW114504   3.977   1.292   1.910
 4535SOL    HW214505   3.866   1.197   1.836
 4536SOL     OW14506   3.497   1.800   4.831
 4536SOL    HW114507   3.570   1.741   4.866
 4536SOL    HW214508   3.464   1.859   4.904
 4537SOL     OW14509   4.243   3.402   1.483
 4537SOL    HW114510   4.195   3.315   1.502
 4537SOL    HW214511   4.332   3.382   1.441
 4538SOL     OW14512   2.563   0.713   2.203
 4538SOL    HW114513   2.474   0.697   2.246
 4538SOL    HW214514   2.609   0.625   2.189
 4539SOL     OW14515   3.073   5.484   5.279
 4539SOL    HW114516   3.134   5.480   5.200
 4539SOL    HW214517   3.126   5.508   5.361
 4540SOL     OW14518   2.169   1.185   0.653
 4540SOL    HW114519   2.152   1.124   0.575
 4540SOL    HW214520   2.082   1.217   0.691
 4541SOL     OW14521   5.247   1.519   7.001
 4541SOL    HW114522   5.185   1.582   0.027
 4541SOL    HW214523   5.331   1.568   6.975
 4542SOL     OW14524   0.011   2.495   1.921
 4542SOL    HW114525   6.968   2.539   1.984
 4542SOL    HW214526   0.105   2.520   1.946
 4543SOL     OW14527   4.844   2.119   1.151
 4543SOL    HW114528   4.941   2.123   1.127
 4543SOL    HW214529   4.790   2.093   1.071
 4544SOL     OW14530   3.617   5.162   6.973
 4544SOL    HW114531   3.672   5.224   0.009
 4544SOL    HW214532   3.673   5.085   6.944
 4545SOL     OW14533   6.913   3.333   4.984
 4545SOL    HW114534   6.850   3.405   4.955
 4545SOL    HW214535   6.965   3.301   4.904
 4546SOL     OW14536   3.140   6.382   3.995
 4546SOL    HW114537   3.102   6.296   3.962
 4546SOL    HW214538   3.160   6.442   3.917
 4547SOL     OW14539   6.493   1.425   0.523
 4547SOL    HW114540   6.548   1.508   0.532
 4547SOL    HW214541   6.457   1.398   0.612
 4548SOL     OW14542   2.834   2.316   3.795
 4548SOL    HW114543   2.772   2.349   3.866
 4548SOL    HW214544   2.803   2.351   3.706
 4549SOL     OW14545   5.483   3.507   2.261
 4549SOL    HW114546   5.394   3.544   2.289
 4549SOL    HW214547   5.516   3.557   2.181
 4550SOL     OW14548   1.122   4.188   2.608
 4550SOL    HW114549   1.183   4.183   2.529
 4550SOL    HW214550   1.058   4.264   2.597
 4551SOL     OW14551   0.914   3.891   4.591
 4551SOL    HW114552   0.862   3.976   4.584
 4551SOL    HW214553   0.886   3.842   4.674
 4552SOL     OW14554   5.268   2.339   1.130
 4552SOL    HW114555   5.201   2.413   1.128
 4552SOL    HW214556   5.358   2.375   1.154
 4553SOL     OW14557   5.001   3.832   6.741
 4553SOL    HW114558   4.933   3.840   6.814
 4553SOL    HW214559   5.021   3.922   6.704
 4554SOL     OW14560   6.426   0.142   1.356
 4554SOL    HW114561   6.392   0.064   1.304
 4554SOL    HW214562   6.503   0.114   1.412
 4555SOL     OW14563   1.546   1.192   5.650
 4555SOL    HW114564   1.497   1.176   5.564
 4555SOL    HW214565   1.537   1.112   5.709
 4556SOL     OW14566   6.130   3.263   4.443
 4556SOL    HW114567   6.149   3.201   4.520
 4556SOL    HW214568   6.061   3.222   4.384
 4557SOL     OW14569   4.942   5.270   4.031
 4557SOL    HW114570   4.921   5.361   4.067
 4557SOL    HW214571   4.935   5.203   4.105
 4558SOL     OW14572   6.817   3.869   4.636
 4558SOL    HW114573   6.864   3.832   4.555
 4558SOL    HW214574   6.859   3.830   4.719
 4559SOL     OW14575   6.872   3.171   2.532
 4559SOL    HW114576   6.845   3.247   2.592
 4559SOL    HW214577   6.865   3.200   2.437
 4560SOL     OW14578   5.772   3.966   1.690
 4560SOL    HW114579   5.730   4.055   1.675
 4560SOL    HW214580   5.782   3.919   1.602
 4561SOL     OW14581   3.467   2.127   3.353
 4561SOL    HW114582   3.516   2.135   3.266
 4561SOL    HW214583   3.431   2.216   3.379
 4562SOL     OW14584   1.022   0.167   0.547
 4562SOL    HW114585   1.051   0.116   0.628
 4562SOL    HW214586   1.008   0.263   0.571
 4563SOL     OW14587   0.011   3.549   0.942
 4563SOL    HW114588   0.099   3.597   0.939
 4563SOL    HW214589   0.022   3.462   0.990
 4564SOL     OW14590   6.684   6.058   1.843
 4564SOL    HW114591   6.643   6.137   1.888
 4564SOL    HW214592   6.765   6.086   1.793
 4565SOL     OW14593   1.613   1.142   3.898
 4565SOL    HW114594   1.570   1.218   3.947
 4565SOL    HW214595   1.712   1.146   3.910
 4566SOL     OW14596   6.944   3.671   1.496
 4566SOL    HW114597   6.923   3.677   1.399
 4566SOL    HW214598   7.010   3.741   1.521
 4567SOL     OW14599   0.167   1.593   6.429
 4567SOL    HW114600   0.208   1.568   6.517
 4567SOL    HW214601   0.071   1.564   6.428
 4568SOL     OW14602   1.765   3.542   5.568
 4568SOL    HW114603   1.829   3.618   5.564
 4568SOL    HW214604   1.691   3.558   5.503
 4569SOL     OW14605   2.792   0.610   3.339
 4569SOL    HW114606   2.762   0.685   3.281
 4569SOL    HW214607   2.877   0.635   3.386
 4570SOL     OW14608   6.009   6.381   2.219
 4570SOL    HW114609   6.072   6.444   2.264
 4570SOL    HW214610   6.047   6.289   2.222
 4571SOL     OW14611   4.830   2.815   6.885
 4571SOL    HW114612   4.902   2.864   6.836
 4571SOL    HW214613   4.746   2.869   6.883
 4572SOL     OW14614   2.190   0.697   6.423
 4572SOL    HW114615   2.103   0.648   6.427
 4572SOL    HW214616   2.223   0.713   6.517
 4573SOL     OW14617   0.052   6.937   0.586
 4573SOL    HW114618   0.133   6.903   0.538
 4573SOL    HW214619   6.998   6.948   0.521
 4574SOL     OW14620   5.328   4.399   0.422
 4574SOL    HW114621   5.412   4.428   0.376
 4574SOL    HW214622   5.294   4.315   0.380
 4575SOL     OW14623   5.572   0.433   5.327
 4575SOL    HW114624   5.576   0.530   5.349
 4575SOL    HW214625   5.554   0.380   5.410
 4576SOL     OW14626   2.957   5.244   5.315
 4576SOL    HW114627   3.006   5.320   5.273
 4576SOL    HW214628   2.906   5.195   5.244
 4577SOL     OW14629   1.187   2.969   4.014
 4577SOL    HW114630   1.124   3.030   4.061
 4577SOL    HW214631   1.252   3.023   3.960
 4578SOL     OW14632   0.880   1.664   4.405
 4578SOL    HW114633   0.822   1.745   4.412
 4578SOL    HW214634   0.892   1.640   4.308
 4579SOL     OW14635   4.679   1.231   2.172
 4579SOL    HW114636   4.696   1.209   2.076
 4579SOL    HW214637   4.725   1.318   2.194
 4580SOL     OW14638   5.414   4.045   0.765
 4580SOL    HW114639   5.365   4.131   0.754
 4580SOL    HW214640   5.493   4.058   0.825
 4581SOL     OW14641   2.417   6.006   2.172
 4581SOL    HW114642   2.416   5.977   2.268
 4581SOL    HW214643   2.473   5.942   2.119
 4582SOL     OW14644   4.716   0.679   3.698
 4582SOL    HW114645   4.655   0.670   3.777
 4582SOL    HW214646   4.758   0.769   3.699
 4583SOL     OW14647   2.808   1.202   6.582
 4583SOL    HW114648   2.860   1.238   6.660
 4583SOL    HW214649   2.870   1.157   6.518
 4584SOL     OW14650   1.440   5.299   5.103
 4584SOL    HW114651   1.465   5.374   5.164
 4584SOL    HW214652   1.372   5.241   5.148
 4585SOL     OW14653   2.298   4.671   3.186
 4585SOL    HW114654   2.352   4.712   3.259
 4585SOL    HW214655   2.355   4.606   3.136
 4586SOL     OW14656   4.106   3.935   0.276
 4586SOL    HW114657   4.026   3.966   0.327
 4586SOL    HW214658   4.171   4.011   0.267
 4587SOL     OW14659   3.440   3.826   3.728
 4587SOL    HW114660   3.523   3.806   3.674
 4587SOL    HW214661   3.360   3.790   3.680
 4588SOL     OW14662   3.226   2.892   5.992
 4588SOL    HW114663   3.182   2.881   5.903
 4588SOL    HW214664   3.174   2.956   6.047
 4589SOL     OW14665   5.603   0.366   1.616
 4589SOL    HW114666   5.517   0.416   1.607
 4589SOL    HW214667   5.611   0.329   1.708
 4590SOL     OW14668   4.328   4.759   1.436
 4590SOL    HW114669   4.392   4.778   1.361
 4590SOL    HW214670   4.314   4.842   1.490
 4591SOL     OW14671   2.020   0.222   4.924
 4591SOL    HW114672   2.108   0.176   4.937
 4591SOL    HW214673   1.993   0.214   4.828
 4592SOL     OW14674   3.578   0.720   2.886
 4592SOL    HW114675   3.512   0.735   2.959
 4592SOL    HW214676   3.536   0.738   2.798
 4593SOL     OW14677   6.178   6.222   1.907
 4593SOL    HW114678   6.226   6.180   1.830
 4593SOL    HW214679   6.088   6.254   1.877
 4594SOL     OW14680   3.341   0.482   3.059
 4594SOL    HW114681   3.326   0.573   3.097
 4594SOL    HW214682   3.334   0.486   2.959
 4595SOL     OW14683   4.920   2.974   6.047
 4595SOL    HW114684   4.843   2.979   6.110
 4595SOL    HW214685   4.887   2.963   5.953
 4596SOL     OW14686   6.696   0.174   2.625
 4596SOL    HW114687   6.787   0.181   2.584
 4596SOL    HW214688   6.655   0.265   2.632
 4597SOL     OW14689   2.654   5.600   6.576
 4597SOL    HW114690   2.631   5.510   6.540
 4597SOL    HW214691   2.594   5.621   6.654
 4598SOL     OW14692   1.342   5.497   1.340
 4598SOL    HW114693   1.407   5.521   1.412
 4598SOL    HW214694   1.274   5.570   1.331
 4599SOL     OW14695   1.484   4.578   1.106
 4599SOL    HW114696   1.437   4.607   1.023
 4599SOL    HW214697   1.423   4.588   1.184
 4600SOL     OW14698   0.412   6.318   5.655
 4600SOL    HW114699   0.379   6.401   5.700
 4600SOL    HW214700   0.340   6.280   5.598
 4601SOL     OW14701   0.923   1.730   5.420
 4601SOL    HW114702   0.954   1.775   5.337
 4601SOL    HW214703   0.911   1.633   5.404
 4602SOL     OW14704   2.855   6.583   0.487
 4602SOL    HW114705   2.946   6.604   0.450
 4602SOL    HW214706   2.863   6.563   0.584
 4603SOL     OW14707   3.569   5.855   0.648
 4603SOL    HW114708   3.664   5.822   0.650
 4603SOL    HW214709   3.543   5.873   0.553
 4604SOL     OW14710   4.928   0.131   6.722
 4604SOL    HW114711   4.898   0.055   6.665
 4604SOL    HW214712   4.849   0.170   6.770
 4605SOL     OW14713   2.172   6.939   1.452
 4605SOL    HW114714   2.140   0.013   1.447
 4605SOL    HW214715   2.140   6.888   1.372
 4606SOL     OW14716   0.458   6.692   2.617
 4606SOL    HW114717   0.504   6.615   2.573
 4606SOL    HW214718   0.509   6.776   2.600
 4607SOL     OW14719   1.981   3.175   3.254
 4607SOL    HW114720   1.944   3.083   3.240
 4607SOL    HW214721   2.031   3.203   3.172
 4608SOL     OW14722   6.904   4.169   3.574
 4608SOL    HW114723   6.983   4.224   3.602
 4608SOL    HW214724   6.875   4.196   3.482
 4609SOL     OW14725   5.022   4.813   6.875
 4609SOL    HW114726   5.111   4.848   6.902
 4609SOL    HW214727   4.951   4.881   6.895
 4610SOL     OW14728   4.287   1.859   0.099
 4610SOL    HW114729   4.300   1.783   0.162
 4610SOL    HW214730   4.344   1.845   0.018
 4611SOL     OW14731   0.593   0.203   6.139
 4611SOL    HW114732   0.572   0.301   6.129
 4611SOL    HW214733   0.587   0.178   6.236
 4612SOL     OW14734   2.432   0.032   0.478
 4612SOL    HW114735   2.349   0.056   0.427
 4612SOL    HW214736   2.495   0.109   0.477
 4613SOL     OW14737   1.809   5.993   2.690
 4613SOL    HW114738   1.846   6.042   2.768
 4613SOL    HW214739   1.782   6.058   2.619
 4614SOL     OW14740   5.943   2.923   3.507
 4614SOL    HW114741   5.983   3.011   3.485
 4614SOL    HW214742   5.969   2.855   3.438
 4615SOL     OW14743   0.949   1.390   0.807
 4615SOL    HW114744   0.860   1.346   0.799
 4615SOL    HW214745   0.977   1.425   0.718
 4616SOL     OW14746   5.252   1.809   4.421
 4616SOL    HW114747   5.299   1.742   4.478
 4616SOL    HW214748   5.211   1.762   4.342
 4617SOL     OW14749   1.656   2.338   2.479
 4617SOL    HW114750   1.578   2.355   2.420
 4617SOL    HW214751   1.631   2.271   2.549
 4618SOL     OW14752   2.196   3.768   5.577
 4618SOL    HW114753   2.247   3.806   5.500
 4618SOL    HW214754   2.100   3.795   5.571
 4619SOL     OW14755   2.910   6.113   3.631
 4619SOL    HW114756   2.917   6.205   3.592
 4619SOL    HW214757   2.815   6.093   3.653
 4620SOL     OW14758   0.953   4.626   1.145
 4620SOL    HW114759   1.027   4.562   1.124
 4620SOL    HW214760   0.913   4.661   1.061
 4621SOL     OW14761   5.256   1.121   2.199
 4621SOL    HW114762   5.323   1.131   2.126
 4621SOL    HW214763   5.170   1.086   2.162
 4622SOL     OW14764   3.894   5.360   0.920
 4622SOL    HW114765   3.986   5.366   0.881
 4622SOL    HW214766   3.894   5.296   0.996
 4623SOL     OW14767   4.464   5.292   1.100
 4623SOL    HW114768   4.562   5.307   1.113
 4623SOL    HW214769   4.448   5.246   1.013
 4624SOL     OW14770   3.263   0.536   2.788
 4624SOL    HW114771   3.216   0.479   2.720
 4624SOL    HW214772   3.327   0.598   2.741
 4625SOL     OW14773   1.794   5.228   1.941
 4625SOL    HW114774   1.697   5.207   1.929
 4625SOL    HW214775   1.808   5.267   2.032
 4626SOL     OW14776   4.683   4.456   1.839
 4626SOL    HW114777   4.625   4.390   1.886
 4626SOL    HW214778   4.633   4.494   1.761
 4627SOL     OW14779   0.963   5.237   5.266
 4627SOL    HW114780   1.025   5.208   5.339
 4627SOL    HW214781   0.882   5.279   5.306
 4628SOL     OW14782   4.465   4.647   4.770
 4628SOL    HW114783   4.432   4.618   4.859
 4628SOL    HW214784   4.496   4.567   4.718
 4629SOL     OW14785   2.221   4.763   5.210
 4629SOL    HW114786   2.136   4.772   5.262
 4629SOL    HW214787   2.253   4.854   5.184
 4630SOL     OW14788   2.419   5.483   1.957
 4630SOL    HW114789   2.479   5.450   2.030
 4630SOL    HW214790   2.346   5.539   1.996
 4631SOL     OW14791   0.954   6.616   3.736
 4631SOL    HW114792   0.911   6.528   3.714
 4631SOL    HW214793   1.010   6.646   3.659
 4632SOL     OW14794   2.460   4.435   2.843
 4632SOL    HW114795   2.416   4.366   2.785
 4632SOL    HW214796   2.435   4.419   2.939
 4633SOL     OW14797   5.590   1.243   4.723
 4633SOL    HW114798   5.619   1.254   4.818
 4633SOL    HW214799   5.665   1.271   4.662
 4634SOL     OW14800   2.624   3.767   5.310
 4634SOL    HW114801   2.624   3.782   5.409
 4634SOL    HW214802   2.560   3.831   5.267
 4635SOL     OW14803   4.333   4.438   1.721
 4635SOL    HW114804   4.379   4.365   1.772
 4635SOL    HW214805   4.277   4.492   1.785
 4636SOL     OW14806   1.833   4.278   0.587
 4636SOL    HW114807   1.841   4.232   0.499
 4636SOL    HW214808   1.919   4.270   0.637
 4637SOL     OW14809   0.799   6.828   1.405
 4637SOL    HW114810   0.788   6.733   1.376
 4637SOL    HW214811   0.891   6.859   1.380
 4638SOL     OW14812   3.799   5.776   6.881
 4638SOL    HW114813   3.741   5.769   6.801
 4638SOL    HW214814   3.872   5.842   6.864
 4639SOL     OW14815   3.107   2.782   6.306
 4639SOL    HW114816   3.096   2.879   6.329
 4639SOL    HW214817   3.018   2.745   6.280
 4640SOL     OW14818   5.889   3.422   4.280
 4640SOL    HW114819   5.819   3.356   4.253
 4640SOL    HW214820   5.900   3.421   4.379
 4641SOL     OW14821   2.435   0.437   4.162
 4641SOL    HW114822   2.369   0.511   4.153
 4641SOL    HW214823   2.444   0.389   4.075
 4642SOL     OW14824   1.616   6.574   3.017
 4642SOL    HW114825   1.707   6.601   3.048
 4642SOL    HW214826   1.598   6.613   2.927
 4643SOL     OW14827   6.785   2.002   0.140
 4643SOL    HW114828   6.825   1.959   0.221
 4643SOL    HW214829   6.790   1.939   0.063
 4644SOL     OW14830   6.872   0.484   5.481
 4644SOL    HW114831   6.895   0.432   5.563
 4644SOL    HW214832   6.778   0.466   5.455
 4645SOL     OW14833   2.304   1.071   4.063
 4645SOL    HW114834   2.261   1.043   3.977
 4645SOL    HW214835   2.236   1.069   4.136
 4646SOL     OW14836   2.202   5.555   3.809
 4646SOL    HW114837   2.179   5.577   3.714
 4646SOL    HW214838   2.300   5.540   3.817
 4647SOL     OW14839   2.032   0.340   2.661
 4647SOL    HW114840   1.950   0.392   2.685
 4647SOL    HW214841   2.087   0.325   2.743
 4648SOL     OW14842   3.366   1.058   3.966
 4648SOL    HW114843   3.411   1.061   4.056
 4648SOL    HW214844   3.435   1.048   3.895
 4649SOL     OW14845   6.514   0.701   0.634
 4649SOL    HW114846   6.591   0.764   0.645
 4649SOL    HW214847   6.467   0.721   0.548
 4650SOL     OW14848   4.745   5.270   2.235
 4650SOL    HW114849   4.795   5.223   2.162
 4650SOL    HW214850   4.668   5.321   2.196
 4651SOL     OW14851   6.447   3.429   6.971
 4651SOL    HW114852   6.487   3.450   0.040
 4651SOL    HW214853   6.358   3.386   6.984
 4652SOL     OW14854   6.298   6.248   5.282
 4652SOL    HW114855   6.380   6.221   5.333
 4652SOL    HW214856   6.225   6.271   5.345
 4653SOL     OW14857   4.898   5.829   0.871
 4653SOL    HW114858   4.872   5.736   0.896
 4653SOL    HW214859   4.835   5.864   0.801
 4654SOL     OW14860   0.455   5.918   6.131
 4654SOL    HW114861   0.357   5.938   6.123
 4654SOL    HW214862   0.476   5.837   6.076
 4655SOL     OW14863   5.451   4.318   1.667
 4655SOL    HW114864   5.379   4.265   1.710
 4655SOL    HW214865   5.535   4.310   1.720
 4656SOL     OW14866   1.050   1.047   1.809
 4656SOL    HW114867   1.102   0.992   1.743
 4656SOL    HW214868   1.108   1.121   1.843
 4657SOL     OW14869   4.374   5.419   2.036
 4657SOL    HW114870   4.331   5.333   2.010
 4657SOL    HW214871   4.375   5.427   2.135
 4658SOL     OW14872   3.174   1.773   4.798
 4658SOL    HW114873   3.273   1.762   4.806
 4658SOL    HW214874   3.154   1.860   4.753
 4659SOL     OW14875   2.860   4.212   6.743
 4659SOL    HW114876   2.880   4.174   6.833
 4659SOL    HW214877   2.867   4.312   6.746
 4660SOL     OW14878   1.377   6.446   4.399
 4660SOL    HW114879   1.442   6.381   4.361
 4660SOL    HW214880   1.294   6.446   4.343
 4661SOL     OW14881   2.618   4.964   5.708
 4661SOL    HW114882   2.582   5.014   5.629
 4661SOL    HW214883   2.710   4.997   5.730
 4662SOL     OW14884   3.109   0.162   5.584
 4662SOL    HW114885   3.060   0.242   5.550
 4662SOL    HW214886   3.087   0.148   5.681
 4663SOL     OW14887   0.430   0.721   1.001
 4663SOL    HW114888   0.458   0.772   0.919
 4663SOL    HW214889   0.468   0.628   0.997
 4664SOL     OW14890   0.729   0.718   0.296
 4664SOL    HW114891   0.650   0.658   0.310
 4664SOL    HW214892   0.773   0.737   0.384
 4665SOL     OW14893   2.738   0.294   5.934
 4665SOL    HW114894   2.783   0.267   6.019
 4665SOL    HW214895   2.757   0.225   5.863
 4666SOL     OW14896   1.899   2.016   6.861
 4666SOL    HW114897   1.986   2.051   6.827
 4666SOL    HW214898   1.896   1.917   6.851
 4667SOL     OW14899   6.296   3.937   1.867
 4667SOL    HW114900   6.292   3.896   1.776
 4667SOL    HW214901   6.377   3.902   1.915
 4668SOL     OW14902   4.751   1.551   4.196
 4668SOL    HW114903   4.718   1.646   4.200
 4668SOL    HW214904   4.838   1.544   4.244
 4669SOL     OW14905   5.487   6.588   6.343
 4669SOL    HW114906   5.414   6.615   6.405
 4669SOL    HW214907   5.495   6.655   6.269
 4670SOL     OW14908   0.976   2.838   6.764
 4670SOL    HW114909   1.067   2.799   6.775
 4670SOL    HW214910   0.969   2.883   6.676
 4671SOL     OW14911   0.585   3.646   6.670
 4671SOL    HW114912   0.622   3.589   6.597
 4671SOL    HW214913   0.660   3.687   6.721
 4672SOL     OW14914   3.826   4.762   6.083
 4672SOL    HW114915   3.773   4.783   6.001
 4672SOL    HW214916   3.766   4.764   6.163
 4673SOL     OW14917   4.847   6.930   0.995
 4673SOL    HW114918   4.889   6.997   0.934
 4673SOL    HW214919   4.911   6.907   1.068
 4674SOL     OW14920   5.596   1.522   0.494
 4674SOL    HW114921   5.536   1.511   0.415
 4674SOL    HW214922   5.577   1.610   0.539
 4675SOL     OW14923   3.409   0.441   0.115
 4675SOL    HW114924   3.459   0.378   0.055
 4675SOL    HW214925   3.467   0.470   0.190
 4676SOL     OW14926   0.476   6.873   4.591
 4676SOL    HW114927   0.565   6.832   4.612
 4676SOL    HW214928   0.427   6.892   4.676
 4677SOL     OW14929   2.728   0.823   0.295
 4677SOL    HW114930   2.640   0.843   0.252
 4677SOL    HW214931   2.721   0.740   0.349
 4678SOL     OW14932   2.243   4.643   2.364
 4678SOL    HW114933   2.277   4.661   2.272
 4678SOL    HW214934   2.241   4.728   2.416
 4679SOL     OW14935   3.758   1.316   6.966
 4679SOL    HW114936   3.804   1.373   6.897
 4679SOL    HW214937   3.772   1.220   6.944
 4680SOL     OW14938   1.908   0.349   2.090
 4680SOL    HW114939   2.001   0.340   2.056
 4680SOL    HW214940   1.877   0.260   2.126
 4681SOL     OW14941   6.187   5.730   5.579
 4681SOL    HW114942   6.106   5.672   5.573
 4681SOL    HW214943   6.258   5.682   5.630
 4682SOL     OW14944   4.853   4.605   6.749
 4682SOL    HW114945   4.920   4.552   6.697
 4682SOL    HW214946   4.898   4.685   6.789
 4683SOL     OW14947   5.082   4.609   2.941
 4683SOL    HW114948   5.114   4.531   2.995
 4683SOL    HW214949   5.099   4.592   2.844
 4684SOL     OW14950   6.698   1.863   4.187
 4684SOL    HW114951   6.768   1.791   4.188
 4684SOL    HW214952   6.667   1.880   4.280
 4685SOL     OW14953   0.483   6.251   4.359
 4685SOL    HW114954   0.577   6.219   4.350
 4685SOL    HW214955   0.473   6.339   4.314
 4686SOL     OW14956   5.166   5.830   0.363
 4686SOL    HW114957   5.089   5.771   0.385
 4686SOL    HW214958   5.247   5.799   0.412
 4687SOL     OW14959   6.767   4.960   5.137
 4687SOL    HW114960   6.739   5.025   5.067
 4687SOL    HW214961   6.686   4.912   5.172
 4688SOL     OW14962   0.226   3.114   6.004
 4688SOL    HW114963   0.132   3.137   5.978
 4688SOL    HW214964   0.285   3.126   5.924
 4689SOL     OW14965   5.273   0.250   0.044
 4689SOL    HW114966   5.182   0.233   0.082
 4689SOL    HW214967   5.274   0.340   7.020
 4690SOL     OW14968   1.178   1.635   0.245
 4690SOL    HW114969   1.209   1.581   0.323
 4690SOL    HW214970   1.220   1.726   0.248
 4691SOL     OW14971   3.147   4.206   1.592
 4691SOL    HW114972   3.067   4.265   1.594
 4691SOL    HW214973   3.119   4.112   1.613
 4692SOL     OW14974   6.686   5.363   2.431
 4692SOL    HW114975   6.691   5.458   2.463
 4692SOL    HW214976   6.711   5.359   2.335
 4693SOL     OW14977   1.094   0.518   4.108
 4693SOL    HW114978   1.121   0.587   4.041
 4693SOL    HW214979   0.994   0.513   4.112
 4694SOL     OW14980   2.810   0.536   6.883
 4694SOL    HW114981   2.855   0.582   6.959
 4694SOL    HW214982   2.864   0.548   6.800
 4695SOL     OW14983   3.008   3.334   1.191
 4695SOL    HW114984   3.041   3.364   1.102
 4695SOL    HW214985   3.012   3.410   1.256
 4696SOL     OW14986   0.492   4.391   5.236
 4696SOL    HW114987   0.438   4.443   5.301
 4696SOL    HW214988   0.589   4.406   5.253
 4697SOL     OW14989   1.351   3.140   0.824
 4697SOL    HW114990   1.283   3.213   0.821
 4697SOL    HW214991   1.326   3.074   0.895
 4698SOL     OW14992   4.092   5.523   3.225
 4698SOL    HW114993   4.173   5.498   3.172
 4698SOL    HW214994   4.030   5.446   3.231
 4699SOL     OW14995   1.123   6.752   2.414
 4699SOL    HW114996   1.203   6.804   2.445
 4699SOL    HW214997   1.046   6.814   2.399
 4700SOL     OW14998   6.123   1.619   2.337
 4700SOL    HW114999   6.210   1.571   2.350
 4700SOL    HW215000   6.066   1.568   2.273
 4701SOL     OW15001   1.100   2.455   0.580
 4701SOL    HW115002   1.102   2.486   0.485
 4701SOL    HW215003   1.190   2.420   0.606
 4702SOL     OW15004   5.986   4.971   6.474
 4702SOL    HW115005   6.082   4.941   6.471
 4702SOL    HW215006   5.982   5.070   6.465
 4703SOL     OW15007   1.344   2.489   2.030
 4703SOL    HW115008   1.306   2.404   1.993
 4703SOL    HW215009   1.387   2.541   1.956
 4704SOL     OW15010   0.199   6.773   6.794
 4704SOL    HW115011   0.172   6.863   6.759
 4704SOL    HW215012   0.279   6.783   6.854
 4705SOL     OW15013   3.717   3.455   2.701
 4705SOL    HW115014   3.772   3.462   2.784
 4705SOL    HW215015   3.682   3.362   2.691
 4706SOL     OW15016   3.692   6.328   6.821
 4706SOL    HW115017   3.707   6.274   6.904
 4706SOL    HW215018   3.775   6.380   6.801
 4707SOL     OW15019   2.206   6.003   0.746
 4707SOL    HW115020   2.208   5.985   0.647
 4707SOL    HW215021   2.163   5.926   0.793
 4708SOL     OW15022   1.532   2.258   6.874
 4708SOL    HW115023   1.503   2.207   6.955
 4708SOL    HW215024   1.530   2.199   6.794
 4709SOL     OW15025   3.612   5.075   5.418
 4709SOL    HW115026   3.595   5.098   5.322
 4709SOL    HW215027   3.530   5.094   5.472
 4710SOL     OW15028   3.794   1.172   5.482
 4710SOL    HW115029   3.728   1.247   5.488
 4710SOL    HW215030   3.808   1.133   5.573
 4711SOL     OW15031   4.897   0.340   2.428
 4711SOL    HW115032   4.975   0.398   2.405
 4711SOL    HW215033   4.923   0.244   2.416
 4712SOL     OW15034   3.085   4.470   0.576
 4712SOL    HW115035   3.075   4.498   0.480
 4712SOL    HW215036   2.997   4.476   0.622
 4713SOL     OW15037   2.615   3.843   1.027
 4713SOL    HW115038   2.598   3.778   0.952
 4713SOL    HW215039   2.681   3.912   0.997
 4714SOL     OW15040   1.961   1.796   0.110
 4714SOL    HW115041   1.929   1.887   0.083
 4714SOL    HW215042   2.028   1.763   0.045
 4715SOL     OW15043   6.738   4.025   1.783
 4715SOL    HW115044   6.783   3.938   1.804
 4715SOL    HW215045   6.683   4.015   1.700
 4716SOL     OW15046   4.056   5.926   6.665
 4716SOL    HW115047   3.974   5.976   6.636
 4716SOL    HW215048   4.057   5.836   6.622
 4717SOL     OW15049   0.526   6.123   3.425
 4717SOL    HW115050   0.556   6.076   3.342
 4717SOL    HW215051   0.581   6.205   3.440
 4718SOL     OW15052   5.435   1.944   6.564
 4718SOL    HW115053   5.531   1.968   6.554
 4718SOL    HW215054   5.419   1.852   6.528
 4719SOL     OW15055   4.948   3.093   2.640
 4719SOL    HW115056   4.926   3.122   2.734
 4719SOL    HW215057   4.884   3.021   2.612
 4720SOL     OW15058   2.491   5.768   5.606
 4720SOL    HW115059   2.516   5.671   5.606
 4720SOL    HW215060   2.391   5.776   5.613
 4721SOL     OW15061   6.498   2.185   1.372
 4721SOL    HW115062   6.584   2.236   1.385
 4721SOL    HW215063   6.516   2.087   1.373
 4722SOL     OW15064   1.324   6.458   7.015
 4722SOL    HW115065   1.397   6.526   7.006
 4722SOL    HW215066   1.365   6.366   7.019
 4723SOL     OW15067   1.707   4.705   5.706
 4723SOL    HW115068   1.710   4.726   5.608
 4723SOL    HW215069   1.646   4.769   5.752
 4724SOL     OW15070   4.679   5.681   2.938
 4724SOL    HW115071   4.695   5.715   2.845
 4724SOL    HW215072   4.716   5.589   2.947
 4725SOL     OW15073   5.819   6.550   2.840
 4725SOL    HW115074   5.897   6.538   2.901
 4725SOL    HW215075   5.819   6.478   2.771
 4726SOL     OW15076   1.550   3.148   6.551
 4726SOL    HW115077   1.616   3.142   6.625
 4726SOL    HW215078   1.593   3.119   6.465
 4727SOL     OW15079   6.720   6.485   0.096
 4727SOL    HW115080   6.769   6.403   0.126
 4727SOL    HW215081   6.644   6.458   0.037
 4728SOL     OW15082   4.971   1.857   1.144
 4728SOL    HW115083   4.900   1.908   1.192
 4728SOL    HW215084   4.968   1.761   1.172
 4729SOL     OW15085   2.877   1.256   2.204
 4729SOL    HW115086   2.788   1.268   2.248
 4729SOL    HW215087   2.878   1.169   2.154
 4730SOL     OW15088   2.285   5.743   5.404
 4730SOL    HW115089   2.360   5.698   5.355
 4730SOL    HW215090   2.276   5.837   5.373
 4731SOL     OW15091   4.306   0.598   6.413
 4731SOL    HW115092   4.361   0.544   6.477
 4731SOL    HW215093   4.363   0.667   6.370
 4732SOL     OW15094   0.035   3.449   6.259
 4732SOL    HW115095   7.021   3.527   6.310
 4732SOL    HW215096   7.012   3.365   6.291
 4733SOL     OW15097   1.143   4.167   3.079
 4733SOL    HW115098   1.070   4.185   3.013
 4733SOL    HW215099   1.105   4.119   3.159
 4734SOL     OW15100   4.747   3.405   6.841
 4734SOL    HW115101   4.735   3.308   6.820
 4734SOL    HW215102   4.667   3.439   6.891
 4735SOL     OW15103   0.655   5.619   4.329
 4735SOL    HW115104   0.745   5.662   4.322
 4735SOL    HW215105   0.658   5.528   4.288
 4736SOL     OW15106   0.554   1.792   6.506
 4736SOL    HW115107   0.527   1.874   6.457
 4736SOL    HW215108   0.614   1.816   6.582
 4737SOL     OW15109   1.253   5.012   2.128
 4737SOL    HW115110   1.293   5.103   2.117
 4737SOL    HW215111   1.211   4.983   2.042
 4738SOL     OW15112   6.818   5.760   3.084
 4738SOL    HW115113   6.872   5.763   3.169
 4738SOL    HW215114   6.780   5.851   3.066
 4739SOL     OW15115   4.546   6.497   3.035
 4739SOL    HW115116   4.560   6.561   3.110
 4739SOL    HW215117   4.609   6.518   2.960
 4740SOL     OW15118   0.355   1.130   1.735
 4740SOL    HW115119   0.338   1.225   1.707
 4740SOL    HW215120   0.423   1.089   1.674
 4741SOL     OW15121   3.365   2.475   1.692
 4741SOL    HW115122   3.273   2.497   1.661
 4741SOL    HW215123   3.362   2.392   1.748
 4742SOL     OW15124   2.011   6.903   5.716
 4742SOL    HW115125   1.944   6.831   5.735
 4742SOL    HW215126   2.055   6.932   5.802
 4743SOL     OW15127   2.131   3.496   3.103
 4743SOL    HW115128   2.112   3.581   3.055
 4743SOL    HW215129   2.096   3.501   3.196
 4744SOL     OW15130   2.187   4.905   1.113
 4744SOL    HW115131   2.128   4.886   1.035
 4744SOL    HW215132   2.223   4.998   1.106
 4745SOL     OW15133   3.519   3.929   6.820
 4745SOL    HW115134   3.495   3.901   6.913
 4745SOL    HW215135   3.473   3.869   6.754
 4746SOL     OW15136   4.559   6.386   3.778
 4746SOL    HW115137   4.544   6.323   3.701
 4746SOL    HW215138   4.478   6.442   3.791
 4747SOL     OW15139   0.688   3.895   0.576
 4747SOL    HW115140   0.630   3.837   0.633
 4747SOL    HW215141   0.675   3.871   0.480
 4748SOL     OW15142   1.563   6.729   1.374
 4748SOL    HW115143   1.645   6.684   1.408
 4748SOL    HW215144   1.490   6.661   1.363
 4749SOL     OW15145   1.900   0.138   6.388
 4749SOL    HW115146   1.989   0.117   6.347
 4749SOL    HW215147   1.835   0.066   6.364
 4750SOL     OW15148   6.256   3.280   5.533
 4750SOL    HW115149   6.198   3.356   5.503
 4750SOL    HW215150   6.339   3.278   5.478
 4751SOL     OW15151   4.648   2.583   3.004
 4751SOL    HW115152   4.730   2.545   2.961
 4751SOL    HW215153   4.570   2.522   2.987
 4752SOL     OW15154   4.551   0.493   0.238
 4752SOL    HW115155   4.482   0.565   0.243
 4752SOL    HW215156   4.525   0.418   0.299
 4753SOL     OW15157   0.794   6.738   3.921
 4753SOL    HW115158   0.866   6.697   3.865
 4753SOL    HW215159   0.835   6.795   3.991
 4754SOL     OW15160   4.921   3.817   5.062
 4754SOL    HW115161   4.885   3.724   5.061
 4754SOL    HW215162   4.962   3.836   5.151
 4755SOL     OW15163   2.659   0.571   0.863
 4755SOL    HW115164   2.571   0.590   0.820
 4755SOL    HW215165   2.732   0.616   0.811
 4756SOL     OW15166   6.423   3.750   5.647
 4756SOL    HW115167   6.362   3.736   5.725
 4756SOL    HW215168   6.395   3.833   5.598
 4757SOL     OW15169   1.687   2.771   1.435
 4757SOL    HW115170   1.623   2.701   1.402
 4757SOL    HW215171   1.748   2.797   1.362
 4758SOL     OW15172   1.423   0.007   3.195
 4758SOL    HW115173   1.434   0.065   3.114
 4758SOL    HW215174   1.379   0.059   3.268
 4759SOL     OW15175   0.768   5.769   6.486
 4759SOL    HW115176   0.701   5.698   6.506
 4759SOL    HW215177   0.737   5.856   6.524
 4760SOL     OW15178   2.004   1.291   0.852
 4760SOL    HW115179   1.928   1.305   0.916
 4760SOL    HW215180   2.077   1.356   0.873
 4761SOL     OW15181   1.407   0.831   0.722
 4761SOL    HW115182   1.313   0.845   0.692
 4761SOL    HW215183   1.440   0.742   0.688
 4762SOL     OW15184   1.610   5.834   2.182
 4762SOL    HW115185   1.518   5.820   2.219
 4762SOL    HW215186   1.611   5.916   2.126
 4763SOL     OW15187   4.802   0.597   2.483
 4763SOL    HW115188   4.842   0.643   2.563
 4763SOL    HW215189   4.813   0.498   2.492
 4764SOL     OW15190   4.458   3.468   5.286
 4764SOL    HW115191   4.533   3.530   5.263
 4764SOL    HW215192   4.458   3.451   5.385
 4765SOL     OW15193   3.910   0.914   5.685
 4765SOL    HW115194   3.887   0.833   5.738
 4765SOL    HW215195   3.923   0.992   5.748
 4766SOL     OW15196   6.105   6.384   4.292
 4766SOL    HW115197   6.056   6.340   4.368
 4766SOL    HW215198   6.203   6.367   4.301
 4767SOL     OW15199   2.563   5.150   5.504
 4767SOL    HW115200   2.643   5.210   5.497
 4767SOL    HW215201   2.558   5.091   5.424
 4768SOL     OW15202   3.669   3.037   5.900
 4768SOL    HW115203   3.725   2.960   5.868
 4768SOL    HW215204   3.591   3.002   5.951
 4769SOL     OW15205   3.519   6.186   0.292
 4769SOL    HW115206   3.613   6.218   0.278
 4769SOL    HW215207   3.460   6.225   0.221
 4770SOL     OW15208   0.035   1.928   4.759
 4770SOL    HW115209   0.120   1.939   4.708
 4770SOL    HW215210   0.038   1.843   4.811
 4771SOL     OW15211   2.468   6.804   6.310
 4771SOL    HW115212   2.493   6.708   6.302
 4771SOL    HW215213   2.538   6.853   6.362
 4772SOL     OW15214   3.282   4.789   1.468
 4772SOL    HW115215   3.187   4.819   1.455
 4772SOL    HW215216   3.294   4.699   1.428
 4773SOL     OW15217   1.049   6.051   4.995
 4773SOL    HW115218   1.050   5.980   5.066
 4773SOL    HW215219   0.961   6.050   4.948
 4774SOL     OW15220   1.335   4.298   1.502
 4774SOL    HW115221   1.342   4.201   1.524
 4774SOL    HW215222   1.314   4.309   1.405
 4775SOL     OW15223   5.048   0.434   4.149
 4775SOL    HW115224   5.148   0.430   4.145
 4775SOL    HW215225   5.014   0.488   4.072
 4776SOL     OW15226   0.928   1.030   5.046
 4776SOL    HW115227   0.862   1.051   5.118
 4776SOL    HW215228   0.901   1.078   4.962
 4777SOL     OW15229   1.747   5.706   0.935
 4777SOL    HW115230   1.694   5.671   1.011
 4777SOL    HW215231   1.752   5.637   0.862
 4778SOL     OW15232   0.172   3.109   4.806
 4778SOL    HW115233   0.265   3.089   4.775
 4778SOL    HW215234   0.162   3.077   4.901
 4779SOL     OW15235   5.488   6.842   3.895
 4779SOL    HW115236   5.549   6.921   3.899
 4779SOL    HW215237   5.457   6.820   3.988
 4780SOL     OW15238   6.062   2.456   6.747
 4780SOL    HW115239   6.156   2.423   6.760
 4780SOL    HW215240   6.058   2.515   6.667
 4781SOL     OW15241   2.806   5.053   1.976
 4781SOL    HW115242   2.839   5.036   1.883
 4781SOL    HW215243   2.802   4.966   2.026
 4782SOL     OW15244   6.389   5.414   6.152
 4782SOL    HW115245   6.431   5.443   6.238
 4782SOL    HW215246   6.461   5.392   6.086
 4783SOL     OW15247   5.796   3.944   0.113
 4783SOL    HW115248   5.796   3.854   0.157
 4783SOL    HW215249   5.812   4.014   0.182
 4784SOL     OW15250   6.060   2.194   6.209
 4784SOL    HW115251   6.150   2.193   6.166
 4784SOL    HW215252   6.012   2.108   6.188
 4785SOL     OW15253   0.361   6.963   3.071
 4785SOL    HW115254   0.367   0.031   3.116
 4785SOL    HW215255   0.324   6.896   3.136
 4786SOL     OW15256   2.452   6.821   0.054
 4786SOL    HW115257   2.421   6.807   6.981
 4786SOL    HW215258   2.426   6.912   0.085
 4787SOL     OW15259   4.085   1.898   3.580
 4787SOL    HW115260   4.088   1.849   3.492
 4787SOL    HW215261   4.007   1.865   3.633
 4788SOL     OW15262   6.229   6.250   0.815
 4788SOL    HW115263   6.174   6.312   0.759
 4788SOL    HW215264   6.312   6.297   0.845
 4789SOL     OW15265   4.931   1.603   1.657
 4789SOL    HW115266   4.951   1.642   1.747
 4789SOL    HW215267   5.012   1.555   1.622
 4790SOL     OW15268   5.542   2.129   5.657
 4790SOL    HW115269   5.633   2.165   5.680
 4790SOL    HW215270   5.472   2.180   5.707
 4791SOL     OW15271   0.055   2.941   1.769
 4791SOL    HW115272   0.097   2.999   1.838
 4791SOL    HW215273   0.044   2.993   1.684
 4792SOL     OW15274   2.510   4.560   4.430
 4792SOL    HW115275   2.470   4.507   4.505
 4792SOL    HW215276   2.589   4.611   4.464
 4793SOL     OW15277   1.875   3.754   5.156
 4793SOL    HW115278   1.923   3.737   5.070
 4793SOL    HW215279   1.928   3.819   5.211
 4794SOL     OW15280   4.348   6.792   4.435
 4794SOL    HW115281   4.446   6.769   4.434
 4794SOL    HW215282   4.297   6.718   4.390
 4795SOL     OW15283   6.625   1.590   4.532
 4795SOL    HW115284   6.611   1.526   4.456
 4795SOL    HW215285   6.559   1.571   4.604
 4796SOL     OW15286   3.781   0.264   6.200
 4796SOL    HW115287   3.710   0.248   6.131
 4796SOL    HW215288   3.768   0.354   6.241
 4797SOL     OW15289   0.636   5.974   4.367
 4797SOL    HW115290   0.546   5.931   4.366
 4797SOL    HW215291   0.653   6.014   4.457
 4798SOL     OW15292   5.698   5.116   5.763
 4798SOL    HW115293   5.675   5.140   5.669
 4798SOL    HW215294   5.797   5.106   5.772
 4799SOL     OW15295   4.208   1.394   0.147
 4799SOL    HW115296   4.110   1.395   0.163
 4799SOL    HW215297   4.226   1.407   0.049
 4800SOL     OW15298   1.267   3.941   6.618
 4800SOL    HW115299   1.325   4.010   6.662
 4800SOL    HW215300   1.269   3.857   6.672
 4801SOL     OW15301   3.729   2.741   6.673
 4801SOL    HW115302   3.689   2.832   6.687
 4801SOL    HW215303   3.689   2.700   6.592
 4802SOL     OW15304   6.464   6.413   1.684
 4802SOL    HW115305   6.558   6.437   1.662
 4802SOL    HW215306   6.462   6.354   1.764
 4803SOL     OW15307   6.475   4.604   0.912
 4803SOL    HW115308   6.506   4.619   1.006
 4803SOL    HW215309   6.550   4.626   0.849
 4804SOL     OW15310   5.662   0.044   0.659
 4804SOL    HW115311   5.579   0.029   0.604
 4804SOL    HW215312   5.740   0.002   0.612
 4805SOL     OW15313   6.351   0.751   2.456
 4805SOL    HW115314   6.402   0.831   2.422
 4805SOL    HW215315   6.393   0.719   2.540
 4806SOL     OW15316   1.025   3.576   2.648
 4806SOL    HW115317   1.056   3.661   2.691
 4806SOL    HW215318   0.930   3.586   2.619
 4807SOL     OW15319   1.202   3.688   6.691
 4807SOL    HW115320   1.293   3.650   6.672
 4807SOL    HW215321   1.148   3.689   6.607
 4808SOL     OW15322   4.270   5.313   0.476
 4808SOL    HW115323   4.179   5.334   0.510
 4808SOL    HW215324   4.302   5.227   0.515
 4809SOL     OW15325   3.965   4.230   1.707
 4809SOL    HW115326   3.937   4.325   1.698
 4809SOL    HW215327   3.954   4.183   1.619
 4810SOL     OW15328   1.710   4.835   3.556
 4810SOL    HW115329   1.732   4.871   3.646
 4810SOL    HW215330   1.751   4.744   3.545
 4811SOL     OW15331   3.979   3.724   3.472
 4811SOL    HW115332   3.912   3.716   3.545
 4811SOL    HW215333   3.946   3.789   3.404
 4812SOL     OW15334   0.365   6.886   2.053
 4812SOL    HW115335   0.366   6.844   1.963
 4812SOL    HW215336   0.293   6.956   2.056
 4813SOL     OW15337   6.323   1.929   6.270
 4813SOL    HW115338   6.354   1.989   6.344
 4813SOL    HW215339   6.275   1.850   6.309
 4814SOL     OW15340   6.953   3.555   2.026
 4814SOL    HW115341   0.005   3.488   2.044
 4814SOL    HW215342   6.947   3.619   2.102
 4815SOL     OW15343   5.218   4.906   2.942
 4815SOL    HW115344   5.245   4.903   2.846
 4815SOL    HW215345   5.211   4.813   2.978
 4816SOL     OW15346   2.341   5.858   1.028
 4816SOL    HW115347   2.259   5.813   0.993
 4816SOL    HW215348   2.405   5.790   1.062
 4817SOL     OW15349   2.981   0.975   2.008
 4817SOL    HW115350   2.886   0.978   2.039
 4817SOL    HW215351   2.987   1.009   1.914
 4818SOL     OW15352   0.862   1.608   4.127
 4818SOL    HW115353   0.946   1.655   4.100
 4818SOL    HW215354   0.784   1.650   4.081
 4819SOL     OW15355   3.186   1.954   1.676
 4819SOL    HW115356   3.270   1.908   1.703
 4819SOL    HW215357   3.148   2.001   1.756
 4820SOL     OW15358   6.386   2.655   0.690
 4820SOL    HW115359   6.298   2.688   0.724
 4820SOL    HW215360   6.383   2.647   0.591
 4821SOL     OW15361   6.519   6.788   1.536
 4821SOL    HW115362   6.533   6.696   1.499
 4821SOL    HW215363   6.433   6.825   1.502
 4822SOL     OW15364   1.655   2.970   4.038
 4822SOL    HW115365   1.582   2.909   4.008
 4822SOL    HW215366   1.735   2.958   3.979
 4823SOL     OW15367   0.072   1.026   3.961
 4823SOL    HW115368   0.153   1.082   3.979
 4823SOL    HW215369   0.080   0.984   3.871
 4824SOL     OW15370   5.783   1.534   3.739
 4824SOL    HW115371   5.756   1.523   3.644
 4824SOL    HW215372   5.792   1.631   3.760
 4825SOL     OW15373   2.210   2.937   4.422
 4825SOL    HW115374   2.114   2.951   4.445
 4825SOL    HW215375   2.263   2.924   4.506
 4826SOL     OW15376   0.640   0.512   0.092
 4826SOL    HW115377   0.673   0.439   0.033
 4826SOL    HW215378   0.680   0.599   0.062
 4827SOL     OW15379   6.108   0.676   1.601
 4827SOL    HW115380   6.075   0.603   1.660
 4827SOL    HW215381   6.208   0.679   1.605
 4828SOL     OW15382   5.657   3.493   1.000
 4828SOL    HW115383   5.673   3.485   1.098
 4828SOL    HW215384   5.561   3.515   0.983
 4829SOL     OW15385   3.902   6.476   6.803
 4829SOL    HW115386   3.875   6.570   6.823
 4829SOL    HW215387   3.943   6.470   6.713
 4830SOL     OW15388   5.508   5.729   4.051
 4830SOL    HW115389   5.490   5.820   4.087
 4830SOL    HW215390   5.587   5.732   3.990
 4831SOL     OW15391   6.615   5.327   5.990
 4831SOL    HW115392   6.712   5.306   5.985
 4831SOL    HW215393   6.564   5.244   6.013
 4832SOL     OW15394   2.695   2.537   5.846
 4832SOL    HW115395   2.672   2.616   5.903
 4832SOL    HW215396   2.660   2.454   5.889
 4833SOL     OW15397   5.126   1.547   3.002
 4833SOL    HW115398   5.097   1.532   2.907
 4833SOL    HW215399   5.226   1.553   3.005
 4834SOL     OW15400   3.581   0.444   0.331
 4834SOL    HW115401   3.677   0.414   0.332
 4834SOL    HW215402   3.565   0.506   0.407
 4835SOL     OW15403   1.256   0.826   6.842
 4835SOL    HW115404   1.345   0.789   6.871
 4835SOL    HW215405   1.209   0.866   6.920
 4836SOL     OW15406   4.644   2.753   4.009
 4836SOL    HW115407   4.629   2.681   3.942
 4836SOL    HW215408   4.595   2.836   3.981
 4837SOL     OW15409   4.143   3.136   1.559
 4837SOL    HW115410   4.074   3.175   1.619
 4837SOL    HW215411   4.124   3.039   1.542
 4838SOL     OW15412   2.662   5.111   1.518
 4838SOL    HW115413   2.733   5.052   1.556
 4838SOL    HW215414   2.576   5.094   1.565
 4839SOL     OW15415   1.917   3.789   5.566
 4839SOL    HW115416   1.915   3.846   5.484
 4839SOL    HW215417   1.858   3.828   5.636
 4840SOL     OW15418   0.547   6.857   5.904
 4840SOL    HW115419   0.465   6.900   5.941
 4840SOL    HW215420   0.549   6.761   5.931
 4841SOL     OW15421   2.898   5.920   1.071
 4841SOL    HW115422   2.829   5.992   1.079
 4841SOL    HW215423   2.982   5.958   1.032
 4842SOL     OW15424   3.304   4.806   1.842
 4842SOL    HW115425   3.268   4.894   1.874
 4842SOL    HW215426   3.389   4.785   1.889
 4843SOL     OW15427   6.178   4.067   0.927
 4843SOL    HW115428   6.256   4.025   0.880
 4843SOL    HW215429   6.196   4.072   1.025
 4844SOL     OW15430   6.518   3.457   5.627
 4844SOL    HW115431   6.612   3.460   5.593
 4844SOL    HW215432   6.476   3.548   5.618
 4845SOL     OW15433   6.854   5.799   4.455
 4845SOL    HW115434   6.835   5.897   4.449
 4845SOL    HW215435   6.948   5.785   4.485
 4846SOL     OW15436   6.582   2.979   2.708
 4846SOL    HW115437   6.515   3.031   2.654
 4846SOL    HW215438   6.534   2.910   2.762
 4847SOL     OW15439   3.570   2.006   5.773
 4847SOL    HW115440   3.520   2.035   5.854
 4847SOL    HW215441   3.571   1.906   5.768
 4848SOL     OW15442   1.801   0.775   3.497
 4848SOL    HW115443   1.889   0.813   3.470
 4848SOL    HW215444   1.756   0.736   3.417
 4849SOL     OW15445   1.304   0.123   6.722
 4849SOL    HW115446   1.306   0.051   6.790
 4849SOL    HW215447   1.395   0.132   6.679
 4850SOL     OW15448   4.342   1.299   2.451
 4850SOL    HW115449   4.313   1.305   2.356
 4850SOL    HW215450   4.422   1.240   2.458
 4851SOL     OW15451   3.274   5.654   4.929
 4851SOL    HW115452   3.279   5.736   4.985
 4851SOL    HW215453   3.273   5.680   4.832
 4852SOL     OW15454   1.259   0.248   6.296
 4852SOL    HW115455   1.217   0.158   6.283
 4852SOL    HW215456   1.202   0.303   6.357
 4853SOL     OW15457   3.059   1.118   2.375
 4853SOL    HW115458   3.051   1.041   2.438
 4853SOL    HW215459   2.996   1.190   2.402
 4854SOL     OW15460   5.027   6.099   2.368
 4854SOL    HW115461   5.101   6.145   2.320
 4854SOL    HW215462   4.951   6.163   2.381
 4855SOL     OW15463   5.981   2.487   2.387
 4855SOL    HW115464   6.027   2.560   2.336
 4855SOL    HW215465   5.884   2.486   2.363
 4856SOL     OW15466   2.096   3.858   2.700
 4856SOL    HW115467   2.144   3.906   2.626
 4856SOL    HW215468   2.015   3.910   2.727
 4857SOL     OW15469   1.947   2.448   5.713
 4857SOL    HW115470   2.046   2.455   5.722
 4857SOL    HW215471   1.907   2.415   5.799
 4858SOL     OW15472   1.848   0.876   4.483
 4858SOL    HW115473   1.799   0.938   4.421
 4858SOL    HW215474   1.913   0.929   4.538
 4859SOL     OW15475   1.408   0.486   4.319
 4859SOL    HW115476   1.442   0.580   4.319
 4859SOL    HW215477   1.309   0.486   4.328
 4860SOL     OW15478   3.528   5.019   1.889
 4860SOL    HW115479   3.432   5.041   1.901
 4860SOL    HW215480   3.545   4.924   1.916
 4861SOL     OW15481   5.155   5.196   0.167
 4861SOL    HW115482   5.186   5.181   0.073
 4861SOL    HW215483   5.130   5.108   0.208
 4862SOL     OW15484   2.984   4.820   4.883
 4862SOL    HW115485   2.919   4.757   4.926
 4862SOL    HW215486   2.935   4.881   4.821
 4863SOL     OW15487   5.742   4.503   1.632
 4863SOL    HW115488   5.768   4.511   1.729
 4863SOL    HW215489   5.822   4.518   1.575
 4864SOL     OW15490   3.786   1.265   3.747
 4864SOL    HW115491   3.719   1.249   3.674
 4864SOL    HW215492   3.747   1.239   3.835
 4865SOL     OW15493   1.877   0.594   5.519
 4865SOL    HW115494   1.781   0.571   5.534
 4865SOL    HW215495   1.884   0.690   5.491
 4866SOL     OW15496   6.815   3.194   0.885
 4866SOL    HW115497   6.897   3.137   0.881
 4866SOL    HW215498   6.837   3.285   0.850
 4867SOL     OW15499   3.944   5.551   3.648
 4867SOL    HW115500   4.019   5.485   3.639
 4867SOL    HW215501   3.941   5.609   3.567
 4868SOL     OW15502   6.824   5.177   2.590
 4868SOL    HW115503   6.853   5.244   2.658
 4868SOL    HW215504   6.784   5.224   2.511
 4869SOL     OW15505   1.762   1.658   1.944
 4869SOL    HW115506   1.676   1.608   1.935
 4869SOL    HW215507   1.749   1.753   1.914
 4870SOL     OW15508   0.709   6.248   2.056
 4870SOL    HW115509   0.705   6.335   2.105
 4870SOL    HW215510   0.701   6.173   2.121
 4871SOL     OW15511   0.917   1.001   3.470
 4871SOL    HW115512   0.828   0.999   3.424
 4871SOL    HW215513   0.944   0.908   3.496
 4872SOL     OW15514   5.911   0.120   3.228
 4872SOL    HW115515   5.985   0.135   3.293
 4872SOL    HW215516   5.854   0.202   3.222
 4873SOL     OW15517   6.993   5.152   3.962
 4873SOL    HW115518   6.952   5.243   3.960
 4873SOL    HW215519   6.947   5.093   3.896
 4874SOL     OW15520   5.328   3.909   2.446
 4874SOL    HW115521   5.294   3.894   2.353
 4874SOL    HW215522   5.428   3.917   2.444
 4875SOL     OW15523   6.317   1.509   0.312
 4875SOL    HW115524   6.355   1.461   0.392
 4875SOL    HW215525   6.380   1.499   0.235
 4876SOL     OW15526   6.567   1.961   3.410
 4876SOL    HW115527   6.597   2.044   3.364
 4876SOL    HW215528   6.480   1.978   3.456
 4877SOL     OW15529   0.668   1.542   5.656
 4877SOL    HW115530   0.759   1.520   5.620
 4877SOL    HW215531   0.613   1.585   5.585
 4878SOL     OW15532   6.476   1.364   1.573
 4878SOL    HW115533   6.556   1.358   1.633
 4878SOL    HW215534   6.502   1.411   1.489
 4879SOL     OW15535   4.243   1.882   1.928
 4879SOL    HW115536   4.173   1.922   1.987
 4879SOL    HW215537   4.316   1.949   1.913
 4880SOL     OW15538   5.593   3.492   0.139
 4880SOL    HW115539   5.494   3.487   0.128
 4880SOL    HW215540   5.617   3.568   0.200
 4881SOL     OW15541   1.562   1.486   0.100
 4881SOL    HW115542   1.626   1.544   0.152
 4881SOL    HW215543   1.499   1.441   0.164
 4882SOL     OW15544   4.747   1.002   4.948
 4882SOL    HW115545   4.695   1.063   5.009
 4882SOL    HW215546   4.840   0.991   4.983
 4883SOL     OW15547   4.887   4.483   1.397
 4883SOL    HW115548   4.953   4.413   1.425
 4883SOL    HW215549   4.804   4.439   1.364
 4884SOL     OW15550   2.950   5.795   1.592
 4884SOL    HW115551   3.031   5.801   1.649
 4884SOL    HW215552   2.967   5.839   1.504
 4885SOL     OW15553   2.119   5.376   0.943
 4885SOL    HW115554   2.140   5.406   1.036
 4885SOL    HW215555   2.189   5.312   0.912
 4886SOL     OW15556   2.137   6.361   1.691
 4886SOL    HW115557   2.140   6.461   1.696
 4886SOL    HW215558   2.042   6.330   1.697
 4887SOL     OW15559   7.020   6.705   1.427
 4887SOL    HW115560   6.941   6.650   1.399
 4887SOL    HW215561   0.071   6.696   1.358
 4888SOL     OW15562   2.794   6.975   4.268
 4888SOL    HW115563   2.861   6.941   4.202
 4888SOL    HW215564   2.831   0.036   4.313
 4889SOL     OW15565   0.127   1.424   5.198
 4889SOL    HW115566   0.081   1.513   5.199
 4889SOL    HW215567   0.188   1.420   5.119
 4890SOL     OW15568   6.800   1.172   5.676
 4890SOL    HW115569   6.735   1.097   5.692
 4890SOL    HW215570   6.753   1.248   5.630
 4891SOL     OW15571   2.352   4.833   0.091
 4891SOL    HW115572   2.286   4.818   0.164
 4891SOL    HW215573   2.435   4.781   0.110
 4892SOL     OW15574   4.009   5.752   2.391
 4892SOL    HW115575   4.095   5.753   2.341
 4892SOL    HW215576   4.025   5.718   2.484
 4893SOL     OW15577   5.705   2.701   1.880
 4893SOL    HW115578   5.634   2.630   1.886
 4893SOL    HW215579   5.776   2.683   1.948
 4894SOL     OW15580   3.840   0.975   2.898
 4894SOL    HW115581   3.780   1.054   2.885
 4894SOL    HW215582   3.842   0.921   2.814
 4895SOL     OW15583   0.613   4.728   4.044
 4895SOL    HW115584   0.604   4.789   4.123
 4895SOL    HW215585   0.693   4.755   3.990
 4896SOL     OW15586   2.405   4.423   2.378
 4896SOL    HW115587   2.336   4.494   2.366
 4896SOL    HW215588   2.475   4.433   2.307
 4897SOL     OW15589   1.461   5.167   5.631
 4897SOL    HW115590   1.447   5.266   5.625
 4897SOL    HW215591   1.559   5.148   5.643
 4898SOL     OW15592   4.372   1.149   4.973
 4898SOL    HW115593   4.289   1.179   5.019
 4898SOL    HW215594   4.451   1.167   5.031
 4899SOL     OW15595   5.821   5.329   3.293
 4899SOL    HW115596   5.860   5.402   3.237
 4899SOL    HW215597   5.726   5.350   3.315
 4900SOL     OW15598   3.824   6.239   5.033
 4900SOL    HW115599   3.834   6.316   5.095
 4900SOL    HW215600   3.803   6.156   5.085
 4901SOL     OW15601   2.127   1.749   5.226
 4901SOL    HW115602   2.160   1.689   5.153
 4901SOL    HW215603   2.057   1.810   5.190
 4902SOL     OW15604   1.790   1.564   4.468
 4902SOL    HW115605   1.706   1.598   4.426
 4902SOL    HW215606   1.795   1.464   4.457
 4903SOL     OW15607   3.941   5.563   6.992
 4903SOL    HW115608   4.023   5.605   0.009
 4903SOL    HW215609   3.879   5.634   6.959
 4904SOL     OW15610   1.883   0.060   5.517
 4904SOL    HW115611   1.945   0.136   5.494
 4904SOL    HW215612   1.919   0.010   5.596
 4905SOL     OW15613   3.645   0.721   3.275
 4905SOL    HW115614   3.729   0.717   3.221
 4905SOL    HW215615   3.667   0.742   3.370
 4906SOL     OW15616   5.008   1.875   6.291
 4906SOL    HW115617   4.948   1.936   6.239
 4906SOL    HW215618   5.100   1.915   6.295
 4907SOL     OW15619   4.623   6.705   2.015
 4907SOL    HW115620   4.632   6.659   1.927
 4907SOL    HW215621   4.551   6.660   2.068
 4908SOL     OW15622   5.608   6.514   6.895
 4908SOL    HW115623   5.564   6.428   6.921
 4908SOL    HW215624   5.705   6.498   6.874
 4909SOL     OW15625   0.163   5.607   3.283
 4909SOL    HW115626   0.197   5.519   3.249
 4909SOL    HW215627   0.210   5.630   3.369
 4910SOL     OW15628   5.276   1.035   4.308
 4910SOL    HW115629   5.216   0.979   4.251
 4910SOL    HW215630   5.361   0.985   4.326
 4911SOL     OW15631   1.899   4.038   3.238
 4911SOL    HW115632   1.831   4.090   3.186
 4911SOL    HW215633   1.871   4.034   3.334
 4912SOL     OW15634   5.832   1.749   6.282
 4912SOL    HW115635   5.815   1.723   6.377
 4912SOL    HW215636   5.751   1.794   6.245
 4913SOL     OW15637   3.950   3.270   5.050
 4913SOL    HW115638   3.920   3.296   5.142
 4913SOL    HW215639   3.973   3.173   5.049
 4914SOL     OW15640   4.569   6.627   5.048
 4914SOL    HW115641   4.480   6.615   5.002
 4914SOL    HW215642   4.628   6.685   4.991
 4915SOL     OW15643   2.635   5.983   5.681
 4915SOL    HW115644   2.563   5.914   5.686
 4915SOL    HW215645   2.597   6.074   5.699
 4916SOL     OW15646   0.826   0.895   3.716
 4916SOL    HW115647   0.758   0.927   3.649
 4916SOL    HW215648   0.805   0.802   3.744
 4917SOL     OW15649   2.592   5.609   1.341
 4917SOL    HW115650   2.643   5.617   1.427
 4917SOL    HW215651   2.643   5.655   1.269
 4918SOL     OW15652   5.432   6.111   2.381
 4918SOL    HW115653   5.519   6.150   2.352
 4918SOL    HW215654   5.365   6.119   2.308
 4919SOL     OW15655   2.823   3.052   1.051
 4919SOL    HW115656   2.823   3.152   1.055
 4919SOL    HW215657   2.752   3.022   0.986
 4920SOL     OW15658   5.436   0.202   4.775
 4920SOL    HW115659   5.482   0.199   4.863
 4920SOL    HW215660   5.504   0.205   4.702
 4921SOL     OW15661   1.142   6.024   6.949
 4921SOL    HW115662   1.128   5.963   6.870
 4921SOL    HW215663   1.203   5.979   7.014
 4922SOL     OW15664   2.852   2.237   4.369
 4922SOL    HW115665   2.861   2.241   4.269
 4922SOL    HW215666   2.943   2.242   4.410
 4923SOL     OW15667   3.248   0.826   2.477
 4923SOL    HW115668   3.295   0.915   2.482
 4923SOL    HW215669   3.261   0.786   2.387
 4924SOL     OW15670   3.533   1.207   4.202
 4924SOL    HW115671   3.554   1.253   4.115
 4924SOL    HW215672   3.566   1.263   4.278
 4925SOL     OW15673   5.837   0.454   2.088
 4925SOL    HW115674   5.828   0.552   2.109
 4925SOL    HW215675   5.931   0.425   2.107
 4926SOL     OW15676   5.733   1.707   1.407
 4926SOL    HW115677   5.756   1.616   1.371
 4926SOL    HW215678   5.716   1.701   1.505
 4927SOL     OW15679   2.980   3.698   4.557
 4927SOL    HW115680   2.950   3.610   4.593
 4927SOL    HW215681   2.963   3.769   4.626
 4928SOL     OW15682   1.573   1.098   0.167
 4928SOL    HW115683   1.551   1.048   0.250
 4928SOL    HW215684   1.672   1.103   0.156
 4929SOL     OW15685   6.507   0.035   4.724
 4929SOL    HW115686   6.459   6.995   4.787
 4929SOL    HW215687   6.475   0.018   4.631
 4930SOL     OW15688   5.688   0.532   2.811
 4930SOL    HW115689   5.712   0.437   2.830
 4930SOL    HW215690   5.654   0.575   2.894
 4931SOL     OW15691   6.359   6.559   1.272
 4931SOL    HW115692   6.330   6.559   1.176
 4931SOL    HW215693   6.346   6.469   1.311
 4932SOL     OW15694   4.135   3.431   2.798
 4932SOL    HW115695   4.073   3.375   2.743
 4932SOL    HW215696   4.229   3.399   2.786
 4933SOL     OW15697   2.414   6.933   2.581
 4933SOL    HW115698   2.369   6.863   2.527
 4933SOL    HW215699   2.503   6.899   2.612
 4934SOL     OW15700   3.420   5.913   3.053
 4934SOL    HW115701   3.514   5.946   3.049
 4934SOL    HW215702   3.420   5.813   3.049
 4935SOL     OW15703   1.695   1.911   6.487
 4935SOL    HW115704   1.769   1.908   6.420
 4935SOL    HW215705   1.710   1.988   6.550
 4936SOL     OW15706   3.600   5.178   1.514
 4936SOL    HW115707   3.557   5.090   1.532
 4936SOL    HW215708   3.582   5.240   1.590
 4937SOL     OW15709   6.038   3.225   6.012
 4937SOL    HW115710   6.037   3.231   6.112
 4937SOL    HW215711   6.043   3.318   5.974
 4938SOL     OW15712   1.772   5.554   5.891
 4938SOL    HW115713   1.741   5.475   5.943
 4938SOL    HW215714   1.782   5.530   5.794
 4939SOL     OW15715   5.362   1.942   4.987
 4939SOL    HW115716   5.428   1.933   5.062
 4939SOL    HW215717   5.292   2.008   5.012
 4940SOL     OW15718   0.880   1.193   4.507
 4940SOL    HW115719   0.942   1.237   4.572
 4940SOL    HW215720   0.904   1.220   4.414
 4941SOL     OW15721   4.408   2.156   6.219
 4941SOL    HW115722   4.419   2.190   6.126
 4941SOL    HW215723   4.372   2.062   6.216
 4942SOL     OW15724   5.204   3.064   5.608
 4942SOL    HW115725   5.210   3.095   5.703
 4942SOL    HW215726   5.156   2.977   5.604
 4943SOL     OW15727   4.036   3.347   0.637
 4943SOL    HW115728   3.948   3.346   0.684
 4943SOL    HW215729   4.050   3.259   0.592
 4944SOL     OW15730   2.274   4.234   2.807
 4944SOL    HW115731   2.261   4.242   2.708
 4944SOL    HW215732   2.189   4.260   2.853
 4945SOL     OW15733   1.089   0.920   3.753
 4945SOL    HW115734   1.072   1.009   3.795
 4945SOL    HW215735   1.004   0.882   3.718
 4946SOL     OW15736   0.180   3.250   1.357
 4946SOL    HW115737   0.246   3.220   1.425
 4946SOL    HW215738   0.161   3.176   1.293
 4947SOL     OW15739   1.436   0.997   1.001
 4947SOL    HW115740   1.421   0.952   0.913
 4947SOL    HW215741   1.478   1.087   0.986
 4948SOL     OW15742   2.289   0.221   2.839
 4948SOL    HW115743   2.378   0.235   2.795
 4948SOL    HW215744   2.265   0.303   2.891
 4949SOL     OW15745   4.823   6.974   5.213
 4949SOL    HW115746   4.757   6.964   5.288
 4949SOL    HW215747   4.915   6.954   5.247
 4950SOL     OW15748   3.062   5.571   3.961
 4950SOL    HW115749   2.998   5.494   3.953
 4950SOL    HW215750   3.015   5.655   3.936
 4951SOL     OW15751   5.270   1.696   5.013
 4951SOL    HW115752   5.300   1.788   4.988
 4951SOL    HW215753   5.309   1.630   4.949
 4952SOL     OW15754   0.322   0.835   4.888
 4952SOL    HW115755   0.421   0.825   4.895
 4952SOL    HW215756   0.279   0.805   4.973
 4953SOL     OW15757   1.908   6.602   2.114
 4953SOL    HW115758   1.855   6.529   2.071
 4953SOL    HW215759   1.924   6.675   2.048
 4954SOL     OW15760   4.623   4.202   6.854
 4954SOL    HW115761   4.585   4.197   6.761
 4954SOL    HW215762   4.603   4.118   6.903
 4955SOL     OW15763   1.895   6.910   6.103
 4955SOL    HW115764   1.889   6.836   6.036
 4955SOL    HW215765   1.820   6.903   6.168
 4956SOL     OW15766   2.852   6.778   4.926
 4956SOL    HW115767   2.813   6.857   4.973
 4956SOL    HW215768   2.829   6.783   4.829
 4957SOL     OW15769   0.181   1.211   3.475
 4957SOL    HW115770   0.198   1.283   3.543
 4957SOL    HW215771   0.087   1.178   3.484
 4958SOL     OW15772   0.025   6.473   5.867
 4958SOL    HW115773   6.975   6.406   5.848
 4958SOL    HW215774   7.010   6.543   5.928
 4959SOL     OW15775   6.706   1.305   6.390
 4959SOL    HW115776   6.713   1.235   6.319
 4959SOL    HW215777   6.619   1.353   6.382
 4960SOL     OW15778   3.547   5.875   3.727
 4960SOL    HW115779   3.647   5.884   3.727
 4960SOL    HW215780   3.506   5.958   3.765
 4961SOL     OW15781   5.150   1.683   5.654
 4961SOL    HW115782   5.236   1.699   5.703
 4961SOL    HW215783   5.132   1.585   5.648
 4962SOL     OW15784   6.049   3.121   1.363
 4962SOL    HW115785   6.115   3.090   1.431
 4962SOL    HW215786   6.026   3.045   1.303
 4963SOL     OW15787   5.841   5.946   0.693
 4963SOL    HW115788   5.813   5.969   0.600
 4963SOL    HW215789   5.941   5.953   0.700
 4964SOL     OW15790   3.534   6.245   3.308
 4964SOL    HW115791   3.586   6.302   3.243
 4964SOL    HW215792   3.446   6.222   3.268
 4965SOL     OW15793   0.025   7.008   3.810
 4965SOL    HW115794   0.044   6.917   3.771
 4965SOL    HW215795   0.084   0.002   3.889
 4966SOL     OW15796   2.198   0.036   4.987
 4966SOL    HW115797   2.133   6.987   4.959
 4966SOL    HW215798   2.288   7.016   5.000
 4967SOL     OW15799   3.890   3.159   5.812
 4967SOL    HW115800   3.813   3.095   5.822
 4967SOL    HW215801   3.855   3.251   5.796
 4968SOL     OW15802   5.363   3.126   3.114
 4968SOL    HW115803   5.386   3.156   3.206
 4968SOL    HW215804   5.288   3.059   3.119
 4969SOL     OW15805   1.990   1.219   1.961
 4969SOL    HW115806   1.938   1.231   1.877
 4969SOL    HW215807   2.063   1.288   1.965
 4970SOL     OW15808   1.656   2.401   4.788
 4970SOL    HW115809   1.726   2.335   4.759
 4970SOL    HW215810   1.686   2.493   4.764
 4971SOL     OW15811   6.288   6.085   3.421
 4971SOL    HW115812   6.321   6.073   3.515
 4971SOL    HW215813   6.240   6.002   3.392
 4972SOL     OW15814   1.528   2.965   0.598
 4972SOL    HW115815   1.586   2.943   0.677
 4972SOL    HW215816   1.553   3.055   0.564
 4973SOL     OW15817   6.662   6.850   2.036
 4973SOL    HW115818   6.662   6.838   1.937
 4973SOL    HW215819   6.747   6.814   2.074
 4974SOL     OW15820   5.991   4.427   0.867
 4974SOL    HW115821   5.952   4.385   0.786
 4974SOL    HW215822   6.077   4.381   0.891
 4975SOL     OW15823   5.892   6.025   6.583
 4975SOL    HW115824   5.861   6.019   6.678
 4975SOL    HW215825   5.821   5.988   6.522
 4976SOL     OW15826   3.423   0.149   4.575
 4976SOL    HW115827   3.409   0.151   4.476
 4976SOL    HW215828   3.444   0.241   4.608
 4977SOL     OW15829   4.615   3.946   0.612
 4977SOL    HW115830   4.699   3.999   0.624
 4977SOL    HW215831   4.613   3.871   0.678
 4978SOL     OW15832   0.025   3.324   5.667
 4978SOL    HW115833   0.118   3.359   5.662
 4978SOL    HW215834   6.982   3.399   5.648
 4979SOL     OW15835   6.773   1.337   5.208
 4979SOL    HW115836   6.718   1.263   5.169
 4979SOL    HW215837   6.740   1.358   5.300
 4980SOL     OW15838   4.539   0.176   3.533
 4980SOL    HW115839   4.556   0.094   3.478
 4980SOL    HW215840   4.556   0.257   3.477
 4981SOL     OW15841   4.868   5.412   6.145
 4981SOL    HW115842   4.768   5.415   6.138
 4981SOL    HW215843   4.906   5.383   6.057
 4982SOL     OW15844   2.208   1.631   0.043
 4982SOL    HW115845   2.280   1.562   0.030
 4982SOL    HW215846   2.159   1.612   0.128
 4983SOL     OW15847   5.104   3.078   4.467
 4983SOL    HW115848   5.078   3.040   4.555
 4983SOL    HW215849   5.021   3.091   4.411
 4984SOL     OW15850   5.472   3.742   4.078
 4984SOL    HW115851   5.468   3.840   4.058
 4984SOL    HW215852   5.567   3.716   4.094
 4985SOL     OW15853   6.957   5.902   3.549
 4985SOL    HW115854   6.873   5.915   3.603
 4985SOL    HW215855   7.004   5.990   3.541
 4986SOL     OW15856   6.717   4.567   3.045
 4986SOL    HW115857   6.666   4.643   3.005
 4986SOL    HW215858   6.807   4.561   3.002
 4987SOL     OW15859   0.599   2.275   1.276
 4987SOL    HW115860   0.558   2.307   1.190
 4987SOL    HW215861   0.533   2.220   1.326
 4988SOL     OW15862   6.804   1.566   3.615
 4988SOL    HW115863   6.846   1.565   3.525
 4988SOL    HW215864   6.706   1.586   3.606
 4989SOL     OW15865   5.786   1.013   1.203
 4989SOL    HW115866   5.807   0.955   1.124
 4989SOL    HW215867   5.833   0.977   1.283
 4990SOL     OW15868   1.207   1.454   6.252
 4990SOL    HW115869   1.126   1.429   6.199
 4990SOL    HW215870   1.271   1.377   6.252
 4991SOL     OW15871   0.911   4.133   3.557
 4991SOL    HW115872   0.909   4.233   3.565
 4991SOL    HW215873   0.818   4.100   3.537
 4992SOL     OW15874   5.106   0.597   3.861
 4992SOL    HW115875   5.204   0.603   3.878
 4992SOL    HW215876   5.070   0.687   3.837
 4993SOL     OW15877   2.788   5.041   3.894
 4993SOL    HW115878   2.886   5.037   3.915
 4993SOL    HW215879   2.776   5.074   3.801
 4994SOL     OW15880   1.394   0.286   2.136
 4994SOL    HW115881   1.492   0.292   2.122
 4994SOL    HW215882   1.356   0.378   2.146
 4995SOL     OW15883   6.715   2.934   6.046
 4995SOL    HW115884   6.626   2.899   6.014
 4995SOL    HW215885   6.747   3.004   5.983
 4996SOL     OW15886   1.908   0.727   2.492
 4996SOL    HW115887   1.913   0.645   2.436
 4996SOL    HW215888   1.935   0.705   2.586
 4997SOL     OW15889   6.216   2.316   2.970
 4997SOL    HW115890   6.119   2.294   2.955
 4997SOL    HW215891   6.237   2.307   3.067
 4998SOL     OW15892   2.119   3.920   5.052
 4998SOL    HW115893   2.190   3.990   5.060
 4998SOL    HW215894   2.149   3.836   5.096
 4999SOL     OW15895   5.313   5.707   1.244
 4999SOL    HW115896   5.349   5.734   1.334
 4999SOL    HW215897   5.250   5.777   1.211
 5000SOL     OW15898   1.352   0.175   4.214
 5000SOL    HW115899   1.369   0.264   4.257
 5000SOL    HW215900   1.436   0.120   4.217
 5001SOL     OW15901   1.502   4.053   5.971
 5001SOL    HW115902   1.570   4.121   5.998
 5001SOL    HW215903   1.493   3.984   6.042
 5002SOL     OW15904   1.334   3.037   3.012
 5002SOL    HW115905   1.280   3.121   3.018
 5002SOL    HW215906   1.428   3.055   3.041
 5003SOL     OW15907   1.027   6.259   3.439
 5003SOL    HW115908   1.091   6.335   3.451
 5003SOL    HW215909   1.076   6.173   3.449
 5004SOL     OW15910   2.547   5.465   5.641
 5004SOL    HW115911   2.639   5.438   5.615
 5004SOL    HW215912   2.481   5.402   5.598
 5005SOL     OW15913   3.172   2.416   0.758
 5005SOL    HW115914   3.214   2.326   0.741
 5005SOL    HW215915   3.170   2.433   0.856
 5006SOL     OW15916   5.443   6.984   6.237
 5006SOL    HW115917   5.473   6.914   6.172
 5006SOL    HW215918   5.343   6.981   6.244
 5007SOL     OW15919   2.484   0.419   6.392
 5007SOL    HW115920   2.441   0.468   6.316
 5007SOL    HW215921   2.449   0.455   6.478
 5008SOL     OW15922   6.917   6.867   4.119
 5008SOL    HW115923   6.912   6.967   4.121
 5008SOL    HW215924   7.013   6.839   4.129
 5009SOL     OW15925   2.285   6.684   1.903
 5009SOL    HW115926   2.233   6.719   1.825
 5009SOL    HW215927   2.235   6.703   1.988
 5010SOL     OW15928   3.076   3.325   3.604
 5010SOL    HW115929   3.001   3.346   3.541
 5010SOL    HW215930   3.164   3.335   3.556
 5011SOL     OW15931   2.099   3.614   2.266
 5011SOL    HW115932   2.099   3.709   2.297
 5011SOL    HW215933   2.134   3.611   2.172
 5012SOL     OW15934   5.351   3.064   0.042
 5012SOL    HW115935   5.309   3.155   0.051
 5012SOL    HW215936   5.387   3.054   6.970
 5013SOL     OW15937   5.131   0.852   0.101
 5013SOL    HW115938   5.106   0.928   0.042
 5013SOL    HW215939   5.111   0.875   0.196
 5014SOL     OW15940   5.430   5.352   0.703
 5014SOL    HW115941   5.353   5.413   0.686
 5014SOL    HW215942   5.459   5.360   0.798
 5015SOL     OW15943   4.262   1.789   3.746
 5015SOL    HW115944   4.262   1.689   3.745
 5015SOL    HW215945   4.185   1.822   3.691
 5016SOL     OW15946   2.710   1.763   2.168
 5016SOL    HW115947   2.764   1.748   2.251
 5016SOL    HW215948   2.646   1.839   2.184
 5017SOL     OW15949   1.836   2.498   0.502
 5017SOL    HW115950   1.885   2.438   0.566
 5017SOL    HW215951   1.873   2.590   0.507
 5018SOL     OW15952   0.698   4.906   1.016
 5018SOL    HW115953   0.602   4.905   1.043
 5018SOL    HW215954   0.750   4.964   1.078
 5019SOL     OW15955   2.706   4.371   0.076
 5019SOL    HW115956   2.800   4.404   0.072
 5019SOL    HW215957   2.662   4.406   0.159
 5020SOL     OW15958   5.026   6.497   5.276
 5020SOL    HW115959   4.940   6.501   5.224
 5020SOL    HW215960   5.032   6.575   5.337
 5021SOL     OW15961   1.359   2.828   5.558
 5021SOL    HW115962   1.452   2.850   5.530
 5021SOL    HW215963   1.330   2.742   5.517
 5022SOL     OW15964   1.563   0.661   1.043
 5022SOL    HW115965   1.577   0.580   1.100
 5022SOL    HW215966   1.562   0.743   1.101
 5023SOL     OW15967   6.656   3.443   0.907
 5023SOL    HW115968   6.634   3.374   0.975
 5023SOL    HW215969   6.608   3.422   0.821
 5024SOL     OW15970   6.592   4.318   2.857
 5024SOL    HW115971   6.642   4.256   2.918
 5024SOL    HW215972   6.582   4.408   2.901
 5025SOL     OW15973   4.401   2.100   1.821
 5025SOL    HW115974   4.481   2.155   1.844
 5025SOL    HW215975   4.319   2.157   1.831
 5026SOL     OW15976   5.855   5.818   6.165
 5026SOL    HW115977   5.831   5.913   6.144
 5026SOL    HW215978   5.809   5.757   6.100
 5027SOL     OW15979   0.827   0.110   2.425
 5027SOL    HW115980   0.804   0.204   2.397
 5027SOL    HW215981   0.796   0.094   2.519
 5028SOL     OW15982   0.051   6.547   2.313
 5028SOL    HW115983   0.109   6.467   2.300
 5028SOL    HW215984   0.108   6.625   2.339
 5029SOL     OW15985   6.872   3.081   3.038
 5029SOL    HW115986   6.955   3.048   3.083
 5029SOL    HW215987   6.853   3.026   2.957
 5030SOL     OW15988   6.410   0.568   6.991
 5030SOL    HW115989   6.369   0.477   6.979
 5030SOL    HW215990   6.342   0.638   6.969
 5031SOL     OW15991   5.401   1.534   4.840
 5031SOL    HW115992   5.464   1.478   4.893
 5031SOL    HW215993   5.449   1.613   4.802
 5032SOL     OW15994   1.263   4.076   1.112
 5032SOL    HW115995   1.236   4.031   1.027
 5032SOL    HW215996   1.217   4.032   1.189
 5033SOL     OW15997   1.664   4.629   0.049
 5033SOL    HW115998   1.693   4.690   6.996
 5033SOL    HW215999   1.709   4.540   0.038
 5034SOL     OW16000   6.781   3.336   2.238
 5034SOL    HW116001   6.800   3.385   2.152
 5034SOL    HW216002   6.743   3.401   2.305
 5035SOL     OW16003   5.975   4.746   1.157
 5035SOL    HW116004   5.974   4.751   1.257
 5035SOL    HW216005   6.017   4.828   1.119
 5036SOL     OW16006   0.404   5.569   6.848
 5036SOL    HW116007   0.319   5.609   6.815
 5036SOL    HW216008   0.406   5.471   6.826
 5037SOL     OW16009   4.661   2.641   2.510
 5037SOL    HW116010   4.695   2.733   2.489
 5037SOL    HW216011   4.734   2.574   2.493
 5038SOL     OW16012   1.711   5.055   5.888
 5038SOL    HW116013   1.730   5.066   5.790
 5038SOL    HW216014   1.632   4.994   5.899
 5039SOL     OW16015   2.177   3.687   5.178
 5039SOL    HW116016   2.207   3.612   5.237
 5039SOL    HW216017   2.137   3.650   5.095
 5040SOL     OW16018   2.545   4.025   6.475
 5040SOL    HW116019   2.537   3.934   6.435
 5040SOL    HW216020   2.507   4.093   6.412
 5041SOL     OW16021   0.779   3.826   1.143
 5041SOL    HW116022   0.844   3.889   1.185
 5041SOL    HW216023   0.801   3.733   1.170
 5042SOL     OW16024   0.367   2.826   0.002
 5042SOL    HW116025   0.323   2.905   6.980
 5042SOL    HW216026   0.317   2.800   0.084
 5043SOL     OW16027   3.081   0.946   5.420
 5043SOL    HW116028   3.158   0.943   5.483
 5043SOL    HW216029   3.010   0.882   5.449
 5044SOL     OW16030   6.256   6.889   3.434
 5044SOL    HW116031   6.168   6.885   3.482
 5044SOL    HW216032   6.293   6.796   3.424
 5045SOL     OW16033   5.044   3.617   0.315
 5045SOL    HW116034   5.135   3.576   0.318
 5045SOL    HW216035   5.049   3.708   0.274
 5046SOL     OW16036   3.844   2.988   4.642
 5046SOL    HW116037   3.919   3.052   4.624
 5046SOL    HW216038   3.851   2.953   4.735
 5047SOL     OW16039   6.340   2.005   2.779
 5047SOL    HW116040   6.298   1.916   2.795
 5047SOL    HW216041   6.335   2.060   2.862
 5048SOL     OW16042   6.271   2.377   1.329
 5048SOL    HW116043   6.351   2.321   1.353
 5048SOL    HW216044   6.286   2.470   1.361
 5049SOL     OW16045   6.958   0.992   3.264
 5049SOL    HW116046   0.029   1.031   3.263
 5049SOL    HW216047   6.948   0.932   3.343
 5050SOL     OW16048   0.392   1.417   2.410
 5050SOL    HW116049   0.379   1.319   2.397
 5050SOL    HW216050   0.379   1.464   2.322
 5051SOL     OW16051   3.844   2.942   0.382
 5051SOL    HW116052   3.845   2.869   0.314
 5051SOL    HW216053   3.750   2.976   0.394
 5052SOL     OW16054   2.576   4.999   6.285
 5052SOL    HW116055   2.485   4.964   6.306
 5052SOL    HW216056   2.570   5.098   6.268
 5053SOL     OW16057   2.067   3.822   3.208
 5053SOL    HW116058   2.003   3.899   3.218
 5053SOL    HW216059   2.070   3.795   3.112
 5054SOL     OW16060   3.840   5.732   4.865
 5054SOL    HW116061   3.780   5.713   4.943
 5054SOL    HW216062   3.930   5.692   4.881
 5055SOL     OW16063   6.871   1.401   4.364
 5055SOL    HW116064   6.845   1.323   4.307
 5055SOL    HW216065   6.844   1.383   4.459
 5056SOL     OW16066   6.315   4.027   6.141
 5056SOL    HW116067   6.411   4.042   6.162
 5056SOL    HW216068   6.266   4.001   6.224
 5057SOL     OW16069   1.331   5.449   3.550
 5057SOL    HW116070   1.407   5.400   3.507
 5057SOL    HW216071   1.327   5.426   3.647
 5058SOL     OW16072   3.489   3.633   6.783
 5058SOL    HW116073   3.458   3.589   6.698
 5058SOL    HW216074   3.589   3.631   6.786
 5059SOL     OW16075   5.182   3.522   4.708
 5059SOL    HW116076   5.164   3.442   4.765
 5059SOL    HW216077   5.123   3.597   4.738
 5060SOL     OW16078   0.191   2.588   5.078
 5060SOL    HW116079   0.119   2.594   5.147
 5060SOL    HW216080   0.195   2.494   5.043
 5061SOL     OW16081   2.888   3.620   3.586
 5061SOL    HW116082   2.932   3.566   3.514
 5061SOL    HW216083   2.815   3.676   3.546
 5062SOL     OW16084   5.968   1.210   2.162
 5062SOL    HW116085   6.019   1.165   2.089
 5062SOL    HW216086   5.900   1.146   2.199
 5063SOL     OW16087   1.111   6.226   1.539
 5063SOL    HW116088   1.042   6.215   1.468
 5063SOL    HW216089   1.072   6.206   1.628
 5064SOL     OW16090   4.820   5.563   0.987
 5064SOL    HW116091   4.877   5.532   1.062
 5064SOL    HW216092   4.749   5.495   0.968
 5065SOL     OW16093   1.345   0.481   2.638
 5065SOL    HW116094   1.338   0.550   2.710
 5065SOL    HW216095   1.261   0.427   2.634
 5066SOL     OW16096   2.621   4.316   1.444
 5066SOL    HW116097   2.620   4.283   1.538
 5066SOL    HW216098   2.707   4.363   1.426
 5067SOL     OW16099   4.523   2.137   2.220
 5067SOL    HW116100   4.574   2.115   2.137
 5067SOL    HW216101   4.428   2.106   2.210
 5068SOL     OW16102   2.927   5.961   0.131
 5068SOL    HW116103   2.852   5.898   0.111
 5068SOL    HW216104   2.895   6.030   0.196
 5069SOL     OW16105   1.894   3.133   5.746
 5069SOL    HW116106   1.840   3.198   5.693
 5069SOL    HW216107   1.873   3.144   5.843
 5070SOL     OW16108   5.877   3.955   4.664
 5070SOL    HW116109   5.908   4.047   4.640
 5070SOL    HW216110   5.938   3.916   4.733
 5071SOL     OW16111   4.370   2.369   3.415
 5071SOL    HW116112   4.314   2.291   3.442
 5071SOL    HW216113   4.386   2.366   3.316
 5072SOL     OW16114   2.134   1.532   1.769
 5072SOL    HW116115   2.152   1.508   1.864
 5072SOL    HW216116   2.199   1.603   1.739
 5073SOL     OW16117   1.881   5.427   1.410
 5073SOL    HW116118   1.818   5.394   1.480
 5073SOL    HW216119   1.963   5.464   1.454
 5074SOL     OW16120   3.875   1.937   1.720
 5074SOL    HW116121   3.823   1.966   1.800
 5074SOL    HW216122   3.825   1.961   1.637
 5075SOL     OW16123   0.683   2.541   0.286
 5075SOL    HW116124   0.675   2.468   0.218
 5075SOL    HW216125   0.724   2.621   0.243
 5076SOL     OW16126   5.351   0.059   6.893
 5076SOL    HW116127   5.400   0.123   6.835
 5076SOL    HW216128   5.302   0.110   6.964
 5077SOL     OW16129   0.612   3.620   5.813
 5077SOL    HW116130   0.558   3.672   5.747
 5077SOL    HW216131   0.582   3.643   5.905
 5078SOL     OW16132   0.528   0.920   4.311
 5078SOL    HW116133   0.579   0.959   4.388
 5078SOL    HW216134   0.529   0.985   4.235
 5079SOL     OW16135   2.219   2.865   5.591
 5079SOL    HW116136   2.125   2.898   5.596
 5079SOL    HW216137   2.281   2.942   5.574
 5080SOL     OW16138   5.811   5.631   5.246
 5080SOL    HW116139   5.849   5.719   5.275
 5080SOL    HW216140   5.797   5.572   5.325
 5081SOL     OW16141   3.140   4.548   5.514
 5081SOL    HW116142   3.171   4.567   5.421
 5081SOL    HW216143   3.060   4.605   5.534
 5082SOL     OW16144   4.715   6.827   0.221
 5082SOL    HW116145   4.786   6.816   0.291
 5082SOL    HW216146   4.701   6.741   0.173
 5083SOL     OW16147   3.529   0.248   0.784
 5083SOL    HW116148   3.447   0.197   0.811
 5083SOL    HW216149   3.610   0.203   0.819
 5084SOL     OW16150   0.603   4.955   4.201
 5084SOL    HW116151   0.605   4.966   4.301
 5084SOL    HW216152   0.671   5.015   4.159
 5085SOL     OW16153   1.372   3.400   5.570
 5085SOL    HW116154   1.367   3.310   5.526
 5085SOL    HW216155   1.297   3.457   5.536
 5086SOL     OW16156   0.212   4.573   2.405
 5086SOL    HW116157   0.268   4.610   2.479
 5086SOL    HW216158   0.272   4.539   2.332
 5087SOL     OW16159   6.719   5.692   2.767
 5087SOL    HW116160   6.714   5.779   2.816
 5087SOL    HW216161   6.753   5.621   2.828
 5088SOL     OW16162   4.417   6.975   3.717
 5088SOL    HW116163   4.393   6.990   3.813
 5088SOL    HW216164   4.465   0.034   3.682
 5089SOL     OW16165   5.662   4.525   4.620
 5089SOL    HW116166   5.753   4.516   4.659
 5089SOL    HW216167   5.659   4.476   4.532
 5090SOL     OW16168   2.636   1.096   2.593
 5090SOL    HW116169   2.621   0.999   2.575
 5090SOL    HW216170   2.568   1.129   2.658
 5091SOL     OW16171   5.784   0.518   0.978
 5091SOL    HW116172   5.739   0.538   1.064
 5091SOL    HW216173   5.729   0.453   0.925
 5092SOL     OW16174   3.245   2.973   3.558
 5092SOL    HW116175   3.194   2.980   3.471
 5092SOL    HW216176   3.185   3.000   3.633
 5093SOL     OW16177   3.160   1.902   1.407
 5093SOL    HW116178   3.067   1.917   1.374
 5093SOL    HW216179   3.166   1.930   1.503
 5094SOL     OW16180   2.141   5.805   6.505
 5094SOL    HW116181   2.142   5.827   6.407
 5094SOL    HW216182   2.053   5.831   6.544
 5095SOL     OW16183   0.645   2.092   2.822
 5095SOL    HW116184   0.643   2.095   2.722
 5095SOL    HW216185   0.598   2.010   2.854
 5096SOL     OW16186   4.945   4.660   6.401
 5096SOL    HW116187   4.952   4.579   6.459
 5096SOL    HW216188   4.982   4.740   6.448
 5097SOL     OW16189   6.956   0.083   0.192
 5097SOL    HW116190   6.908   0.055   0.275
 5097SOL    HW216191   6.941   0.180   0.175
 5098SOL     OW16192   3.928   2.192   1.340
 5098SOL    HW116193   3.830   2.192   1.320
 5098SOL    HW216194   3.958   2.100   1.366
 5099SOL     OW16195   7.005   6.099   2.041
 5099SOL    HW116196   6.971   6.051   1.960
 5099SOL    HW216197   0.046   6.173   2.012
 5100SOL     OW16198   2.932   5.405   3.492
 5100SOL    HW116199   2.987   5.483   3.460
 5100SOL    HW216200   2.873   5.373   3.419
 5101SOL     OW16201   4.929   0.227   5.312
 5101SOL    HW116202   4.875   0.144   5.297
 5101SOL    HW216203   4.879   0.289   5.371
 5102SOL     OW16204   5.635   6.549   4.328
 5102SOL    HW116205   5.544   6.515   4.352
 5102SOL    HW216206   5.629   6.645   4.300
 5103SOL     OW16207   1.092   1.642   4.590
 5103SOL    HW116208   1.020   1.666   4.525
 5103SOL    HW216209   1.123   1.724   4.638
 5104SOL     OW16210   2.673   6.073   1.097
 5104SOL    HW116211   2.610   6.091   1.173
 5104SOL    HW216212   2.621   6.044   1.017
 5105SOL     OW16213   3.279   2.679   6.498
 5105SOL    HW116214   3.319   2.742   6.564
 5105SOL    HW216215   3.224   2.730   6.432
 5106SOL     OW16216   3.684   1.492   1.150
 5106SOL    HW116217   3.703   1.394   1.144
 5106SOL    HW216218   3.765   1.544   1.124
 5107SOL     OW16219   5.073   2.628   1.389
 5107SOL    HW116220   5.052   2.695   1.460
 5107SOL    HW216221   4.992   2.611   1.333
 5108SOL     OW16222   3.947   3.965   4.925
 5108SOL    HW116223   4.022   4.001   4.980
 5108SOL    HW216224   3.935   3.868   4.943
 5109SOL     OW16225   1.418   2.462   0.438
 5109SOL    HW116226   1.358   2.524   0.387
 5109SOL    HW216227   1.373   2.374   0.449
 5110SOL     OW16228   0.420   0.894   6.355
 5110SOL    HW116229   0.451   0.806   6.319
 5110SOL    HW216230   0.427   0.894   6.454
 5111SOL     OW16231   0.939   6.913   4.093
 5111SOL    HW116232   0.878   6.956   4.160
 5111SOL    HW216233   0.970   6.825   4.130
 5112SOL     OW16234   1.094   0.396   2.603
 5112SOL    HW116235   1.058   0.426   2.514
 5112SOL    HW216236   1.082   0.297   2.611
 5113SOL     OW16237   1.771   5.662   1.292
 5113SOL    HW116238   1.680   5.638   1.258
 5113SOL    HW216239   1.823   5.579   1.312
 5114SOL     OW16240   3.561   6.572   6.704
 5114SOL    HW116241   3.630   6.568   6.776
 5114SOL    HW216242   3.471   6.549   6.743
 5115SOL     OW16243   1.697   4.488   2.200
 5115SOL    HW116244   1.765   4.466   2.131
 5115SOL    HW216245   1.677   4.586   2.197
 5116SOL     OW16246   1.782   6.599   0.300
 5116SOL    HW116247   1.868   6.591   0.350
 5116SOL    HW216248   1.751   6.694   0.303
 5117SOL     OW16249   0.668   4.025   3.504
 5117SOL    HW116250   0.630   4.056   3.417
 5117SOL    HW216251   0.629   3.936   3.529
 5118SOL     OW16252   5.520   0.761   0.200
 5118SOL    HW116253   5.521   0.685   0.135
 5118SOL    HW216254   5.614   0.781   0.229
 5119SOL     OW16255   4.548   1.346   1.515
 5119SOL    HW116256   4.586   1.282   1.582
 5119SOL    HW216257   4.583   1.438   1.534
 5120SOL     OW16258   4.781   6.473   5.162
 5120SOL    HW116259   4.786   6.379   5.196
 5120SOL    HW216260   4.690   6.490   5.125
 5121SOL     OW16261   3.028   3.260   6.573
 5121SOL    HW116262   3.092   3.315   6.627
 5121SOL    HW216263   2.938   3.304   6.572
 5122SOL     OW16264   3.227   5.857   2.885
 5122SOL    HW116265   3.303   5.904   2.930
 5122SOL    HW216266   3.249   5.843   2.788
 5123SOL     OW16267   5.792   2.141   4.114
 5123SOL    HW116268   5.737   2.057   4.113
 5123SOL    HW216269   5.860   2.135   4.188
 5124SOL     OW16270   2.454   6.011   4.111
 5124SOL    HW116271   2.500   6.026   4.199
 5124SOL    HW216272   2.411   6.095   4.081
 5125SOL     OW16273   6.801   1.959   3.580
 5125SOL    HW116274   6.799   1.978   3.678
 5125SOL    HW216275   6.709   1.939   3.548
 5126SOL     OW16276   0.370   6.257   6.996
 5126SOL    HW116277   0.469   6.257   7.010
 5126SOL    HW216278   0.325   6.297   0.054
 5127SOL     OW16279   0.217   5.090   6.940
 5127SOL    HW116280   0.211   5.100   0.019
 5127SOL    HW216281   0.299   5.037   6.918
 5128SOL     OW16282   7.011   6.318   0.667
 5128SOL    HW116283   0.038   6.262   0.735
 5128SOL    HW216284   6.927   6.271   0.639
 5129SOL     OW16285   5.129   6.551   2.716
 5129SOL    HW116286   5.101   6.464   2.676
 5129SOL    HW216287   5.183   6.533   2.799
 5130SOL     OW16288   6.922   5.573   2.924
 5130SOL    HW116289   6.873   5.486   2.914
 5130SOL    HW216290   6.894   5.618   3.009
 5131SOL     OW16291   1.997   3.895   4.481
 5131SOL    HW116292   2.055   3.942   4.547
 5131SOL    HW216293   2.033   3.910   4.389
 5132SOL     OW16294   4.552   2.895   5.953
 5132SOL    HW116295   4.571   2.861   6.045
 5132SOL    HW216296   4.512   2.822   5.898
 5133SOL     OW16297   2.433   5.109   0.231
 5133SOL    HW116298   2.430   5.010   0.215
 5133SOL    HW216299   2.420   5.158   0.145
 5134SOL     OW16300   6.513   2.649   2.059
 5134SOL    HW116301   6.518   2.568   2.001
 5134SOL    HW216302   6.445   2.635   2.131
 5135SOL     OW16303   6.349   2.533   4.799
 5135SOL    HW116304   6.433   2.479   4.806
 5135SOL    HW216305   6.366   2.625   4.834
 5136SOL     OW16306   4.777   6.934   5.899
 5136SOL    HW116307   4.730   7.020   5.880
 5136SOL    HW216308   4.792   6.924   5.997
 5137SOL     OW16309   5.581   3.624   6.569
 5137SOL    HW116310   5.524   3.543   6.581
 5137SOL    HW216311   5.638   3.637   6.650
 5138SOL     OW16312   3.203   2.565   5.613
 5138SOL    HW116313   3.108   2.566   5.646
 5138SOL    HW216314   3.203   2.560   5.513
 5139SOL     OW16315   1.400   6.871   3.596
 5139SOL    HW116316   1.493   6.903   3.614
 5139SOL    HW216317   1.403   6.776   3.566
 5140SOL     OW16318   3.419   1.659   6.923
 5140SOL    HW116319   3.458   1.672   6.832
 5140SOL    HW216320   3.320   1.661   6.918
 5141SOL     OW16321   6.810   4.112   0.674
 5141SOL    HW116322   6.901   4.093   0.635
 5141SOL    HW216323   6.741   4.058   0.626
 5142SOL     OW16324   6.248   1.186   4.337
 5142SOL    HW116325   6.192   1.227   4.264
 5142SOL    HW216326   6.240   1.087   4.333
 5143SOL     OW16327   0.715   4.818   3.807
 5143SOL    HW116328   0.762   4.882   3.747
 5143SOL    HW216329   0.617   4.838   3.807
 5144SOL     OW16330   0.675   5.519   6.843
 5144SOL    HW116331   0.695   5.456   6.917
 5144SOL    HW216332   0.578   5.546   6.848
 5145SOL     OW16333   1.752   4.476   6.352
 5145SOL    HW116334   1.777   4.388   6.311
 5145SOL    HW216335   1.694   4.527   6.288
 5146SOL     OW16336   3.710   3.612   5.210
 5146SOL    HW116337   3.767   3.532   5.191
 5146SOL    HW216338   3.756   3.671   5.275
 5147SOL     OW16339   6.909   4.915   2.579
 5147SOL    HW116340   6.886   5.011   2.597
 5147SOL    HW216341   6.848   4.879   2.508
 5148SOL     OW16342   0.713   6.607   1.266
 5148SOL    HW116343   0.801   6.564   1.244
 5148SOL    HW216344   0.639   6.543   1.246
 5149SOL     OW16345   6.126   5.919   4.287
 5149SOL    HW116346   6.199   5.855   4.267
 5149SOL    HW216347   6.116   5.984   4.211
 5150SOL     OW16348   2.131   5.393   2.528
 5150SOL    HW116349   2.036   5.371   2.550
 5150SOL    HW216350   2.162   5.336   2.452
 5151SOL     OW16351   5.294   1.865   0.637
 5151SOL    HW116352   5.248   1.789   0.682
 5151SOL    HW216353   5.236   1.946   0.640
 5152SOL     OW16354   2.395   4.587   6.771
 5152SOL    HW116355   2.360   4.582   6.678
 5152SOL    HW216356   2.430   4.498   6.799
 5153SOL     OW16357   2.234   0.814   6.669
 5153SOL    HW116358   2.323   0.827   6.712
 5153SOL    HW216359   2.178   0.755   6.727
 5154SOL     OW16360   1.787   3.164   6.783
 5154SOL    HW116361   1.833   3.125   6.704
 5154SOL    HW216362   1.774   3.092   6.852
 5155SOL     OW16363   3.618   0.050   2.473
 5155SOL    HW116364   3.586   6.991   2.523
 5155SOL    HW216365   3.588   0.133   2.519
 5156SOL     OW16366   6.778   3.383   5.548
 5156SOL    HW116367   6.821   3.471   5.571
 5156SOL    HW216368   6.791   3.363   5.451
 5157SOL     OW16369   4.319   2.375   3.759
 5157SOL    HW116370   4.347   2.402   3.667
 5157SOL    HW216371   4.230   2.330   3.755
 5158SOL     OW16372   3.287   1.228   1.314
 5158SOL    HW116373   3.285   1.271   1.223
 5158SOL    HW216374   3.324   1.292   1.380
 5159SOL     OW16375   0.292   2.900   4.300
 5159SOL    HW116376   0.298   2.826   4.234
 5159SOL    HW216377   0.355   2.883   4.376
 5160SOL     OW16378   0.691   4.299   2.839
 5160SOL    HW116379   0.610   4.293   2.897
 5160SOL    HW216380   0.666   4.334   2.749
 5161SOL     OW16381   1.777   3.564   4.203
 5161SOL    HW116382   1.784   3.661   4.223
 5161SOL    HW216383   1.824   3.543   4.118
 5162SOL     OW16384   1.211   4.918   4.048
 5162SOL    HW116385   1.146   4.920   4.125
 5162SOL    HW216386   1.302   4.896   4.081
 5163SOL     OW16387   3.992   5.222   1.291
 5163SOL    HW116388   4.010   5.199   1.195
 5163SOL    HW216389   4.064   5.283   1.324
 5164SOL     OW16390   5.218   2.542   6.628
 5164SOL    HW116391   5.211   2.641   6.641
 5164SOL    HW216392   5.258   2.523   6.538
 5165SOL     OW16393   6.277   3.775   5.278
 5165SOL    HW116394   6.182   3.791   5.303
 5165SOL    HW216395   6.320   3.862   5.255
 5166SOL     OW16396   0.950   6.027   2.083
 5166SOL    HW116397   0.869   6.000   2.135
 5166SOL    HW216398   0.970   6.123   2.098
 5167SOL     OW16399   6.180   6.504   5.709
 5167SOL    HW116400   6.113   6.547   5.769
 5167SOL    HW216401   6.214   6.571   5.642
 5168SOL     OW16402   5.141   2.951   3.231
 5168SOL    HW116403   5.150   3.023   3.300
 5168SOL    HW216404   5.149   2.862   3.275
 5169SOL     OW16405   3.716   2.181   5.173
 5169SOL    HW116406   3.681   2.105   5.228
 5169SOL    HW216407   3.713   2.157   5.076
 5170SOL     OW16408   6.830   3.703   5.996
 5170SOL    HW116409   6.840   3.723   6.093
 5170SOL    HW216410   6.850   3.607   5.979
 5171SOL     OW16411   2.270   5.037   4.210
 5171SOL    HW116412   2.349   5.075   4.257
 5171SOL    HW216413   2.275   4.937   4.211
 5172SOL     OW16414   6.713   2.830   2.051
 5172SOL    HW116415   6.633   2.771   2.059
 5172SOL    HW216416   6.691   2.909   1.995
 5173SOL     OW16417   5.688   4.689   5.935
 5173SOL    HW116418   5.727   4.633   6.007
 5173SOL    HW216419   5.591   4.704   5.952
 5174SOL     OW16420   2.304   4.973   3.763
 5174SOL    HW116421   2.295   4.985   3.664
 5174SOL    HW216422   2.312   5.062   3.807
 5175SOL     OW16423   2.550   4.335   6.843
 5175SOL    HW116424   2.633   4.309   6.793
 5175SOL    HW216425   2.575   4.360   6.936
 5176SOL     OW16426   4.389   3.219   0.243
 5176SOL    HW116427   4.478   3.241   0.203
 5176SOL    HW216428   4.326   3.187   0.172
 5177SOL     OW16429   4.899   0.226   5.846
 5177SOL    HW116430   4.888   0.166   5.766
 5177SOL    HW216431   4.974   0.289   5.831
 5178SOL     OW16432   1.834   3.086   1.092
 5178SOL    HW116433   1.781   3.170   1.103
 5178SOL    HW216434   1.931   3.107   1.099
 5179SOL     OW16435   4.038   6.022   5.146
 5179SOL    HW116436   4.014   6.052   5.053
 5179SOL    HW216437   4.073   6.099   5.198
 5180SOL     OW16438   3.008   2.882   6.612
 5180SOL    HW116439   2.957   2.819   6.553
 5180SOL    HW216440   3.069   2.938   6.555
 5181SOL     OW16441   5.110   2.160   1.973
 5181SOL    HW116442   5.190   2.190   1.922
 5181SOL    HW216443   5.029   2.167   1.914
 5182SOL     OW16444   4.229   5.010   1.569
 5182SOL    HW116445   4.328   5.025   1.566
 5182SOL    HW216446   4.195   5.034   1.660
 5183SOL     OW16447   3.909   0.879   2.618
 5183SOL    HW116448   4.000   0.873   2.577
 5183SOL    HW216449   3.856   0.951   2.573
 5184SOL     OW16450   0.925   2.190   4.141
 5184SOL    HW116451   0.850   2.183   4.076
 5184SOL    HW216452   0.973   2.277   4.128
 5185SOL     OW16453   4.999   0.220   3.235
 5185SOL    HW116454   5.048   0.230   3.148
 5185SOL    HW216455   4.900   0.217   3.217
 5186SOL     OW16456   5.477   3.738   1.006
 5186SOL    HW116457   5.532   3.788   1.073
 5186SOL    HW216458   5.466   3.794   0.923
 5187SOL     OW16459   6.932   0.773   3.877
 5187SOL    HW116460   6.949   0.772   3.976
 5187SOL    HW216461   6.864   0.843   3.856
 5188SOL     OW16462   0.748   5.023   0.477
 5188SOL    HW116463   0.665   5.073   0.456
 5188SOL    HW216464   0.805   5.018   0.395
 5189SOL     OW16465   5.047   4.946   1.197
 5189SOL    HW116466   5.030   4.970   1.101
 5189SOL    HW216467   5.080   4.852   1.202
 5190SOL     OW16468   0.776   2.498   4.277
 5190SOL    HW116469   0.849   2.550   4.320
 5190SOL    HW216470   0.781   2.509   4.178
 5191SOL     OW16471   4.279   0.285   2.087
 5191SOL    HW116472   4.327   0.354   2.033
 5191SOL    HW216473   4.182   0.286   2.062
 5192SOL     OW16474   3.099   5.872   2.487
 5192SOL    HW116475   3.044   5.953   2.464
 5192SOL    HW216476   3.122   5.823   2.403
 5193SOL     OW16477   4.821   5.325   3.774
 5193SOL    HW116478   4.746   5.259   3.774
 5193SOL    HW216479   4.868   5.323   3.862
 5194SOL     OW16480   4.769   0.857   6.767
 5194SOL    HW116481   4.852   0.827   6.721
 5194SOL    HW216482   4.776   0.954   6.790
 5195SOL     OW16483   0.152   5.954   4.139
 5195SOL    HW116484   0.172   5.967   4.042
 5195SOL    HW216485   0.163   5.858   4.163
 5196SOL     OW16486   1.128   3.318   1.016
 5196SOL    HW116487   1.179   3.245   1.062
 5196SOL    HW216488   1.107   3.390   1.083
 5197SOL     OW16489   1.949   5.812   4.844
 5197SOL    HW116490   1.859   5.769   4.841
 5197SOL    HW216491   1.942   5.903   4.885
 5198SOL     OW16492   3.876   0.173   3.470
 5198SOL    HW116493   3.924   0.229   3.538
 5198SOL    HW216494   3.891   0.076   3.490
 5199SOL     OW16495   1.594   6.006   0.144
 5199SOL    HW116496   1.567   6.062   0.223
 5199SOL    HW216497   1.643   6.064   0.079
 5200SOL     OW16498   1.032   1.843   5.177
 5200SOL    HW116499   1.015   1.762   5.120
 5200SOL    HW216500   1.130   1.854   5.192
 5201SOL     OW16501   5.324   5.806   4.390
 5201SOL    HW116502   5.408   5.815   4.443
 5201SOL    HW216503   5.262   5.743   4.437
 5202SOL     OW16504   6.062   3.691   6.470
 5202SOL    HW116505   6.097   3.630   6.541
 5202SOL    HW216506   6.102   3.666   6.382
 5203SOL     OW16507   1.999   0.925   6.859
 5203SOL    HW116508   1.961   0.833   6.845
 5203SOL    HW216509   1.987   0.979   6.776
 5204SOL     OW16510   3.373   6.487   0.333
 5204SOL    HW116511   3.382   6.510   0.430
 5204SOL    HW216512   3.277   6.495   0.305
 5205SOL     OW16513   6.799   5.689   0.337
 5205SOL    HW116514   6.891   5.674   0.375
 5205SOL    HW216515   6.734   5.703   0.412
 5206SOL     OW16516   0.625   4.711   5.922
 5206SOL    HW116517   0.721   4.721   5.950
 5206SOL    HW216518   0.605   4.614   5.907
 5207SOL     OW16519   0.913   0.716   3.503
 5207SOL    HW116520   0.881   0.691   3.594
 5207SOL    HW216521   0.981   0.649   3.473
 5208SOL     OW16522   4.460   2.680   0.193
 5208SOL    HW116523   4.532   2.746   0.173
 5208SOL    HW216524   4.421   2.647   0.107
 5209SOL     OW16525   5.717   1.105   1.682
 5209SOL    HW116526   5.722   1.018   1.633
 5209SOL    HW216527   5.622   1.135   1.686
 5210SOL     OW16528   4.995   3.921   1.035
 5210SOL    HW116529   5.026   3.921   0.940
 5210SOL    HW216530   5.052   3.858   1.088
 5211SOL     OW16531   5.086   2.005   4.534
 5211SOL    HW116532   5.132   1.925   4.494
 5211SOL    HW216533   5.131   2.088   4.501
 5212SOL     OW16534   1.369   2.425   1.059
 5212SOL    HW116535   1.386   2.358   0.987
 5212SOL    HW216536   1.278   2.464   1.049
 5213SOL     OW16537   4.059   3.764   1.339
 5213SOL    HW116538   4.067   3.862   1.320
 5213SOL    HW216539   4.099   3.712   1.264
 5214SOL     OW16540   5.395   3.328   5.460
 5214SOL    HW116541   5.401   3.277   5.546
 5214SOL    HW216542   5.308   3.309   5.416
 5215SOL     OW16543   0.653   4.491   4.307
 5215SOL    HW116544   0.618   4.566   4.363
 5215SOL    HW216545   0.603   4.489   4.219
 5216SOL     OW16546   4.648   5.571   1.384
 5216SOL    HW116547   4.723   5.626   1.347
 5216SOL    HW216548   4.566   5.627   1.392
 5217SOL     OW16549   4.088   5.607   4.877
 5217SOL    HW116550   4.123   5.662   4.953
 5217SOL    HW216551   4.036   5.530   4.913
 5218SOL     OW16552   0.062   1.199   1.280
 5218SOL    HW116553   7.005   1.247   1.319
 5218SOL    HW216554   0.137   1.197   1.346
 5219SOL     OW16555   3.667   1.863   3.995
 5219SOL    HW116556   3.627   1.854   4.087
 5219SOL    HW216557   3.615   1.930   3.943
 5220SOL     OW16558   1.859   5.081   2.628
 5220SOL    HW116559   1.854   4.984   2.606
 5220SOL    HW216560   1.940   5.099   2.683
 5221SOL     OW16561   6.757   0.154   2.287
 5221SOL    HW116562   6.835   0.134   2.346
 5221SOL    HW216563   6.696   0.075   2.284
 5222SOL     OW16564   3.620   5.807   2.161
 5222SOL    HW116565   3.645   5.785   2.255
 5222SOL    HW216566   3.643   5.730   2.101
 5223SOL     OW16567   0.416   2.582   0.940
 5223SOL    HW116568   0.316   2.591   0.935
 5223SOL    HW216569   0.456   2.615   0.855
 5224SOL     OW16570   6.880   2.180   3.987
 5224SOL    HW116571   6.897   2.172   4.085
 5224SOL    HW216572   6.783   2.196   3.970
 5225SOL     OW16573   6.936   0.852   3.505
 5225SOL    HW116574   6.994   0.798   3.566
 5225SOL    HW216575   6.864   0.897   3.559
 5226SOL     OW16576   0.320   5.897   3.519
 5226SOL    HW116577   0.251   5.970   3.518
 5226SOL    HW216578   0.404   5.930   3.477
 5227SOL     OW16579   6.876   4.055   5.578
 5227SOL    HW116580   6.802   4.110   5.537
 5227SOL    HW216581   6.836   3.983   5.634
 5228SOL     OW16582   0.447   2.108   0.386
 5228SOL    HW116583   0.479   2.127   0.293
 5228SOL    HW216584   0.523   2.120   0.451
 5229SOL     OW16585   3.271   6.228   0.131
 5229SOL    HW116586   3.210   6.185   0.064
 5229SOL    HW216587   3.273   6.173   0.214
 5230SOL     OW16588   6.111   6.812   2.760
 5230SOL    HW116589   6.203   6.787   2.731
 5230SOL    HW216590   6.093   6.907   2.735
 5231SOL     OW16591   4.390   2.486   4.011
 5231SOL    HW116592   4.378   2.583   4.032
 5231SOL    HW216593   4.369   2.470   3.915
 5232SOL     OW16594   0.860   4.053   5.934
 5232SOL    HW116595   0.912   3.991   5.876
 5232SOL    HW216596   0.764   4.051   5.907
 5233SOL     OW16597   3.742   0.619   2.208
 5233SOL    HW116598   3.711   0.631   2.114
 5233SOL    HW216599   3.786   0.530   2.217
 5234SOL     OW16600   2.762   3.071   6.611
 5234SOL    HW116601   2.805   2.983   6.628
 5234SOL    HW216602   2.815   3.122   6.543
 5235SOL     OW16603   1.970   2.454   1.095
 5235SOL    HW116604   1.987   2.493   1.005
 5235SOL    HW216605   1.873   2.466   1.118
 5236SOL     OW16606   3.500   5.209   2.246
 5236SOL    HW116607   3.473   5.120   2.210
 5236SOL    HW216608   3.590   5.201   2.290
 5237SOL     OW16609   2.081   1.057   4.525
 5237SOL    HW116610   2.154   1.124   4.512
 5237SOL    HW216611   2.114   0.982   4.583
 5238SOL     OW16612   0.708   5.716   0.969
 5238SOL    HW116613   0.754   5.703   1.058
 5238SOL    HW216614   0.628   5.774   0.981
 5239SOL     OW16615   3.563   3.070   0.391
 5239SOL    HW116616   3.589   3.156   0.433
 5239SOL    HW216617   3.464   3.066   0.379
 5240SOL     OW16618   2.927   2.347   5.260
 5240SOL    HW116619   2.854   2.359   5.193
 5240SOL    HW216620   3.013   2.329   5.213
 5241SOL     OW16621   0.522   5.746   3.014
 5241SOL    HW116622   0.451   5.816   3.017
 5241SOL    HW216623   0.602   5.782   2.965
 5242SOL     OW16624   4.988   0.222   2.120
 5242SOL    HW116625   4.911   0.163   2.143
 5242SOL    HW216626   5.067   0.196   2.175
 5243SOL     OW16627   2.578   6.229   1.336
 5243SOL    HW116628   2.496   6.256   1.285
 5243SOL    HW216629   2.610   6.307   1.389
 5244SOL     OW16630   4.475   3.849   0.229
 5244SOL    HW116631   4.414   3.929   0.234
 5244SOL    HW216632   4.467   3.796   0.314
 5245SOL     OW16633   3.437   4.621   0.803
 5245SOL    HW116634   3.362   4.674   0.762
 5245SOL    HW216635   3.483   4.568   0.732
 5246SOL     OW16636   6.473   2.408   2.382
 5246SOL    HW116637   6.453   2.323   2.429
 5246SOL    HW216638   6.388   2.455   2.359
 5247SOL     OW16639   3.295   0.596   5.934
 5247SOL    HW116640   3.288   0.692   5.908
 5247SOL    HW216641   3.203   0.556   5.939
 5248SOL     OW16642   0.178   2.248   3.366
 5248SOL    HW116643   0.080   2.231   3.373
 5248SOL    HW216644   0.228   2.172   3.408
 5249SOL     OW16645   1.434   5.996   6.844
 5249SOL    HW116646   1.435   6.096   6.834
 5249SOL    HW216647   1.398   5.955   6.760
 5250SOL     OW16648   0.616   5.623   0.519
 5250SOL    HW116649   0.587   5.692   0.453
 5250SOL    HW216650   0.712   5.599   0.502
 5251SOL     OW16651   1.142   4.056   0.613
 5251SOL    HW116652   1.045   4.079   0.605
 5251SOL    HW216653   1.164   3.980   0.552
 5252SOL     OW16654   2.330   6.584   1.047
 5252SOL    HW116655   2.422   6.620   1.059
 5252SOL    HW216656   2.332   6.484   1.057
 5253SOL     OW16657   0.061   3.702   4.462
 5253SOL    HW116658   0.092   3.611   4.434
 5253SOL    HW216659   7.019   3.738   4.393
 5254SOL     OW16660   5.999   0.584   3.748
 5254SOL    HW116661   6.075   0.542   3.797
 5254SOL    HW216662   5.957   0.517   3.687
 5255SOL     OW16663   5.199   2.528   4.732
 5255SOL    HW116664   5.141   2.474   4.671
 5255SOL    HW216665   5.280   2.557   4.683
 5256SOL     OW16666   4.762   2.185   4.225
 5256SOL    HW116667   4.749   2.128   4.144
 5256SOL    HW216668   4.706   2.268   4.216
 5257SOL     OW16669   4.499   0.264   1.385
 5257SOL    HW116670   4.439   0.186   1.405
 5257SOL    HW216671   4.513   0.270   1.286
 5258SOL     OW16672   5.709   2.521   2.343
 5258SOL    HW116673   5.644   2.553   2.275
 5258SOL    HW216674   5.665   2.515   2.432
 5259SOL     OW16675   4.925   6.068   3.033
 5259SOL    HW116676   4.882   6.143   3.083
 5259SOL    HW216677   4.921   6.087   2.935
 5260SOL     OW16678   4.155   4.894   0.725
 5260SOL    HW116679   4.218   4.846   0.786
 5260SOL    HW216680   4.103   4.828   0.671
 5261SOL     OW16681   6.501   4.202   6.644
 5261SOL    HW116682   6.472   4.126   6.586
 5261SOL    HW216683   6.501   4.286   6.589
 5262SOL     OW16684   3.211   1.539   3.384
 5262SOL    HW116685   3.130   1.521   3.328
 5262SOL    HW216686   3.186   1.600   3.459
 5263SOL     OW16687   1.685   1.543   3.115
 5263SOL    HW116688   1.742   1.543   3.032
 5263SOL    HW216689   1.743   1.525   3.194
 5264SOL     OW16690   6.470   2.730   1.696
 5264SOL    HW116691   6.379   2.772   1.694
 5264SOL    HW216692   6.461   2.632   1.674
 5265SOL     OW16693   6.325   3.046   4.236
 5265SOL    HW116694   6.343   3.093   4.150
 5265SOL    HW216695   6.301   3.113   4.307
 5266SOL     OW16696   2.724   6.114   6.921
 5266SOL    HW116697   2.821   6.130   6.934
 5266SOL    HW216698   2.674   6.136   7.005
 5267SOL     OW16699   5.151   2.617   4.429
 5267SOL    HW116700   5.069   2.642   4.480
 5267SOL    HW216701   5.132   2.619   4.331
 5268SOL     OW16702   4.956   0.694   0.479
 5268SOL    HW116703   4.912   0.734   0.559
 5268SOL    HW216704   4.890   0.686   0.405
 5269SOL     OW16705   0.631   6.500   2.474
 5269SOL    HW116706   0.637   6.404   2.500
 5269SOL    HW216707   0.684   6.516   2.390
 5270SOL     OW16708   5.563   1.405   1.899
 5270SOL    HW116709   5.523   1.407   1.808
 5270SOL    HW216710   5.514   1.468   1.959
 5271SOL     OW16711   5.736   4.786   5.024
 5271SOL    HW116712   5.646   4.753   4.995
 5271SOL    HW216713   5.735   4.801   5.123
 5272SOL     OW16714   2.937   5.498   1.217
 5272SOL    HW116715   2.936   5.491   1.316
 5272SOL    HW216716   2.986   5.420   1.179
 5273SOL     OW16717   0.417   3.461   2.859
 5273SOL    HW116718   0.351   3.388   2.844
 5273SOL    HW216719   0.483   3.462   2.784
 5274SOL     OW16720   5.489   0.193   2.720
 5274SOL    HW116721   5.467   0.207   2.816
 5274SOL    HW216722   5.505   0.281   2.676
 5275SOL     OW16723   3.999   1.345   0.470
 5275SOL    HW116724   4.026   1.338   0.566
 5275SOL    HW216725   3.952   1.432   0.455
 5276SOL     OW16726   2.067   0.152   1.058
 5276SOL    HW116727   2.146   0.125   1.113
 5276SOL    HW216728   1.985   0.147   1.114
 5277SOL     OW16729   2.779   1.526   2.898
 5277SOL    HW116730   2.759   1.532   2.996
 5277SOL    HW216731   2.696   1.498   2.849
 5278SOL     OW16732   4.858   5.491   4.148
 5278SOL    HW116733   4.826   5.492   4.243
 5278SOL    HW216734   4.801   5.551   4.092
 5279SOL     OW16735   2.524   5.482   0.073
 5279SOL    HW116736   2.560   5.531   0.152
 5279SOL    HW216737   2.424   5.488   0.073
 5280SOL     OW16738   3.284   6.369   5.378
 5280SOL    HW116739   3.362   6.321   5.417
 5280SOL    HW216740   3.262   6.331   5.288
 5281SOL     OW16741   6.484   1.783   2.320
 5281SOL    HW116742   6.409   1.847   2.302
 5281SOL    HW216743   6.460   1.725   2.398
 5282SOL     OW16744   3.911   1.515   3.675
 5282SOL    HW116745   3.890   1.425   3.714
 5282SOL    HW216746   3.873   1.520   3.583
 5283SOL     OW16747   4.938   6.472   2.052
 5283SOL    HW116748   5.034   6.446   2.053
 5283SOL    HW216749   4.930   6.570   2.038
 5284SOL     OW16750   5.230   4.411   3.409
 5284SOL    HW116751   5.167   4.340   3.378
 5284SOL    HW216752   5.195   4.501   3.381
 5285SOL     OW16753   3.169   4.959   4.291
 5285SOL    HW116754   3.249   4.928   4.342
 5285SOL    HW216755   3.087   4.947   4.348
 5286SOL     OW16756   2.371   4.679   1.020
 5286SOL    HW116757   2.313   4.599   1.034
 5286SOL    HW216758   2.318   4.762   1.039
 5287SOL     OW16759   2.966   1.334   0.546
 5287SOL    HW116760   3.063   1.359   0.535
 5287SOL    HW216761   2.920   1.342   0.457
 5288SOL     OW16762   3.374   0.147   1.654
 5288SOL    HW116763   3.423   0.079   1.708
 5288SOL    HW216764   3.300   0.186   1.710
 5289SOL     OW16765   1.442   4.878   6.569
 5289SOL    HW116766   1.434   4.941   6.646
 5289SOL    HW216767   1.538   4.869   6.543
 5290SOL     OW16768   2.506   5.354   6.194
 5290SOL    HW116769   2.426   5.294   6.203
 5290SOL    HW216770   2.531   5.363   6.098
 5291SOL     OW16771   2.874   6.023   5.404
 5291SOL    HW116772   2.784   5.992   5.435
 5291SOL    HW216773   2.897   5.977   5.318
 5292SOL     OW16774   5.975   2.736   0.491
 5292SOL    HW116775   5.990   2.809   0.557
 5292SOL    HW216776   5.972   2.648   0.539
 5293SOL     OW16777   0.971   0.932   4.471
 5293SOL    HW116778   0.929   1.023   4.468
 5293SOL    HW216779   1.069   0.940   4.454
 5294SOL     OW16780   5.102   3.390   6.165
 5294SOL    HW116781   5.022   3.347   6.206
 5294SOL    HW216782   5.163   3.422   6.237
 5295SOL     OW16783   5.500   1.035   2.710
 5295SOL    HW116784   5.594   1.058   2.683
 5295SOL    HW216785   5.453   1.118   2.739
 5296SOL     OW16786   1.645   5.341   0.003
 5296SOL    HW116787   1.612   5.354   0.097
 5296SOL    HW216788   1.742   5.316   0.006
 5297SOL     OW16789   1.706   2.594   1.124
 5297SOL    HW116790   1.611   2.579   1.152
 5297SOL    HW216791   1.750   2.655   1.191
 5298SOL     OW16792   6.418   5.750   2.056
 5298SOL    HW116793   6.360   5.831   2.060
 5298SOL    HW216794   6.360   5.668   2.062
 5299SOL     OW16795   2.668   0.837   1.363
 5299SOL    HW116796   2.570   0.821   1.346
 5299SOL    HW216797   2.716   0.750   1.364
 5300SOL     OW16798   0.693   5.331   3.132
 5300SOL    HW116799   0.635   5.250   3.124
 5300SOL    HW216800   0.726   5.340   3.226
 5301SOL     OW16801   4.324   1.510   6.857
 5301SOL    HW116802   4.317   1.488   6.760
 5301SOL    HW216803   4.245   1.565   6.885
 5302SOL     OW16804   6.305   4.368   2.142
 5302SOL    HW116805   6.298   4.357   2.043
 5302SOL    HW216806   6.213   4.370   2.181
 5303SOL     OW16807   6.457   6.210   4.081
 5303SOL    HW116808   6.458   6.306   4.054
 5303SOL    HW216809   6.501   6.200   4.171
 5304SOL     OW16810   5.289   1.968   6.317
 5304SOL    HW116811   5.345   1.966   6.400
 5304SOL    HW216812   5.297   2.058   6.274
 5305SOL     OW16813   1.662   0.772   4.120
 5305SOL    HW116814   1.754   0.804   4.140
 5305SOL    HW216815   1.607   0.773   4.204
 5306SOL     OW16816   2.565   6.651   5.490
 5306SOL    HW116817   2.591   6.747   5.482
 5306SOL    HW216818   2.474   6.638   5.450
 5307SOL     OW16819   4.226   6.191   6.384
 5307SOL    HW116820   4.231   6.225   6.478
 5307SOL    HW216821   4.256   6.096   6.382
 5308SOL     OW16822   0.459   0.502   3.979
 5308SOL    HW116823   0.557   0.518   3.991
 5308SOL    HW216824   0.415   0.497   4.069
 5309SOL     OW16825   4.041   3.594   3.254
 5309SOL    HW116826   4.069   3.651   3.177
 5309SOL    HW216827   3.997   3.651   3.323
 5310SOL     OW16828   4.910   2.734   1.748
 5310SOL    HW116829   4.919   2.800   1.674
 5310SOL    HW216830   4.815   2.728   1.777
 5311SOL     OW16831   1.053   5.864   6.686
 5311SOL    HW116832   1.008   5.776   6.697
 5311SOL    HW216833   0.989   5.938   6.710
 5312SOL     OW16834   0.548   5.011   2.011
 5312SOL    HW116835   0.579   5.095   1.967
 5312SOL    HW216836   0.478   5.032   2.079
 5313SOL     OW16837   0.466   5.323   6.756
 5313SOL    HW116838   0.544   5.340   6.697
 5313SOL    HW216839   0.397   5.270   6.706
 5314SOL     OW16840   4.669   5.463   0.483
 5314SOL    HW116841   4.734   5.401   0.438
 5314SOL    HW216842   4.637   5.530   0.416
 5315SOL     OW16843   4.764   4.254   2.139
 5315SOL    HW116844   4.807   4.164   2.143
 5315SOL    HW216845   4.677   4.247   2.090
 5316SOL     OW16846   0.319   5.424   4.995
 5316SOL    HW116847   0.361   5.496   5.050
 5316SOL    HW216848   0.287   5.463   4.908
 5317SOL     OW16849   5.574   1.263   3.787
 5317SOL    HW116850   5.625   1.290   3.868
 5317SOL    HW216851   5.493   1.321   3.777
 5318SOL     OW16852   6.661   2.212   4.639
 5318SOL    HW116853   6.663   2.305   4.676
 5318SOL    HW216854   6.726   2.204   4.563
 5319SOL     OW16855   5.597   6.846   6.535
 5319SOL    HW116856   5.529   6.882   6.470
 5319SOL    HW216857   5.615   6.915   6.605
 5320SOL     OW16858   6.043   4.786   6.815
 5320SOL    HW116859   5.945   4.763   6.816
 5320SOL    HW216860   6.091   4.728   6.881
 5321SOL     OW16861   1.378   5.308   3.794
 5321SOL    HW116862   1.405   5.212   3.806
 5321SOL    HW216863   1.304   5.330   3.857
 5322SOL     OW16864   3.784   6.723   6.853
 5322SOL    HW116865   3.830   6.777   6.924
 5322SOL    HW216866   3.724   6.783   6.800
 5323SOL     OW16867   4.316   2.603   1.340
 5323SOL    HW116868   4.222   2.590   1.307
 5323SOL    HW216869   4.328   2.556   1.427
 5324SOL     OW16870   3.769   1.964   1.972
 5324SOL    HW116871   3.776   1.912   2.057
 5324SOL    HW216872   3.725   2.052   1.990
 5325SOL     OW16873   4.908   6.719   2.712
 5325SOL    HW116874   4.902   6.788   2.784
 5325SOL    HW216875   4.992   6.666   2.723
 5326SOL     OW16876   6.842   5.379   1.745
 5326SOL    HW116877   6.749   5.380   1.708
 5326SOL    HW216878   6.846   5.433   1.829
 5327SOL     OW16879   0.232   6.755   4.734
 5327SOL    HW116880   0.160   6.696   4.772
 5327SOL    HW216881   0.208   6.851   4.749
 5328SOL     OW16882   3.346   2.919   5.640
 5328SOL    HW116883   3.345   2.819   5.643
 5328SOL    HW216884   3.441   2.951   5.631
 5329SOL     OW16885   0.130   4.657   0.450
 5329SOL    HW116886   0.068   4.579   0.465
 5329SOL    HW216887   0.219   4.624   0.419
 5330SOL     OW16888   3.952   3.534   0.419
 5330SOL    HW116889   3.955   3.446   0.467
 5330SOL    HW216890   3.988   3.606   0.479
 5331SOL     OW16891   4.263   2.509   0.830
 5331SOL    HW116892   4.292   2.536   0.922
 5331SOL    HW216893   4.231   2.415   0.831
 5332SOL     OW16894   6.181   5.366   0.513
 5332SOL    HW116895   6.154   5.272   0.493
 5332SOL    HW216896   6.274   5.382   0.480
 5333SOL     OW16897   2.260   0.740   3.884
 5333SOL    HW116898   2.349   0.772   3.917
 5333SOL    HW216899   2.206   0.817   3.850
 5334SOL     OW16900   4.632   4.907   4.232
 5334SOL    HW116901   4.535   4.925   4.251
 5334SOL    HW216902   4.667   4.839   4.296
 5335SOL     OW16903   6.266   4.058   2.534
 5335SOL    HW116904   6.168   4.038   2.536
 5335SOL    HW216905   6.282   4.149   2.571
 5336SOL     OW16906   2.120   1.887   3.992
 5336SOL    HW116907   2.093   1.879   3.896
 5336SOL    HW216908   2.212   1.850   4.003
 5337SOL     OW16909   6.115   4.751   1.445
 5337SOL    HW116910   6.058   4.795   1.514
 5337SOL    HW216911   6.199   4.803   1.432
 5338SOL     OW16912   5.876   2.822   0.096
 5338SOL    HW116913   5.886   2.892   0.166
 5338SOL    HW216914   5.940   2.747   0.114
 5339SOL     OW16915   5.877   2.008   2.031
 5339SOL    HW116916   5.853   1.926   1.980
 5339SOL    HW216917   5.840   2.002   2.124
 5340SOL     OW16918   5.252   3.167   1.887
 5340SOL    HW116919   5.294   3.238   1.945
 5340SOL    HW216920   5.269   3.077   1.927
 5341SOL     OW16921   4.679   4.593   3.566
 5341SOL    HW116922   4.626   4.561   3.487
 5341SOL    HW216923   4.660   4.534   3.645
 5342SOL     OW16924   5.560   6.577   5.785
 5342SOL    HW116925   5.534   6.633   5.707
 5342SOL    HW216926   5.640   6.522   5.762
 5343SOL     OW16927   3.557   3.559   4.704
 5343SOL    HW116928   3.640   3.518   4.668
 5343SOL    HW216929   3.491   3.574   4.630
 5344SOL     OW16930   0.515   1.295   0.579
 5344SOL    HW116931   0.485   1.319   0.487
 5344SOL    HW216932   0.559   1.205   0.577
 5345SOL     OW16933   4.887   1.477   6.974
 5345SOL    HW116934   4.934   1.436   6.896
 5345SOL    HW216935   4.798   1.433   6.986
 5346SOL     OW16936   2.539   5.033   4.304
 5346SOL    HW116937   2.480   4.956   4.283
 5346SOL    HW216938   2.601   5.050   4.228
 5347SOL     OW16939   0.163   2.477   3.566
 5347SOL    HW116940   0.236   2.529   3.522
 5347SOL    HW216941   0.160   2.385   3.527
 5348SOL     OW16942   6.363   1.475   4.989
 5348SOL    HW116943   6.364   1.504   4.893
 5348SOL    HW216944   6.389   1.553   5.047
 5349SOL     OW16945   0.508   2.689   1.790
 5349SOL    HW116946   0.538   2.711   1.697
 5349SOL    HW216947   0.584   2.707   1.854
 5350SOL     OW16948   1.591   0.276   5.306
 5350SOL    HW116949   1.591   0.204   5.376
 5350SOL    HW216950   1.579   0.365   5.349
 5351SOL     OW16951   0.122   5.507   1.718
 5351SOL    HW116952   0.174   5.436   1.671
 5351SOL    HW216953   0.048   5.465   1.771
 5352SOL     OW16954   2.037   4.346   2.913
 5352SOL    HW116955   2.039   4.285   2.992
 5352SOL    HW216956   1.943   4.361   2.884
 5353SOL     OW16957   3.691   5.469   3.748
 5353SOL    HW116958   3.638   5.462   3.663
 5353SOL    HW216959   3.786   5.492   3.726
 5354SOL     OW16960   3.542   4.483   0.377
 5354SOL    HW116961   3.626   4.536   0.370
 5354SOL    HW216962   3.464   4.546   0.390
 5355SOL     OW16963   5.127   5.275   5.318
 5355SOL    HW116964   5.108   5.178   5.303
 5355SOL    HW216965   5.222   5.294   5.293
 5356SOL     OW16966   6.487   3.682   1.757
 5356SOL    HW116967   6.418   3.716   1.693
 5356SOL    HW216968   6.572   3.664   1.707
 5357SOL     OW16969   4.208   4.678   1.863
 5357SOL    HW116970   4.289   4.662   1.920
 5357SOL    HW216971   4.138   4.723   1.917
 5358SOL     OW16972   4.301   1.624   0.255
 5358SOL    HW116973   4.281   1.635   0.352
 5358SOL    HW216974   4.234   1.563   0.214
 5359SOL     OW16975   2.011   2.245   0.347
 5359SOL    HW116976   1.994   2.183   0.270
 5359SOL    HW216977   2.002   2.340   0.315
 5360SOL     OW16978   5.587   5.332   3.834
 5360SOL    HW116979   5.513   5.268   3.855
 5360SOL    HW216980   5.608   5.328   3.736
 5361SOL     OW16981   3.234   6.237   2.737
 5361SOL    HW116982   3.258   6.154   2.687
 5361SOL    HW216983   3.306   6.305   2.725
 5362SOL     OW16984   5.474   6.792   2.446
 5362SOL    HW116985   5.500   6.882   2.481
 5362SOL    HW216986   5.556   6.742   2.418
 5363SOL     OW16987   5.244   6.715   4.995
 5363SOL    HW116988   5.240   6.687   4.899
 5363SOL    HW216989   5.198   6.647   5.052
 5364SOL     OW16990   5.228   0.737   2.340
 5364SOL    HW116991   5.281   0.781   2.267
 5364SOL    HW216992   5.135   0.774   2.341
 5365SOL     OW16993   2.903   3.438   3.004
 5365SOL    HW116994   2.881   3.350   2.962
 5365SOL    HW216995   2.944   3.498   2.935
 5366SOL     OW16996   6.957   0.475   1.702
 5366SOL    HW116997   6.883   0.411   1.684
 5366SOL    HW216998   0.004   0.432   1.762
 5367SOL     OW16999   5.493   6.966   0.265
 5367SOL    HW117000   5.438   6.956   0.182
 5367SOL    HW217001   5.588   6.940   0.245
 5368SOL     OW17002   6.600   5.773   2.278
 5368SOL    HW117003   6.512   5.787   2.233
 5368SOL    HW217004   6.674   5.790   2.213
 5369SOL     OW17005   2.779   5.252   1.252
 5369SOL    HW117006   2.775   5.337   1.304
 5369SOL    HW217007   2.754   5.175   1.310
 5370SOL     OW17008   4.128   3.754   1.746
 5370SOL    HW117009   4.054   3.713   1.692
 5370SOL    HW217010   4.096   3.840   1.786
 5371SOL     OW17011   6.906   5.276   4.862
 5371SOL    HW117012   6.937   5.191   4.818
 5371SOL    HW217013   6.826   5.255   4.919
 5372SOL     OW17014   1.931   6.992   2.924
 5372SOL    HW117015   1.912   6.896   2.905
 5372SOL    HW217016   1.848   0.016   2.958
 5373SOL     OW17017   4.259   6.838   6.364
 5373SOL    HW117018   4.315   6.765   6.326
 5373SOL    HW217019   4.307   6.883   6.439
 5374SOL     OW17020   2.438   4.606   1.442
 5374SOL    HW117021   2.388   4.690   1.463
 5374SOL    HW217022   2.404   4.568   1.356
 5375SOL     OW17023   1.086   6.597   5.490
 5375SOL    HW117024   1.163   6.653   5.520
 5375SOL    HW217025   1.003   6.651   5.492
 5376SOL     OW17026   1.222   1.999   1.659
 5376SOL    HW117027   1.184   1.973   1.570
 5376SOL    HW217028   1.150   2.039   1.716
 5377SOL     OW17029   2.380   0.771   3.013
 5377SOL    HW117030   2.427   0.683   3.023
 5377SOL    HW217031   2.435   0.832   2.956
 5378SOL     OW17032   5.528   0.336   1.001
 5378SOL    HW117033   5.483   0.290   1.078
 5378SOL    HW217034   5.498   0.431   0.996
 5379SOL     OW17035   1.436   2.661   5.770
 5379SOL    HW117036   1.398   2.735   5.715
 5379SOL    HW217037   1.426   2.575   5.722
 5380SOL     OW17038   3.467   0.011   1.193
 5380SOL    HW117039   3.482   6.951   1.249
 5380SOL    HW217040   3.529   0.084   1.222
 5381SOL     OW17041   5.796   6.802   2.712
 5381SOL    HW117042   5.783   6.725   2.774
 5381SOL    HW217043   5.857   6.775   2.638
 5382SOL     OW17044   3.907   2.075   2.670
 5382SOL    HW117045   3.813   2.073   2.637
 5382SOL    HW217046   3.916   2.013   2.748
 5383SOL     OW17047   1.133   2.779   4.177
 5383SOL    HW117048   1.131   2.858   4.115
 5383SOL    HW217049   1.222   2.774   4.223
 5384SOL     OW17050   4.597   5.532   5.527
 5384SOL    HW117051   4.625   5.626   5.546
 5384SOL    HW217052   4.534   5.531   5.449
 5385SOL     OW17053   6.657   3.059   6.282
 5385SOL    HW117054   6.676   3.008   6.366
 5385SOL    HW217055   6.715   3.024   6.208
 5386SOL     OW17056   5.872   3.230   3.832
 5386SOL    HW117057   5.962   3.220   3.789
 5386SOL    HW217058   5.804   3.255   3.763
 5387SOL     OW17059   2.601   0.167   3.219
 5387SOL    HW117060   2.522   0.217   3.184
 5387SOL    HW217061   2.663   0.231   3.265
 5388SOL     OW17062   1.080   6.516   3.077
 5388SOL    HW117063   1.120   6.510   2.985
 5388SOL    HW217064   1.029   6.602   3.085
 5389SOL     OW17065   4.533   2.076   4.857
 5389SOL    HW117066   4.619   2.056   4.903
 5389SOL    HW217067   4.515   2.174   4.861
 5390SOL     OW17068   6.072   3.504   4.113
 5390SOL    HW117069   6.012   3.466   4.184
 5390SOL    HW217070   6.016   3.529   4.033
 5391SOL     OW17071   2.430   2.316   0.112
 5391SOL    HW117072   2.442   2.262   0.195
 5391SOL    HW217073   2.396   2.407   0.137
 5392SOL     OW17074   4.766   2.528   3.373
 5392SOL    HW117075   4.772   2.434   3.339
 5392SOL    HW217076   4.751   2.591   3.296
 5393SOL     OW17077   4.366   0.078   5.371
 5393SOL    HW117078   4.347   0.155   5.431
 5393SOL    HW217079   4.464   0.061   5.368
 5394SOL     OW17080   1.170   6.713   1.166
 5394SOL    HW117081   1.168   6.801   1.214
 5394SOL    HW217082   1.208   6.727   1.074
 5395SOL     OW17083   4.941   1.512   0.830
 5395SOL    HW117084   4.911   1.517   0.735
 5395SOL    HW217085   4.950   1.605   0.867
 5396SOL     OW17086   5.293   5.753   2.648
 5396SOL    HW117087   5.358   5.770   2.723
 5396SOL    HW217088   5.211   5.711   2.686
 5397SOL     OW17089   6.437   1.607   2.501
 5397SOL    HW117090   6.388   1.602   2.588
 5397SOL    HW217091   6.536   1.599   2.518
 5398SOL     OW17092   4.648   1.972   3.968
 5398SOL    HW117093   4.635   1.906   4.042
 5398SOL    HW217094   4.596   2.055   3.987
 5399SOL     OW17095   1.620   6.852   5.094
 5399SOL    HW117096   1.603   6.857   4.995
 5399SOL    HW217097   1.705   6.901   5.115
 5400SOL     OW17098   3.349   3.353   0.983
 5400SOL    HW117099   3.342   3.298   0.900
 5400SOL    HW217100   3.431   3.326   1.034
 5401SOL     OW17101   4.995   5.041   3.593
 5401SOL    HW117102   4.962   4.947   3.586
 5401SOL    HW217103   4.929   5.103   3.550
 5402SOL     OW17104   2.800   6.973   0.558
 5402SOL    HW117105   2.894   6.982   0.526
 5402SOL    HW217106   2.749   6.915   0.495
 5403SOL     OW17107   5.614   3.053   0.216
 5403SOL    HW117108   5.621   2.977   0.281
 5403SOL    HW217109   5.519   3.083   0.210
 5404SOL     OW17110   0.963   0.982   1.220
 5404SOL    HW117111   1.053   0.965   1.179
 5404SOL    HW217112   0.920   1.060   1.175
 5405SOL     OW17113   5.184   5.441   6.808
 5405SOL    HW117114   5.225   5.511   6.749
 5405SOL    HW217115   5.253   5.372   6.830
 5406SOL     OW17116   2.798   0.998   4.981
 5406SOL    HW117117   2.885   0.978   4.936
 5406SOL    HW217118   2.760   0.913   5.018
 5407SOL     OW17119   2.438   0.739   1.260
 5407SOL    HW117120   2.461   0.658   1.313
 5407SOL    HW217121   2.390   0.711   1.176
 5408SOL     OW17122   3.336   1.761   4.302
 5408SOL    HW117123   3.345   1.829   4.229
 5408SOL    HW217124   3.268   1.693   4.275
 5409SOL     OW17125   6.382   2.473   1.664
 5409SOL    HW117126   6.292   2.490   1.625
 5409SOL    HW217127   6.398   2.374   1.670
 5410SOL     OW17128   0.007   3.270   1.058
 5410SOL    HW117129   0.080   3.203   1.072
 5410SOL    HW217130   6.939   3.224   1.065
 5411SOL     OW17131   5.091   4.849   0.175
 5411SOL    HW117132   5.096   4.880   0.270
 5411SOL    HW217133   5.101   4.750   0.172
 5412SOL     OW17134   1.600   1.416   5.992
 5412SOL    HW117135   1.521   1.379   5.943
 5412SOL    HW217136   1.571   1.442   6.085
 5413SOL     OW17137   6.051   0.164   5.479
 5413SOL    HW117138   6.008   0.169   5.389
 5413SOL    HW217139   5.993   0.209   5.547
 5414SOL     OW17140   0.275   4.340   5.113
 5414SOL    HW117141   0.293   4.280   5.036
 5414SOL    HW217142   0.356   4.345   5.171
 5415SOL     OW17143   3.030   5.818   0.361
 5415SOL    HW117144   2.952   5.852   0.413
 5415SOL    HW217145   3.058   5.887   0.295
 5416SOL     OW17146   2.849   5.086   5.134
 5416SOL    HW117147   2.791   5.139   5.072
 5416SOL    HW217148   2.804   5.000   5.156
 5417SOL     OW17149   5.291   5.973   3.724
 5417SOL    HW117150   5.284   5.925   3.811
 5417SOL    HW217151   5.384   5.962   3.688
 5418SOL     OW17152   5.768   4.601   4.294
 5418SOL    HW117153   5.679   4.633   4.262
 5418SOL    HW217154   5.837   4.620   4.224
 5419SOL     OW17155   4.125   6.749   6.820
 5419SOL    HW117156   4.161   6.831   6.864
 5419SOL    HW217157   4.039   6.722   6.864
 5420SOL     OW17158   1.530   1.520   1.853
 5420SOL    HW117159   1.570   1.540   1.764
 5420SOL    HW217160   1.448   1.576   1.866
 5421SOL     OW17161   3.532   5.472   2.168
 5421SOL    HW117162   3.604   5.471   2.099
 5421SOL    HW217163   3.522   5.380   2.207
 5422SOL     OW17164   2.117   6.341   3.889
 5422SOL    HW117165   2.132   6.277   3.813
 5422SOL    HW217166   2.203   6.386   3.912
 5423SOL     OW17167   6.794   5.853   2.102
 5423SOL    HW117168   6.764   5.946   2.124
 5423SOL    HW217169   6.862   5.856   2.028
 5424SOL     OW17170   4.865   4.189   5.054
 5424SOL    HW117171   4.950   4.234   5.026
 5424SOL    HW217172   4.832   4.131   4.979
 5425SOL     OW17173   0.208   3.305   5.044
 5425SOL    HW117174   0.115   3.342   5.043
 5425SOL    HW217175   0.273   3.378   5.023
 5426SOL     OW17176   5.009   5.373   1.987
 5426SOL    HW117177   5.029   5.382   2.085
 5426SOL    HW217178   4.953   5.292   1.972
 5427SOL     OW17179   4.672   2.654   6.644
 5427SOL    HW117180   4.709   2.704   6.565
 5427SOL    HW217181   4.747   2.615   6.697
 5428SOL     OW17182   6.156   5.659   2.867
 5428SOL    HW117183   6.139   5.671   2.770
 5428SOL    HW217184   6.158   5.561   2.888
 5429SOL     OW17185   3.230   0.232   4.020
 5429SOL    HW117186   3.174   0.284   4.086
 5429SOL    HW217187   3.230   0.279   3.932
 5430SOL     OW17188   2.420   3.551   6.103
 5430SOL    HW117189   2.400   3.510   6.014
 5430SOL    HW217190   2.509   3.519   6.136
 5431SOL     OW17191   3.620   5.060   6.170
 5431SOL    HW117192   3.605   5.113   6.253
 5431SOL    HW217193   3.575   5.106   6.093
 5432SOL     OW17194   5.392   6.044   1.291
 5432SOL    HW117195   5.306   5.994   1.291
 5432SOL    HW217196   5.381   6.131   1.338
 5433SOL     OW17197   1.018   0.804   1.002
 5433SOL    HW117198   1.019   0.704   1.006
 5433SOL    HW217199   1.094   0.840   1.055
 5434SOL     OW17200   5.245   1.239   4.962
 5434SOL    HW117201   5.171   1.184   4.922
 5434SOL    HW217202   5.205   1.314   5.014
 5435SOL     OW17203   6.507   4.276   1.033
 5435SOL    HW117204   6.472   4.183   1.046
 5435SOL    HW217205   6.598   4.283   1.075
 5436SOL     OW17206   0.864   5.984   2.510
 5436SOL    HW117207   0.959   5.989   2.477
 5436SOL    HW217208   0.856   5.908   2.575
 5437SOL     OW17209   3.031   5.190   6.489
 5437SOL    HW117210   2.950   5.133   6.475
 5437SOL    HW217211   3.040   5.254   6.414
 5438SOL     OW17212   4.923   4.005   2.185
 5438SOL    HW117213   4.996   4.053   2.136
 5438SOL    HW217214   4.915   3.911   2.150
 5439SOL     OW17215   0.459   4.094   0.529
 5439SOL    HW117216   0.552   4.068   0.554
 5439SOL    HW217217   0.442   4.189   0.556
 5440SOL     OW17218   5.493   6.914   3.525
 5440SOL    HW117219   5.414   6.868   3.565
 5440SOL    HW217220   5.483   6.917   3.425
 5441SOL     OW17221   5.007   2.975   3.991
 5441SOL    HW117222   4.935   2.934   4.047
 5441SOL    HW217223   5.080   3.008   4.051
 5442SOL     OW17224   5.472   0.227   4.094
 5442SOL    HW117225   5.517   0.189   4.013
 5442SOL    HW217226   5.532   0.217   4.173
 5443SOL     OW17227   5.093   6.935   4.868
 5443SOL    HW117228   5.153   6.904   4.942
 5443SOL    HW217229   5.129   0.000   4.831
 5444SOL     OW17230   0.470   1.598   3.779
 5444SOL    HW117231   0.564   1.610   3.746
 5444SOL    HW217232   0.431   1.688   3.801
 5445SOL     OW17233   5.044   5.025   5.256
 5445SOL    HW117234   4.985   4.951   5.290
 5445SOL    HW217235   4.996   5.076   5.184
 5446SOL     OW17236   0.074   4.800   4.876
 5446SOL    HW117237   0.113   4.824   4.787
 5446SOL    HW217238   0.000   4.862   4.898
 5447SOL     OW17239   1.752   1.989   1.336
 5447SOL    HW117240   1.705   2.026   1.256
 5447SOL    HW217241   1.850   1.988   1.319
 5448SOL     OW17242   4.723   6.241   3.977
 5448SOL    HW117243   4.660   6.187   4.032
 5448SOL    HW217244   4.672   6.312   3.927
 5449SOL     OW17245   3.526   1.724   2.378
 5449SOL    HW117246   3.439   1.694   2.418
 5449SOL    HW217247   3.508   1.798   2.313
 5450SOL     OW17248   3.684   6.315   2.032
 5450SOL    HW117249   3.759   6.360   1.982
 5450SOL    HW217250   3.691   6.216   2.020
 5451SOL     OW17251   1.134   0.270   3.224
 5451SOL    HW117252   1.181   0.283   3.137
 5451SOL    HW217253   1.199   0.280   3.299
 5452SOL     OW17254   1.671   4.803   1.139
 5452SOL    HW117255   1.594   4.741   1.126
 5452SOL    HW217256   1.681   4.824   1.236
 5453SOL     OW17257   5.396   4.568   2.844
 5453SOL    HW117258   5.407   4.490   2.906
 5453SOL    HW217259   5.320   4.550   2.782
 5454SOL     OW17260   5.468   5.821   2.832
 5454SOL    HW117261   5.557   5.825   2.788
 5454SOL    HW217262   5.476   5.773   2.919
 5455SOL     OW17263   0.677   1.396   2.456
 5455SOL    HW117264   0.585   1.432   2.473
 5455SOL    HW217265   0.670   1.301   2.426
 5456SOL     OW17266   4.931   1.100   6.583
 5456SOL    HW117267   4.988   1.056   6.513
 5456SOL    HW217268   4.953   1.062   6.673
 5457SOL     OW17269   6.284   2.436   0.410
 5457SOL    HW117270   6.276   2.535   0.405
 5457SOL    HW217271   6.228   2.394   0.339
 5458SOL     OW17272   6.370   4.857   0.808
 5458SOL    HW117273   6.365   4.946   0.853
 5458SOL    HW217274   6.400   4.788   0.874
 5459SOL     OW17275   1.633   4.807   5.452
 5459SOL    HW117276   1.604   4.857   5.371
 5459SOL    HW217277   1.672   4.719   5.423
 5460SOL     OW17278   2.059   1.549   1.311
 5460SOL    HW117279   2.152   1.525   1.340
 5460SOL    HW217280   2.062   1.597   1.224
 5461SOL     OW17281   0.578   1.715   5.881
 5461SOL    HW117282   0.582   1.637   5.818
 5461SOL    HW217283   0.641   1.786   5.849
 5462SOL     OW17284   5.552   6.120   6.720
 5462SOL    HW117285   5.611   6.097   6.797
 5462SOL    HW217286   5.471   6.062   6.722
 5463SOL     OW17287   6.526   2.435   6.617
 5463SOL    HW117288   6.466   2.468   6.690
 5463SOL    HW217289   6.560   2.344   6.641
 5464SOL     OW17290   6.349   5.966   5.478
 5464SOL    HW117291   6.274   5.983   5.414
 5464SOL    HW217292   6.405   5.891   5.444
 5465SOL     OW17293   6.335   6.634   3.109
 5465SOL    HW117294   6.341   6.655   3.207
 5465SOL    HW217295   6.242   6.653   3.077
 5466SOL     OW17296   5.857   2.332   5.152
 5466SOL    HW117297   5.877   2.235   5.139
 5466SOL    HW217298   5.870   2.381   5.066
 5467SOL     OW17299   5.699   3.904   3.694
 5467SOL    HW117300   5.697   3.804   3.697
 5467SOL    HW217301   5.694   3.941   3.787
 5468SOL     OW17302   6.936   1.866   3.151
 5468SOL    HW117303   6.972   1.833   3.063
 5468SOL    HW217304   6.935   1.791   3.217
 5469SOL     OW17305   2.279   0.905   6.092
 5469SOL    HW117306   2.333   0.829   6.128
 5469SOL    HW217307   2.189   0.871   6.064
 5470SOL     OW17308   4.228   5.480   4.411
 5470SOL    HW117309   4.314   5.444   4.447
 5470SOL    HW217310   4.172   5.515   4.486
 5471SOL     OW17311   5.159   0.263   3.001
 5471SOL    HW117312   5.206   0.347   3.029
 5471SOL    HW217313   5.065   0.285   2.975
 5472SOL     OW17314   3.227   2.324   6.055
 5472SOL    HW117315   3.232   2.424   6.060
 5472SOL    HW217316   3.133   2.296   6.040
 5473SOL     OW17317   1.708   4.395   0.301
 5473SOL    HW117318   1.690   4.358   0.392
 5473SOL    HW217319   1.798   4.440   0.301
 5474SOL     OW17320   1.461   5.539   3.183
 5474SOL    HW117321   1.483   5.553   3.280
 5474SOL    HW217322   1.546   5.532   3.131
 5475SOL     OW17323   1.304   1.878   0.543
 5475SOL    HW117324   1.318   1.800   0.604
 5475SOL    HW217325   1.387   1.934   0.542
 5476SOL     OW17326   2.077   4.995   5.475
 5476SOL    HW117327   2.176   4.979   5.479
 5476SOL    HW217328   2.033   4.951   5.554
 5477SOL     OW17329   1.565   4.228   2.835
 5477SOL    HW117330   1.591   4.174   2.755
 5477SOL    HW217331   1.470   4.208   2.859
 5478SOL     OW17332   5.076   5.831   6.467
 5478SOL    HW117333   5.113   5.896   6.401
 5478SOL    HW217334   5.071   5.740   6.426
 5479SOL     OW17335   4.217   1.204   4.016
 5479SOL    HW117336   4.137   1.245   3.974
 5479SOL    HW217337   4.283   1.180   3.945
 5480SOL     OW17338   6.079   4.550   4.823
 5480SOL    HW117339   6.030   4.528   4.739
 5480SOL    HW217340   6.070   4.648   4.842
 5481SOL     OW17341   4.268   0.553   5.816
 5481SOL    HW117342   4.262   0.613   5.736
 5481SOL    HW217343   4.214   0.471   5.800
 5482SOL     OW17344   3.616   3.699   2.102
 5482SOL    HW117345   3.609   3.747   2.189
 5482SOL    HW217346   3.687   3.629   2.108
 5483SOL     OW17347   6.507   2.827   5.664
 5483SOL    HW117348   6.446   2.904   5.644
 5483SOL    HW217349   6.538   2.785   5.579
 5484SOL     OW17350   6.240   6.633   3.647
 5484SOL    HW117351   6.293   6.656   3.565
 5484SOL    HW217352   6.200   6.542   3.636
 5485SOL     OW17353   2.864   0.155   4.421
 5485SOL    HW117354   2.904   0.247   4.424
 5485SOL    HW217355   2.795   0.147   4.493
 5486SOL     OW17356   1.863   0.389   4.031
 5486SOL    HW117357   1.797   0.463   4.045
 5486SOL    HW217358   1.922   0.412   3.954
 5487SOL     OW17359   5.929   3.850   6.912
 5487SOL    HW117360   5.880   3.893   6.988
 5487SOL    HW217361   5.967   3.920   6.852
 5488SOL     OW17362   4.535   1.555   0.160
 5488SOL    HW117363   4.563   1.632   0.103
 5488SOL    HW217364   4.445   1.573   0.199
 5489SOL     OW17365   1.488   3.967   1.773
 5489SOL    HW117366   1.494   3.877   1.816
 5489SOL    HW217367   1.450   3.958   1.681
 5490SOL     OW17368   3.305   6.760   0.168
 5490SOL    HW117369   3.309   6.678   0.225
 5490SOL    HW217370   3.354   6.743   0.082
 5491SOL     OW17371   1.540   4.422   6.657
 5491SOL    HW117372   1.567   4.359   6.585
 5491SOL    HW217373   1.464   4.479   6.626
 5492SOL     OW17374   1.073   1.022   5.988
 5492SOL    HW117375   1.045   1.043   5.894
 5492SOL    HW217376   0.994   1.032   6.049
 5493SOL     OW17377   3.517   2.966   4.875
 5493SOL    HW117378   3.460   2.907   4.932
 5493SOL    HW217379   3.505   2.942   4.779
 5494SOL     OW17380   6.316   3.066   0.394
 5494SOL    HW117381   6.368   3.025   0.469
 5494SOL    HW217382   6.348   3.159   0.378
 5495SOL     OW17383   3.268   3.139   1.148
 5495SOL    HW117384   3.234   3.065   1.206
 5495SOL    HW217385   3.206   3.153   1.071
 5496SOL     OW17386   3.562   6.285   1.607
 5496SOL    HW117387   3.542   6.338   1.525
 5496SOL    HW217388   3.557   6.344   1.688
 5497SOL     OW17389   0.214   2.157   3.647
 5497SOL    HW117390   0.208   2.134   3.744
 5497SOL    HW217391   0.309   2.169   3.621
 5498SOL     OW17392   4.541   0.657   0.552
 5498SOL    HW117393   4.442   0.664   0.557
 5498SOL    HW217394   4.582   0.703   0.631
 5499SOL     OW17395   0.752   1.763   3.669
 5499SOL    HW117396   0.763   1.666   3.648
 5499SOL    HW217397   0.765   1.777   3.767
 5500SOL     OW17398   2.053   6.092   0.005
 5500SOL    HW117399   2.141   6.136   7.008
 5500SOL    HW217400   2.061   6.036   0.088
 5501SOL     OW17401   3.088   7.014   1.525
 5501SOL    HW117402   3.104   6.970   1.436
 5501SOL    HW217403   3.176   0.017   1.566
 5502SOL     OW17404   5.970   4.185   6.172
 5502SOL    HW117405   6.052   4.216   6.123
 5502SOL    HW217406   5.891   4.190   6.112
 5503SOL     OW17407   0.721   4.904   2.704
 5503SOL    HW117408   0.719   4.855   2.617
 5503SOL    HW217409   0.773   4.851   2.771
 5504SOL     OW17410   2.587   1.124   5.229
 5504SOL    HW117411   2.631   1.104   5.317
 5504SOL    HW217412   2.584   1.040   5.174
 5505SOL     OW17413   2.411   5.610   5.041
 5505SOL    HW117414   2.394   5.709   5.037
 5505SOL    HW217415   2.465   5.589   5.123
 5506SOL     OW17416   6.528   6.991   5.356
 5506SOL    HW117417   6.626   6.973   5.356
 5506SOL    HW217418   6.508   0.050   5.299
 5507SOL     OW17419   2.780   6.724   3.074
 5507SOL    HW117420   2.735   6.721   3.163
 5507SOL    HW217421   2.711   6.713   3.002
 5508SOL     OW17422   2.463   0.734   0.221
 5508SOL    HW117423   2.438   0.703   0.313
 5508SOL    HW217424   2.503   0.657   0.171
 5509SOL     OW17425   0.340   6.376   0.769
 5509SOL    HW117426   0.381   6.404   0.855
 5509SOL    HW217427   0.274   6.302   0.786
 5510SOL     OW17428   5.410   6.473   0.507
 5510SOL    HW117429   5.399   6.495   0.410
 5510SOL    HW217430   5.408   6.557   0.561
 5511SOL     OW17431   2.311   0.465   3.790
 5511SOL    HW117432   2.336   0.559   3.765
 5511SOL    HW217433   2.383   0.402   3.761
 5512SOL     OW17434   6.263   2.212   0.631
 5512SOL    HW117435   6.268   2.285   0.563
 5512SOL    HW217436   6.230   2.248   0.717
 5513SOL     OW17437   4.682   4.287   5.478
 5513SOL    HW117438   4.701   4.296   5.576
 5513SOL    HW217439   4.646   4.195   5.460
 5514SOL     OW17440   5.026   5.661   2.718
 5514SOL    HW117441   4.957   5.711   2.666
 5514SOL    HW217442   5.049   5.576   2.671
 5515SOL     OW17443   6.935   4.106   1.137
 5515SOL    HW117444   6.906   4.028   1.192
 5515SOL    HW217445   6.992   4.075   1.062
 5516SOL     OW17446   1.323   3.271   0.563
 5516SOL    HW117447   1.255   3.200   0.545
 5516SOL    HW217448   1.398   3.233   0.616
 5517SOL     OW17449   2.594   2.421   2.401
 5517SOL    HW117450   2.520   2.480   2.368
 5517SOL    HW217451   2.603   2.431   2.500
 5518SOL     OW17452   6.595   5.747   5.983
 5518SOL    HW117453   6.514   5.804   5.968
 5518SOL    HW217454   6.584   5.660   5.936
 5519SOL     OW17455   5.042   3.356   2.836
 5519SOL    HW117456   5.028   3.385   2.742
 5519SOL    HW217457   4.985   3.277   2.856
 5520SOL     OW17458   0.854   4.686   2.810
 5520SOL    HW117459   0.953   4.673   2.812
 5520SOL    HW217460   0.814   4.646   2.893
 5521SOL     OW17461   4.215   6.029   2.621
 5521SOL    HW117462   4.273   5.949   2.610
 5521SOL    HW217463   4.136   6.006   2.678
 5522SOL     OW17464   1.441   3.803   1.121
 5522SOL    HW117465   1.466   3.727   1.061
 5522SOL    HW217466   1.509   3.875   1.114
 5523SOL     OW17467   3.240   6.826   2.903
 5523SOL    HW117468   3.252   6.832   2.804
 5523SOL    HW217469   3.319   6.867   2.949
 5524SOL     OW17470   6.885   5.774   4.868
 5524SOL    HW117471   6.863   5.768   4.965
 5524SOL    HW217472   6.980   5.804   4.857
 5525SOL     OW17473   6.676   4.369   0.414
 5525SOL    HW117474   6.628   4.357   0.501
 5525SOL    HW217475   6.759   4.314   0.414
 5526SOL     OW17476   5.891   3.497   4.985
 5526SOL    HW117477   5.818   3.429   4.989
 5526SOL    HW217478   5.856   3.585   5.017
 5527SOL     OW17479   0.963   3.587   3.175
 5527SOL    HW117480   0.920   3.652   3.239
 5527SOL    HW217481   0.958   3.624   3.082
 5528SOL     OW17482   1.207   2.305   6.041
 5528SOL    HW117483   1.240   2.212   6.054
 5528SOL    HW217484   1.213   2.355   6.128
 5529SOL     OW17485   2.489   0.293   4.496
 5529SOL    HW117486   2.546   0.213   4.474
 5529SOL    HW217487   2.530   0.342   4.572
 5530SOL     OW17488   0.232   2.361   2.153
 5530SOL    HW117489   0.250   2.436   2.089
 5530SOL    HW217490   0.249   2.393   2.246
 5531SOL     OW17491   4.148   3.669   3.853
 5531SOL    HW117492   4.147   3.602   3.928
 5531SOL    HW217493   4.156   3.761   3.891
 5532SOL     OW17494   1.299   1.442   1.274
 5532SOL    HW117495   1.375   1.470   1.332
 5532SOL    HW217496   1.213   1.453   1.324
 5533SOL     OW17497   2.815   0.966   2.287
 5533SOL    HW117498   2.734   0.921   2.324
 5533SOL    HW217499   2.835   1.049   2.339
 5534SOL     OW17500   0.984   3.389   6.194
 5534SOL    HW117501   1.051   3.315   6.193
 5534SOL    HW217502   1.031   3.477   6.200
 5535SOL     OW17503   0.267   3.258   3.300
 5535SOL    HW117504   0.347   3.240   3.242
 5535SOL    HW217505   0.218   3.172   3.314
 5536SOL     OW17506   3.333   0.729   4.246
 5536SOL    HW117507   3.336   0.644   4.299
 5536SOL    HW217508   3.336   0.807   4.308
 5537SOL     OW17509   3.675   0.612   4.338
 5537SOL    HW117510   3.727   0.579   4.259
 5537SOL    HW217511   3.737   0.659   4.401
 5538SOL     OW17512   3.469   0.041   5.065
 5538SOL    HW117513   3.379   0.082   5.078
 5538SOL    HW217514   3.478   0.010   4.970
 5539SOL     OW17515   0.882   2.107   1.017
 5539SOL    HW117516   0.832   2.184   0.978
 5539SOL    HW217517   0.837   2.021   0.993
 5540SOL     OW17518   4.845   3.763   2.524
 5540SOL    HW117519   4.859   3.839   2.460
 5540SOL    HW217520   4.747   3.749   2.538
 5541SOL     OW17521   5.674   2.387   6.167
 5541SOL    HW117522   5.600   2.393   6.101
 5541SOL    HW217523   5.688   2.476   6.211
 5542SOL     OW17524   5.854   5.916   5.855
 5542SOL    HW117525   5.856   6.011   5.887
 5542SOL    HW217526   5.947   5.882   5.848
 5543SOL     OW17527   1.700   5.083   6.222
 5543SOL    HW117528   1.696   4.983   6.212
 5543SOL    HW217529   1.704   5.106   6.319
 5544SOL     OW17530   5.020   5.660   5.877
 5544SOL    HW117531   4.987   5.566   5.873
 5544SOL    HW217532   4.992   5.709   5.795
 5545SOL     OW17533   5.027   1.228   2.799
 5545SOL    HW117534   4.978   1.311   2.829
 5545SOL    HW217535   5.009   1.213   2.702
 5546SOL     OW17536   1.068   6.586   4.459
 5546SOL    HW117537   1.021   6.572   4.547
 5546SOL    HW217538   1.072   6.499   4.409
 5547SOL     OW17539   4.182   0.394   4.918
 5547SOL    HW117540   4.204   0.435   4.829
 5547SOL    HW217541   4.179   0.465   4.988
 5548SOL     OW17542   6.458   3.493   4.982
 5548SOL    HW117543   6.412   3.405   4.996
 5548SOL    HW217544   6.449   3.521   4.886
 5549SOL     OW17545   3.686   4.679   1.045
 5549SOL    HW117546   3.662   4.656   1.139
 5549SOL    HW217547   3.713   4.596   0.995
 5550SOL     OW17548   2.307   4.293   2.060
 5550SOL    HW117549   2.341   4.331   2.146
 5550SOL    HW217550   2.384   4.259   2.006
 5551SOL     OW17551   1.322   6.024   3.077
 5551SOL    HW117552   1.279   6.086   3.143
 5551SOL    HW217553   1.407   5.988   3.115
 5552SOL     OW17554   6.531   0.828   6.661
 5552SOL    HW117555   6.492   0.903   6.714
 5552SOL    HW217556   6.572   0.761   6.723
 5553SOL     OW17557   4.884   6.233   6.504
 5553SOL    HW117558   4.983   6.233   6.491
 5553SOL    HW217559   4.840   6.285   6.431
 5554SOL     OW17560   4.841   2.092   6.966
 5554SOL    HW117561   4.901   2.014   6.986
 5554SOL    HW217562   4.850   2.118   6.870
 5555SOL     OW17563   0.981   3.770   2.354
 5555SOL    HW117564   1.005   3.693   2.295
 5555SOL    HW217565   0.983   3.854   2.301
 5556SOL     OW17566   6.121   1.434   3.712
 5556SOL    HW117567   6.060   1.479   3.646
 5556SOL    HW217568   6.066   1.391   3.784
 5557SOL     OW17569   4.060   6.236   2.489
 5557SOL    HW117570   4.107   6.153   2.519
 5557SOL    HW217571   4.007   6.216   2.406
 5558SOL     OW17572   3.042   3.701   6.330
 5558SOL    HW117573   2.998   3.665   6.248
 5558SOL    HW217574   2.996   3.785   6.358
 5559SOL     OW17575   2.107   0.173   1.409
 5559SOL    HW117576   2.026   0.199   1.357
 5559SOL    HW217577   2.180   0.239   1.392
 5560SOL     OW17578   0.271   5.324   1.598
 5560SOL    HW117579   0.363   5.356   1.575
 5560SOL    HW217580   0.277   5.248   1.662
 5561SOL     OW17581   1.961   1.300   4.307
 5561SOL    HW117582   1.933   1.297   4.402
 5561SOL    HW217583   2.014   1.218   4.285
 5562SOL     OW17584   4.221   2.575   6.426
 5562SOL    HW117585   4.184   2.569   6.333
 5562SOL    HW217586   4.320   2.583   6.423
 5563SOL     OW17587   3.093   4.828   2.533
 5563SOL    HW117588   3.135   4.765   2.468
 5563SOL    HW217589   3.005   4.860   2.496
 5564SOL     OW17590   4.614   0.256   0.848
 5564SOL    HW117591   4.556   0.189   0.803
 5564SOL    HW217592   4.639   0.328   0.784
 5565SOL     OW17593   4.394   2.287   5.970
 5565SOL    HW117594   4.330   2.262   5.897
 5565SOL    HW217595   4.424   2.381   5.957
 5566SOL     OW17596   1.229   4.352   6.739
 5566SOL    HW117597   1.137   4.312   6.732
 5566SOL    HW217598   1.242   4.417   6.663
 5567SOL     OW17599   6.756   3.712   0.948
 5567SOL    HW117600   6.804   3.706   1.036
 5567SOL    HW217601   6.711   3.625   0.929
 5568SOL     OW17602   5.086   1.057   3.599
 5568SOL    HW117603   5.134   1.016   3.522
 5568SOL    HW217604   5.064   1.153   3.578
 5569SOL     OW17605   1.999   1.329   2.253
 5569SOL    HW117606   2.042   1.356   2.339
 5569SOL    HW217607   2.069   1.300   2.188
 5570SOL     OW17608   6.873   3.816   4.313
 5570SOL    HW117609   6.798   3.756   4.286
 5570SOL    HW217610   6.888   3.885   4.242
 5571SOL     OW17611   6.298   6.268   1.318
 5571SOL    HW117612   6.255   6.247   1.230
 5571SOL    HW217613   6.337   6.184   1.356
 5572SOL     OW17614   1.494   3.792   4.351
 5572SOL    HW117615   1.490   3.815   4.254
 5572SOL    HW217616   1.494   3.692   4.362
 5573SOL     OW17617   1.703   5.666   4.699
 5573SOL    HW117618   1.731   5.591   4.759
 5573SOL    HW217619   1.604   5.663   4.686
 5574SOL     OW17620   0.275   1.619   2.577
 5574SOL    HW117621   0.276   1.690   2.507
 5574SOL    HW217622   0.294   1.530   2.535
 5575SOL     OW17623   0.195   1.353   1.038
 5575SOL    HW117624   0.170   1.335   1.134
 5575SOL    HW217625   0.162   1.278   0.981
 5576SOL     OW17626   1.033   4.787   1.636
 5576SOL    HW117627   0.988   4.753   1.554
 5576SOL    HW217628   0.988   4.748   1.717
 5577SOL     OW17629   2.699   2.991   6.070
 5577SOL    HW117630   2.668   2.901   6.039
 5577SOL    HW217631   2.775   3.022   6.013
 5578SOL     OW17632   3.366   3.587   1.897
 5578SOL    HW117633   3.452   3.626   1.927
 5578SOL    HW217634   3.341   3.623   1.808
 5579SOL     OW17635   0.204   3.659   0.785
 5579SOL    HW117636   0.107   3.684   0.779
 5579SOL    HW217637   0.260   3.739   0.764
 5580SOL     OW17638   5.017   2.323   5.153
 5580SOL    HW117639   4.952   2.312   5.078
 5580SOL    HW217640   5.057   2.414   5.149
 5581SOL     OW17641   1.807   0.376   1.817
 5581SOL    HW117642   1.870   0.451   1.837
 5581SOL    HW217643   1.725   0.385   1.875
 5582SOL     OW17644   2.989   3.493   6.029
 5582SOL    HW117645   2.965   3.590   6.035
 5582SOL    HW217646   3.069   3.482   5.970
 5583SOL     OW17647   5.297   0.843   2.730
 5583SOL    HW117648   5.259   0.819   2.820
 5583SOL    HW217649   5.377   0.901   2.742
 5584SOL     OW17650   6.590   4.979   4.079
 5584SOL    HW117651   6.540   4.952   3.997
 5584SOL    HW217652   6.687   4.960   4.066
 5585SOL     OW17653   5.216   5.539   3.171
 5585SOL    HW117654   5.262   5.450   3.177
 5585SOL    HW217655   5.165   5.545   3.086
 5586SOL     OW17656   0.501   2.683   5.971
 5586SOL    HW117657   0.568   2.757   5.980
 5586SOL    HW217658   0.537   2.613   5.909
 5587SOL     OW17659   4.140   6.437   1.412
 5587SOL    HW117660   4.240   6.436   1.417
 5587SOL    HW217661   4.109   6.523   1.371
 5588SOL     OW17662   2.564   5.079   2.929
 5588SOL    HW117663   2.619   5.153   2.967
 5588SOL    HW217664   2.567   5.000   2.990
 5589SOL     OW17665   6.739   3.040   5.804
 5589SOL    HW117666   6.658   3.098   5.798
 5589SOL    HW217667   6.771   3.017   5.712
 5590SOL     OW17668   0.092   6.422   3.715
 5590SOL    HW117669   0.041   6.465   3.641
 5590SOL    HW217670   0.029   6.371   3.774
 5591SOL     OW17671   5.574   1.243   1.349
 5591SOL    HW117672   5.645   1.254   1.418
 5591SOL    HW217673   5.540   1.150   1.350
 5592SOL     OW17674   1.084   5.808   2.216
 5592SOL    HW117675   1.041   5.761   2.293
 5592SOL    HW217676   1.023   5.881   2.185
 5593SOL     OW17677   1.008   3.040   0.754
 5593SOL    HW117678   1.079   3.048   0.683
 5593SOL    HW217679   0.919   3.065   0.715
 5594SOL     OW17680   4.445   1.361   6.444
 5594SOL    HW117681   4.418   1.390   6.353
 5594SOL    HW217682   4.506   1.282   6.437
 5595SOL     OW17683   0.280   1.098   4.487
 5595SOL    HW117684   0.345   1.051   4.427
 5595SOL    HW217685   0.195   1.115   4.437
 5596SOL     OW17686   4.793   1.041   2.547
 5596SOL    HW117687   4.847   0.997   2.475
 5596SOL    HW217688   4.810   0.995   2.634
 5597SOL     OW17689   5.066   2.977   4.728
 5597SOL    HW117690   5.152   2.969   4.779
 5597SOL    HW217691   5.033   2.885   4.705
 5598SOL     OW17692   5.356   4.269   4.085
 5598SOL    HW117693   5.276   4.291   4.140
 5598SOL    HW217694   5.435   4.320   4.118
 5599SOL     OW17695   0.868   1.954   2.416
 5599SOL    HW117696   0.935   1.880   2.409
 5599SOL    HW217697   0.817   1.961   2.330
 5600SOL     OW17698   1.643   1.666   1.625
 5600SOL    HW117699   1.627   1.764   1.634
 5600SOL    HW217700   1.741   1.648   1.629
 5601SOL     OW17701   1.913   0.706   6.106
 5601SOL    HW117702   1.976   0.630   6.091
 5601SOL    HW217703   1.956   0.774   6.166
 5602SOL     OW17704   0.008   1.939   1.492
 5602SOL    HW117705   6.946   1.937   1.436
 5602SOL    HW217706   0.018   1.853   1.540
 5603SOL     OW17707   5.646   2.807   0.757
 5603SOL    HW117708   5.559   2.763   0.775
 5603SOL    HW217709   5.704   2.800   0.839
 5604SOL     OW17710   6.089   2.557   4.592
 5604SOL    HW117711   6.171   2.614   4.593
 5604SOL    HW217712   6.116   2.460   4.596
 5605SOL     OW17713   0.005   1.216   5.302
 5605SOL    HW117714   0.066   1.284   5.260
 5605SOL    HW217715   6.936   1.220   5.259
 5606SOL     OW17716   4.861   6.785   0.449
 5606SOL    HW117717   4.821   6.706   0.495
 5606SOL    HW217718   4.941   6.757   0.397
 5607SOL     OW17719   5.435   1.309   2.784
 5607SOL    HW117720   5.461   1.393   2.832
 5607SOL    HW217721   5.466   1.314   2.689
 5608SOL     OW17722   5.672   0.611   3.935
 5608SOL    HW117723   5.695   0.693   3.989
 5608SOL    HW217724   5.711   0.531   3.980
 5609SOL     OW17725   3.005   5.901   1.344
 5609SOL    HW117726   3.098   5.869   1.326
 5609SOL    HW217727   2.955   5.910   1.258
 5610SOL     OW17728   4.470   5.916   0.309
 5610SOL    HW117729   4.450   5.913   0.407
 5610SOL    HW217730   4.390   5.949   0.260
 5611SOL     OW17731   1.274   5.863   2.669
 5611SOL    HW117732   1.371   5.878   2.652
 5611SOL    HW217733   1.231   5.948   2.698
 5612SOL     OW17734   3.993   2.252   5.782
 5612SOL    HW117735   3.921   2.228   5.717
 5612SOL    HW217736   3.971   2.214   5.872
 5613SOL     OW17737   6.335   4.415   3.603
 5613SOL    HW117738   6.270   4.480   3.565
 5613SOL    HW217739   6.291   4.326   3.615
 5614SOL     OW17740   4.577   2.383   4.199
 5614SOL    HW117741   4.511   2.420   4.134
 5614SOL    HW217742   4.534   2.372   4.288
 5615SOL     OW17743   0.029   1.899   3.949
 5615SOL    HW117744   6.984   1.968   3.979
 5615SOL    HW217745   0.025   1.891   3.849
 5616SOL     OW17746   2.456   2.046   4.535
 5616SOL    HW117747   2.533   2.038   4.599
 5616SOL    HW217748   2.477   1.994   4.452
 5617SOL     OW17749   2.877   6.174   5.949
 5617SOL    HW117750   2.857   6.270   5.934
 5617SOL    HW217751   2.899   6.130   5.862
 5618SOL     OW17752   0.370   4.468   3.466
 5618SOL    HW117753   0.378   4.457   3.367
 5618SOL    HW217754   0.460   4.490   3.504
 5619SOL     OW17755   3.296   3.811   4.722
 5619SOL    HW117756   3.311   3.716   4.695
 5619SOL    HW217757   3.234   3.855   4.657
 5620SOL     OW17758   3.926   3.700   0.953
 5620SOL    HW117759   3.886   3.782   0.994
 5620SOL    HW217760   3.933   3.713   0.854
 5621SOL     OW17761   2.369   2.595   0.187
 5621SOL    HW117762   2.300   2.643   0.134
 5621SOL    HW217763   2.335   2.580   0.280
 5622SOL     OW17764   4.654   0.576   5.734
 5622SOL    HW117765   4.590   0.622   5.672
 5622SOL    HW217766   4.608   0.556   5.821
 5623SOL     OW17767   3.426   5.354   5.726
 5623SOL    HW117768   3.394   5.266   5.691
 5623SOL    HW217769   3.515   5.375   5.686
 5624SOL     OW17770   1.326   4.503   3.583
 5624SOL    HW117771   1.402   4.536   3.526
 5624SOL    HW217772   1.324   4.403   3.581
 5625SOL     OW17773   5.396   1.210   5.546
 5625SOL    HW117774   5.370   1.120   5.511
 5625SOL    HW217775   5.467   1.249   5.487
 5626SOL     OW17776   2.496   5.769   4.575
 5626SOL    HW117777   2.496   5.813   4.664
 5626SOL    HW217778   2.508   5.670   4.587
 5627SOL     OW17779   0.302   5.735   6.416
 5627SOL    HW117780   0.327   5.715   6.511
 5627SOL    HW217781   0.214   5.783   6.414
 5628SOL     OW17782   1.213   2.183   1.361
 5628SOL    HW117783   1.308   2.177   1.392
 5628SOL    HW217784   1.166   2.098   1.382
 5629SOL     OW17785   3.563   3.779   2.385
 5629SOL    HW117786   3.479   3.827   2.361
 5629SOL    HW217787   3.542   3.686   2.413
 5630SOL     OW17788   1.161   3.534   6.910
 5630SOL    HW117789   1.145   3.600   6.836
 5630SOL    HW217790   1.093   3.461   6.905
 5631SOL     OW17791   4.675   1.811   1.175
 5631SOL    HW117792   4.678   1.860   1.088
 5631SOL    HW217793   4.700   1.715   1.160
 5632SOL     OW17794   3.250   2.585   6.103
 5632SOL    HW117795   3.209   2.595   6.194
 5632SOL    HW217796   3.256   2.674   6.059
 5633SOL     OW17797   6.017   4.171   4.469
 5633SOL    HW117798   6.098   4.117   4.494
 5633SOL    HW217799   6.042   4.236   4.397
 5634SOL     OW17800   2.353   4.746   4.606
 5634SOL    HW117801   2.275   4.768   4.547
 5634SOL    HW217802   2.341   4.654   4.644
 5635SOL     OW17803   1.759   4.557   5.427
 5635SOL    HW117804   1.849   4.586   5.462
 5635SOL    HW217805   1.755   4.457   5.425
 5636SOL     OW17806   4.759   6.671   4.234
 5636SOL    HW117807   4.755   6.595   4.299
 5636SOL    HW217808   4.769   6.635   4.141
 5637SOL     OW17809   5.556   0.400   3.290
 5637SOL    HW117810   5.507   0.316   3.265
 5637SOL    HW217811   5.654   0.381   3.296
 5638SOL     OW17812   5.957   3.687   1.008
 5638SOL    HW117813   5.978   3.737   0.925
 5638SOL    HW217814   5.988   3.592   0.999
 5639SOL     OW17815   0.509   0.749   2.292
 5639SOL    HW117816   0.599   0.767   2.254
 5639SOL    HW217817   0.469   0.669   2.245
 5640SOL     OW17818   3.333   6.992   3.579
 5640SOL    HW117819   3.424   7.005   3.617
 5640SOL    HW217820   3.271   6.959   3.650
 5641SOL     OW17821   1.003   4.754   5.224
 5641SOL    HW117822   0.935   4.802   5.279
 5641SOL    HW217823   1.078   4.724   5.282
 5642SOL     OW17824   1.575   6.605   5.256
 5642SOL    HW117825   1.614   6.594   5.165
 5642SOL    HW217826   1.482   6.568   5.258
 5643SOL     OW17827   4.042   0.768   5.289
 5643SOL    HW117828   4.013   0.714   5.367
 5643SOL    HW217829   3.985   0.850   5.281
 5644SOL     OW17830   3.084   0.116   5.287
 5644SOL    HW117831   3.108   0.102   5.383
 5644SOL    HW217832   3.005   0.177   5.282
 5645SOL     OW17833   6.456   4.827   3.877
 5645SOL    HW117834   6.544   4.794   3.842
 5645SOL    HW217835   6.419   4.760   3.942
 5646SOL     OW17836   1.735   5.004   3.329
 5646SOL    HW117837   1.781   5.084   3.369
 5646SOL    HW217838   1.721   4.935   3.401
 5647SOL     OW17839   4.378   5.595   1.822
 5647SOL    HW117840   4.375   5.523   1.891
 5647SOL    HW217841   4.459   5.583   1.765
 5648SOL     OW17842   1.934   6.268   2.271
 5648SOL    HW117843   1.977   6.236   2.187
 5648SOL    HW217844   1.999   6.324   2.322
 5649SOL     OW17845   0.790   6.772   4.378
 5649SOL    HW117846   0.758   6.863   4.353
 5649SOL    HW217847   0.807   6.719   4.296
 5650SOL     OW17848   0.280   5.374   1.282
 5650SOL    HW117849   0.242   5.308   1.347
 5650SOL    HW217850   0.378   5.359   1.272
 5651SOL     OW17851   1.696   0.921   1.452
 5651SOL    HW117852   1.667   0.920   1.356
 5651SOL    HW217853   1.656   1.001   1.497
 5652SOL     OW17854   6.160   6.816   1.797
 5652SOL    HW117855   6.073   6.812   1.846
 5652SOL    HW217856   6.171   6.906   1.755
 5653SOL     OW17857   6.123   6.256   6.318
 5653SOL    HW117858   6.138   6.293   6.226
 5653SOL    HW217859   6.122   6.331   6.384
 5654SOL     OW17860   0.866   6.756   4.900
 5654SOL    HW117861   0.831   6.761   4.806
 5654SOL    HW217862   0.790   6.746   4.964
 5655SOL     OW17863   0.563   3.063   3.912
 5655SOL    HW117864   0.596   3.153   3.884
 5655SOL    HW217865   0.472   3.048   3.874
 5656SOL     OW17866   0.007   4.066   6.628
 5656SOL    HW117867   6.975   4.057   6.543
 5656SOL    HW217868   0.103   4.044   6.610
 5657SOL     OW17869   5.959   3.200   6.580
 5657SOL    HW117870   5.933   3.110   6.544
 5657SOL    HW217871   6.047   3.227   6.541
 5658SOL     OW17872   3.102   3.041   6.392
 5658SOL    HW117873   3.157   3.066   6.313
 5658SOL    HW217874   3.078   3.123   6.444
 5659SOL     OW17875   3.151   3.298   5.508
 5659SOL    HW117876   3.225   3.355   5.543
 5659SOL    HW217877   3.100   3.349   5.439
 5660SOL     OW17878   4.454   0.113   6.300
 5660SOL    HW117879   4.439   0.059   6.383
 5660SOL    HW217880   4.505   0.059   6.233
 5661SOL     OW17881   2.187   5.741   4.754
 5661SOL    HW117882   2.097   5.773   4.785
 5661SOL    HW217883   2.250   5.819   4.748
 5662SOL     OW17884   2.942   6.512   3.210
 5662SOL    HW117885   2.905   6.476   3.125
 5662SOL    HW217886   2.924   6.610   3.217
 5663SOL     OW17887   2.420   2.282   0.712
 5663SOL    HW117888   2.413   2.302   0.810
 5663SOL    HW217889   2.500   2.328   0.674
 5664SOL     OW17890   6.750   3.241   4.218
 5664SOL    HW117891   6.755   3.141   4.223
 5664SOL    HW217892   6.814   3.273   4.147
 5665SOL     OW17893   1.653   0.783   0.522
 5665SOL    HW117894   1.632   0.750   0.614
 5665SOL    HW217895   1.751   0.795   0.511
 5666SOL     OW17896   6.591   0.027   3.562
 5666SOL    HW117897   6.536   0.103   3.529
 5666SOL    HW217898   6.673   0.062   3.607
 5667SOL     OW17899   1.437   4.675   4.737
 5667SOL    HW117900   1.445   4.632   4.827
 5667SOL    HW217901   1.343   4.706   4.722
 5668SOL     OW17902   5.443   3.238   2.892
 5668SOL    HW117903   5.542   3.226   2.882
 5668SOL    HW217904   5.417   3.227   2.988
 5669SOL     OW17905   6.794   3.855   1.262
 5669SOL    HW117906   6.851   3.775   1.242
 5669SOL    HW217907   6.701   3.825   1.280
 5670SOL     OW17908   1.250   3.545   3.946
 5670SOL    HW117909   1.185   3.600   3.999
 5670SOL    HW217910   1.333   3.599   3.930
 5671SOL     OW17911   6.042   5.943   5.524
 5671SOL    HW117912   6.104   5.867   5.541
 5671SOL    HW217913   6.079   6.026   5.566
 5672SOL     OW17914   4.679   3.827   6.606
 5672SOL    HW117915   4.693   3.829   6.705
 5672SOL    HW217916   4.649   3.917   6.575
 5673SOL     OW17917   1.754   6.777   0.895
 5673SOL    HW117918   1.714   6.867   0.910
 5673SOL    HW217919   1.724   6.742   0.806
 5674SOL     OW17920   1.334   4.948   5.522
 5674SOL    HW117921   1.344   4.929   5.425
 5674SOL    HW217922   1.356   5.044   5.540
 5675SOL     OW17923   4.713   2.817   6.435
 5675SOL    HW117924   4.794   2.777   6.392
 5675SOL    HW217925   4.741   2.899   6.486
 5676SOL     OW17926   2.181   1.748   2.854
 5676SOL    HW117927   2.182   1.807   2.935
 5676SOL    HW217928   2.183   1.805   2.771
 5677SOL     OW17929   1.128   0.839   0.716
 5677SOL    HW117930   1.049   0.896   0.689
 5677SOL    HW217931   1.137   0.839   0.815
 5678SOL     OW17932   4.083   0.045   2.863
 5678SOL    HW117933   4.018   0.073   2.792
 5678SOL    HW217934   4.164   0.005   2.820
 5679SOL     OW17935   6.185   1.318   4.007
 5679SOL    HW117936   6.112   1.387   4.010
 5679SOL    HW217937   6.160   1.248   3.940
 5680SOL     OW17938   1.641   5.129   6.506
 5680SOL    HW117939   1.589   5.107   6.589
 5680SOL    HW217940   1.718   5.188   6.530
 5681SOL     OW17941   0.776   3.937   1.876
 5681SOL    HW117942   0.814   3.933   1.969
 5681SOL    HW217943   0.682   3.905   1.877
 5682SOL     OW17944   2.114   5.283   4.483
 5682SOL    HW117945   2.034   5.339   4.458
 5682SOL    HW217946   2.196   5.324   4.443
 5683SOL     OW17947   3.930   1.498   5.741
 5683SOL    HW117948   3.855   1.432   5.739
 5683SOL    HW217949   3.977   1.492   5.829
 5684SOL     OW17950   2.597   3.709   6.581
 5684SOL    HW117951   2.541   3.633   6.549
 5684SOL    HW217952   2.667   3.731   6.513
 5685SOL     OW17953   2.578   1.173   3.449
 5685SOL    HW117954   2.600   1.075   3.452
 5685SOL    HW217955   2.627   1.220   3.522
 5686SOL     OW17956   2.946   1.707   5.914
 5686SOL    HW117957   2.949   1.678   6.009
 5686SOL    HW217958   3.028   1.760   5.892
 5687SOL     OW17959   0.450   5.293   6.206
 5687SOL    HW117960   0.452   5.377   6.261
 5687SOL    HW217961   0.385   5.304   6.131
 5688SOL     OW17962   1.445   2.523   2.679
 5688SOL    HW117963   1.358   2.512   2.631
 5688SOL    HW217964   1.511   2.567   2.617
 5689SOL     OW17965   2.777   1.267   1.877
 5689SOL    HW117966   2.788   1.273   1.778
 5689SOL    HW217967   2.806   1.353   1.919
 5690SOL     OW17968   1.832   6.048   6.871
 5690SOL    HW117969   1.925   6.052   6.906
 5690SOL    HW217970   1.775   6.115   6.921
 5691SOL     OW17971   3.949   0.447   1.806
 5691SOL    HW117972   4.007   0.496   1.741
 5691SOL    HW217973   3.872   0.505   1.833
 5692SOL     OW17974   5.594   4.393   0.641
 5692SOL    HW117975   5.526   4.459   0.609
 5692SOL    HW217976   5.591   4.388   0.741
 5693SOL     OW17977   4.301   1.318   2.152
 5693SOL    HW117978   4.208   1.339   2.121
 5693SOL    HW217979   4.362   1.315   2.073
 5694SOL     OW17980   1.342   0.809   2.559
 5694SOL    HW117981   1.424   0.759   2.534
 5694SOL    HW217982   1.276   0.804   2.484
 5695SOL     OW17983   1.567   1.949   3.679
 5695SOL    HW117984   1.606   1.865   3.715
 5695SOL    HW217985   1.629   1.989   3.612
 5696SOL     OW17986   0.704   0.060   3.833
 5696SOL    HW117987   0.801   0.060   3.857
 5696SOL    HW217988   0.691   0.011   3.746
 5697SOL     OW17989   5.873   2.169   1.801
 5697SOL    HW117990   5.938   2.126   1.739
 5697SOL    HW217991   5.865   2.114   1.884
 5698SOL     OW17992   0.891   4.446   3.573
 5698SOL    HW117993   0.902   4.505   3.653
 5698SOL    HW217994   0.863   4.501   3.494
 5699SOL     OW17995   1.157   2.576   2.756
 5699SOL    HW117996   1.187   2.510   2.825
 5699SOL    HW217997   1.147   2.666   2.798
 5700SOL     OW17998   6.548   6.883   4.011
 5700SOL    HW117999   6.573   6.944   4.085
 5700SOL    HW218000   6.462   6.837   4.033
 5701SOL     OW18001   0.753   0.094   1.344
 5701SOL    HW118002   0.659   0.124   1.359
 5701SOL    HW218003   0.759   7.016   1.357
 5702SOL     OW18004   2.576   5.477   4.837
 5702SOL    HW118005   2.640   5.553   4.825
 5702SOL    HW218006   2.488   5.512   4.869
 5703SOL     OW18007   6.298   4.680   0.458
 5703SOL    HW118008   6.350   4.614   0.403
 5703SOL    HW218009   6.283   4.643   0.549
 5704SOL     OW18010   5.082   4.208   3.268
 5704SOL    HW118011   5.142   4.132   3.292
 5704SOL    HW218012   4.987   4.175   3.262
 5705SOL     OW18013   5.151   6.283   6.809
 5705SOL    HW118014   5.054   6.258   6.796
 5705SOL    HW218015   5.206   6.237   6.740
 5706SOL     OW18016   5.867   2.778   2.304
 5706SOL    HW118017   5.805   2.699   2.312
 5706SOL    HW218018   5.814   2.862   2.308
 5707SOL     OW18019   6.097   7.006   0.974
 5707SOL    HW118020   6.092   0.076   0.933
 5707SOL    HW218021   6.006   6.964   0.973
 5708SOL     OW18022   5.056   5.761   2.449
 5708SOL    HW118023   5.147   5.786   2.414
 5708SOL    HW218024   5.026   5.831   2.514
 5709SOL     OW18025   0.947   1.178   2.420
 5709SOL    HW118026   1.041   1.144   2.425
 5709SOL    HW218027   0.945   1.264   2.369
 5710SOL     OW18028   3.377   2.497   0.538
 5710SOL    HW118029   3.377   2.573   0.602
 5710SOL    HW218030   3.318   2.519   0.460
 5711SOL     OW18031   5.030   1.278   1.990
 5711SOL    HW118032   5.122   1.316   1.994
 5711SOL    HW218033   4.971   1.327   2.054
 5712SOL     OW18034   6.070   6.707   0.029
 5712SOL    HW118035   6.118   6.760   6.980
 5712SOL    HW218036   6.071   6.757   0.116
 5713SOL     OW18037   2.660   4.019   1.696
 5713SOL    HW118038   2.631   3.980   1.610
 5713SOL    HW218039   2.589   4.080   1.732
 5714SOL     OW18040   6.736   6.352   1.047
 5714SOL    HW118041   6.705   6.272   1.098
 5714SOL    HW218042   6.677   6.430   1.067
 5715SOL     OW18043   0.328   0.101   2.617
 5715SOL    HW118044   0.335   0.028   2.684
 5715SOL    HW218045   0.393   0.083   2.542
 5716SOL     OW18046   1.165   5.435   5.824
 5716SOL    HW118047   1.150   5.404   5.918
 5716SOL    HW218048   1.260   5.464   5.813
 5717SOL     OW18049   1.912   4.751   0.654
 5717SOL    HW118050   1.832   4.810   0.669
 5717SOL    HW218051   1.969   4.790   0.582
 5718SOL     OW18052   0.894   3.654   0.761
 5718SOL    HW118053   0.821   3.597   0.798
 5718SOL    HW218054   0.958   3.679   0.834
 5719SOL     OW18055   2.400   3.278   0.328
 5719SOL    HW118056   2.339   3.299   0.252
 5719SOL    HW218057   2.493   3.262   0.293
 5720SOL     OW18058   1.669   6.686   4.717
 5720SOL    HW118059   1.621   6.677   4.630
 5720SOL    HW218060   1.643   6.771   4.761
 5721SOL     OW18061   5.631   4.345   0.921
 5721SOL    HW118062   5.629   4.248   0.947
 5721SOL    HW218063   5.720   4.383   0.945
 5722SOL     OW18064   6.733   2.431   5.241
 5722SOL    HW118065   6.646   2.470   5.210
 5722SOL    HW218066   6.772   2.376   5.167
 5723SOL     OW18067   3.798   3.179   0.198
 5723SOL    HW118068   3.797   3.160   0.100
 5723SOL    HW218069   3.805   3.093   0.248
 5724SOL     OW18070   5.835   2.568   4.076
 5724SOL    HW118071   5.825   2.586   3.979
 5724SOL    HW218072   5.931   2.546   4.097
 5725SOL     OW18073   5.998   5.073   3.897
 5725SOL    HW118074   6.038   5.133   3.827
 5725SOL    HW218075   6.060   4.998   3.917
 5726SOL     OW18076   0.215   5.691   4.172
 5726SOL    HW118077   0.222   5.651   4.081
 5726SOL    HW218078   0.212   5.618   4.240
 5727SOL     OW18079   5.799   2.434   4.537
 5727SOL    HW118080   5.810   2.438   4.438
 5727SOL    HW218081   5.885   2.461   4.581
 5728SOL     OW18082   4.737   6.332   5.669
 5728SOL    HW118083   4.824   6.315   5.623
 5728SOL    HW218084   4.716   6.257   5.731
 5729SOL     OW18085   1.877   0.767   0.127
 5729SOL    HW118086   1.953   0.717   0.086
 5729SOL    HW218087   1.812   0.701   0.167
 5730SOL     OW18088   5.236   4.818   6.339
 5730SOL    HW118089   5.301   4.891   6.359
 5730SOL    HW218090   5.171   4.808   6.414
 5731SOL     OW18091   6.898   0.193   2.982
 5731SOL    HW118092   6.865   0.103   2.955
 5731SOL    HW218093   6.997   0.191   2.993
 5732SOL     OW18094   0.958   5.851   4.011
 5732SOL    HW118095   0.961   5.769   3.953
 5732SOL    HW218096   1.051   5.886   4.022
 5733SOL     OW18097   3.177   6.519   5.114
 5733SOL    HW118098   3.205   6.423   5.108
 5733SOL    HW218099   3.218   6.562   5.194
 5734SOL     OW18100   1.294   0.385   5.522
 5734SOL    HW118101   1.342   0.395   5.610
 5734SOL    HW218102   1.244   0.469   5.503
 5735SOL     OW18103   3.625   1.867   1.057
 5735SOL    HW118104   3.599   1.795   0.992
 5735SOL    HW218105   3.587   1.846   1.147
 5736SOL     OW18106   6.176   4.321   0.333
 5736SOL    HW118107   6.137   4.290   0.420
 5736SOL    HW218108   6.252   4.384   0.351
 5737SOL     OW18109   5.822   6.404   0.385
 5737SOL    HW118110   5.787   6.428   0.475
 5737SOL    HW218111   5.805   6.480   0.321
 5738SOL     OW18112   2.102   2.717   6.127
 5738SOL    HW118113   2.129   2.621   6.135
 5738SOL    HW218114   2.115   2.748   6.033
 5739SOL     OW18115   1.631   1.146   6.059
 5739SOL    HW118116   1.535   1.118   6.052
 5739SOL    HW218117   1.644   1.233   6.013
 5740SOL     OW18118   4.343   4.696   0.846
 5740SOL    HW118119   4.272   4.626   0.849
 5740SOL    HW218120   4.424   4.663   0.893
 5741SOL     OW18121   0.578   5.674   4.608
 5741SOL    HW118122   0.528   5.589   4.589
 5741SOL    HW218123   0.622   5.706   4.524
 5742SOL     OW18124   5.445   6.047   3.096
 5742SOL    HW118125   5.465   6.013   3.187
 5742SOL    HW218126   5.346   6.059   3.086
 5743SOL     OW18127   2.361   6.468   4.644
 5743SOL    HW118128   2.443   6.491   4.591
 5743SOL    HW218129   2.360   6.521   4.729
 5744SOL     OW18130   4.537   6.868   1.693
 5744SOL    HW118131   4.634   6.845   1.702
 5744SOL    HW218132   4.502   6.903   1.780
 5745SOL     OW18133   3.820   0.772   4.513
 5745SOL    HW118134   3.777   0.862   4.518
 5745SOL    HW218135   3.803   0.721   4.598
 5746SOL     OW18136   4.829   0.547   0.968
 5746SOL    HW118137   4.789   0.566   1.058
 5746SOL    HW218138   4.758   0.508   0.908
 5747SOL     OW18139   0.383   5.183   2.457
 5747SOL    HW118140   0.390   5.098   2.510
 5747SOL    HW218141   0.310   5.240   2.495
 5748SOL     OW18142   1.572   4.883   0.912
 5748SOL    HW118143   1.506   4.808   0.900
 5748SOL    HW218144   1.614   4.877   1.002
 5749SOL     OW18145   3.259   0.823   4.712
 5749SOL    HW118146   3.217   0.803   4.801
 5749SOL    HW218147   3.299   0.739   4.675
 5750SOL     OW18148   6.125   4.946   5.022
 5750SOL    HW118149   6.098   4.864   4.972
 5750SOL    HW218150   6.145   4.923   5.117
 5751SOL     OW18151   2.319   2.774   4.617
 5751SOL    HW118152   2.338   2.751   4.712
 5751SOL    HW218153   2.255   2.707   4.578
 5752SOL     OW18154   6.414   0.784   6.411
 5752SOL    HW118155   6.450   0.767   6.503
 5752SOL    HW218156   6.486   0.771   6.343
 5753SOL     OW18157   2.893   3.761   6.084
 5753SOL    HW118158   2.894   3.839   6.146
 5753SOL    HW218159   2.801   3.749   6.046
 5754SOL     OW18160   5.641   5.629   1.270
 5754SOL    HW118161   5.631   5.571   1.350
 5754SOL    HW218162   5.550   5.661   1.240
 5755SOL     OW18163   2.698   3.438   5.586
 5755SOL    HW118164   2.744   3.506   5.643
 5755SOL    HW218165   2.757   3.358   5.575
 5756SOL     OW18166   6.535   5.247   3.664
 5756SOL    HW118167   6.483   5.313   3.718
 5756SOL    HW218168   6.483   5.162   3.655
 5757SOL     OW18169   6.545   6.308   2.772
 5757SOL    HW118170   6.555   6.215   2.808
 5757SOL    HW218171   6.481   6.359   2.829
 5758SOL     OW18172   3.151   1.691   3.608
 5758SOL    HW118173   3.069   1.710   3.662
 5758SOL    HW218174   3.232   1.696   3.667
 5759SOL     OW18175   4.906   1.603   6.277
 5759SOL    HW118176   4.819   1.582   6.320
 5759SOL    HW218177   4.940   1.691   6.309
 5760SOL     OW18178   1.672   5.806   1.686
 5760SOL    HW118179   1.671   5.844   1.594
 5760SOL    HW218180   1.640   5.875   1.751
 5761SOL     OW18181   5.482   0.862   5.902
 5761SOL    HW118182   5.494   0.780   5.958
 5761SOL    HW218183   5.484   0.943   5.961
 5762SOL     OW18184   4.873   6.485   6.973
 5762SOL    HW118185   4.780   6.454   6.989
 5762SOL    HW218186   4.923   6.415   6.921
 5763SOL     OW18187   0.421   0.157   0.417
 5763SOL    HW118188   0.453   0.195   0.503
 5763SOL    HW218189   0.321   0.154   0.417
 5764SOL     OW18190   5.608   4.709   6.518
 5764SOL    HW118191   5.651   4.619   6.510
 5764SOL    HW218192   5.566   4.717   6.608
 5765SOL     OW18193   6.756   4.287   6.743
 5765SOL    HW118194   6.832   4.313   6.683
 5765SOL    HW218195   6.696   4.223   6.696
 5766SOL     OW18196   2.890   1.502   1.256
 5766SOL    HW118197   2.928   1.424   1.207
 5766SOL    HW218198   2.790   1.500   1.247
 5767SOL     OW18199   2.674   6.907   0.321
 5767SOL    HW118200   2.740   6.943   0.256
 5767SOL    HW218201   2.611   6.979   0.350
 5768SOL     OW18202   6.923   6.925   2.976
 5768SOL    HW118203   6.867   6.902   2.897
 5768SOL    HW218204   7.014   6.886   2.965
 5769SOL     OW18205   2.793   0.082   3.488
 5769SOL    HW118206   2.713   0.036   3.525
 5769SOL    HW218207   2.764   0.166   3.441
 5770SOL     OW18208   6.943   6.727   1.035
 5770SOL    HW118209   6.845   6.712   1.038
 5770SOL    HW218210   6.991   6.639   1.028
 5771SOL     OW18211   1.363   6.125   1.571
 5771SOL    HW118212   1.370   6.055   1.500
 5771SOL    HW218213   1.271   6.165   1.570
 5772SOL     OW18214   5.920   2.920   0.688
 5772SOL    HW118215   5.932   2.979   0.768
 5772SOL    HW218216   5.840   2.862   0.702
 5773SOL     OW18217   5.776   0.358   4.026
 5773SOL    HW118218   5.874   0.343   4.015
 5773SOL    HW218219   5.742   0.300   4.101
 5774SOL     OW18220   2.612   5.143   4.062
 5774SOL    HW118221   2.650   5.224   4.107
 5774SOL    HW218222   2.683   5.101   4.005
 5775SOL     OW18223   1.612   0.459   1.217
 5775SOL    HW118224   1.712   0.466   1.218
 5775SOL    HW218225   1.581   0.408   1.298
 5776SOL     OW18226   0.096   0.634   5.904
 5776SOL    HW118227   0.135   0.616   5.814
 5776SOL    HW218228   7.021   0.660   5.894
 5777SOL     OW18229   5.862   0.953   4.330
 5777SOL    HW118230   5.912   0.896   4.395
 5777SOL    HW218231   5.886   0.926   4.237
 5778SOL     OW18232   2.115   0.308   1.878
 5778SOL    HW118233   2.087   0.404   1.877
 5778SOL    HW218234   2.176   0.290   1.801
 5779SOL     OW18235   3.948   0.257   0.879
 5779SOL    HW118236   3.955   0.330   0.947
 5779SOL    HW218237   3.964   0.169   0.923
 5780SOL     OW18238   6.356   5.220   1.948
 5780SOL    HW118239   6.306   5.137   1.922
 5780SOL    HW218240   6.335   5.243   2.043
 5781SOL     OW18241   1.949   4.253   4.932
 5781SOL    HW118242   1.918   4.336   4.885
 5781SOL    HW218243   1.941   4.175   4.870
 5782SOL     OW18244   1.283   1.180   1.852
 5782SOL    HW118245   1.369   1.133   1.834
 5782SOL    HW218246   1.288   1.273   1.814
 5783SOL     OW18247   1.866   1.791   0.918
 5783SOL    HW118248   1.802   1.720   0.888
 5783SOL    HW218249   1.844   1.877   0.872
 5784SOL     OW18250   0.477   6.524   0.153
 5784SOL    HW118251   0.413   6.600   0.151
 5784SOL    HW218252   0.553   6.545   0.215
 5785SOL     OW18253   1.554   1.777   1.172
 5785SOL    HW118254   1.641   1.738   1.205
 5785SOL    HW218255   1.572   1.862   1.123
 5786SOL     OW18256   1.521   3.456   1.288
 5786SOL    HW118257   1.434   3.421   1.321
 5786SOL    HW218258   1.576   3.488   1.366
 5787SOL     OW18259   5.202   2.263   3.946
 5787SOL    HW118260   5.125   2.200   3.948
 5787SOL    HW218261   5.234   2.275   3.852
 5788SOL     OW18262   2.943   0.150   1.114
 5788SOL    HW118263   3.013   0.161   1.185
 5788SOL    HW218264   2.872   0.220   1.126
 5789SOL     OW18265   4.030   2.739   6.520
 5789SOL    HW118266   3.958   2.729   6.450
 5789SOL    HW218267   4.110   2.686   6.492
 5790SOL     OW18268   6.766   5.675   5.098
 5790SOL    HW118269   6.706   5.748   5.065
 5790SOL    HW218270   6.710   5.602   5.138
 5791SOL     OW18271   3.332   1.118   2.461
 5791SOL    HW118272   3.249   1.170   2.443
 5791SOL    HW218273   3.409   1.161   2.414
 5792SOL     OW18274   5.000   3.592   2.953
 5792SOL    HW118275   5.000   3.659   2.879
 5792SOL    HW218276   5.017   3.501   2.916
 5793SOL     OW18277   6.205   2.367   5.553
 5793SOL    HW118278   6.152   2.409   5.478
 5793SOL    HW218279   6.150   2.368   5.636
 5794SOL     OW18280   3.265   6.998   6.241
 5794SOL    HW118281   3.204   7.009   6.163
 5794SOL    HW218282   3.234   0.034   6.317
 5795SOL     OW18283   0.922   6.176   1.784
 5795SOL    HW118284   0.950   6.189   1.879
 5795SOL    HW218285   0.882   6.084   1.773
 5796SOL     OW18286   4.752   1.086   6.126
 5796SOL    HW118287   4.727   1.019   6.195
 5796SOL    HW218288   4.678   1.093   6.058
 5797SOL     OW18289   5.647   1.163   0.240
 5797SOL    HW118290   5.701   1.211   0.309
 5797SOL    HW218291   5.685   1.072   0.225
 5798SOL     OW18292   1.122   4.283   4.404
 5798SOL    HW118293   1.206   4.319   4.444
 5798SOL    HW218294   1.145   4.232   4.321
 5799SOL     OW18295   0.835   6.991   3.039
 5799SOL    HW118296   0.749   0.022   3.039
 5799SOL    HW218297   0.869   6.982   3.133
 5800SOL     OW18298   0.908   0.020   1.021
 5800SOL    HW118299   0.817   0.035   0.981
 5800SOL    HW218300   0.928   6.943   1.023
 5801SOL     OW18301   2.477   2.624   2.885
 5801SOL    HW118302   2.441   2.713   2.860
 5801SOL    HW218303   2.410   2.576   2.942
 5802SOL     OW18304   5.958   2.956   2.874
 5802SOL    HW118305   6.053   2.965   2.846
 5802SOL    HW218306   5.949   2.878   2.936
 5803SOL     OW18307   1.118   4.627   3.975
 5803SOL    HW118308   1.212   4.604   3.949
 5803SOL    HW218309   1.118   4.714   4.026
 5804SOL     OW18310   6.821   6.842   3.825
 5804SOL    HW118311   6.782   6.840   3.917
 5804SOL    HW218312   6.896   6.907   3.821
 5805SOL     OW18313   1.264   3.069   1.138
 5805SOL    HW118314   1.236   2.973   1.150
 5805SOL    HW218315   1.364   3.073   1.130
 5806SOL     OW18316   0.220   3.813   4.089
 5806SOL    HW118317   0.263   3.767   4.011
 5806SOL    HW218318   0.132   3.770   4.108
 5807SOL     OW18319   0.821   6.041   0.948
 5807SOL    HW118320   0.857   6.071   1.036
 5807SOL    HW218321   0.730   6.002   0.961
 5808SOL     OW18322   6.814   6.611   4.183
 5808SOL    HW118323   6.870   6.554   4.123
 5808SOL    HW218324   6.851   6.703   4.186
 5809SOL     OW18325   0.703   2.309   5.940
 5809SOL    HW118326   0.648   2.283   6.020
 5809SOL    HW218327   0.793   2.266   5.946
 5810SOL     OW18328   4.400   6.823   4.869
 5810SOL    HW118329   4.328   6.811   4.801
 5810SOL    HW218330   4.483   6.857   4.825
 5811SOL     OW18331   2.843   2.692   5.666
 5811SOL    HW118332   2.778   2.651   5.729
 5811SOL    HW218333   2.795   2.743   5.595
 5812SOL     OW18334   6.110   3.396   0.188
 5812SOL    HW118335   6.136   3.326   0.121
 5812SOL    HW218336   6.179   3.469   0.189
 5813SOL     OW18337   3.752   5.928   1.395
 5813SOL    HW118338   3.775   5.864   1.321
 5813SOL    HW218339   3.746   6.021   1.358
 5814SOL     OW18340   6.817   2.166   2.301
 5814SOL    HW118341   6.910   2.164   2.264
 5814SOL    HW218342   6.779   2.074   2.301
 5815SOL     OW18343   6.008   1.776   4.019
 5815SOL    HW118344   6.055   1.764   4.106
 5815SOL    HW218345   6.062   1.734   3.946
 5816SOL     OW18346   0.313   5.105   2.180
 5816SOL    HW118347   0.335   5.153   2.265
 5816SOL    HW218348   0.234   5.045   2.196
 5817SOL     OW18349   5.219   3.965   5.349
 5817SOL    HW118350   5.162   3.974   5.431
 5817SOL    HW218351   5.190   3.886   5.297
 5818SOL     OW18352   1.336   6.033   5.331
 5818SOL    HW118353   1.285   6.071   5.408
 5818SOL    HW218354   1.327   6.093   5.252
 5819SOL     OW18355   2.759   5.310   0.108
 5819SOL    HW118356   2.851   5.327   0.071
 5819SOL    HW218357   2.693   5.367   0.060
 5820SOL     OW18358   5.292   5.073   2.447
 5820SOL    HW118359   5.313   5.014   2.370
 5820SOL    HW218360   5.330   5.033   2.531
 5821SOL     OW18361   6.671   1.246   1.130
 5821SOL    HW118362   6.691   1.148   1.128
 5821SOL    HW218363   6.714   1.288   1.209
 5822SOL     OW18364   1.402   2.232   2.745
 5822SOL    HW118365   1.407   2.331   2.748
 5822SOL    HW218366   1.309   2.202   2.768
 5823SOL     OW18367   2.215   6.156   4.259
 5823SOL    HW118368   2.127   6.203   4.254
 5823SOL    HW218369   2.200   6.057   4.250
 5824SOL     OW18370   1.009   6.978   2.295
 5824SOL    HW118371   0.943   0.016   2.342
 5824SOL    HW218372   1.059   0.011   2.227
 5825SOL     OW18373   0.205   6.439   4.652
 5825SOL    HW118374   0.154   6.473   4.730
 5825SOL    HW218375   0.205   6.339   4.654
 5826SOL     OW18376   0.091   0.106   5.263
 5826SOL    HW118377   0.011   0.149   5.223
 5826SOL    HW218378   0.085   0.109   5.363
 5827SOL     OW18379   1.338   3.647   4.728
 5827SOL    HW118380   1.311   3.559   4.688
 5827SOL    HW218381   1.314   3.720   4.665
 5828SOL     OW18382   5.318   0.055   4.241
 5828SOL    HW118383   5.377   0.114   4.186
 5828SOL    HW218384   5.254   0.006   4.181
 5829SOL     OW18385   1.655   0.744   4.614
 5829SOL    HW118386   1.721   0.815   4.591
 5829SOL    HW218387   1.643   0.740   4.713
 5830SOL     OW18388   3.894   5.056   5.459
 5830SOL    HW118389   3.810   5.085   5.411
 5830SOL    HW218390   3.898   4.956   5.461
 5831SOL     OW18391   0.855   1.466   5.447
 5831SOL    HW118392   0.934   1.405   5.440
 5831SOL    HW218393   0.782   1.433   5.388
 5832SOL     OW18394   3.236   4.590   1.285
 5832SOL    HW118395   3.298   4.583   1.207
 5832SOL    HW218396   3.250   4.513   1.346
 5833SOL     OW18397   4.011   3.786   5.257
 5833SOL    HW118398   4.024   3.886   5.251
 5833SOL    HW218399   4.082   3.747   5.316
 5834SOL     OW18400   6.861   4.067   6.410
 5834SOL    HW118401   6.768   4.081   6.374
 5834SOL    HW218402   6.926   4.064   6.334
 5835SOL     OW18403   5.836   0.980   2.758
 5835SOL    HW118404   5.812   0.895   2.710
 5835SOL    HW218405   5.838   1.056   2.694
 5836SOL     OW18406   3.214   6.509   2.558
 5836SOL    HW118407   3.153   6.587   2.569
 5836SOL    HW218408   3.256   6.512   2.468
 5837SOL     OW18409   3.573   4.153   0.264
 5837SOL    HW118410   3.614   4.078   0.212
 5837SOL    HW218411   3.634   4.181   0.338
 5838SOL     OW18412   2.795   1.948   1.655
 5838SOL    HW118413   2.825   1.852   1.658
 5838SOL    HW218414   2.780   1.982   1.747
 5839SOL     OW18415   0.852   3.000   1.592
 5839SOL    HW118416   0.920   2.984   1.664
 5839SOL    HW218417   0.896   2.996   1.503
 5840SOL     OW18418   6.931   3.727   2.232
 5840SOL    HW118419   6.978   3.701   2.316
 5840SOL    HW218420   6.892   3.819   2.243
 5841SOL     OW18421   4.494   0.681   1.751
 5841SOL    HW118422   4.472   0.669   1.654
 5841SOL    HW218423   4.589   0.710   1.760
 5842SOL     OW18424   3.854   2.230   0.096
 5842SOL    HW118425   3.806   2.317   0.097
 5842SOL    HW218426   3.948   2.243   0.128
 5843SOL     OW18427   2.135   3.424   1.206
 5843SOL    HW118428   2.131   3.348   1.142
 5843SOL    HW218429   2.108   3.392   1.297
 5844SOL     OW18430   0.253   6.697   5.203
 5844SOL    HW118431   0.292   6.675   5.114
 5844SOL    HW218432   0.319   6.750   5.256
 5845SOL     OW18433   7.005   6.803   1.838
 5845SOL    HW118434   0.065   6.748   1.819
 5845SOL    HW218435   6.994   6.813   1.937
 5846SOL     OW18436   6.746   3.972   5.269
 5846SOL    HW118437   6.844   3.988   5.276
 5846SOL    HW218438   6.717   3.908   5.340
 5847SOL     OW18439   2.650   2.641   1.709
 5847SOL    HW118440   2.644   2.542   1.721
 5847SOL    HW218441   2.580   2.686   1.764
 5848SOL     OW18442   2.151   5.999   4.021
 5848SOL    HW118443   2.147   5.907   4.061
 5848SOL    HW218444   2.075   6.054   4.057
 5849SOL     OW18445   2.335   6.565   5.360
 5849SOL    HW118446   2.377   6.587   5.272
 5849SOL    HW218447   2.238   6.590   5.358
 5850SOL     OW18448   1.180   2.530   1.743
 5850SOL    HW118449   1.121   2.493   1.816
 5850SOL    HW218450   1.123   2.575   1.674
 5851SOL     OW18451   5.320   3.556   4.210
 5851SOL    HW118452   5.315   3.587   4.305
 5851SOL    HW218453   5.366   3.625   4.155
 5852SOL     OW18454   4.524   5.838   3.703
 5852SOL    HW118455   4.439   5.785   3.701
 5852SOL    HW218456   4.505   5.930   3.738
 5853SOL     OW18457   3.882   4.977   5.057
 5853SOL    HW118458   3.920   4.886   5.074
 5853SOL    HW218459   3.956   5.044   5.056
 5854SOL     OW18460   3.832   4.192   5.242
 5854SOL    HW118461   3.812   4.248   5.322
 5854SOL    HW218462   3.775   4.222   5.165
 5855SOL     OW18463   1.871   2.598   3.833
 5855SOL    HW118464   1.861   2.557   3.742
 5855SOL    HW218465   1.906   2.529   3.897
 5856SOL     OW18466   1.511   6.925   2.545
 5856SOL    HW118467   1.519   6.856   2.473
 5856SOL    HW218468   1.433   6.984   2.527
 5857SOL     OW18469   0.294   3.106   5.503
 5857SOL    HW118470   0.368   3.117   5.437
 5857SOL    HW218471   0.312   3.163   5.583
 5858SOL     OW18472   2.790   1.894   2.426
 5858SOL    HW118473   2.838   1.808   2.445
 5858SOL    HW218474   2.848   1.971   2.453
 5859SOL     OW18475   5.853   6.320   1.977
 5859SOL    HW118476   5.904   6.376   2.043
 5859SOL    HW218477   5.807   6.380   1.911
 5860SOL     OW18478   0.343   4.438   3.210
 5860SOL    HW118479   0.256   4.478   3.238
 5860SOL    HW218480   0.327   4.348   3.169
 5861SOL     OW18481   5.847   0.411   5.268
 5861SOL    HW118482   5.754   0.381   5.289
 5861SOL    HW218483   5.849   0.510   5.255
 5862SOL     OW18484   6.159   5.572   2.254
 5862SOL    HW118485   6.107   5.656   2.239
 5862SOL    HW218486   6.185   5.532   2.166
 5863SOL     OW18487   3.103   1.118   4.312
 5863SOL    HW118488   3.011   1.081   4.297
 5863SOL    HW218489   3.156   1.054   4.368
 5864SOL     OW18490   3.498   3.778   3.041
 5864SOL    HW118491   3.500   3.738   2.950
 5864SOL    HW218492   3.475   3.707   3.108
 5865SOL     OW18493   5.549   1.276   5.780
 5865SOL    HW118494   5.482   1.239   5.716
 5865SOL    HW218495   5.517   1.364   5.814
 5866SOL     OW18496   3.079   2.850   0.947
 5866SOL    HW118497   3.173   2.845   0.981
 5866SOL    HW218498   3.016   2.819   1.019
 5867SOL     OW18499   2.091   2.214   1.692
 5867SOL    HW118500   2.013   2.274   1.674
 5867SOL    HW218501   2.122   2.174   1.607
 5868SOL     OW18502   1.246   2.038   6.103
 5868SOL    HW118503   1.247   2.004   6.197
 5868SOL    HW218504   1.203   1.970   6.043
 5869SOL     OW18505   1.605   4.411   3.190
 5869SOL    HW118506   1.575   4.453   3.104
 5869SOL    HW218507   1.552   4.448   3.266
 5870SOL     OW18508   4.156   4.798   5.689
 5870SOL    HW118509   4.147   4.738   5.768
 5870SOL    HW218510   4.193   4.747   5.611
 5871SOL     OW18511   3.788   3.892   3.050
 5871SOL    HW118512   3.824   3.951   2.977
 5871SOL    HW218513   3.710   3.840   3.015
 5872SOL     OW18514   3.986   5.837   1.476
 5872SOL    HW118515   3.980   5.737   1.478
 5872SOL    HW218516   3.895   5.875   1.461
 5873SOL     OW18517   2.592   5.415   2.183
 5873SOL    HW118518   2.581   5.472   2.264
 5873SOL    HW218519   2.679   5.365   2.190
 5874SOL     OW18520   2.357   4.376   5.130
 5874SOL    HW118521   2.346   4.359   5.228
 5874SOL    HW218522   2.355   4.288   5.081
 5875SOL     OW18523   3.325   2.362   6.884
 5875SOL    HW118524   3.244   2.410   6.919
 5875SOL    HW218525   3.350   2.289   6.947
 5876SOL     OW18526   3.834   3.575   2.394
 5876SOL    HW118527   3.861   3.554   2.300
 5876SOL    HW218528   3.896   3.530   2.458
 5877SOL     OW18529   5.823   6.198   1.020
 5877SOL    HW118530   5.855   6.105   1.040
 5877SOL    HW218531   5.803   6.205   0.922
 5878SOL     OW18532   1.291   6.194   3.568
 5878SOL    HW118533   1.376   6.247   3.570
 5878SOL    HW218534   1.274   6.153   3.657
 5879SOL     OW18535   6.609   3.783   0.496
 5879SOL    HW118536   6.552   3.707   0.527
 5879SOL    HW218537   6.579   3.868   0.540
 5880SOL     OW18538   2.752   5.422   0.748
 5880SOL    HW118539   2.744   5.371   0.834
 5880SOL    HW218540   2.847   5.417   0.715
 5881SOL     OW18541   0.422   5.031   3.559
 5881SOL    HW118542   0.505   5.057   3.508
 5881SOL    HW218543   0.368   4.967   3.504
 5882SOL     OW18544   6.052   6.585   0.931
 5882SOL    HW118545   6.065   6.657   0.863
 5882SOL    HW218546   6.141   6.559   0.969
 5883SOL     OW18547   0.262   2.294   6.655
 5883SOL    HW118548   0.235   2.303   6.751
 5883SOL    HW218549   0.299   2.202   6.640
 5884SOL     OW18550   2.331   1.220   3.336
 5884SOL    HW118551   2.424   1.212   3.370
 5884SOL    HW218552   2.291   1.129   3.326
 5885SOL     OW18553   6.579   6.724   1.811
 5885SOL    HW118554   6.486   6.715   1.849
 5885SOL    HW218555   6.574   6.731   1.712
 5886SOL     OW18556   0.370   2.197   5.078
 5886SOL    HW118557   0.382   2.284   5.125
 5886SOL    HW218558   0.460   2.160   5.052
 5887SOL     OW18559   4.010   1.157   3.388
 5887SOL    HW118560   4.106   1.129   3.385
 5887SOL    HW218561   3.954   1.090   3.341
 5888SOL     OW18562   2.822   0.102   2.817
 5888SOL    HW118563   2.902   0.113   2.758
 5888SOL    HW218564   2.848   0.049   2.898
 5889SOL     OW18565   1.569   6.970   1.256
 5889SOL    HW118566   1.583   0.010   1.334
 5889SOL    HW218567   1.538   6.881   1.289
 5890SOL     OW18568   1.094   0.280   5.292
 5890SOL    HW118569   1.113   0.187   5.321
 5890SOL    HW218570   1.169   0.340   5.322
 5891SOL     OW18571   3.934   2.960   6.100
 5891SOL    HW118572   3.944   2.878   6.043
 5891SOL    HW218573   4.016   3.017   6.089
 5892SOL     OW18574   0.844   6.244   1.434
 5892SOL    HW118575   0.767   6.187   1.461
 5892SOL    HW218576   0.837   6.333   1.479
 5893SOL     OW18577   1.653   4.045   3.723
 5893SOL    HW118578   1.571   3.988   3.715
 5893SOL    HW218579   1.627   4.141   3.716
 5894SOL     OW18580   1.349   5.281   3.240
 5894SOL    HW118581   1.387   5.217   3.307
 5894SOL    HW218582   1.403   5.365   3.241
 5895SOL     OW18583   5.524   3.099   3.813
 5895SOL    HW118584   5.589   3.045   3.866
 5895SOL    HW218585   5.574   3.154   3.746
 5896SOL     OW18586   4.125   1.679   6.981
 5896SOL    HW118587   4.174   1.750   0.012
 5896SOL    HW218588   4.035   1.665   0.001
 5897SOL     OW18589   3.683   0.083   1.851
 5897SOL    HW118590   3.653   0.150   1.919
 5897SOL    HW218591   3.757   0.122   1.796
 5898SOL     OW18592   2.168   0.158   3.201
 5898SOL    HW118593   2.246   0.144   3.262
 5898SOL    HW218594   2.124   0.070   3.184
 5899SOL     OW18595   5.320   6.776   5.719
 5899SOL    HW118596   5.335   6.829   5.635
 5899SOL    HW218597   5.266   6.829   5.783
 5900SOL     OW18598   4.650   5.108   3.818
 5900SOL    HW118599   4.609   5.116   3.909
 5900SOL    HW218600   4.615   5.025   3.773
 5901SOL     OW18601   2.954   0.529   6.650
 5901SOL    HW118602   2.976   0.435   6.621
 5901SOL    HW218603   2.938   0.586   6.570
 5902SOL     OW18604   0.214   2.449   0.670
 5902SOL    HW118605   0.160   2.413   0.746
 5902SOL    HW218606   0.308   2.463   0.701
 5903SOL     OW18607   4.156   3.991   0.713
 5903SOL    HW118608   4.223   4.011   0.641
 5903SOL    HW218609   4.203   3.954   0.793
 5904SOL     OW18610   0.552   3.801   1.960
 5904SOL    HW118611   0.506   3.838   2.041
 5904SOL    HW218612   0.548   3.701   1.963
 5905SOL     OW18613   6.349   5.875   3.118
 5905SOL    HW118614   6.329   5.778   3.129
 5905SOL    HW218615   6.284   5.916   3.054
 5906SOL     OW18616   5.079   1.366   4.489
 5906SOL    HW118617   5.008   1.333   4.551
 5906SOL    HW218618   5.165   1.377   4.539
 5907SOL     OW18619   2.057   5.956   2.420
 5907SOL    HW118620   2.077   5.870   2.374
 5907SOL    HW218621   2.039   6.028   2.353
 5908SOL     OW18622   1.105   2.424   5.620
 5908SOL    HW118623   1.195   2.387   5.644
 5908SOL    HW218624   1.034   2.362   5.652
 5909SOL     OW18625   0.130   5.436   0.776
 5909SOL    HW118626   0.219   5.464   0.812
 5909SOL    HW218627   0.127   5.337   0.767
 5910SOL     OW18628   0.509   3.203   3.180
 5910SOL    HW118629   0.604   3.219   3.208
 5910SOL    HW218630   0.507   3.178   3.083
 5911SOL     OW18631   6.591   5.735   6.511
 5911SOL    HW118632   6.536   5.781   6.581
 5911SOL    HW218633   6.658   5.676   6.556
 5912SOL     OW18634   6.258   0.973   5.274
 5912SOL    HW118635   6.161   0.998   5.272
 5912SOL    HW218636   6.296   0.992   5.365
 5913SOL     OW18637   4.753   3.125   6.799
 5913SOL    HW118638   4.843   3.125   6.842
 5913SOL    HW218639   4.682   3.109   6.868
 5914SOL     OW18640   0.874   6.520   6.550
 5914SOL    HW118641   0.782   6.519   6.510
 5914SOL    HW218642   0.930   6.589   6.504
 5915SOL     OW18643   3.887   6.052   0.673
 5915SOL    HW118644   3.972   6.102   0.659
 5915SOL    HW218645   3.810   6.109   0.645
 5916SOL     OW18646   6.627   6.290   2.366
 5916SOL    HW118647   6.697   6.332   2.424
 5916SOL    HW218648   6.574   6.362   2.322
 5917SOL     OW18649   3.192   3.796   4.996
 5917SOL    HW118650   3.179   3.701   5.024
 5917SOL    HW218651   3.190   3.801   4.896
 5918SOL     OW18652   1.717   5.299   6.045
 5918SOL    HW118653   1.712   5.216   6.100
 5918SOL    HW218654   1.735   5.275   5.950
 5919SOL     OW18655   2.956   3.899   2.551
 5919SOL    HW118656   2.868   3.874   2.592
 5919SOL    HW218657   2.984   3.827   2.488
 5920SOL     OW18658   5.169   0.925   6.450
 5920SOL    HW118659   5.192   0.855   6.382
 5920SOL    HW218660   5.252   0.953   6.498
 5921SOL     OW18661   4.029   5.332   6.100
 5921SOL    HW118662   3.945   5.347   6.153
 5921SOL    HW218663   4.021   5.380   6.013
 5922SOL     OW18664   6.166   3.824   4.606
 5922SOL    HW118665   6.152   3.805   4.703
 5922SOL    HW218666   6.188   3.921   4.594
 5923SOL     OW18667   6.832   0.739   1.779
 5923SOL    HW118668   6.834   0.805   1.704
 5923SOL    HW218669   6.866   0.651   1.746
 5924SOL     OW18670   5.989   0.112   2.811
 5924SOL    HW118671   5.974   0.088   2.715
 5924SOL    HW218672   5.905   0.149   2.849
 5925SOL     OW18673   3.674   6.061   2.033
 5925SOL    HW118674   3.680   5.983   2.095
 5925SOL    HW218675   3.621   6.035   1.952
 5926SOL     OW18676   4.785   4.537   2.411
 5926SOL    HW118677   4.800   4.635   2.426
 5926SOL    HW218678   4.863   4.485   2.446
 5927SOL     OW18679   1.208   3.942   2.120
 5927SOL    HW118680   1.189   3.968   2.026
 5927SOL    HW218681   1.288   3.881   2.122
 5928SOL     OW18682   3.805   6.717   1.870
 5928SOL    HW118683   3.898   6.745   1.844
 5928SOL    HW218684   3.809   6.632   1.922
 5929SOL     OW18685   5.889   0.917   5.976
 5929SOL    HW118686   5.851   0.930   5.884
 5929SOL    HW218687   5.820   0.946   6.044
 5930SOL     OW18688   0.667   2.696   3.015
 5930SOL    HW118689   0.759   2.730   2.996
 5930SOL    HW218690   0.665   2.597   3.003
 5931SOL     OW18691   5.986   5.858   2.589
 5931SOL    HW118692   6.022   5.888   2.678
 5931SOL    HW218693   5.923   5.928   2.554
 5932SOL     OW18694   3.179   0.317   0.157
 5932SOL    HW118695   3.254   0.380   0.136
 5932SOL    HW218696   3.127   0.352   0.235
 5933SOL     OW18697   6.639   4.475   4.171
 5933SOL    HW118698   6.739   4.475   4.175
 5933SOL    HW218699   6.606   4.569   4.178
 5934SOL     OW18700   3.631   3.227   5.449
 5934SOL    HW118701   3.593   3.312   5.414
 5934SOL    HW218702   3.712   3.202   5.396
 5935SOL     OW18703   0.561   5.673   5.991
 5935SOL    HW118704   0.582   5.586   5.947
 5935SOL    HW218705   0.522   5.736   5.922
 5936SOL     OW18706   3.115   3.697   1.966
 5936SOL    HW118707   3.074   3.779   1.925
 5936SOL    HW218708   3.175   3.653   1.900
 5937SOL     OW18709   5.918   3.160   1.753
 5937SOL    HW118710   5.839   3.201   1.799
 5937SOL    HW218711   5.898   3.065   1.730
 5938SOL     OW18712   6.205   6.014   5.147
 5938SOL    HW118713   6.193   6.023   5.049
 5938SOL    HW218714   6.229   6.103   5.186
 5939SOL     OW18715   2.955   6.249   4.636
 5939SOL    HW118716   3.039   6.237   4.583
 5939SOL    HW218717   2.971   6.312   4.711
 5940SOL     OW18718   4.023   5.116   4.085
 5940SOL    HW118719   4.089   5.050   4.049
 5940SOL    HW218720   4.064   5.166   4.162
 5941SOL     OW18721   5.412   2.790   3.040
 5941SOL    HW118722   5.413   2.862   2.970
 5941SOL    HW218723   5.456   2.824   3.123
 5942SOL     OW18724   5.130   3.587   6.659
 5942SOL    HW118725   5.218   3.596   6.704
 5942SOL    HW218726   5.071   3.663   6.686
 5943SOL     OW18727   3.390   3.200   5.947
 5943SOL    HW118728   3.480   3.241   5.961
 5943SOL    HW218729   3.395   3.134   5.872
 5944SOL     OW18730   1.182   2.644   0.372
 5944SOL    HW118731   1.165   2.668   0.276
 5944SOL    HW218732   1.241   2.714   0.413
 5945SOL     OW18733   0.607   5.904   5.147
 5945SOL    HW118734   0.677   5.936   5.211
 5945SOL    HW218735   0.518   5.940   5.176
 5946SOL     OW18736   3.378   4.646   0.219
 5946SOL    HW118737   3.313   4.718   0.245
 5946SOL    HW218738   3.327   4.562   0.197
 5947SOL     OW18739   3.356   3.523   3.497
 5947SOL    HW118740   3.310   3.608   3.522
 5947SOL    HW218741   3.370   3.468   3.579
 5948SOL     OW18742   4.517   4.703   2.352
 5948SOL    HW118743   4.560   4.771   2.294
 5948SOL    HW218744   4.504   4.618   2.301
 5949SOL     OW18745   4.994   5.022   0.911
 5949SOL    HW118746   5.064   5.009   0.841
 5949SOL    HW218747   4.906   5.039   0.867
 5950SOL     OW18748   4.985   2.068   5.297
 5950SOL    HW118749   4.998   2.161   5.262
 5950SOL    HW218750   5.072   2.031   5.328
 5951SOL     OW18751   1.005   5.924   5.439
 5951SOL    HW118752   0.910   5.898   5.457
 5951SOL    HW218753   1.022   5.922   5.341
 5952SOL     OW18754   4.584   5.472   3.901
 5952SOL    HW118755   4.597   5.485   3.803
 5952SOL    HW218756   4.593   5.560   3.948
 5953SOL     OW18757   6.428   3.866   4.933
 5953SOL    HW118758   6.364   3.808   4.983
 5953SOL    HW218759   6.517   3.866   4.980
 5954SOL     OW18760   0.493   5.649   5.091
 5954SOL    HW118761   0.489   5.590   5.172
 5954SOL    HW218762   0.520   5.741   5.119
 5955SOL     OW18763   4.198   4.711   2.212
 5955SOL    HW118764   4.154   4.621   2.214
 5955SOL    HW218765   4.135   4.778   2.172
 5956SOL     OW18766   5.865   1.816   3.779
 5956SOL    HW118767   5.777   1.854   3.809
 5956SOL    HW218768   5.929   1.817   3.856
 5957SOL     OW18769   2.530   1.821   3.824
 5957SOL    HW118770   2.528   1.921   3.832
 5957SOL    HW218771   2.482   1.794   3.740
 5958SOL     OW18772   4.161   0.526   2.590
 5958SOL    HW118773   4.139   0.613   2.634
 5958SOL    HW218774   4.180   0.542   2.493
 5959SOL     OW18775   4.507   2.715   5.741
 5959SOL    HW118776   4.452   2.742   5.662
 5959SOL    HW218777   4.585   2.661   5.710
 5960SOL     OW18778   2.962   6.057   4.095
 5960SOL    HW118779   3.027   5.988   4.128
 5960SOL    HW218780   2.993   6.091   4.006
 5961SOL     OW18781   4.485   1.508   2.591
 5961SOL    HW118782   4.544   1.576   2.548
 5961SOL    HW218783   4.419   1.474   2.525
 5962SOL     OW18784   5.291   5.744   5.740
 5962SOL    HW118785   5.256   5.756   5.648
 5962SOL    HW218786   5.216   5.719   5.802
 5963SOL     OW18787   3.214   3.846   6.488
 5963SOL    HW118788   3.311   3.828   6.500
 5963SOL    HW218789   3.174   3.776   6.428
 5964SOL     OW18790   2.435   6.755   4.433
 5964SOL    HW118791   2.490   6.748   4.516
 5964SOL    HW218792   2.338   6.765   4.458
 5965SOL     OW18793   2.270   0.677   6.999
 5965SOL    HW118794   2.235   0.622   6.924
 5965SOL    HW218795   2.340   0.740   6.965
 5966SOL     OW18796   1.053   6.586   6.076
 5966SOL    HW118797   1.096   6.559   5.990
 5966SOL    HW218798   0.983   6.519   6.100
 5967SOL     OW18799   2.178   0.324   5.670
 5967SOL    HW118800   2.213   0.415   5.647
 5967SOL    HW218801   2.088   0.311   5.628
 5968SOL     OW18802   5.611   2.353   0.182
 5968SOL    HW118803   5.638   2.449   0.187
 5968SOL    HW218804   5.527   2.345   0.129
 5969SOL     OW18805   5.325   1.112   6.732
 5969SOL    HW118806   5.394   1.101   6.661
 5969SOL    HW218807   5.251   1.046   6.718
 5970SOL     OW18808   0.287   4.784   0.668
 5970SOL    HW118809   0.275   4.839   0.586
 5970SOL    HW218810   0.349   4.831   0.731
 5971SOL     OW18811   6.303   6.981   1.167
 5971SOL    HW118812   6.291   6.905   1.231
 5971SOL    HW218813   6.223   6.987   1.108
 5972SOL     OW18814   4.860   5.757   6.609
 5972SOL    HW118815   4.957   5.768   6.589
 5972SOL    HW218816   4.816   5.846   6.611
 5973SOL     OW18817   1.623   3.046   3.121
 5973SOL    HW118818   1.635   3.145   3.124
 5973SOL    HW218819   1.686   3.003   3.186
 5974SOL     OW18820   4.716   6.939   7.004
 5974SOL    HW118821   4.794   6.918   6.946
 5974SOL    HW218822   4.726   6.893   0.071
 5975SOL     OW18823   3.781   6.155   1.082
 5975SOL    HW118824   3.826   6.076   1.039
 5975SOL    HW218825   3.729   6.205   1.012
 5976SOL     OW18826   3.183   2.799   5.316
 5976SOL    HW118827   3.086   2.820   5.334
 5976SOL    HW218828   3.238   2.881   5.333
 5977SOL     OW18829   0.847   5.874   0.401
 5977SOL    HW118830   0.766   5.870   0.344
 5977SOL    HW218831   0.882   5.781   0.415
 5978SOL     OW18832   3.473   5.617   1.484
 5978SOL    HW118833   3.554   5.663   1.521
 5978SOL    HW218834   3.403   5.686   1.462
 5979SOL     OW18835   0.023   0.845   1.940
 5979SOL    HW118836   6.958   0.828   1.892
 5979SOL    HW218837   0.085   0.895   1.880
 5980SOL     OW18838   3.907   3.260   1.645
 5980SOL    HW118839   3.861   3.172   1.654
 5980SOL    HW218840   3.857   3.317   1.581
 5981SOL     OW18841   5.067   1.701   0.164
 5981SOL    HW118842   5.150   1.720   0.217
 5981SOL    HW218843   5.023   1.619   0.200
 5982SOL     OW18844   6.206   1.784   2.819
 5982SOL    HW118845   6.148   1.846   2.871
 5982SOL    HW218846   6.152   1.738   2.749
 5983SOL     OW18847   1.337   1.391   3.899
 5983SOL    HW118848   1.413   1.436   3.853
 5983SOL    HW218849   1.259   1.453   3.903
 5984SOL     OW18850   5.193   6.744   3.419
 5984SOL    HW118851   5.188   6.736   3.519
 5984SOL    HW218852   5.144   6.825   3.389
 5985SOL     OW18853   6.998   2.882   3.208
 5985SOL    HW118854   6.903   2.881   3.176
 5985SOL    HW218855   0.011   2.789   3.216
 5986SOL     OW18856   3.497   4.016   5.499
 5986SOL    HW118857   3.407   4.059   5.486
 5986SOL    HW218858   3.523   3.967   5.417
 5987SOL     OW18859   5.497   0.773   5.103
 5987SOL    HW118860   5.488   0.687   5.053
 5987SOL    HW218861   5.466   0.848   5.046
 5988SOL     OW18862   3.503   0.825   6.956
 5988SOL    HW118863   3.549   0.861   6.875
 5988SOL    HW218864   3.571   0.786   7.018
 5989SOL     OW18865   1.445   5.451   6.113
 5989SOL    HW118866   1.512   5.376   6.115
 5989SOL    HW218867   1.490   5.537   6.137
 5990SOL     OW18868   3.916   3.756   0.004
 5990SOL    HW118869   3.950   3.665   0.027
 5990SOL    HW218870   3.988   3.823   0.018
 5991SOL     OW18871   4.492   6.240   6.640
 5991SOL    HW118872   4.481   6.144   6.665
 5991SOL    HW218873   4.404   6.286   6.643
 5992SOL     OW18874   3.174   6.899   1.924
 5992SOL    HW118875   3.254   6.959   1.915
 5992SOL    HW218876   3.180   6.827   1.854
 5993SOL     OW18877   5.177   3.891   6.497
 5993SOL    HW118878   5.133   3.917   6.411
 5993SOL    HW218879   5.168   3.793   6.512
 5994SOL     OW18880   6.681   2.771   0.748
 5994SOL    HW118881   6.634   2.685   0.729
 5994SOL    HW218882   6.619   2.833   0.797
 5995SOL     OW18883   4.942   2.875   2.001
 5995SOL    HW118884   4.882   2.954   2.001
 5995SOL    HW218885   4.933   2.825   1.915
 5996SOL     OW18886   1.002   5.430   1.427
 5996SOL    HW118887   1.017   5.380   1.342
 5996SOL    HW218888   1.082   5.418   1.487
 5997SOL     OW18889   1.217   6.455   3.346
 5997SOL    HW118890   1.168   6.503   3.273
 5997SOL    HW218891   1.250   6.367   3.312
 5998SOL     OW18892   6.102   0.875   1.861
 5998SOL    HW118893   6.012   0.831   1.858
 5998SOL    HW218894   6.146   0.866   1.771
 5999SOL     OW18895   2.865   3.045   1.330
 5999SOL    HW118896   2.859   3.056   1.230
 5999SOL    HW218897   2.778   3.012   1.365
 6000SOL     OW18898   0.859   6.149   0.412
 6000SOL    HW118899   0.864   6.051   0.390
 6000SOL    HW218900   0.912   6.167   0.494
 6001SOL     OW18901   6.311   5.209   6.803
 6001SOL    HW118902   6.347   5.230   6.712
 6001SOL    HW218903   6.251   5.283   6.834
 6002SOL     OW18904   6.408   0.088   5.693
 6002SOL    HW118905   6.416   0.129   5.784
 6002SOL    HW218906   6.323   0.035   5.687
 6003SOL     OW18907   5.521   2.491   4.584
 6003SOL    HW118908   5.621   2.487   4.581
 6003SOL    HW218909   5.483   2.434   4.511
 6004SOL     OW18910   6.192   2.577   3.751
 6004SOL    HW118911   6.111   2.621   3.711
 6004SOL    HW218912   6.257   2.648   3.780
 6005SOL     OW18913   5.965   4.794   4.867
 6005SOL    HW118914   5.929   4.828   4.780
 6005SOL    HW218915   5.889   4.774   4.929
 6006SOL     OW18916   3.089   0.728   4.930
 6006SOL    HW118917   3.034   0.689   4.856
 6006SOL    HW218918   3.030   0.758   5.005
 6007SOL     OW18919   0.290   3.196   6.383
 6007SOL    HW118920   0.318   3.268   6.445
 6007SOL    HW218921   0.365   3.175   6.320
 6008SOL     OW18922   2.448   4.723   5.731
 6008SOL    HW118923   2.522   4.786   5.756
 6008SOL    HW218924   2.487   4.644   5.683
 6009SOL     OW18925   3.933   6.213   3.308
 6009SOL    HW118926   4.000   6.169   3.367
 6009SOL    HW218927   3.850   6.231   3.360
 6010SOL     OW18928   1.097   4.498   3.371
 6010SOL    HW118929   1.068   4.516   3.465
 6010SOL    HW218930   1.043   4.422   3.334
 6011SOL     OW18931   5.124   3.315   3.115
 6011SOL    HW118932   5.109   3.388   3.049
 6011SOL    HW218933   5.052   3.317   3.184
 6012SOL     OW18934   6.162   0.430   0.225
 6012SOL    HW118935   6.207   0.473   0.303
 6012SOL    HW218936   6.231   0.386   0.167
 6013SOL     OW18937   4.989   0.926   2.841
 6013SOL    HW118938   5.066   0.898   2.898
 6013SOL    HW218939   5.021   0.990   2.771
 6014SOL     OW18940   3.366   4.162   3.499
 6014SOL    HW118941   3.397   4.257   3.489
 6014SOL    HW218942   3.393   4.127   3.588
 6015SOL     OW18943   5.775   3.696   4.615
 6015SOL    HW118944   5.833   3.622   4.580
 6015SOL    HW218945   5.832   3.775   4.637
 6016SOL     OW18946   5.826   1.555   6.023
 6016SOL    HW118947   5.905   1.576   6.080
 6016SOL    HW218948   5.788   1.639   5.986
 6017SOL     OW18949   6.777   4.818   4.454
 6017SOL    HW118950   6.742   4.791   4.544
 6017SOL    HW218951   6.708   4.799   4.384
 6018SOL     OW18952   3.441   1.649   5.305
 6018SOL    HW118953   3.446   1.622   5.209
 6018SOL    HW218954   3.361   1.708   5.319
 6019SOL     OW18955   0.728   2.974   5.415
 6019SOL    HW118956   0.734   2.971   5.514
 6019SOL    HW218957   0.790   3.044   5.379
 6020SOL     OW18958   1.178   5.586   0.233
 6020SOL    HW118959   1.081   5.579   0.211
 6020SOL    HW218960   1.232   5.575   0.150
 6021SOL     OW18961   4.704   0.260   3.153
 6021SOL    HW118962   4.636   0.287   3.085
 6021SOL    HW218963   4.677   0.295   3.243
 6022SOL     OW18964   0.343   1.866   3.496
 6022SOL    HW118965   0.437   1.900   3.491
 6022SOL    HW218966   0.340   1.769   3.475
 6023SOL     OW18967   4.974   0.747   1.919
 6023SOL    HW118968   4.977   0.651   1.948
 6023SOL    HW218969   4.986   0.806   1.999
 6024SOL     OW18970   0.939   4.530   0.715
 6024SOL    HW118971   1.025   4.530   0.663
 6024SOL    HW218972   0.946   4.595   0.791
 6025SOL     OW18973   3.369   1.386   3.071
 6025SOL    HW118974   3.410   1.462   3.121
 6025SOL    HW218975   3.285   1.417   3.026
 6026SOL     OW18976   0.391   5.892   4.778
 6026SOL    HW118977   0.385   5.807   4.726
 6026SOL    HW218978   0.487   5.911   4.799
 6027SOL     OW18979   0.269   3.390   6.063
 6027SOL    HW118980   0.196   3.417   6.126
 6027SOL    HW218981   0.271   3.291   6.054
 6028SOL     OW18982   5.380   4.868   1.010
 6028SOL    HW118983   5.420   4.924   0.938
 6028SOL    HW218984   5.451   4.844   1.077
 6029SOL     OW18985   2.927   0.185   3.936
 6029SOL    HW118986   3.007   0.181   3.997
 6029SOL    HW218987   2.847   0.152   3.985
 6030SOL     OW18988   4.939   4.292   4.165
 6030SOL    HW118989   4.964   4.197   4.148
 6030SOL    HW218990   4.966   4.348   4.087
 6031SOL     OW18991   2.707   5.523   4.411
 6031SOL    HW118992   2.802   5.493   4.422
 6031SOL    HW218993   2.703   5.600   4.348
 6032SOL     OW18994   2.497   4.746   2.691
 6032SOL    HW118995   2.519   4.670   2.630
 6032SOL    HW218996   2.513   4.718   2.786
 6033SOL     OW18997   2.001   3.076   2.831
 6033SOL    HW118998   2.069   3.052   2.762
 6033SOL    HW218999   1.936   3.001   2.842
 6034SOL     OW19000   1.004   0.781   6.272
 6034SOL    HW119001   0.934   0.841   6.233
 6034SOL    HW219002   1.061   0.834   6.336
 6035SOL     OW19003   1.656   0.328   2.268
 6035SOL    HW119004   1.633   0.370   2.356
 6035SOL    HW219005   1.715   0.390   2.216
 6036SOL     OW19006   5.623   5.025   1.636
 6036SOL    HW119007   5.576   4.958   1.578
 6036SOL    HW219008   5.680   4.976   1.702
 6037SOL     OW19009   3.693   7.018   0.672
 6037SOL    HW119010   3.601   7.008   0.635
 6037SOL    HW219011   3.688   0.017   0.770
 6038SOL     OW19012   0.876   2.577   6.874
 6038SOL    HW119013   0.908   2.541   6.961
 6038SOL    HW219014   0.932   2.655   6.847
 6039SOL     OW19015   3.893   3.041   3.321
 6039SOL    HW119016   3.833   3.098   3.376
 6039SOL    HW219017   3.928   3.094   3.244
 6040SOL     OW19018   1.737   1.279   0.443
 6040SOL    HW119019   1.739   1.193   0.494
 6040SOL    HW219020   1.827   1.323   0.447
 6041SOL     OW19021   3.237   2.258   5.426
 6041SOL    HW119022   3.145   2.229   5.450
 6041SOL    HW219023   3.239   2.289   5.331
 6042SOL     OW19024   3.769   6.808   2.756
 6042SOL    HW119025   3.733   6.716   2.773
 6042SOL    HW219026   3.861   6.802   2.719
 6043SOL     OW19027   0.886   0.494   4.715
 6043SOL    HW119028   0.974   0.463   4.753
 6043SOL    HW219029   0.904   0.557   4.639
 6044SOL     OW19030   2.722   2.370   1.712
 6044SOL    HW119031   2.791   2.382   1.784
 6044SOL    HW219032   2.757   2.306   1.644
 6045SOL     OW19033   5.670   3.267   3.664
 6045SOL    HW119034   5.586   3.321   3.661
 6045SOL    HW219035   5.695   3.240   3.571
 6046SOL     OW19036   3.419   2.725   0.684
 6046SOL    HW119037   3.492   2.706   0.618
 6046SOL    HW219038   3.356   2.791   0.644
 6047SOL     OW19039   5.267   2.378   1.680
 6047SOL    HW119040   5.259   2.387   1.581
 6047SOL    HW219041   5.197   2.435   1.724
 6048SOL     OW19042   5.056   5.443   4.978
 6048SOL    HW119043   5.092   5.520   5.032
 6048SOL    HW219044   5.115   5.364   4.991
 6049SOL     OW19045   4.846   4.181   6.336
 6049SOL    HW119046   4.900   4.136   6.407
 6049SOL    HW219047   4.851   4.129   6.251
 6050SOL     OW19048   1.764   4.965   0.753
 6050SOL    HW119049   1.734   5.025   0.679
 6050SOL    HW219050   1.685   4.939   0.808
 6051SOL     OW19051   1.899   6.438   2.610
 6051SOL    HW119052   1.974   6.415   2.548
 6051SOL    HW219053   1.916   6.396   2.699
 6052SOL     OW19054   5.164   1.461   1.571
 6052SOL    HW119055   5.197   1.514   1.648
 6052SOL    HW219056   5.231   1.465   1.496
 6053SOL     OW19057   4.085   0.680   5.969
 6053SOL    HW119058   4.149   0.650   5.898
 6053SOL    HW219059   4.061   0.602   6.027
 6054SOL     OW19060   2.750   4.329   0.942
 6054SOL    HW119061   2.656   4.358   0.923
 6054SOL    HW219062   2.813   4.378   0.881
 6055SOL     OW19063   3.818   5.727   5.982
 6055SOL    HW119064   3.841   5.790   5.908
 6055SOL    HW219065   3.841   5.633   5.955
 6056SOL     OW19066   4.764   3.359   5.348
 6056SOL    HW119067   4.715   3.434   5.305
 6056SOL    HW219068   4.859   3.385   5.364
 6057SOL     OW19069   6.251   0.323   2.600
 6057SOL    HW119070   6.306   0.356   2.523
 6057SOL    HW219071   6.240   0.224   2.593
 6058SOL     OW19072   4.913   4.224   0.535
 6058SOL    HW119073   4.888   4.320   0.541
 6058SOL    HW219074   4.894   4.178   0.621
 6059SOL     OW19075   4.732   4.275   5.754
 6059SOL    HW119076   4.787   4.348   5.794
 6059SOL    HW219077   4.756   4.188   5.795
 6060SOL     OW19078   2.359   3.354   6.738
 6060SOL    HW119079   2.267   3.388   6.718
 6060SOL    HW219080   2.381   3.279   6.676
 6061SOL     OW19081   4.347   4.033   0.527
 6061SOL    HW119082   4.426   3.993   0.572
 6061SOL    HW219083   4.373   4.064   0.435
 6062SOL     OW19084   2.590   1.918   6.800
 6062SOL    HW119085   2.622   1.939   6.893
 6062SOL    HW219086   2.498   1.955   6.788
 6063SOL     OW19087   3.606   3.008   5.598
 6063SOL    HW119088   3.623   3.098   5.557
 6063SOL    HW219089   3.655   3.003   5.686
 6064SOL     OW19090   1.473   1.282   1.067
 6064SOL    HW119091   1.541   1.268   1.139
 6064SOL    HW219092   1.447   1.378   1.064
 6065SOL     OW19093   0.661   5.821   1.934
 6065SOL    HW119094   0.577   5.845   1.887
 6065SOL    HW219095   0.641   5.759   2.010
 6066SOL     OW19096   5.491   1.089   6.069
 6066SOL    HW119097   5.395   1.080   6.096
 6066SOL    HW219098   5.499   1.159   5.998
 6067SOL     OW19099   4.758   0.770   5.453
 6067SOL    HW119100   4.850   0.792   5.486
 6067SOL    HW219101   4.764   0.703   5.379
 6068SOL     OW19102   4.960   2.726   4.597
 6068SOL    HW119103   4.918   2.667   4.666
 6068SOL    HW219104   4.897   2.801   4.574
 6069SOL     OW19105   6.720   3.526   4.954
 6069SOL    HW119106   6.620   3.521   4.949
 6069SOL    HW219107   6.749   3.622   4.950
 6070SOL     OW19108   2.692   2.746   0.988
 6070SOL    HW119109   2.769   2.698   1.030
 6070SOL    HW219110   2.722   2.790   0.903
 6071SOL     OW19111   1.107   5.910   4.503
 6071SOL    HW119112   1.120   5.964   4.587
 6071SOL    HW219113   1.048   5.832   4.522
 6072SOL     OW19114   0.445   0.663   1.674
 6072SOL    HW119115   0.503   0.650   1.594
 6072SOL    HW219116   0.495   0.639   1.757
 6073SOL     OW19117   5.075   3.247   0.961
 6073SOL    HW119118   5.079   3.289   0.870
 6073SOL    HW219119   5.073   3.318   1.031
 6074SOL     OW19120   1.867   6.018   1.891
 6074SOL    HW119121   1.771   6.009   1.918
 6074SOL    HW219122   1.883   6.110   1.856
 6075SOL     OW19123   4.737   0.220   5.035
 6075SOL    HW119124   4.832   0.247   5.019
 6075SOL    HW219125   4.716   0.140   4.979
 6076SOL     OW19126   2.672   5.299   3.018
 6076SOL    HW119127   2.634   5.325   3.106
 6076SOL    HW219128   2.627   5.350   2.945
 6077SOL     OW19129   6.343   5.601   0.721
 6077SOL    HW119130   6.254   5.619   0.680
 6077SOL    HW219131   6.351   5.651   0.807
 6078SOL     OW19132   4.280   5.164   0.150
 6078SOL    HW119133   4.230   5.247   0.176
 6078SOL    HW219134   4.378   5.179   0.165
 6079SOL     OW19135   5.340   4.357   6.931
 6079SOL    HW119136   5.264   4.421   6.948
 6079SOL    HW219137   5.343   4.290   7.005
 6080SOL     OW19138   0.322   5.572   0.474
 6080SOL    HW119139   0.339   5.474   0.468
 6080SOL    HW219140   0.366   5.608   0.557
 6081SOL     OW19141   0.214   2.738   5.871
 6081SOL    HW119142   0.303   2.768   5.903
 6081SOL    HW219143   0.143   2.767   5.936
 6082SOL     OW19144   3.252   6.863   2.584
 6082SOL    HW119145   3.352   6.865   2.585
 6082SOL    HW219146   3.220   6.909   2.500
 6083SOL     OW19147   5.748   5.704   0.798
 6083SOL    HW119148   5.778   5.791   0.758
 6083SOL    HW219149   5.717   5.720   0.892
 6084SOL     OW19150   0.717   6.798   2.397
 6084SOL    HW119151   0.745   6.747   2.478
 6084SOL    HW219152   0.725   6.896   2.415
 6085SOL     OW19153   6.686   6.175   6.801
 6085SOL    HW119154   6.608   6.169   6.739
 6085SOL    HW219155   6.744   6.094   6.789
 6086SOL     OW19156   2.609   2.311   5.961
 6086SOL    HW119157   2.613   2.213   5.942
 6086SOL    HW219158   2.598   2.326   6.059
 6087SOL     OW19159   3.360   5.612   1.147
 6087SOL    HW119160   3.440   5.652   1.101
 6087SOL    HW219161   3.379   5.516   1.168
 6088SOL     OW19162   5.806   6.904   4.505
 6088SOL    HW119163   5.810   6.968   4.583
 6088SOL    HW219164   5.897   6.868   4.488
 6089SOL     OW19165   5.934   2.406   3.102
 6089SOL    HW119166   5.983   2.340   3.159
 6089SOL    HW219167   5.957   2.390   3.006
 6090SOL     OW19168   2.223   4.866   4.813
 6090SOL    HW119169   2.307   4.876   4.760
 6090SOL    HW219170   2.224   4.779   4.862
 6091SOL     OW19171   2.431   1.433   0.060
 6091SOL    HW119172   2.481   1.397   7.002
 6091SOL    HW219173   2.457   1.383   0.142
 6092SOL     OW19174   4.751   1.151   1.931
 6092SOL    HW119175   4.834   1.108   1.895
 6092SOL    HW219176   4.673   1.091   1.914
 6093SOL     OW19177   2.303   2.295   1.822
 6093SOL    HW119178   2.383   2.236   1.829
 6093SOL    HW219179   2.231   2.248   1.770
 6094SOL     OW19180   1.562   6.009   3.232
 6094SOL    HW119181   1.509   5.978   3.312
 6094SOL    HW219182   1.650   5.962   3.230
 6095SOL     OW19183   4.849   5.017   6.965
 6095SOL    HW119184   4.825   5.066   0.028
 6095SOL    HW219185   4.898   5.079   6.903
 6096SOL     OW19186   6.280   6.771   2.519
 6096SOL    HW119187   6.256   6.819   2.434
 6096SOL    HW219188   6.346   6.699   2.499
 6097SOL     OW19189   2.172   5.306   2.260
 6097SOL    HW119190   2.243   5.278   2.195
 6097SOL    HW219191   2.119   5.382   2.223
 6098SOL     OW19192   0.092   1.381   5.977
 6098SOL    HW119193   0.130   1.364   5.886
 6098SOL    HW219194   0.112   1.304   6.037
 6099SOL     OW19195   4.920   5.959   5.449
 6099SOL    HW119196   4.988   6.022   5.486
 6099SOL    HW219197   4.922   5.963   5.349
 6100SOL     OW19198   6.232   5.962   2.100
 6100SOL    HW119199   6.234   5.973   2.001
 6100SOL    HW219200   6.234   6.051   2.144
 6101SOL     OW19201   0.036   2.845   2.846
 6101SOL    HW119202   6.979   2.898   2.813
 6101SOL    HW219203   0.102   2.834   2.772
 6102SOL     OW19204   4.236   5.294   2.915
 6102SOL    HW119205   4.177   5.232   2.967
 6102SOL    HW219206   4.280   5.358   2.978
 6103SOL     OW19207   6.198   0.876   1.348
 6103SOL    HW119208   6.176   0.937   1.272
 6103SOL    HW219209   6.138   0.795   1.344
 6104SOL     OW19210   5.669   6.775   5.248
 6104SOL    HW119211   5.581   6.817   5.224
 6104SOL    HW219212   5.654   6.679   5.271
 6105SOL     OW19213   1.948   5.453   6.148
 6105SOL    HW119214   1.903   5.365   6.134
 6105SOL    HW219215   1.882   5.517   6.187
 6106SOL     OW19216   1.185   4.980   6.516
 6106SOL    HW119217   1.214   5.040   6.441
 6106SOL    HW219218   1.251   4.907   6.528
 6107SOL     OW19219   5.015   5.531   5.307
 6107SOL    HW119220   5.053   5.439   5.314
 6107SOL    HW219221   5.070   5.586   5.244
 6108SOL     OW19222   2.445   2.485   3.533
 6108SOL    HW119223   2.483   2.569   3.572
 6108SOL    HW219224   2.346   2.493   3.527
 6109SOL     OW19225   5.717   1.480   5.493
 6109SOL    HW119226   5.659   1.560   5.502
 6109SOL    HW219227   5.779   1.474   5.571
 6110SOL     OW19228   2.529   2.916   1.122
 6110SOL    HW119229   2.612   2.879   1.080
 6110SOL    HW219230   2.449   2.887   1.070
 6111SOL     OW19231   1.265   3.156   2.365
 6111SOL    HW119232   1.267   3.223   2.439
 6111SOL    HW219233   1.172   3.150   2.328
 6112SOL     OW19234   4.167   0.849   2.453
 6112SOL    HW119235   4.251   0.898   2.429
 6112SOL    HW219236   4.140   0.790   2.377
 6113SOL     OW19237   2.604   2.533   6.646
 6113SOL    HW119238   2.700   2.543   6.621
 6113SOL    HW219239   2.595   2.525   6.745
 6114SOL     OW19240   4.764   4.060   2.861
 6114SOL    HW119241   4.688   3.994   2.864
 6114SOL    HW219242   4.737   4.139   2.807
 6115SOL     OW19243   6.030   0.797   4.493
 6115SOL    HW119244   6.035   0.699   4.508
 6115SOL    HW219245   6.058   0.845   4.576
 6116SOL     OW19246   3.784   1.324   6.133
 6116SOL    HW119247   3.829   1.400   6.088
 6116SOL    HW219248   3.852   1.265   6.176
 6117SOL     OW19249   2.188   1.934   3.429
 6117SOL    HW119250   2.228   1.872   3.362
 6117SOL    HW219251   2.114   1.987   3.387
 6118SOL     OW19252   5.939   1.282   1.173
 6118SOL    HW119253   6.009   1.289   1.102
 6118SOL    HW219254   5.909   1.187   1.182
 6119SOL     OW19255   1.202   3.860   0.433
 6119SOL    HW119256   1.274   3.816   0.380
 6119SOL    HW219257   1.123   3.799   0.438
 6120SOL     OW19258   2.092   6.524   5.764
 6120SOL    HW119259   2.000   6.503   5.731
 6120SOL    HW219260   2.086   6.578   5.848
 6121SOL     OW19261   1.439   3.502   5.102
 6121SOL    HW119262   1.471   3.461   5.016
 6121SOL    HW219263   1.389   3.586   5.083
 6122SOL     OW19264   4.311   5.448   6.809
 6122SOL    HW119265   4.212   5.442   6.823
 6122SOL    HW219266   4.341   5.543   6.822
 6123SOL     OW19267   5.128   6.704   6.068
 6123SOL    HW119268   5.194   6.649   6.017
 6123SOL    HW219269   5.035   6.682   6.038
 6124SOL     OW19270   0.989   6.841   6.111
 6124SOL    HW119271   1.020   6.906   6.042
 6124SOL    HW219272   1.029   6.751   6.092
 6125SOL     OW19273   2.373   4.077   0.482
 6125SOL    HW119274   2.434   4.112   0.553
 6125SOL    HW219275   2.299   4.142   0.465
 6126SOL     OW19276   0.066   1.000   5.056
 6126SOL    HW119277   0.146   0.941   5.051
 6126SOL    HW219278   0.083   1.073   5.122
 6127SOL     OW19279   4.118   0.053   1.753
 6127SOL    HW119280   4.212   0.087   1.755
 6127SOL    HW219281   4.116   6.980   1.788
 6128SOL     OW19282   5.302   5.724   0.928
 6128SOL    HW119283   5.395   5.750   0.901
 6128SOL    HW219284   5.306   5.663   1.008
 6129SOL     OW19285   0.674   3.277   2.535
 6129SOL    HW119286   0.587   3.326   2.541
 6129SOL    HW219287   0.708   3.259   2.628
 6130SOL     OW19288   5.013   2.699   2.638
 6130SOL    HW119289   4.990   2.627   2.572
 6130SOL    HW219290   5.103   2.736   2.617
 6131SOL     OW19291   1.036   1.706   3.420
 6131SOL    HW119292   0.951   1.749   3.390
 6131SOL    HW219293   1.028   1.681   3.516
 6132SOL     OW19294   3.599   1.762   6.581
 6132SOL    HW119295   3.587   1.831   6.510
 6132SOL    HW219296   3.515   1.708   6.590
 6133SOL     OW19297   2.130   3.312   3.460
 6133SOL    HW119298   2.065   3.284   3.389
 6133SOL    HW219299   2.171   3.400   3.435
 6134SOL     OW19300   4.434   6.531   6.908
 6134SOL    HW119301   4.458   6.606   6.969
 6134SOL    HW219302   4.393   6.568   6.825
 6135SOL     OW19303   0.382   5.618   1.359
 6135SOL    HW119304   0.315   5.547   1.338
 6135SOL    HW219305   0.338   5.708   1.356
 6136SOL     OW19306   0.784   2.273   1.738
 6136SOL    HW119307   0.840   2.342   1.693
 6136SOL    HW219308   0.746   2.211   1.669
 6137SOL     OW19309   6.974   3.976   2.463
 6137SOL    HW119310   0.038   3.983   2.411
 6137SOL    HW219311   6.936   4.068   2.477
 6138SOL     OW19312   3.494   6.899   3.303
 6138SOL    HW119313   3.462   6.934   3.215
 6138SOL    HW219314   3.418   6.900   3.368
 6139SOL     OW19315   0.998   0.106   5.659
 6139SOL    HW119316   1.095   0.085   5.646
 6139SOL    HW219317   0.944   0.066   5.585
 6140SOL     OW19318   0.783   0.449   1.899
 6140SOL    HW119319   0.880   0.470   1.903
 6140SOL    HW219320   0.765   0.363   1.948
 6141SOL     OW19321   0.427   6.898   6.376
 6141SOL    HW119322   0.335   6.870   6.404
 6141SOL    HW219323   0.429   6.997   6.362
 6142SOL     OW19324   6.988   5.685   6.571
 6142SOL    HW119325   0.044   5.624   6.589
 6142SOL    HW219326   7.009   5.745   6.494
 6143SOL     OW19327   6.852   4.272   0.863
 6143SOL    HW119328   6.836   4.191   0.807
 6143SOL    HW219329   6.855   4.245   0.960
 6144SOL     OW19330   5.305   5.095   4.020
 6144SOL    HW119331   5.235   5.155   3.983
 6144SOL    HW219332   5.263   5.028   4.082
 6145SOL     OW19333   5.210   4.945   4.294
 6145SOL    HW119334   5.222   4.900   4.383
 6145SOL    HW219335   5.173   5.037   4.308
 6146SOL     OW19336   3.297   5.752   3.750
 6146SOL    HW119337   3.285   5.733   3.848
 6146SOL    HW219338   3.387   5.793   3.735
 6147SOL     OW19339   2.206   2.259   5.375
 6147SOL    HW119340   2.198   2.161   5.391
 6147SOL    HW219341   2.199   2.277   5.277
 6148SOL     OW19342   4.266   6.169   5.297
 6148SOL    HW119343   4.215   6.253   5.315
 6148SOL    HW219344   4.359   6.179   5.331
 6149SOL     OW19345   2.422   6.716   1.298
 6149SOL    HW119346   2.383   6.639   1.349
 6149SOL    HW219347   2.359   6.794   1.302
 6150SOL     OW19348   5.919   4.244   0.035
 6150SOL    HW119349   5.863   4.241   6.973
 6150SOL    HW219350   6.015   4.244   0.010
 6151SOL     OW19351   6.366   4.769   5.485
 6151SOL    HW119352   6.410   4.762   5.575
 6151SOL    HW219353   6.267   4.772   5.496
 6152SOL     OW19354   0.812   6.287   4.353
 6152SOL    HW119355   0.770   6.365   4.399
 6152SOL    HW219356   0.845   6.221   4.421
 6153SOL     OW19357   5.859   5.054   1.220
 6153SOL    HW119358   5.907   5.050   1.308
 6153SOL    HW219359   5.925   5.063   1.146
 6154SOL     OW19360   5.746   3.053   2.345
 6154SOL    HW119361   5.742   3.092   2.437
 6154SOL    HW219362   5.661   3.074   2.297
 6155SOL     OW19363   3.077   1.232   2.842
 6155SOL    HW119364   3.005   1.220   2.773
 6155SOL    HW219365   3.093   1.145   2.889
 6156SOL     OW19366   4.450   4.809   1.720
 6156SOL    HW119367   4.362   4.776   1.755
 6156SOL    HW219368   4.495   4.735   1.669
 6157SOL     OW19369   0.277   2.671   3.058
 6157SOL    HW119370   0.190   2.694   3.015
 6157SOL    HW219371   0.265   2.592   3.117
 6158SOL     OW19372   4.016   2.225   6.267
 6158SOL    HW119373   3.952   2.200   6.340
 6158SOL    HW219374   4.110   2.211   6.299
 6159SOL     OW19375   4.171   2.361   0.133
 6159SOL    HW119376   4.235   2.437   0.131
 6159SOL    HW219377   4.177   2.310   0.048
 6160SOL     OW19378   5.844   0.220   6.414
 6160SOL    HW119379   5.822   0.235   6.318
 6160SOL    HW219380   5.857   0.123   6.431
 6161SOL     OW19381   5.585   1.408   0.108
 6161SOL    HW119382   5.660   1.473   0.101
 6161SOL    HW219383   5.619   1.322   0.146
 6162SOL     OW19384   5.985   6.484   4.082
 6162SOL    HW119385   6.019   6.416   4.015
 6162SOL    HW219386   6.021   6.461   4.172
 6163SOL     OW19387   4.987   5.963   2.138
 6163SOL    HW119388   4.895   5.926   2.120
 6163SOL    HW219389   5.003   5.965   2.237
 6164SOL     OW19390   3.393   4.197   4.447
 6164SOL    HW119391   3.370   4.294   4.453
 6164SOL    HW219392   3.409   4.161   4.539
 6165SOL     OW19393   4.485   1.661   6.038
 6165SOL    HW119394   4.454   1.596   5.968
 6165SOL    HW219395   4.564   1.712   6.003
 6166SOL     OW19396   5.727   1.647   0.289
 6166SOL    HW119397   5.677   1.623   0.373
 6166SOL    HW219398   5.701   1.740   0.261
 6167SOL     OW19399   1.110   4.642   2.849
 6167SOL    HW119400   1.172   4.570   2.880
 6167SOL    HW219401   1.149   4.731   2.868
 6168SOL     OW19402   0.310   3.279   3.554
 6168SOL    HW119403   0.297   3.270   3.455
 6168SOL    HW219404   0.282   3.371   3.582
 6169SOL     OW19405   1.160   1.925   0.320
 6169SOL    HW119406   1.206   1.914   0.408
 6169SOL    HW219407   1.127   2.018   0.311
 6170SOL     OW19408   3.112   4.033   5.831
 6170SOL    HW119409   3.169   4.033   5.913
 6170SOL    HW219410   3.118   4.122   5.786
 6171SOL     OW19411   1.740   3.723   1.509
 6171SOL    HW119412   1.797   3.723   1.591
 6171SOL    HW219413   1.673   3.649   1.515
 6172SOL     OW19414   1.342   1.165   3.480
 6172SOL    HW119415   1.394   1.082   3.500
 6172SOL    HW219416   1.292   1.194   3.561
 6173SOL     OW19417   6.622   5.090   2.332
 6173SOL    HW119418   6.671   5.153   2.272
 6173SOL    HW219419   6.583   5.140   2.409
 6174SOL     OW19420   6.166   5.231   2.898
 6174SOL    HW119421   6.091   5.210   2.960
 6174SOL    HW219422   6.253   5.221   2.946
 6175SOL     OW19423   5.378   0.629   3.910
 6175SOL    HW119424   5.391   0.716   3.862
 6175SOL    HW219425   5.464   0.600   3.951
 6176SOL     OW19426   6.741   3.006   0.321
 6176SOL    HW119427   6.675   3.030   0.250
 6176SOL    HW219428   6.813   2.949   0.281
 6177SOL     OW19429   5.897   1.745   1.664
 6177SOL    HW119430   5.990   1.735   1.630
 6177SOL    HW219431   5.869   1.661   1.710
 6178SOL     OW19432   4.660   5.097   2.876
 6178SOL    HW119433   4.654   5.025   2.945
 6178SOL    HW219434   4.752   5.100   2.838
 6179SOL     OW19435   6.442   4.590   4.545
 6179SOL    HW119436   6.493   4.630   4.469
 6179SOL    HW219437   6.392   4.662   4.592
 6180SOL     OW19438   3.453   6.020   6.703
 6180SOL    HW119439   3.441   6.111   6.742
 6180SOL    HW219440   3.551   6.001   6.694
 6181SOL     OW19441   4.058   6.681   1.301
 6181SOL    HW119442   3.962   6.678   1.273
 6181SOL    HW219443   4.099   6.767   1.271
 6182SOL     OW19444   5.561   3.381   5.692
 6182SOL    HW119445   5.607   3.466   5.718
 6182SOL    HW219446   5.544   3.382   5.593
 6183SOL     OW19447   2.561   0.290   2.841
 6183SOL    HW119448   2.559   0.358   2.913
 6183SOL    HW219449   2.647   0.238   2.846
 6184SOL     OW19450   1.351   6.970   6.483
 6184SOL    HW119451   1.434   0.003   6.473
 6184SOL    HW219452   1.282   7.002   6.418
 6185SOL     OW19453   0.151   4.598   6.242
 6185SOL    HW119454   0.201   4.618   6.158
 6185SOL    HW219455   0.109   4.507   6.236
 6186SOL     OW19456   5.973   6.853   5.232
 6186SOL    HW119457   5.874   6.859   5.245
 6186SOL    HW219458   6.019   6.897   5.309
 6187SOL     OW19459   4.346   4.593   4.261
 6187SOL    HW119460   4.344   4.493   4.258
 6187SOL    HW219461   4.344   4.623   4.356
 6188SOL     OW19462   2.500   0.406   0.557
 6188SOL    HW119463   2.454   0.389   0.470
 6188SOL    HW219464   2.534   0.320   0.594
 6189SOL     OW19465   4.785   4.155   4.340
 6189SOL    HW119466   4.765   4.093   4.264
 6189SOL    HW219467   4.843   4.230   4.307
 6190SOL     OW19468   6.640   3.799   6.248
 6190SOL    HW119469   6.628   3.883   6.194
 6190SOL    HW219470   6.557   3.783   6.302
 6191SOL     OW19471   4.252   2.838   6.882
 6191SOL    HW119472   4.339   2.812   6.841
 6191SOL    HW219473   4.187   2.863   6.810
 6192SOL     OW19474   2.789   3.390   6.510
 6192SOL    HW119475   2.769   3.479   6.470
 6192SOL    HW219476   2.778   3.318   6.441
 6193SOL     OW19477   5.121   1.045   2.598
 6193SOL    HW119478   5.178   0.968   2.627
 6193SOL    HW219479   5.176   1.107   2.541
 6194SOL     OW19480   0.997   6.768   0.307
 6194SOL    HW119481   0.909   6.722   0.296
 6194SOL    HW219482   0.986   6.866   0.288
 6195SOL     OW19483   3.896   5.888   5.782
 6195SOL    HW119484   3.942   5.840   5.707
 6195SOL    HW219485   3.825   5.947   5.745
 6196SOL     OW19486   5.890   1.953   1.514
 6196SOL    HW119487   5.877   1.882   1.583
 6196SOL    HW219488   5.811   1.955   1.453
 6197SOL     OW19489   4.231   4.588   0.459
 6197SOL    HW119490   4.192   4.496   0.470
 6197SOL    HW219491   4.160   4.656   0.476
 6198SOL     OW19492   3.118   5.356   2.097
 6198SOL    HW119493   3.183   5.344   2.172
 6198SOL    HW219494   3.102   5.453   2.080
 6199SOL     OW19495   1.141   0.148   1.078
 6199SOL    HW119496   1.201   0.076   1.043
 6199SOL    HW219497   1.046   0.128   1.054
 6200SOL     OW19498   1.980   1.216   5.246
 6200SOL    HW119499   1.957   1.256   5.335
 6200SOL    HW219500   2.078   1.229   5.228
 6201SOL     OW19501   1.543   4.052   5.274
 6201SOL    HW119502   1.593   3.966   5.286
 6201SOL    HW219503   1.564   4.091   5.185
 6202SOL     OW19504   4.118   1.558   1.454
 6202SOL    HW119505   4.117   1.476   1.511
 6202SOL    HW219506   4.096   1.638   1.511
 6203SOL     OW19507   5.797   6.657   3.352
 6203SOL    HW119508   5.721   6.624   3.296
 6203SOL    HW219509   5.818   6.590   3.422
 6204SOL     OW19510   0.764   4.994   4.949
 6204SOL    HW119511   0.690   5.040   5.000
 6204SOL    HW219512   0.738   4.986   4.853
 6205SOL     OW19513   6.220   6.448   0.084
 6205SOL    HW119514   6.291   6.431   0.152
 6205SOL    HW219515   6.225   6.544   0.055
 6206SOL     OW19516   6.814   0.559   2.659
 6206SOL    HW119517   6.835   0.577   2.755
 6206SOL    HW219518   6.878   0.609   2.601
 6207SOL     OW19519   1.663   5.117   4.132
 6207SOL    HW119520   1.673   5.081   4.039
 6207SOL    HW219521   1.702   5.051   4.197
 6208SOL     OW19522   6.179   1.727   6.429
 6208SOL    HW119523   6.270   1.713   6.469
 6208SOL    HW219524   6.127   1.789   6.488
 6209SOL     OW19525   4.446   5.707   6.883
 6209SOL    HW119526   4.387   5.759   6.944
 6209SOL    HW219527   4.479   5.766   6.810
 6210SOL     OW19528   5.893   4.326   4.124
 6210SOL    HW119529   5.855   4.234   4.133
 6210SOL    HW219530   5.984   4.330   4.165
 6211SOL     OW19531   3.150   5.844   5.309
 6211SOL    HW119532   3.074   5.882   5.257
 6211SOL    HW219533   3.170   5.901   5.389
 6212SOL     OW19534   2.363   5.156   2.749
 6212SOL    HW119535   2.417   5.169   2.832
 6212SOL    HW219536   2.276   5.111   2.773
 6213SOL     OW19537   5.011   0.453   0.148
 6213SOL    HW119538   4.944   0.511   0.101
 6213SOL    HW219539   5.101   0.498   0.147
 6214SOL     OW19540   4.443   4.965   3.970
 6214SOL    HW119541   4.455   4.875   4.012
 6214SOL    HW219542   4.353   4.969   3.926
 6215SOL     OW19543   4.267   1.876   0.537
 6215SOL    HW119544   4.365   1.879   0.517
 6215SOL    HW219545   4.216   1.906   0.456
 6216SOL     OW19546   6.310   1.981   2.307
 6216SOL    HW119547   6.303   2.028   2.219
 6216SOL    HW219548   6.319   2.048   2.380
 6217SOL     OW19549   0.269   2.983   2.593
 6217SOL    HW119550   0.366   2.978   2.615
 6217SOL    HW219551   0.230   2.890   2.595
 6218SOL     OW19552   3.397   5.099   5.595
 6218SOL    HW119553   3.323   5.080   5.530
 6218SOL    HW219554   3.388   5.039   5.675
 6219SOL     OW19555   1.059   2.120   4.358
 6219SOL    HW119556   1.071   2.188   4.431
 6219SOL    HW219557   1.019   2.163   4.278
 6220SOL     OW19558   1.535   2.946   5.379
 6220SOL    HW119559   1.459   2.916   5.323
 6220SOL    HW219560   1.622   2.922   5.335
 6221SOL     OW19561   6.183   5.685   6.565
 6221SOL    HW119562   6.171   5.733   6.479
 6221SOL    HW219563   6.098   5.639   6.591
 6222SOL     OW19564   0.904   6.134   1.195
 6222SOL    HW119565   0.878   6.191   1.273
 6222SOL    HW219566   0.967   6.063   1.226
 6223SOL     OW19567   0.437   4.696   4.642
 6223SOL    HW119568   0.484   4.619   4.685
 6223SOL    HW219569   0.483   4.781   4.666
 6224SOL     OW19570   2.480   2.012   6.143
 6224SOL    HW119571   2.564   2.063   6.161
 6224SOL    HW219572   2.479   1.928   6.197
 6225SOL     OW19573   3.272   3.605   0.990
 6225SOL    HW119574   3.343   3.661   1.033
 6225SOL    HW219575   3.292   3.509   1.005
 6226SOL     OW19576   5.912   1.501   5.712
 6226SOL    HW119577   6.002   1.545   5.706
 6226SOL    HW219578   5.903   1.456   5.800
 6227SOL     OW19579   3.697   5.342   5.897
 6227SOL    HW119580   3.645   5.295   5.826
 6227SOL    HW219581   3.641   5.351   5.979
 6228SOL     OW19582   1.332   2.643   3.123
 6228SOL    HW119583   1.308   2.739   3.136
 6228SOL    HW219584   1.254   2.586   3.145
 6229SOL     OW19585   0.516   2.566   2.670
 6229SOL    HW119586   0.585   2.495   2.682
 6229SOL    HW219587   0.432   2.539   2.717
 6230SOL     OW19588   1.233   1.250   3.701
 6230SOL    HW119589   1.157   1.191   3.729
 6230SOL    HW219590   1.260   1.308   3.778
 6231SOL     OW19591   6.768   4.934   1.600
 6231SOL    HW119592   6.858   4.976   1.593
 6231SOL    HW219593   6.774   4.853   1.659
 6232SOL     OW19594   6.819   1.848   0.873
 6232SOL    HW119595   6.914   1.832   0.845
 6232SOL    HW219596   6.757   1.819   0.801
 6233SOL     OW19597   6.040   0.613   0.058
 6233SOL    HW119598   6.081   0.543   0.116
 6233SOL    HW219599   6.101   0.692   0.050
 6234SOL     OW19600   6.161   1.595   5.708
 6234SOL    HW119601   6.192   1.690   5.711
 6234SOL    HW219602   6.230   1.535   5.749
 6235SOL     OW19603   1.249   0.718   1.416
 6235SOL    HW119604   1.312   0.641   1.423
 6235SOL    HW219605   1.155   0.684   1.408
 6236SOL     OW19606   0.221   3.735   0.446
 6236SOL    HW119607   0.256   3.795   0.517
 6236SOL    HW219608   0.168   3.788   0.380
 6237SOL     OW19609   3.430   6.268   6.776
 6237SOL    HW119610   3.521   6.301   6.752
 6237SOL    HW219611   3.406   6.297   6.868
 6238SOL     OW19612   3.930   4.803   3.056
 6238SOL    HW119613   3.986   4.841   2.982
 6238SOL    HW219614   3.985   4.739   3.110
 6239SOL     OW19615   3.350   6.345   1.807
 6239SOL    HW119616   3.299   6.270   1.765
 6239SOL    HW219617   3.329   6.349   1.904
 6240SOL     OW19618   2.778   3.180   6.348
 6240SOL    HW119619   2.703   3.125   6.311
 6240SOL    HW219620   2.858   3.172   6.288
 6241SOL     OW19621   2.882   6.877   1.770
 6241SOL    HW119622   2.839   6.879   1.860
 6241SOL    HW219623   2.941   6.957   1.759
 6242SOL     OW19624   5.382   1.456   3.741
 6242SOL    HW119625   5.300   1.406   3.767
 6242SOL    HW219626   5.395   1.533   3.804
 6243SOL     OW19627   6.308   6.730   4.071
 6243SOL    HW119628   6.261   6.764   3.990
 6243SOL    HW219629   6.245   6.734   4.149
 6244SOL     OW19630   0.866   2.160   2.126
 6244SOL    HW119631   0.949   2.176   2.179
 6244SOL    HW219632   0.865   2.065   2.095
 6245SOL     OW19633   1.901   3.998   6.914
 6245SOL    HW119634   1.922   3.974   7.009
 6245SOL    HW219635   1.819   4.056   6.912
 6246SOL     OW19636   1.803   2.356   5.939
 6246SOL    HW119637   1.771   2.450   5.953
 6246SOL    HW219638   1.774   2.299   6.016
 6247SOL     OW19639   1.546   6.291   4.278
 6247SOL    HW119640   1.635   6.325   4.251
 6247SOL    HW219641   1.521   6.212   4.223
 6248SOL     OW19642   3.449   3.798   0.316
 6248SOL    HW119643   3.518   3.732   0.346
 6248SOL    HW219644   3.443   3.872   0.383
 6249SOL     OW19645   0.272   3.936   0.660
 6249SOL    HW119646   0.176   3.964   0.657
 6249SOL    HW219647   0.329   4.007   0.619
 6250SOL     OW19648   0.066   5.950   0.798
 6250SOL    HW119649   0.073   5.974   0.701
 6250SOL    HW219650   6.993   5.923   0.819
 6251SOL     OW19651   3.460   4.964   6.812
 6251SOL    HW119652   3.536   5.028   6.827
 6251SOL    HW219653   3.380   4.995   6.862
 6252SOL     OW19654   1.248   6.832   5.727
 6252SOL    HW119655   1.232   6.923   5.687
 6252SOL    HW219656   1.301   6.777   5.663
 6253SOL     OW19657   2.325   4.104   3.044
 6253SOL    HW119658   2.381   4.021   3.037
 6253SOL    HW219659   2.340   4.161   2.964
 6254SOL     OW19660   4.922   1.563   0.561
 6254SOL    HW119661   4.869   1.504   0.500
 6254SOL    HW219662   5.019   1.540   0.553
 6255SOL     OW19663   2.729   0.575   1.344
 6255SOL    HW119664   2.743   0.591   1.246
 6255SOL    HW219665   2.637   0.540   1.359
 6256SOL     OW19666   3.255   5.051   2.576
 6256SOL    HW119667   3.199   4.969   2.586
 6256SOL    HW219668   3.332   5.031   2.515
 6257SOL     OW19669   4.524   2.231   0.847
 6257SOL    HW119670   4.515   2.229   0.747
 6257SOL    HW219671   4.524   2.326   0.878
 6258SOL     OW19672   4.261   0.158   3.497
 6258SOL    HW119673   4.357   0.165   3.526
 6258SOL    HW219674   4.239   0.063   3.477
 6259SOL     OW19675   2.544   2.558   0.429
 6259SOL    HW119676   2.568   2.512   0.515
 6259SOL    HW219677   2.627   2.572   0.375
 6260SOL     OW19678   3.229   5.385   0.324
 6260SOL    HW119679   3.242   5.363   0.227
 6260SOL    HW219680   3.134   5.416   0.338
 6261SOL     OW19681   3.959   0.187   5.926
 6261SOL    HW119682   4.007   0.099   5.934
 6261SOL    HW219683   3.924   0.214   6.015
 6262SOL     OW19684   1.641   5.319   0.832
 6262SOL    HW119685   1.680   5.400   0.788
 6262SOL    HW219686   1.713   5.269   0.879
 6263SOL     OW19687   6.744   0.239   5.352
 6263SOL    HW119688   6.745   0.150   5.397
 6263SOL    HW219689   6.721   0.310   5.419
 6264SOL     OW19690   1.022   6.504   1.957
 6264SOL    HW119691   0.987   6.442   2.028
 6264SOL    HW219692   1.120   6.486   1.943
 6265SOL     OW19693   3.459   3.995   0.527
 6265SOL    HW119694   3.375   4.040   0.496
 6265SOL    HW219695   3.442   3.947   0.613
 6266SOL     OW19696   4.251   6.735   4.678
 6266SOL    HW119697   4.277   6.773   4.590
 6266SOL    HW219698   4.172   6.675   4.667
 6267SOL     OW19699   2.733   0.868   6.686
 6267SOL    HW119700   2.703   0.939   6.750
 6267SOL    HW219701   2.832   0.873   6.676
 6268SOL     OW19702   3.538   6.606   3.622
 6268SOL    HW119703   3.445   6.644   3.619
 6268SOL    HW219704   3.533   6.506   3.622
 6269SOL     OW19705   6.312   5.483   2.037
 6269SOL    HW119706   6.235   5.421   2.023
 6269SOL    HW219707   6.397   5.438   2.011
 6270SOL     OW19708   1.985   0.576   4.736
 6270SOL    HW119709   1.970   0.554   4.832
 6270SOL    HW219710   1.940   0.506   4.679
 6271SOL     OW19711   5.901   2.327   6.007
 6271SOL    HW119712   5.804   2.322   6.029
 6271SOL    HW219713   5.953   2.278   6.078
 6272SOL     OW19714   0.212   1.998   0.295
 6272SOL    HW119715   0.305   1.974   0.321
 6272SOL    HW219716   0.213   2.050   0.209
 6273SOL     OW19717   1.425   6.380   2.914
 6273SOL    HW119718   1.334   6.419   2.902
 6273SOL    HW219719   1.490   6.453   2.935
 6274SOL     OW19720   2.374   5.787   5.927
 6274SOL    HW119721   2.332   5.743   5.847
 6274SOL    HW219722   2.321   5.868   5.952
 6275SOL     OW19723   2.232   6.126   5.313
 6275SOL    HW119724   2.278   6.074   5.242
 6275SOL    HW219725   2.161   6.069   5.355
 6276SOL     OW19726   2.069   4.853   3.200
 6276SOL    HW119727   2.025   4.821   3.116
 6276SOL    HW219728   2.159   4.811   3.210
 6277SOL     OW19729   5.603   3.512   1.668
 6277SOL    HW119730   5.534   3.440   1.661
 6277SOL    HW219731   5.694   3.471   1.657
 6278SOL     OW19732   5.335   6.721   4.714
 6278SOL    HW119733   5.404   6.739   4.784
 6278SOL    HW219734   5.315   6.805   4.665
 6279SOL     OW19735   3.726   0.223   6.554
 6279SOL    HW119736   3.715   0.239   6.456
 6279SOL    HW219737   3.779   0.140   6.569
 6280SOL     OW19738   0.774   1.829   4.808
 6280SOL    HW119739   0.833   1.866   4.880
 6280SOL    HW219740   0.810   1.855   4.719
 6281SOL     OW19741   1.454   5.025   3.794
 6281SOL    HW119742   1.538   5.037   3.848
 6281SOL    HW219743   1.427   4.928   3.796
 6282SOL     OW19744   1.291   6.760   4.735
 6282SOL    HW119745   1.227   6.799   4.801
 6282SOL    HW219746   1.262   6.783   4.642
 6283SOL     OW19747   6.998   3.167   5.883
 6283SOL    HW119748   7.016   3.218   5.799
 6283SOL    HW219749   6.911   3.119   5.875
 6284SOL     OW19750   1.783   5.212   4.851
 6284SOL    HW119751   1.864   5.204   4.908
 6284SOL    HW219752   1.750   5.120   4.827
 6285SOL     OW19753   0.844   3.645   4.141
 6285SOL    HW119754   0.942   3.663   4.148
 6285SOL    HW219755   0.793   3.730   4.154
 6286SOL     OW19756   6.374   1.848   3.869
 6286SOL    HW119757   6.428   1.798   3.936
 6286SOL    HW219758   6.299   1.790   3.836
 6287SOL     OW19759   3.573   5.263   3.935
 6287SOL    HW119760   3.558   5.288   3.839
 6287SOL    HW219761   3.670   5.242   3.949
 6288SOL     OW19762   5.398   5.114   2.947
 6288SOL    HW119763   5.489   5.091   2.980
 6288SOL    HW219764   5.333   5.043   2.976
 6289SOL     OW19765   1.782   4.722   1.819
 6289SOL    HW119766   1.721   4.768   1.755
 6289SOL    HW219767   1.820   4.789   1.883
 6290SOL     OW19768   6.281   3.787   4.353
 6290SOL    HW119769   6.251   3.865   4.298
 6290SOL    HW219770   6.217   3.773   4.429
 6291SOL     OW19771   3.596   2.909   4.627
 6291SOL    HW119772   3.681   2.962   4.626
 6291SOL    HW219773   3.616   2.813   4.605
 6292SOL     OW19774   1.518   2.167   3.886
 6292SOL    HW119775   1.610   2.126   3.888
 6292SOL    HW219776   1.489   2.186   3.980
 6293SOL     OW19777   3.824   0.283   0.218
 6293SOL    HW119778   3.900   0.344   0.196
 6293SOL    HW219779   3.808   0.283   0.316
 6294SOL     OW19780   3.414   4.940   4.515
 6294SOL    HW119781   3.339   4.922   4.579
 6294SOL    HW219782   3.427   5.039   4.507
 6295SOL     OW19783   5.446   4.982   5.756
 6295SOL    HW119784   5.534   5.028   5.759
 6295SOL    HW219785   5.422   4.950   5.848
 6296SOL     OW19786   0.168   6.810   5.800
 6296SOL    HW119787   0.187   6.879   5.870
 6296SOL    HW219788   0.111   6.851   5.729
 6297SOL     OW19789   4.725   6.423   4.350
 6297SOL    HW119790   4.706   6.393   4.444
 6297SOL    HW219791   4.821   6.406   4.328
 6298SOL     OW19792   1.542   2.788   6.604
 6298SOL    HW119793   1.511   2.806   6.698
 6298SOL    HW219794   1.474   2.823   6.539
 6299SOL     OW19795   5.251   1.266   0.099
 6299SOL    HW119796   5.263   1.359   0.065
 6299SOL    HW219797   5.333   1.212   0.077
 6300SOL     OW19798   5.518   0.376   0.210
 6300SOL    HW119799   5.493   0.416   0.298
 6300SOL    HW219800   5.445   0.392   0.144
 6301SOL     OW19801   3.729   0.714   0.635
 6301SOL    HW119802   3.793   0.706   0.712
 6301SOL    HW219803   3.652   0.771   0.662
 6302SOL     OW19804   1.975   0.235   3.528
 6302SOL    HW119805   1.967   0.162   3.460
 6302SOL    HW219806   1.911   0.309   3.506
 6303SOL     OW19807   1.835   1.275   4.567
 6303SOL    HW119808   1.820   1.288   4.665
 6303SOL    HW219809   1.781   1.196   4.535
 6304SOL     OW19810   2.556   1.424   1.298
 6304SOL    HW119811   2.458   1.412   1.314
 6304SOL    HW219812   2.570   1.483   1.218
 6305SOL     OW19813   5.340   0.149   1.626
 6305SOL    HW119814   5.331   0.077   1.557
 6305SOL    HW219815   5.414   0.210   1.600
 6306SOL     OW19816   1.117   3.748   4.105
 6306SOL    HW119817   1.141   3.769   4.200
 6306SOL    HW219818   1.055   3.819   4.071
 6307SOL     OW19819   4.072   4.385   5.485
 6307SOL    HW119820   4.106   4.407   5.577
 6307SOL    HW219821   3.972   4.391   5.485
 6308SOL     OW19822   1.861   2.508   4.553
 6308SOL    HW119823   1.938   2.520   4.491
 6308SOL    HW219824   1.864   2.416   4.592
 6309SOL     OW19825   5.275   4.291   4.786
 6309SOL    HW119826   5.343   4.221   4.765
 6309SOL    HW219827   5.268   4.302   4.885
 6310SOL     OW19828   2.091   5.996   3.356
 6310SOL    HW119829   2.144   6.054   3.294
 6310SOL    HW219830   2.132   5.905   3.359
 6311SOL     OW19831   5.006   0.824   5.579
 6311SOL    HW119832   5.100   0.837   5.549
 6311SOL    HW219833   4.999   0.848   5.676
 6312SOL     OW19834   5.673   5.234   5.531
 6312SOL    HW119835   5.670   5.333   5.519
 6312SOL    HW219836   5.747   5.195   5.476
 6313SOL     OW19837   1.484   6.277   3.939
 6313SOL    HW119838   1.519   6.348   3.878
 6313SOL    HW219839   1.553   6.205   3.949
 6314SOL     OW19840   3.868   6.420   1.865
 6314SOL    HW119841   3.860   6.438   1.767
 6314SOL    HW219842   3.928   6.341   1.880
 6315SOL     OW19843   2.570   2.763   5.962
 6315SOL    HW119844   2.501   2.711   6.013
 6315SOL    HW219845   2.524   2.833   5.906
 6316SOL     OW19846   4.688   1.546   6.737
 6316SOL    HW119847   4.745   1.627   6.726
 6316SOL    HW219848   4.745   1.464   6.726
 6317SOL     OW19849   4.782   5.431   2.984
 6317SOL    HW119850   4.731   5.385   3.057
 6317SOL    HW219851   4.875   5.448   3.014
 6318SOL     OW19852   3.439   1.668   4.572
 6318SOL    HW119853   3.414   1.721   4.491
 6318SOL    HW219854   3.474   1.730   4.643
 6319SOL     OW19855   6.818   1.622   4.214
 6319SOL    HW119856   6.828   1.598   4.117
 6319SOL    HW219857   6.852   1.547   4.270
 6320SOL     OW19858   6.049   5.364   4.977
 6320SOL    HW119859   5.995   5.447   4.992
 6320SOL    HW219860   5.990   5.284   4.986
 6321SOL     OW19861   3.053   3.532   0.842
 6321SOL    HW119862   2.977   3.516   0.905
 6321SOL    HW219863   3.129   3.575   0.890
 6322SOL     OW19864   1.931   2.105   0.101
 6322SOL    HW119865   2.028   2.127   0.102
 6322SOL    HW219866   1.900   2.093   0.007
 6323SOL     OW19867   2.756   2.455   1.145
 6323SOL    HW119868   2.769   2.379   1.081
 6323SOL    HW219869   2.833   2.518   1.138
 6324SOL     OW19870   4.989   7.013   6.479
 6324SOL    HW119871   5.037   6.973   6.400
 6324SOL    HW219872   5.000   0.091   6.478
 6325SOL     OW19873   2.348   1.629   2.380
 6325SOL    HW119874   2.442   1.629   2.414
 6325SOL    HW219875   2.347   1.657   2.284
 6326SOL     OW19876   5.036   5.252   1.597
 6326SOL    HW119877   5.106   5.204   1.649
 6326SOL    HW219878   5.042   5.351   1.615
 6327SOL     OW19879   0.152   0.012   4.826
 6327SOL    HW119880   0.059   6.998   4.812
 6327SOL    HW219881   0.188   6.997   4.912
 6328SOL     OW19882   2.306   3.611   0.907
 6328SOL    HW119883   2.277   3.624   0.812
 6328SOL    HW219884   2.271   3.686   0.963
 6329SOL     OW19885   2.501   2.187   3.413
 6329SOL    HW119886   2.547   2.130   3.480
 6329SOL    HW219887   2.465   2.269   3.458
 6330SOL     OW19888   4.412   1.126   0.865
 6330SOL    HW119889   4.413   1.053   0.797
 6330SOL    HW219890   4.372   1.092   0.950
 6331SOL     OW19891   6.464   2.138   6.928
 6331SOL    HW119892   6.456   2.137   0.007
 6331SOL    HW219893   6.387   2.089   6.887
 6332SOL     OW19894   6.214   3.543   1.592
 6332SOL    HW119895   6.155   3.585   1.661
 6332SOL    HW219896   6.280   3.483   1.637
 6333SOL     OW19897   4.441   5.605   5.295
 6333SOL    HW119898   4.347   5.637   5.301
 6333SOL    HW219899   4.504   5.683   5.297
 6334SOL     OW19900   2.861   0.252   1.936
 6334SOL    HW119901   2.843   0.349   1.954
 6334SOL    HW219902   2.877   0.238   1.839
 6335SOL     OW19903   4.187   0.989   0.519
 6335SOL    HW119904   4.138   0.934   0.452
 6335SOL    HW219905   4.215   1.076   0.478
 6336SOL     OW19906   0.943   1.988   6.376
 6336SOL    HW119907   0.916   1.975   6.281
 6336SOL    HW219908   1.037   2.024   6.379
 6337SOL     OW19909   4.603   4.100   6.511
 6337SOL    HW119910   4.640   4.181   6.466
 6337SOL    HW219911   4.567   4.037   6.442
 6338SOL     OW19912   3.611   1.742   3.599
 6338SOL    HW119913   3.710   1.739   3.612
 6338SOL    HW219914   3.583   1.668   3.537
 6339SOL     OW19915   1.322   3.286   2.628
 6339SOL    HW119916   1.398   3.350   2.643
 6339SOL    HW219917   1.262   3.288   2.708
 6340SOL     OW19918   1.838   4.821   2.518
 6340SOL    HW119919   1.740   4.801   2.522
 6340SOL    HW219920   1.869   4.821   2.423
 6341SOL     OW19921   1.040   4.516   4.274
 6341SOL    HW119922   1.052   4.419   4.294
 6341SOL    HW219923   1.129   4.559   4.259
 6342SOL     OW19924   2.851   1.874   1.957
 6342SOL    HW119925   2.852   1.819   1.873
 6342SOL    HW219926   2.795   1.828   2.026
 6343SOL     OW19927   4.793   1.966   6.138
 6343SOL    HW119928   4.730   1.955   6.215
 6343SOL    HW219929   4.743   2.003   6.059
 6344SOL     OW19930   5.893   2.900   4.992
 6344SOL    HW119931   5.904   2.881   5.089
 6344SOL    HW219932   5.913   2.818   4.939
 6345SOL     OW19933   5.130   2.082   2.371
 6345SOL    HW119934   5.199   2.154   2.361
 6345SOL    HW219935   5.155   2.023   2.448
 6346SOL     OW19936   6.889   4.602   3.948
 6346SOL    HW119937   6.901   4.590   4.047
 6346SOL    HW219938   6.963   4.554   3.900
 6347SOL     OW19939   2.197   0.196   0.829
 6347SOL    HW119940   2.256   0.119   0.803
 6347SOL    HW219941   2.124   0.163   0.888
 6348SOL     OW19942   1.601   4.175   5.038
 6348SOL    HW119943   1.670   4.242   5.010
 6348SOL    HW219944   1.544   4.153   4.960
 6349SOL     OW19945   3.279   0.492   1.076
 6349SOL    HW119946   3.220   0.441   1.014
 6349SOL    HW219947   3.223   0.554   1.131
 6350SOL     OW19948   2.723   4.732   3.869
 6350SOL    HW119949   2.742   4.827   3.891
 6350SOL    HW219950   2.705   4.681   3.954
 6351SOL     OW19951   6.685   3.486   3.343
 6351SOL    HW119952   6.671   3.488   3.244
 6351SOL    HW219953   6.597   3.479   3.389
 6352SOL     OW19954   3.328   5.259   5.275
 6352SOL    HW119955   3.288   5.305   5.195
 6352SOL    HW219956   3.421   5.294   5.290
 6353SOL     OW19957   0.711   0.582   5.752
 6353SOL    HW119958   0.742   0.555   5.843
 6353SOL    HW219959   0.690   0.680   5.752
 6354SOL     OW19960   1.832   5.912   3.232
 6354SOL    HW119961   1.893   5.955   3.298
 6354SOL    HW219962   1.878   5.833   3.190
 6355SOL     OW19963   1.020   5.733   6.453
 6355SOL    HW119964   1.063   5.765   6.537
 6355SOL    HW219965   0.921   5.742   6.461
 6356SOL     OW19966   3.762   4.916   2.458
 6356SOL    HW119967   3.846   4.882   2.501
 6356SOL    HW219968   3.771   5.015   2.444
 6357SOL     OW19969   5.132   3.287   2.249
 6357SOL    HW119970   5.050   3.241   2.217
 6357SOL    HW219971   5.152   3.260   2.343
 6358SOL     OW19972   1.457   2.129   6.360
 6358SOL    HW119973   1.410   2.185   6.428
 6358SOL    HW219974   1.553   2.119   6.387
 6359SOL     OW19975   6.484   6.483   5.893
 6359SOL    HW119976   6.566   6.524   5.853
 6359SOL    HW219977   6.409   6.549   5.890
 6360SOL     OW19978   1.079   3.967   3.670
 6360SOL    HW119979   1.026   4.036   3.622
 6360SOL    HW219980   1.059   3.877   3.631
 6361SOL     OW19981   5.922   0.145   0.392
 6361SOL    HW119982   5.900   0.059   0.437
 6361SOL    HW219983   5.913   0.134   0.293
 6362SOL     OW19984   0.463   6.111   0.525
 6362SOL    HW119985   0.388   6.045   0.529
 6362SOL    HW219986   0.544   6.072   0.569
 6363SOL     OW19987   2.255   4.389   3.653
 6363SOL    HW119988   2.247   4.364   3.749
 6363SOL    HW219989   2.274   4.487   3.646
 6364SOL     OW19990   2.863   1.242   5.855
 6364SOL    HW119991   2.803   1.166   5.879
 6364SOL    HW219992   2.958   1.212   5.857
 6365SOL     OW19993   5.681   0.259   4.280
 6365SOL    HW119994   5.611   0.314   4.325
 6365SOL    HW219995   5.771   0.285   4.314
 6366SOL     OW19996   1.096   5.923   6.290
 6366SOL    HW119997   1.078   5.890   6.198
 6366SOL    HW219998   1.055   5.861   6.357
 6367SOL     OW19999   4.184   0.241   4.695
 6367SOL    HW120000   4.261   0.179   4.678
 6367SOL    HW220001   4.166   0.246   4.793
 6368SOL     OW20002   3.580   5.427   3.494
 6368SOL    HW120003   3.620   5.335   3.486
 6368SOL    HW220004   3.589   5.475   3.407
 6369SOL     OW20005   1.588   4.747   3.954
 6369SOL    HW120006   1.525   4.691   3.900
 6369SOL    HW220007   1.638   4.688   4.018
 6370SOL     OW20008   0.421   3.407   2.555
 6370SOL    HW120009   0.335   3.364   2.579
 6370SOL    HW220010   0.405   3.478   2.486
 6371SOL     OW20011   5.278   3.609   4.477
 6371SOL    HW120012   5.377   3.602   4.485
 6371SOL    HW220013   5.237   3.608   4.568
 6372SOL     OW20014   3.206   0.269   1.815
 6372SOL    HW120015   3.166   0.206   1.881
 6372SOL    HW220016   3.154   0.354   1.814
 6373SOL     OW20017   5.387   4.409   3.639
 6373SOL    HW120018   5.338   4.390   3.554
 6373SOL    HW220019   5.442   4.329   3.665
 6374SOL     OW20020   3.066   3.995   4.367
 6374SOL    HW120021   3.067   4.000   4.467
 6374SOL    HW220022   2.983   3.946   4.338
 6375SOL     OW20023   6.510   1.684   4.051
 6375SOL    HW120024   6.584   1.738   4.091
 6375SOL    HW220025   6.464   1.633   4.124
 6376SOL     OW20026   6.565   2.766   5.108
 6376SOL    HW120027   6.497   2.786   5.036
 6376SOL    HW220028   6.657   2.776   5.070
 6377SOL     OW20029   6.157   1.579   5.419
 6377SOL    HW120030   6.170   1.569   5.518
 6377SOL    HW220031   6.097   1.657   5.401
 6378SOL     OW20032   5.166   5.511   4.291
 6378SOL    HW120033   5.214   5.512   4.204
 6378SOL    HW220034   5.069   5.531   4.277
 6379SOL     OW20035   2.391   4.366   4.218
 6379SOL    HW120036   2.394   4.424   4.136
 6379SOL    HW220037   2.456   4.401   4.285
 6380SOL     OW20038   0.866   1.686   6.426
 6380SOL    HW120039   0.906   1.774   6.401
 6380SOL    HW220040   0.806   1.699   6.505
 6381SOL     OW20041   4.144   3.252   2.365
 6381SOL    HW120042   4.218   3.222   2.425
 6381SOL    HW220043   4.079   3.177   2.353
 6382SOL     OW20044   0.975   2.148   0.732
 6382SOL    HW120045   1.059   2.111   0.770
 6382SOL    HW220046   0.926   2.199   0.802
 6383SOL     OW20047   1.813   2.355   2.821
 6383SOL    HW120048   1.819   2.451   2.792
 6383SOL    HW220049   1.901   2.325   2.857
 6384SOL     OW20050   5.433   4.389   1.389
 6384SOL    HW120051   5.449   4.369   1.486
 6384SOL    HW220052   5.452   4.485   1.371
 6385SOL     OW20053   6.691   4.739   3.795
 6385SOL    HW120054   6.674   4.670   3.724
 6385SOL    HW220055   6.767   4.710   3.852
 6386SOL     OW20056   2.578   4.852   6.629
 6386SOL    HW120057   2.650   4.783   6.639
 6386SOL    HW220058   2.506   4.815   6.570
 6387SOL     OW20059   0.753   1.862   6.697
 6387SOL    HW120060   0.783   1.946   6.653
 6387SOL    HW220061   0.758   1.873   6.796
 6388SOL     OW20062   4.262   4.626   1.180
 6388SOL    HW120063   4.207   4.609   1.098
 6388SOL    HW220064   4.210   4.596   1.260
 6389SOL     OW20065   1.179   6.472   2.827
 6389SOL    HW120066   1.090   6.436   2.799
 6389SOL    HW220067   1.215   6.532   2.756
 6390SOL     OW20068   0.979   1.593   5.010
 6390SOL    HW120069   0.953   1.589   4.913
 6390SOL    HW220070   0.907   1.554   5.066
 6391SOL     OW20071   2.675   6.465   5.640
 6391SOL    HW120072   2.620   6.536   5.595
 6391SOL    HW220073   2.658   6.467   5.738
 6392SOL     OW20074   2.192   6.864   3.292
 6392SOL    HW120075   2.242   6.778   3.290
 6392SOL    HW220076   2.249   6.934   3.336
 6393SOL     OW20077   5.997   0.051   1.476
 6393SOL    HW120078   6.088   0.042   1.516
 6393SOL    HW220079   5.984   0.144   1.442
 6394SOL     OW20080   2.654   4.607   0.664
 6394SOL    HW120081   2.564   4.602   0.620
 6394SOL    HW220082   2.643   4.617   0.762
 6395SOL     OW20083   6.203   2.799   1.689
 6395SOL    HW120084   6.166   2.706   1.678
 6395SOL    HW220085   6.193   2.828   1.784
 6396SOL     OW20086   5.543   3.350   6.321
 6396SOL    HW120087   5.488   3.351   6.404
 6396SOL    HW220088   5.632   3.309   6.341
 6397SOL     OW20089   5.851   2.755   6.420
 6397SOL    HW120090   5.791   2.768   6.498
 6397SOL    HW220091   5.901   2.840   6.402
 6398SOL     OW20092   3.090   0.746   0.923
 6398SOL    HW120093   3.009   0.696   0.951
 6398SOL    HW220094   3.070   0.844   0.919
 6399SOL     OW20095   1.532   5.470   6.812
 6399SOL    HW120096   1.584   5.555   6.804
 6399SOL    HW220097   1.563   5.419   6.892
 6400SOL     OW20098   2.304   6.425   2.245
 6400SOL    HW120099   2.285   6.387   2.155
 6400SOL    HW220100   2.380   6.490   2.239
 6401SOL     OW20101   0.611   4.527   3.581
 6401SOL    HW120102   0.676   4.483   3.643
 6401SOL    HW220103   0.659   4.591   3.521
 6402SOL     OW20104   4.318   1.601   2.778
 6402SOL    HW120105   4.252   1.640   2.714
 6402SOL    HW220106   4.382   1.543   2.728
 6403SOL     OW20107   6.795   6.322   6.116
 6403SOL    HW120108   6.771   6.406   6.163
 6403SOL    HW220109   6.805   6.248   6.183
 6404SOL     OW20110   3.887   1.302   2.679
 6404SOL    HW120111   3.944   1.297   2.762
 6404SOL    HW220112   3.945   1.326   2.601
 6405SOL     OW20113   2.628   0.405   3.701
 6405SOL    HW120114   2.587   0.359   3.780
 6405SOL    HW220115   2.728   0.395   3.705
 6406SOL     OW20116   1.253   2.368   3.404
 6406SOL    HW120117   1.348   2.339   3.412
 6406SOL    HW220118   1.194   2.307   3.458
 6407SOL     OW20119   2.993   6.645   3.938
 6407SOL    HW120120   3.066   6.599   3.887
 6407SOL    HW220121   2.934   6.695   3.875
 6408SOL     OW20122   5.866   2.247   0.273
 6408SOL    HW120123   5.869   2.235   0.372
 6408SOL    HW220124   5.771   2.261   0.245
 6409SOL     OW20125   0.485   4.575   3.029
 6409SOL    HW120126   0.457   4.529   3.113
 6409SOL    HW220127   0.448   4.526   2.950
 6410SOL     OW20128   1.911   1.700   0.500
 6410SOL    HW120129   1.814   1.680   0.490
 6410SOL    HW220130   1.935   1.778   0.441
 6411SOL     OW20131   0.495   2.968   3.340
 6411SOL    HW120132   0.411   2.916   3.346
 6411SOL    HW220133   0.485   3.039   3.270
 6412SOL     OW20134   0.191   2.373   5.435
 6412SOL    HW120135   0.159   2.465   5.412
 6412SOL    HW220136   0.248   2.377   5.517
 6413SOL     OW20137   4.388   4.919   3.621
 6413SOL    HW120138   4.346   4.839   3.665
 6413SOL    HW220139   4.487   4.914   3.631
 6414SOL     OW20140   5.606   0.870   0.930
 6414SOL    HW120141   5.552   0.955   0.933
 6414SOL    HW220142   5.703   0.892   0.941
 6415SOL     OW20143   2.076   2.421   3.237
 6415SOL    HW120144   2.106   2.459   3.325
 6415SOL    HW220145   1.976   2.427   3.230
 6416SOL     OW20146   0.891   1.164   6.174
 6416SOL    HW120147   0.843   1.120   6.250
 6416SOL    HW220148   0.826   1.220   6.122
 6417SOL     OW20149   6.752   4.833   2.373
 6417SOL    HW120150   6.786   4.782   2.294
 6417SOL    HW220151   6.704   4.915   2.342
 6418SOL     OW20152   4.697   4.759   1.936
 6418SOL    HW120153   4.767   4.691   1.954
 6418SOL    HW220154   4.609   4.714   1.919
 6419SOL     OW20155   2.564   4.500   2.589
 6419SOL    HW120156   2.531   4.481   2.682
 6419SOL    HW220157   2.500   4.462   2.523
 6420SOL     OW20158   2.986   3.917   5.470
 6420SOL    HW120159   2.996   3.825   5.433
 6420SOL    HW220160   2.940   3.976   5.403
 6421SOL     OW20161   5.610   0.879   2.451
 6421SOL    HW120162   5.540   0.935   2.495
 6421SOL    HW220163   5.665   0.833   2.521
 6422SOL     OW20164   0.239   0.457   3.808
 6422SOL    HW120165   0.232   0.379   3.746
 6422SOL    HW220166   0.325   0.451   3.860
 6423SOL     OW20167   5.010   4.818   2.607
 6423SOL    HW120168   4.998   4.847   2.702
 6423SOL    HW220169   4.928   4.842   2.555
 6424SOL     OW20170   6.628   5.892   5.665
 6424SOL    HW120171   6.556   5.916   5.730
 6424SOL    HW220172   6.586   5.855   5.581
 6425SOL     OW20173   6.129   5.882   3.313
 6425SOL    HW120174   6.096   5.859   3.221
 6425SOL    HW220175   6.114   5.804   3.374
 6426SOL     OW20176   0.610   4.848   3.033
 6426SOL    HW120177   0.549   4.768   3.039
 6426SOL    HW220178   0.695   4.828   3.081
 6427SOL     OW20179   2.662   2.993   5.591
 6427SOL    HW120180   2.713   2.930   5.532
 6427SOL    HW220181   2.580   3.025   5.543
 6428SOL     OW20182   6.565   3.003   0.105
 6428SOL    HW120183   6.477   2.965   0.136
 6428SOL    HW220184   6.557   3.028   0.008
 6429SOL     OW20185   1.127   1.858   5.937
 6429SOL    HW120186   1.082   1.874   5.849
 6429SOL    HW220187   1.169   1.767   5.937
 6430SOL     OW20188   5.633   1.033   2.035
 6430SOL    HW120189   5.715   1.041   1.978
 6430SOL    HW220190   5.552   1.049   1.978
 6431SOL     OW20191   5.160   6.440   3.288
 6431SOL    HW120192   5.157   6.386   3.372
 6431SOL    HW220193   5.194   6.532   3.308
 6432SOL     OW20194   4.008   3.589   6.728
 6432SOL    HW120195   4.054   3.573   6.641
 6432SOL    HW220196   3.910   3.603   6.711
 6433SOL     OW20197   3.532   4.325   0.623
 6433SOL    HW120198   3.447   4.314   0.674
 6433SOL    HW220199   3.512   4.331   0.525
 6434SOL     OW20200   1.850   3.699   0.106
 6434SOL    HW120201   1.932   3.749   0.080
 6434SOL    HW220202   1.817   3.646   0.028
 6435SOL     OW20203   4.255   6.446   0.123
 6435SOL    HW120204   4.288   6.432   0.216
 6435SOL    HW220205   4.333   6.458   0.061
 6436SOL     OW20206   2.031   3.040   3.651
 6436SOL    HW120207   1.957   3.091   3.608
 6436SOL    HW220208   2.108   3.031   3.587
 6437SOL     OW20209   2.717   1.202   1.207
 6437SOL    HW120210   2.777   1.180   1.284
 6437SOL    HW220211   2.656   1.278   1.234
 6438SOL     OW20212   0.377   4.374   6.073
 6438SOL    HW120213   0.455   4.410   6.022
 6438SOL    HW220214   0.405   4.351   6.166
 6439SOL     OW20215   5.997   1.182   1.624
 6439SOL    HW120216   6.079   1.125   1.628
 6439SOL    HW220217   5.917   1.126   1.646
 6440SOL     OW20218   2.320   1.826   0.399
 6440SOL    HW120219   2.364   1.879   0.471
 6440SOL    HW220220   2.328   1.729   0.420
 6441SOL     OW20221   1.302   6.649   2.662
 6441SOL    HW120222   1.390   6.683   2.696
 6441SOL    HW220223   1.312   6.619   2.567
 6442SOL     OW20224   2.938   0.983   4.022
 6442SOL    HW120225   2.912   0.945   4.111
 6442SOL    HW220226   2.891   1.070   4.008
 6443SOL     OW20227   4.230   2.582   6.144
 6443SOL    HW120228   4.162   2.531   6.092
 6443SOL    HW220229   4.241   2.673   6.105
 6444SOL     OW20230   6.861   2.381   3.607
 6444SOL    HW120231   6.818   2.470   3.620
 6444SOL    HW220232   6.926   2.364   3.681
 6445SOL     OW20233   5.175   3.077   5.893
 6445SOL    HW120234   5.188   3.176   5.892
 6445SOL    HW220235   5.084   3.056   5.930
 6446SOL     OW20236   1.277   0.754   5.752
 6446SOL    HW120237   1.291   0.820   5.827
 6446SOL    HW220238   1.189   0.708   5.766
 6447SOL     OW20239   0.532   5.340   2.803
 6447SOL    HW120240   0.588   5.260   2.781
 6447SOL    HW220241   0.591   5.412   2.841
 6448SOL     OW20242   5.129   5.334   2.918
 6448SOL    HW120243   5.141   5.320   2.820
 6448SOL    HW220244   5.101   5.429   2.935
 6449SOL     OW20245   3.205   4.837   0.322
 6449SOL    HW120246   3.125   4.877   0.277
 6449SOL    HW220247   3.194   4.841   0.421
 6450SOL     OW20248   0.103   3.874   1.542
 6450SOL    HW120249   0.155   3.865   1.626
 6450SOL    HW220250   0.106   3.968   1.510
 6451SOL     OW20251   2.415   6.868   5.120
 6451SOL    HW120252   2.452   6.821   5.200
 6451SOL    HW220253   2.324   6.832   5.098
 6452SOL     OW20254   3.449   6.646   4.650
 6452SOL    HW120255   3.384   6.695   4.592
 6452SOL    HW220256   3.464   6.554   4.613
 6453SOL     OW20257   1.233   6.408   0.650
 6453SOL    HW120258   1.166   6.481   0.662
 6453SOL    HW220259   1.240   6.383   0.554
 6454SOL     OW20260   2.638   1.768   3.349
 6454SOL    HW120261   2.693   1.720   3.419
 6454SOL    HW220262   2.561   1.813   3.393
 6455SOL     OW20263   0.243   2.153   3.960
 6455SOL    HW120264   0.322   2.149   4.021
 6455SOL    HW220265   0.167   2.103   4.000
 6456SOL     OW20266   1.761   0.908   3.052
 6456SOL    HW120267   1.804   0.998   3.063
 6456SOL    HW220268   1.818   0.838   3.094
 6457SOL     OW20269   4.814   1.820   0.515
 6457SOL    HW120270   4.854   1.729   0.515
 6457SOL    HW220271   4.866   1.880   0.576
 6458SOL     OW20272   0.984   0.006   3.266
 6458SOL    HW120273   0.980   0.024   3.365
 6458SOL    HW220274   1.038   0.078   3.222
 6459SOL     OW20275   5.504   5.161   0.445
 6459SOL    HW120276   5.446   5.242   0.453
 6459SOL    HW220277   5.546   5.141   0.534
 6460SOL     OW20278   4.923   5.418   5.849
 6460SOL    HW120279   4.827   5.438   5.827
 6460SOL    HW220280   4.948   5.329   5.811
 6461SOL     OW20281   2.731   4.638   5.373
 6461SOL    HW120282   2.633   4.638   5.355
 6461SOL    HW220283   2.780   4.610   5.291
 6462SOL     OW20284   2.323   2.779   4.883
 6462SOL    HW120285   2.341   2.862   4.934
 6462SOL    HW220286   2.363   2.701   4.931
 6463SOL     OW20287   0.341   3.931   0.102
 6463SOL    HW120288   0.401   3.855   0.128
 6463SOL    HW220289   0.253   3.920   0.149
 6464SOL     OW20290   1.235   5.031   4.867
 6464SOL    HW120291   1.157   5.049   4.927
 6464SOL    HW220292   1.305   4.981   4.917
 6465SOL     OW20293   6.696   2.560   3.315
 6465SOL    HW120294   6.777   2.520   3.358
 6465SOL    HW220295   6.724   2.623   3.242
 6466SOL     OW20296   0.878   1.402   6.652
 6466SOL    HW120297   0.976   1.405   6.631
 6466SOL    HW220298   0.826   1.391   6.568
 6467SOL     OW20299   3.155   0.833   0.152
 6467SOL    HW120300   3.115   0.786   0.230
 6467SOL    HW220301   3.194   0.766   0.089
 6468SOL     OW20302   4.269   6.876   1.521
 6468SOL    HW120303   4.363   6.881   1.556
 6468SOL    HW220304   4.227   6.789   1.549
 6469SOL     OW20305   4.176   0.568   5.443
 6469SOL    HW120306   4.214   0.647   5.490
 6469SOL    HW220307   4.080   0.555   5.470
 6470SOL     OW20308   6.239   4.927   6.471
 6470SOL    HW120309   6.271   5.010   6.515
 6470SOL    HW220310   6.315   4.885   6.420
 6471SOL     OW20311   6.374   6.074   5.710
 6471SOL    HW120312   6.277   6.085   5.734
 6471SOL    HW220313   6.382   6.010   5.634
 6472SOL     OW20314   0.446   4.639   1.314
 6472SOL    HW120315   0.410   4.730   1.292
 6472SOL    HW220316   0.537   4.630   1.273
 6473SOL     OW20317   2.625   1.424   4.142
 6473SOL    HW120318   2.621   1.397   4.046
 6473SOL    HW220319   2.533   1.443   4.175
 6474SOL     OW20320   1.936   3.656   5.954
 6474SOL    HW120321   1.929   3.754   5.937
 6474SOL    HW220322   1.867   3.607   5.900
 6475SOL     OW20323   0.043   5.274   4.442
 6475SOL    HW120324   0.091   5.210   4.382
 6475SOL    HW220325   0.045   5.366   4.402
 6476SOL     OW20326   4.591   3.417   1.095
 6476SOL    HW120327   4.507   3.368   1.122
 6476SOL    HW220328   4.627   3.466   1.174
 6477SOL     OW20329   6.490   5.022   1.193
 6477SOL    HW120330   6.460   5.098   1.250
 6477SOL    HW220331   6.527   4.949   1.250
 6478SOL     OW20332   3.641   6.353   2.450
 6478SOL    HW120333   3.700   6.375   2.373
 6478SOL    HW220334   3.620   6.436   2.501
 6479SOL     OW20335   4.007   6.146   3.835
 6479SOL    HW120336   4.074   6.145   3.909
 6479SOL    HW220337   3.917   6.122   3.872
 6480SOL     OW20338   3.239   2.060   5.792
 6480SOL    HW120339   3.308   2.129   5.769
 6480SOL    HW220340   3.189   2.090   5.874
 6481SOL     OW20341   3.451   1.990   2.193
 6481SOL    HW120342   3.355   2.019   2.198
 6481SOL    HW220343   3.502   2.053   2.134
 6482SOL     OW20344   0.752   0.547   6.065
 6482SOL    HW120345   0.791   0.635   6.040
 6482SOL    HW220346   0.808   0.505   6.136
 6483SOL     OW20347   1.435   6.018   1.329
 6483SOL    HW120348   1.516   5.971   1.364
 6483SOL    HW220349   1.462   6.091   1.267
 6484SOL     OW20350   3.896   0.107   1.622
 6484SOL    HW120351   3.971   0.122   1.686
 6484SOL    HW220352   3.889   0.184   1.559
 6485SOL     OW20353   2.092   4.194   3.137
 6485SOL    HW120354   2.029   4.120   3.162
 6485SOL    HW220355   2.180   4.155   3.111
 6486SOL     OW20356   1.911   4.164   4.571
 6486SOL    HW120357   1.923   4.065   4.569
 6486SOL    HW220358   1.896   4.198   4.478
 6487SOL     OW20359   6.979   5.972   5.532
 6487SOL    HW120360   6.960   6.002   5.626
 6487SOL    HW220361   6.940   5.881   5.518
 6488SOL     OW20362   3.569   5.992   5.808
 6488SOL    HW120363   3.628   6.065   5.774
 6488SOL    HW220364   3.586   5.908   5.757
 6489SOL     OW20365   2.493   3.140   6.548
 6489SOL    HW120366   2.501   3.096   6.459
 6489SOL    HW220367   2.566   3.108   6.608
 6490SOL     OW20368   4.343   1.901   6.194
 6490SOL    HW120369   4.260   1.850   6.215
 6490SOL    HW220370   4.418   1.869   6.253
 6491SOL     OW20371   3.761   1.217   6.493
 6491SOL    HW120372   3.692   1.289   6.495
 6491SOL    HW220373   3.717   1.128   6.511
 6492SOL     OW20374   5.203   5.868   0.089
 6492SOL    HW120375   5.185   5.860   0.186
 6492SOL    HW220376   5.249   5.785   0.056
 6493SOL     OW20377   0.977   5.703   4.600
 6493SOL    HW120378   1.031   5.694   4.683
 6493SOL    HW220379   0.956   5.612   4.563
 6494SOL     OW20380   0.709   1.154   3.309
 6494SOL    HW120381   0.648   1.114   3.240
 6494SOL    HW220382   0.799   1.169   3.268
 6495SOL     OW20383   4.759   6.070   4.620
 6495SOL    HW120384   4.693   5.999   4.594
 6495SOL    HW220385   4.831   6.075   4.550
 6496SOL     OW20386   6.995   6.844   2.093
 6496SOL    HW120387   0.036   6.918   2.121
 6496SOL    HW220388   6.940   6.815   2.171
 6497SOL     OW20389   2.608   3.187   0.163
 6497SOL    HW120390   2.611   3.222   0.069
 6497SOL    HW220391   2.694   3.209   0.209
 6498SOL     OW20392   2.257   4.303   3.912
 6498SOL    HW120393   2.330   4.255   3.962
 6498SOL    HW220394   2.171   4.253   3.921
 6499SOL     OW20395   5.384   2.300   4.886
 6499SOL    HW120396   5.363   2.388   4.844
 6499SOL    HW220397   5.304   2.267   4.937
 6500SOL     OW20398   6.675   4.536   3.617
 6500SOL    HW120399   6.695   4.595   3.539
 6500SOL    HW220400   6.633   4.451   3.584
 6501SOL     OW20401   6.293   2.818   6.857
 6501SOL    HW120402   6.305   2.894   6.921
 6501SOL    HW220403   6.254   2.852   6.772
 6502SOL     OW20404   6.036   3.614   1.823
 6502SOL    HW120405   5.944   3.587   1.854
 6502SOL    HW220406   6.050   3.711   1.842
 6503SOL     OW20407   5.380   0.706   3.546
 6503SOL    HW120408   5.311   0.734   3.613
 6503SOL    HW220409   5.463   0.678   3.594
 6504SOL     OW20410   5.055   6.680   6.332
 6504SOL    HW120411   5.132   6.687   6.395
 6504SOL    HW220412   5.085   6.703   6.240
 6505SOL     OW20413   5.223   5.096   1.715
 6505SOL    HW120414   5.171   5.021   1.755
 6505SOL    HW220415   5.300   5.059   1.663
 6506SOL     OW20416   6.448   3.458   1.391
 6506SOL    HW120417   6.511   3.385   1.418
 6506SOL    HW220418   6.386   3.478   1.466
 6507SOL     OW20419   2.025   5.375   5.818
 6507SOL    HW120420   2.036   5.473   5.833
 6507SOL    HW220421   2.108   5.327   5.849
 6508SOL     OW20422   2.663   0.483   3.026
 6508SOL    HW120423   2.680   0.578   3.054
 6508SOL    HW220424   2.743   0.448   2.976
 6509SOL     OW20425   3.058   1.869   3.830
 6509SOL    HW120426   3.058   1.951   3.773
 6509SOL    HW220427   2.987   1.878   3.900
 6510SOL     OW20428   6.381   4.490   0.048
 6510SOL    HW120429   6.304   4.428   0.033
 6510SOL    HW220430   6.449   4.478   6.997
 6511SOL     OW20431   4.918   0.710   4.725
 6511SOL    HW120432   4.891   0.640   4.792
 6511SOL    HW220433   4.847   0.780   4.719
 6512SOL     OW20434   5.136   0.021   1.902
 6512SOL    HW120435   5.082   0.070   1.971
 6512SOL    HW220436   5.103   0.047   1.811
 6513SOL     OW20437   3.402   5.069   2.967
 6513SOL    HW120438   3.304   5.081   2.955
 6513SOL    HW220439   3.439   5.017   2.890
 6514SOL     OW20440   5.825   0.812   3.624
 6514SOL    HW120441   5.810   0.907   3.651
 6514SOL    HW220442   5.908   0.778   3.668
 6515SOL     OW20443   0.849   5.030   4.006
 6515SOL    HW120444   0.783   4.963   3.971
 6515SOL    HW220445   0.888   5.081   3.929
 6516SOL     OW20446   0.359   3.174   1.537
 6516SOL    HW120447   0.338   3.239   1.610
 6516SOL    HW220448   0.448   3.132   1.554
 6517SOL     OW20449   6.964   0.916   0.352
 6517SOL    HW120450   0.014   0.945   0.416
 6517SOL    HW220451   6.880   0.966   0.371
 6518SOL     OW20452   6.771   0.372   0.037
 6518SOL    HW120453   6.867   0.375   0.065
 6518SOL    HW220454   6.713   0.401   0.114
 6519SOL     OW20455   2.452   1.845   3.535
 6519SOL    HW120456   2.442   1.747   3.556
 6519SOL    HW220457   2.368   1.878   3.492
 6520SOL     OW20458   5.331   5.649   2.181
 6520SOL    HW120459   5.411   5.654   2.120
 6520SOL    HW220460   5.333   5.727   2.244
 6521SOL     OW20461   1.623   2.320   4.292
 6521SOL    HW120462   1.563   2.251   4.333
 6521SOL    HW220463   1.610   2.408   4.338
 6522SOL     OW20464   3.696   4.537   0.041
 6522SOL    HW120465   3.720   4.495   6.974
 6522SOL    HW220466   3.615   4.492   0.078
 6523SOL     OW20467   3.189   0.682   6.598
 6523SOL    HW120468   3.268   0.647   6.649
 6523SOL    HW220469   3.106   0.636   6.631
 6524SOL     OW20470   2.877   3.354   2.297
 6524SOL    HW120471   2.971   3.373   2.270
 6524SOL    HW220472   2.814   3.392   2.228
 6525SOL     OW20473   1.701   3.780   3.225
 6525SOL    HW120474   1.744   3.817   3.307
 6525SOL    HW220475   1.720   3.682   3.219
 6526SOL     OW20476   2.405   0.371   6.106
 6526SOL    HW120477   2.373   0.295   6.050
 6526SOL    HW220478   2.471   0.425   6.053
 6527SOL     OW20479   1.008   2.369   4.487
 6527SOL    HW120480   0.923   2.392   4.440
 6527SOL    HW220481   1.075   2.441   4.472
 6528SOL     OW20482   0.256   0.966   3.749
 6528SOL    HW120483   0.258   0.895   3.819
 6528SOL    HW220484   0.286   1.053   3.789
 6529SOL     OW20485   6.975   1.534   3.404
 6529SOL    HW120486   6.893   1.569   3.360
 6529SOL    HW220487   0.005   1.477   3.340
 6530SOL     OW20488   6.481   3.786   2.006
 6530SOL    HW120489   6.501   3.743   1.918
 6530SOL    HW220490   6.517   3.729   2.080
 6531SOL     OW20491   5.671   3.753   4.848
 6531SOL    HW120492   5.602   3.690   4.883
 6531SOL    HW220493   5.723   3.708   4.775
 6532SOL     OW20494   6.202   0.310   6.708
 6532SOL    HW120495   6.240   0.275   6.794
 6532SOL    HW220496   6.103   0.297   6.709
 6533SOL     OW20497   4.566   6.257   0.940
 6533SOL    HW120498   4.660   6.288   0.956
 6533SOL    HW220499   4.542   6.187   1.007
 6534SOL     OW20500   3.251   4.347   1.395
 6534SOL    HW120501   3.235   4.308   1.305
 6534SOL    HW220502   3.217   4.284   1.465
 6535SOL     OW20503   6.695   3.041   3.919
 6535SOL    HW120504   6.722   2.955   3.875
 6535SOL    HW220505   6.777   3.093   3.942
 6536SOL     OW20506   0.900   2.264   5.661
 6536SOL    HW120507   0.960   2.210   5.602
 6536SOL    HW220508   0.836   2.317   5.604
 6537SOL     OW20509   5.589   5.675   7.021
 6537SOL    HW120510   5.625   5.667   0.093
 6537SOL    HW220511   5.494   5.703   0.003
 6538SOL     OW20512   3.458   4.376   0.136
 6538SOL    HW120513   3.469   4.277   0.134
 6538SOL    HW220514   3.493   4.411   0.223
 6539SOL     OW20515   3.567   0.825   5.786
 6539SOL    HW120516   3.661   0.806   5.760
 6539SOL    HW220517   3.504   0.781   5.722
 6540SOL     OW20518   4.877   1.595   5.107
 6540SOL    HW120519   4.851   1.676   5.158
 6540SOL    HW220520   4.855   1.607   5.010
 6541SOL     OW20521   3.770   1.219   4.962
 6541SOL    HW120522   3.771   1.138   4.903
 6541SOL    HW220523   3.694   1.278   4.935
 6542SOL     OW20524   0.126   4.331   3.569
 6542SOL    HW120525   0.188   4.369   3.502
 6542SOL    HW220526   0.059   4.400   3.597
 6543SOL     OW20527   6.378   3.879   6.745
 6543SOL    HW120528   6.369   3.913   6.651
 6543SOL    HW220529   6.332   3.791   6.753
 6544SOL     OW20530   0.451   6.513   2.928
 6544SOL    HW120531   0.538   6.490   2.884
 6544SOL    HW220532   0.378   6.459   2.888
 6545SOL     OW20533   5.700   2.452   6.519
 6545SOL    HW120534   5.749   2.536   6.541
 6545SOL    HW220535   5.765   2.383   6.486
 6546SOL     OW20536   4.038   4.000   6.657
 6546SOL    HW120537   3.946   3.988   6.693
 6546SOL    HW220538   4.056   4.098   6.644
 6547SOL     OW20539   4.810   1.367   5.742
 6547SOL    HW120540   4.787   1.464   5.743
 6547SOL    HW220541   4.843   1.341   5.651
 6548SOL     OW20542   0.870   3.305   0.190
 6548SOL    HW120543   0.787   3.255   0.163
 6548SOL    HW220544   0.881   3.300   0.290
 6549SOL     OW20545   3.940   1.592   0.594
 6549SOL    HW120546   3.936   1.689   0.618
 6549SOL    HW220547   3.847   1.558   0.577
 6550SOL     OW20548   0.532   6.429   3.808
 6550SOL    HW120549   0.560   6.442   3.903
 6550SOL    HW220550   0.579   6.496   3.749
 6551SOL     OW20551   1.888   4.510   2.013
 6551SOL    HW120552   1.972   4.476   1.971
 6551SOL    HW220553   1.866   4.601   1.976
 6552SOL     OW20554   2.462   6.954   5.462
 6552SOL    HW120555   2.423   6.907   5.541
 6552SOL    HW220556   2.395   7.020   5.426
 6553SOL     OW20557   1.027   1.448   2.723
 6553SOL    HW120558   1.077   1.362   2.728
 6553SOL    HW220559   1.010   1.482   2.816
 6554SOL     OW20560   6.632   1.536   5.817
 6554SOL    HW120561   6.532   1.531   5.814
 6554SOL    HW220562   6.668   1.459   5.869
 6555SOL     OW20563   0.446   2.163   1.938
 6555SOL    HW120564   0.535   2.207   1.941
 6555SOL    HW220565   0.377   2.228   1.906
 6556SOL     OW20566   4.464   4.714   5.276
 6556SOL    HW120567   4.498   4.808   5.282
 6556SOL    HW220568   4.401   4.696   5.351
 6557SOL     OW20569   4.158   5.362   1.823
 6557SOL    HW120570   4.246   5.370   1.775
 6557SOL    HW220571   4.126   5.453   1.848
 6558SOL     OW20572   6.156   5.316   0.184
 6558SOL    HW120573   6.176   5.241   0.248
 6558SOL    HW220574   6.063   5.349   0.200
 6559SOL     OW20575   6.245   4.215   6.754
 6559SOL    HW120576   6.213   4.297   6.707
 6559SOL    HW220577   6.338   4.193   6.723
 6560SOL     OW20578   3.942   4.087   1.463
 6560SOL    HW120579   3.905   4.044   1.381
 6560SOL    HW220580   4.027   4.041   1.490
 6561SOL     OW20581   3.623   4.112   2.265
 6561SOL    HW120582   3.531   4.116   2.224
 6561SOL    HW220583   3.690   4.095   2.193
 6562SOL     OW20584   5.718   4.803   6.907
 6562SOL    HW120585   5.723   4.832   7.002
 6562SOL    HW220586   5.754   4.710   6.898
 6563SOL     OW20587   0.134   6.149   0.268
 6563SOL    HW120588   0.220   6.200   0.269
 6563SOL    HW220589   0.136   6.082   0.194
 6564SOL     OW20590   6.554   3.991   2.740
 6564SOL    HW120591   6.514   3.962   2.826
 6564SOL    HW220592   6.490   4.052   2.692
 6565SOL     OW20593   6.281   2.388   4.153
 6565SOL    HW120594   6.346   2.464   4.160
 6565SOL    HW220595   6.212   2.410   4.084
 6566SOL     OW20596   2.858   6.489   1.792
 6566SOL    HW120597   2.835   6.398   1.758
 6566SOL    HW220598   2.791   6.517   1.861
 6567SOL     OW20599   3.977   2.928   1.235
 6567SOL    HW120600   3.930   2.849   1.196
 6567SOL    HW220601   3.911   3.001   1.251
 6568SOL     OW20602   4.873   6.542   3.318
 6568SOL    HW120603   4.948   6.477   3.307
 6568SOL    HW220604   4.801   6.502   3.373
 6569SOL     OW20605   2.902   4.099   0.691
 6569SOL    HW120606   2.996   4.133   0.679
 6569SOL    HW220607   2.905   4.003   0.721
 6570SOL     OW20608   4.502   6.459   2.108
 6570SOL    HW120609   4.416   6.414   2.131
 6570SOL    HW220610   4.549   6.407   2.037
 6571SOL     OW20611   2.583   6.280   1.630
 6571SOL    HW120612   2.644   6.343   1.582
 6571SOL    HW220613   2.631   6.195   1.649
 6572SOL     OW20614   6.829   5.741   5.558
 6572SOL    HW120615   6.808   5.650   5.520
 6572SOL    HW220616   6.747   5.778   5.601
 6573SOL     OW20617   2.642   1.270   2.388
 6573SOL    HW120618   2.639   1.226   2.478
 6573SOL    HW220619   2.548   1.282   2.354
 6574SOL     OW20620   2.975   6.072   2.367
 6574SOL    HW120621   2.884   6.030   2.363
 6574SOL    HW220622   3.017   6.069   2.276
 6575SOL     OW20623   0.691   1.123   2.331
 6575SOL    HW120624   0.718   1.055   2.263
 6575SOL    HW220625   0.761   1.127   2.403
 6576SOL     OW20626   1.538   6.540   6.327
 6576SOL    HW120627   1.450   6.555   6.282
 6576SOL    HW220628   1.553   6.612   6.394
 6577SOL     OW20629   0.722   2.255   3.961
 6577SOL    HW120630   0.684   2.186   3.899
 6577SOL    HW220631   0.705   2.346   3.923
 6578SOL     OW20632   0.493   4.323   2.535
 6578SOL    HW120633   0.521   4.278   2.450
 6578SOL    HW220634   0.413   4.277   2.572
 6579SOL     OW20635   0.455   3.657   4.653
 6579SOL    HW120636   0.423   3.612   4.570
 6579SOL    HW220637   0.406   3.620   4.732
 6580SOL     OW20638   6.525   1.428   1.313
 6580SOL    HW120639   6.537   1.381   1.225
 6580SOL    HW220640   6.428   1.450   1.326
 6581SOL     OW20641   3.224   1.415   6.763
 6581SOL    HW120642   3.185   1.485   6.822
 6581SOL    HW220643   3.323   1.418   6.769
 6582SOL     OW20644   1.750   0.984   1.979
 6582SOL    HW120645   1.735   1.074   2.019
 6582SOL    HW220646   1.834   0.944   2.018
 6583SOL     OW20647   4.354   0.272   5.184
 6583SOL    HW120648   4.329   0.188   5.232
 6583SOL    HW220649   4.275   0.306   5.132
 6584SOL     OW20650   4.765   1.806   6.750
 6584SOL    HW120651   4.790   1.835   6.842
 6584SOL    HW220652   4.848   1.794   6.695
 6585SOL     OW20653   6.596   0.620   6.809
 6585SOL    HW120654   6.595   0.551   6.736
 6585SOL    HW220655   6.525   0.599   6.876
 6586SOL     OW20656   6.136   2.683   5.878
 6586SOL    HW120657   6.147   2.617   5.952
 6586SOL    HW220658   6.189   2.653   5.799
 6587SOL     OW20659   2.684   5.913   5.012
 6587SOL    HW120660   2.666   5.950   4.921
 6587SOL    HW220661   2.616   5.947   5.076
 6588SOL     OW20662   1.547   3.936   1.452
 6588SOL    HW120663   1.448   3.930   1.436
 6588SOL    HW220664   1.586   3.844   1.451
 6589SOL     OW20665   4.611   0.282   6.647
 6589SOL    HW120666   4.616   0.237   6.736
 6589SOL    HW220667   4.657   0.370   6.652
 6590SOL     OW20668   0.915   1.352   5.818
 6590SOL    HW120669   0.944   1.261   5.788
 6590SOL    HW220670   0.835   1.344   5.877
 6591SOL     OW20671   4.726   6.006   2.728
 6591SOL    HW120672   4.820   6.021   2.698
 6591SOL    HW220673   4.664   6.020   2.650
 6592SOL     OW20674   5.803   6.844   4.042
 6592SOL    HW120675   5.797   6.762   3.985
 6592SOL    HW220676   5.788   6.925   3.985
 6593SOL     OW20677   2.285   1.538   3.958
 6593SOL    HW120678   2.345   1.614   3.984
 6593SOL    HW220679   2.195   1.574   3.935
 6594SOL     OW20680   3.897   1.614   0.168
 6594SOL    HW120681   3.864   1.680   0.236
 6594SOL    HW220682   3.901   1.523   0.210
 6595SOL     OW20683   0.745   3.445   0.822
 6595SOL    HW120684   0.681   3.413   0.751
 6595SOL    HW220685   0.805   3.369   0.848
 6596SOL     OW20686   3.145   6.530   4.544
 6596SOL    HW120687   3.133   6.575   4.456
 6596SOL    HW220688   3.102   6.584   4.616
 6597SOL     OW20689   1.721   6.460   3.427
 6597SOL    HW120690   1.766   6.510   3.501
 6597SOL    HW220691   1.643   6.513   3.393
 6598SOL     OW20692   0.742   0.006   4.312
 6598SOL    HW120693   0.668   0.063   4.276
 6598SOL    HW220694   0.771   0.041   4.401
 6599SOL     OW20695   3.646   5.752   5.675
 6599SOL    HW120696   3.610   5.661   5.652
 6599SOL    HW220697   3.743   5.757   5.650
 6600SOL     OW20698   4.834   4.975   5.974
 6600SOL    HW120699   4.876   5.029   5.901
 6600SOL    HW220700   4.905   4.943   6.036
 6601SOL     OW20701   0.550   1.536   6.404
 6601SOL    HW120702   0.544   1.632   6.433
 6601SOL    HW220703   0.493   1.524   6.322
 6602SOL     OW20704   0.017   1.302   2.049
 6602SOL    HW120705   6.940   1.312   2.032
 6602SOL    HW220706   0.038   1.206   2.065
 6603SOL     OW20707   0.764   2.943   4.331
 6603SOL    HW120708   0.775   2.906   4.239
 6603SOL    HW220709   0.683   3.001   4.334
 6604SOL     OW20710   2.457   6.785   0.491
 6604SOL    HW120711   2.536   6.784   0.430
 6604SOL    HW220712   2.418   6.877   0.492
 6605SOL     OW20713   5.511   4.646   1.291
 6605SOL    HW120714   5.464   4.649   1.202
 6605SOL    HW220715   5.593   4.703   1.287
 6606SOL     OW20716   5.186   0.105   2.517
 6606SOL    HW120717   5.242   0.033   2.557
 6606SOL    HW220718   5.219   0.195   2.548
 6607SOL     OW20719   1.833   2.367   1.600
 6607SOL    HW120720   1.874   2.376   1.509
 6607SOL    HW220721   1.835   2.455   1.647
 6608SOL     OW20722   4.729   5.823   2.122
 6608SOL    HW120723   4.762   5.758   2.054
 6608SOL    HW220724   4.737   5.783   2.213
 6609SOL     OW20725   4.720   0.783   5.925
 6609SOL    HW120726   4.784   0.860   5.928
 6609SOL    HW220727   4.745   0.723   5.849
 6610SOL     OW20728   2.445   1.540   6.153
 6610SOL    HW120729   2.405   1.620   6.198
 6610SOL    HW220730   2.494   1.484   6.220
 6611SOL     OW20731   5.985   2.835   3.943
 6611SOL    HW120732   5.907   2.892   3.967
 6611SOL    HW220733   6.052   2.837   4.017
 6612SOL     OW20734   0.056   2.564   0.038
 6612SOL    HW120735   0.039   2.534   6.965
 6612SOL    HW220736   6.995   2.546   0.094
 6613SOL     OW20737   6.167   5.956   4.880
 6613SOL    HW120738   6.245   5.981   4.823
 6613SOL    HW220739   6.119   5.878   4.839
 6614SOL     OW20740   5.652   5.948   6.921
 6614SOL    HW120741   5.741   5.915   6.889
 6614SOL    HW220742   5.635   5.914   7.013
 6615SOL     OW20743   0.812   4.682   3.427
 6615SOL    HW120744   0.824   4.773   3.465
 6615SOL    HW220745   0.822   4.686   3.327
 6616SOL     OW20746   4.319   1.468   5.852
 6616SOL    HW120747   4.373   1.385   5.838
 6616SOL    HW220748   4.231   1.444   5.892
 6617SOL     OW20749   3.357   5.612   3.240
 6617SOL    HW120750   3.456   5.600   3.240
 6617SOL    HW220751   3.314   5.526   3.212
 6618SOL     OW20752   1.137   3.263   3.101
 6618SOL    HW120753   1.137   3.293   3.006
 6618SOL    HW220754   1.140   3.343   3.161
 6619SOL     OW20755   6.913   6.872   4.731
 6619SOL    HW120756   6.898   6.778   4.760
 6619SOL    HW220757   6.870   6.934   4.797
 6620SOL     OW20758   2.390   2.673   5.499
 6620SOL    HW120759   2.340   2.730   5.563
 6620SOL    HW220760   2.395   2.718   5.410
 6621SOL     OW20761   1.921   3.117   6.564
 6621SOL    HW120762   1.887   3.055   6.492
 6621SOL    HW220763   1.944   3.205   6.523
 6622SOL     OW20764   5.895   6.240   1.583
 6622SOL    HW120765   5.870   6.154   1.537
 6622SOL    HW220766   5.991   6.261   1.564
 6623SOL     OW20767   2.606   3.820   0.689
 6623SOL    HW120768   2.604   3.919   0.703
 6623SOL    HW220769   2.538   3.794   0.621
 6624SOL     OW20770   1.772   0.450   4.411
 6624SOL    HW120771   1.710   0.453   4.489
 6624SOL    HW220772   1.764   0.361   4.366
 6625SOL     OW20773   5.717   1.793   5.915
 6625SOL    HW120774   5.673   1.772   5.827
 6625SOL    HW220775   5.798   1.849   5.898
 6626SOL     OW20776   4.037   4.764   5.157
 6626SOL    HW120777   4.072   4.840   5.213
 6626SOL    HW220778   4.057   4.677   5.202
 6627SOL     OW20779   2.406   1.110   5.967
 6627SOL    HW120780   2.340   1.038   5.989
 6627SOL    HW220781   2.358   1.195   5.946
 6628SOL     OW20782   4.745   4.630   4.361
 6628SOL    HW120783   4.810   4.622   4.286
 6628SOL    HW220784   4.795   4.654   4.445
 6629SOL     OW20785   3.018   5.890   6.761
 6629SOL    HW120786   2.925   5.872   6.729
 6629SOL    HW220787   3.083   5.849   6.697
 6630SOL     OW20788   3.167   1.657   1.594
 6630SOL    HW120789   3.178   1.750   1.630
 6630SOL    HW220790   3.177   1.591   1.669
 6631SOL     OW20791   3.645   0.426   2.469
 6631SOL    HW120792   3.733   0.435   2.516
 6631SOL    HW220793   3.661   0.411   2.371
 6632SOL     OW20794   0.475   6.807   2.295
 6632SOL    HW120795   0.454   6.808   2.198
 6632SOL    HW220796   0.572   6.789   2.309
 6633SOL     OW20797   0.949   4.058   5.381
 6633SOL    HW120798   0.984   4.131   5.439
 6633SOL    HW220799   1.015   4.039   5.308
 6634SOL     OW20800   6.169   2.924   4.689
 6634SOL    HW120801   6.235   2.997   4.673
 6634SOL    HW220802   6.180   2.854   4.618
 6635SOL     OW20803   3.836   4.880   3.501
 6635SOL    HW120804   3.840   4.896   3.402
 6635SOL    HW220805   3.741   4.879   3.531
 6636SOL     OW20806   3.984   1.637   5.487
 6636SOL    HW120807   3.964   1.600   5.577
 6636SOL    HW220808   3.957   1.571   5.417
 6637SOL     OW20809   1.837   0.546   5.869
 6637SOL    HW120810   1.766   0.490   5.827
 6637SOL    HW220811   1.805   0.580   5.958
 6638SOL     OW20812   3.413   4.136   4.744
 6638SOL    HW120813   3.453   4.061   4.796
 6638SOL    HW220814   3.449   4.223   4.777
 6639SOL     OW20815   5.399   5.293   6.900
 6639SOL    HW120816   5.497   5.314   6.888
 6639SOL    HW220817   5.386   5.194   6.893
 6640SOL     OW20818   0.623   1.402   4.777
 6640SOL    HW120819   0.657   1.406   4.683
 6640SOL    HW220820   0.578   1.488   4.799
 6641SOL     OW20821   2.202   2.115   0.105
 6641SOL    HW120822   2.283   2.160   0.141
 6641SOL    HW220823   2.228   2.052   0.032
 6642SOL     OW20824   2.752   5.778   0.001
 6642SOL    HW120825   2.687   5.836   6.973
 6642SOL    HW220826   2.781   5.703   6.962
 6643SOL     OW20827   6.677   5.212   6.567
 6643SOL    HW120828   6.706   5.161   6.649
 6643SOL    HW220829   6.581   5.238   6.576
 6644SOL     OW20830   3.015   4.784   1.937
 6644SOL    HW120831   3.096   4.802   1.881
 6644SOL    HW220832   2.984   4.690   1.922
 6645SOL     OW20833   6.942   5.213   0.103
 6645SOL    HW120834   6.859   5.262   0.132
 6645SOL    HW220835   6.950   5.218   0.004
 6646SOL     OW20836   4.184   0.023   4.423
 6646SOL    HW120837   4.112   0.040   4.491
 6646SOL    HW220838   4.222   6.952   4.437
 6647SOL     OW20839   4.194   0.581   2.302
 6647SOL    HW120840   4.160   0.549   2.214
 6647SOL    HW220841   4.294   0.591   2.297
 6648SOL     OW20842   3.204   5.605   2.372
 6648SOL    HW120843   3.210   5.506   2.364
 6648SOL    HW220844   3.242   5.648   2.290
 6649SOL     OW20845   4.978   1.441   0.233
 6649SOL    HW120846   5.047   1.374   0.260
 6649SOL    HW220847   4.963   1.436   0.134
 6650SOL     OW20848   3.160   1.248   4.927
 6650SOL    HW120849   3.173   1.332   4.875
 6650SOL    HW220850   3.248   1.220   4.968
 6651SOL     OW20851   1.967   1.198   6.410
 6651SOL    HW120852   2.039   1.209   6.341
 6651SOL    HW220853   1.967   1.278   6.470
 6652SOL     OW20854   6.210   5.114   0.393
 6652SOL    HW120855   6.261   5.056   0.457
 6652SOL    HW220856   6.130   5.064   0.358
 6653SOL     OW20857   3.408   3.240   2.193
 6653SOL    HW120858   3.352   3.192   2.261
 6653SOL    HW220859   3.491   3.188   2.175
 6654SOL     OW20860   1.527   3.062   1.112
 6654SOL    HW120861   1.520   2.989   1.044
 6654SOL    HW220862   1.579   3.138   1.073
 6655SOL     OW20863   3.200   6.936   1.278
 6655SOL    HW120864   3.178   6.876   1.201
 6655SOL    HW220865   3.268   7.004   1.249
 6656SOL     OW20866   6.337   1.859   1.963
 6656SOL    HW120867   6.352   1.829   1.869
 6656SOL    HW220868   6.259   1.921   1.966
 6657SOL     OW20869   5.436   5.930   6.227
 6657SOL    HW120870   5.422   5.893   6.135
 6657SOL    HW220871   5.356   5.983   6.254
 6658SOL     OW20872   5.837   1.621   4.738
 6658SOL    HW120873   5.761   1.679   4.767
 6658SOL    HW220874   5.804   1.554   4.671
 6659SOL     OW20875   2.227   2.318   0.532
 6659SOL    HW120876   2.307   2.280   0.580
 6659SOL    HW220877   2.180   2.245   0.484
 6660SOL     OW20878   0.663   5.949   0.669
 6660SOL    HW120879   0.724   5.897   0.728
 6660SOL    HW220880   0.707   5.966   0.581
 6661SOL     OW20881   0.871   5.924   3.548
 6661SOL    HW120882   0.804   5.852   3.568
 6661SOL    HW220883   0.826   5.997   3.496
 6662SOL     OW20884   1.073   1.021   6.528
 6662SOL    HW120885   1.157   0.986   6.486
 6662SOL    HW220886   1.095   1.100   6.585
 6663SOL     OW20887   6.621   5.295   3.168
 6663SOL    HW120888   6.598   5.250   3.255
 6663SOL    HW220889   6.599   5.392   3.173
 6664SOL     OW20890   1.806   6.735   0.599
 6664SOL    HW120891   1.886   6.704   0.549
 6664SOL    HW220892   1.804   6.835   0.601
 6665SOL     OW20893   1.456   0.151   2.973
 6665SOL    HW120894   1.413   0.238   3.000
 6665SOL    HW220895   1.549   0.168   2.941
 6666SOL     OW20896   5.790   0.526   6.018
 6666SOL    HW120897   5.822   0.587   5.945
 6666SOL    HW220898   5.840   0.546   6.102
 6667SOL     OW20899   6.887   5.427   6.018
 6667SOL    HW120900   6.825   5.496   6.056
 6667SOL    HW220901   6.968   5.419   6.077
 6668SOL     OW20902   5.881   5.694   1.949
 6668SOL    HW120903   5.937   5.732   2.022
 6668SOL    HW220904   5.940   5.664   1.874
 6669SOL     OW20905   2.090   2.770   3.798
 6669SOL    HW120906   2.017   2.704   3.809
 6669SOL    HW220907   2.138   2.781   3.885
 6670SOL     OW20908   3.628   2.447   5.648
 6670SOL    HW120909   3.618   2.513   5.573
 6670SOL    HW220910   3.539   2.407   5.669
 6671SOL     OW20911   5.035   5.588   1.319
 6671SOL    HW120912   5.006   5.514   1.259
 6671SOL    HW220913   5.105   5.643   1.273
 6672SOL     OW20914   0.570   2.114   5.481
 6672SOL    HW120915   0.478   2.077   5.470
 6672SOL    HW220916   0.637   2.042   5.466
 6673SOL     OW20917   5.212   6.105   3.348
 6673SOL    HW120918   5.295   6.052   3.365
 6673SOL    HW220919   5.221   6.196   3.389
 6674SOL     OW20920   0.602   4.421   5.885
 6674SOL    HW120921   0.692   4.414   5.927
 6674SOL    HW220922   0.593   4.353   5.812
 6675SOL     OW20923   4.307   4.040   1.717
 6675SOL    HW120924   4.241   4.002   1.781
 6675SOL    HW220925   4.354   4.118   1.760
 6676SOL     OW20926   0.600   4.195   5.695
 6676SOL    HW120927   0.611   4.122   5.762
 6676SOL    HW220928   0.503   4.205   5.672
 6677SOL     OW20929   0.650   1.902   0.030
 6677SOL    HW120930   0.745   1.910   0.000
 6677SOL    HW220931   0.647   1.890   0.129
 6678SOL     OW20932   2.813   2.602   6.909
 6678SOL    HW120933   2.799   2.505   6.930
 6678SOL    HW220934   2.763   2.658   6.976
 6679SOL     OW20935   2.867   1.621   3.736
 6679SOL    HW120936   2.915   1.574   3.810
 6679SOL    HW220937   2.770   1.595   3.737
 6680SOL     OW20938   4.792   6.632   6.267
 6680SOL    HW120939   4.867   6.654   6.329
 6680SOL    HW220940   4.773   6.710   6.208
 6681SOL     OW20941   4.549   5.274   0.160
 6681SOL    HW120942   4.639   5.234   0.181
 6681SOL    HW220943   4.560   5.348   0.093
 6682SOL     OW20944   1.550   4.836   2.463
 6682SOL    HW120945   1.553   4.902   2.537
 6682SOL    HW220946   1.457   4.834   2.424
 6683SOL     OW20947   5.104   2.838   5.483
 6683SOL    HW120948   5.134   2.751   5.444
 6683SOL    HW220949   5.014   2.827   5.524
 6684SOL     OW20950   2.839   6.568   0.764
 6684SOL    HW120951   2.889   6.481   0.768
 6684SOL    HW220952   2.840   6.611   0.854
 6685SOL     OW20953   5.713   2.700   5.698
 6685SOL    HW120954   5.683   2.653   5.780
 6685SOL    HW220955   5.727   2.798   5.717
 6686SOL     OW20956   5.124   5.975   4.293
 6686SOL    HW120957   5.184   5.913   4.345
 6686SOL    HW220958   5.112   5.940   4.200
 6687SOL     OW20959   6.922   2.332   1.303
 6687SOL    HW120960   6.976   2.252   1.277
 6687SOL    HW220961   6.875   2.367   1.222
 6688SOL     OW20962   6.951   4.248   2.312
 6688SOL    HW120963   6.858   4.211   2.307
 6688SOL    HW220964   6.966   4.310   2.234
 6689SOL     OW20965   4.012   3.105   0.531
 6689SOL    HW120966   4.099   3.070   0.497
 6689SOL    HW220967   3.940   3.039   0.510
 6690SOL     OW20968   2.527   1.259   1.550
 6690SOL    HW120969   2.616   1.238   1.510
 6690SOL    HW220970   2.518   1.358   1.560
 6691SOL     OW20971   2.658   6.488   1.455
 6691SOL    HW120972   2.668   6.547   1.535
 6691SOL    HW220973   2.732   6.507   1.391
 6692SOL     OW20974   3.217   4.098   5.445
 6692SOL    HW120975   3.137   4.049   5.479
 6692SOL    HW220976   3.192   4.151   5.364
 6693SOL     OW20977   4.285   3.109   5.971
 6693SOL    HW120978   4.229   3.180   5.928
 6693SOL    HW220979   4.372   3.148   6.000
 6694SOL     OW20980   5.001   6.252   0.515
 6694SOL    HW120981   5.009   6.304   0.601
 6694SOL    HW220982   4.998   6.316   0.438
 6695SOL     OW20983   2.970   2.405   5.722
 6695SOL    HW120984   2.892   2.466   5.732
 6695SOL    HW220985   3.050   2.446   5.767
 6696SOL     OW20986   1.693   2.549   0.245
 6696SOL    HW120987   1.608   2.503   0.219
 6696SOL    HW220988   1.702   2.548   0.345
 6697SOL     OW20989   5.094   2.534   3.112
 6697SOL    HW120990   5.187   2.522   3.078
 6697SOL    HW220991   5.034   2.561   3.037
 6698SOL     OW20992   2.791   2.793   0.443
 6698SOL    HW120993   2.816   2.738   0.523
 6698SOL    HW220994   2.835   2.883   0.448
 6699SOL     OW20995   3.119   5.281   6.751
 6699SOL    HW120996   3.150   5.375   6.739
 6699SOL    HW220997   3.089   5.245   6.662
 6700SOL     OW20998   6.903   6.026   1.411
 6700SOL    HW120999   6.853   5.999   1.328
 6700SOL    HW221000   6.872   5.969   1.488
 6701SOL     OW21001   5.669   3.344   0.572
 6701SOL    HW121002   5.675   3.336   0.472
 6701SOL    HW221003   5.662   3.252   0.611
 6702SOL     OW21004   2.458   2.665   0.880
 6702SOL    HW121005   2.474   2.688   0.784
 6702SOL    HW221006   2.542   2.677   0.932
 6703SOL     OW21007   6.490   1.158   6.859
 6703SOL    HW121008   6.420   1.106   6.811
 6703SOL    HW221009   6.562   1.184   6.795
 6704SOL     OW21010   4.235   2.103   2.450
 6704SOL    HW121011   4.136   2.086   2.451
 6704SOL    HW221012   4.265   2.117   2.355
 6705SOL     OW21013   0.054   2.725   2.265
 6705SOL    HW121014   0.122   2.660   2.300
 6705SOL    HW221015   7.016   2.679   2.199
 6706SOL     OW21016   1.002   3.579   1.140
 6706SOL    HW121017   1.008   3.632   1.055
 6706SOL    HW221018   1.078   3.604   1.200
 6707SOL     OW21019   0.235   6.072   4.385
 6707SOL    HW121020   0.194   6.031   4.303
 6707SOL    HW221021   0.295   6.147   4.358
 6708SOL     OW21022   1.263   5.158   2.485
 6708SOL    HW121023   1.175   5.128   2.448
 6708SOL    HW221024   1.326   5.180   2.410
 6709SOL     OW21025   3.290   5.806   1.969
 6709SOL    HW121026   3.310   5.754   1.886
 6709SOL    HW221027   3.311   5.750   2.049
 6710SOL     OW21028   2.718   1.621   5.692
 6710SOL    HW121029   2.724   1.703   5.634
 6710SOL    HW221030   2.759   1.640   5.781
 6711SOL     OW21031   5.498   4.696   6.777
 6711SOL    HW121032   5.547   4.747   6.848
 6711SOL    HW221033   5.538   4.605   6.769
 6712SOL     OW21034   4.557   5.643   0.308
 6712SOL    HW121035   4.546   5.740   0.283
 6712SOL    HW221036   4.468   5.598   0.308
 6713SOL     OW21037   1.833   1.915   1.792
 6713SOL    HW121038   1.860   1.994   1.847
 6713SOL    HW221039   1.779   1.945   1.714
 6714SOL     OW21040   5.518   0.649   6.083
 6714SOL    HW121041   5.547   0.699   6.165
 6714SOL    HW221042   5.599   0.614   6.036
 6715SOL     OW21043   0.221   0.600   6.421
 6715SOL    HW121044   0.169   0.617   6.337
 6715SOL    HW221045   0.240   0.688   6.466
 6716SOL     OW21046   0.741   6.007   2.257
 6716SOL    HW121047   0.767   5.976   2.348
 6716SOL    HW221048   0.648   6.043   2.259
 6717SOL     OW21049   4.416   3.166   0.687
 6717SOL    HW121050   4.369   3.095   0.740
 6717SOL    HW221051   4.379   3.255   0.711
 6718SOL     OW21052   3.893   6.193   6.293
 6718SOL    HW121053   3.866   6.105   6.254
 6718SOL    HW221054   3.977   6.182   6.346
 6719SOL     OW21055   0.646   0.180   5.664
 6719SOL    HW121056   0.700   0.149   5.742
 6719SOL    HW221057   0.706   0.225   5.598
 6720SOL     OW21058   1.489   6.096   2.471
 6720SOL    HW121059   1.575   6.124   2.513
 6720SOL    HW221060   1.447   6.024   2.526
 6721SOL     OW21061   6.211   6.498   4.568
 6721SOL    HW121062   6.219   6.469   4.663
 6721SOL    HW221063   6.283   6.454   4.514
 6722SOL     OW21064   5.539   3.691   1.394
 6722SOL    HW121065   5.543   3.606   1.341
 6722SOL    HW221066   5.572   3.673   1.487
 6723SOL     OW21067   2.402   6.474   2.795
 6723SOL    HW121068   2.418   6.505   2.701
 6723SOL    HW221069   2.461   6.396   2.814
 6724SOL     OW21070   1.083   3.323   5.904
 6724SOL    HW121071   0.997   3.286   5.870
 6724SOL    HW221072   1.160   3.278   5.858
 6725SOL     OW21073   0.731   4.473   1.719
 6725SOL    HW121074   0.753   4.390   1.667
 6725SOL    HW221075   0.658   4.523   1.673
 6726SOL     OW21076   0.710   2.272   4.422
 6726SOL    HW121077   0.709   2.185   4.371
 6726SOL    HW221078   0.734   2.346   4.360
 6727SOL     OW21079   6.553   3.662   5.253
 6727SOL    HW121080   6.454   3.676   5.245
 6727SOL    HW221081   6.573   3.565   5.240
 6728SOL     OW21082   4.933   1.719   4.615
 6728SOL    HW121083   4.913   1.815   4.636
 6728SOL    HW221084   5.013   1.690   4.667
 6729SOL     OW21085   6.959   1.409   2.546
 6729SOL    HW121086   7.011   1.335   2.589
 6729SOL    HW221087   6.914   1.375   2.463
 6730SOL     OW21088   1.906   6.645   5.992
 6730SOL    HW121089   1.977   6.643   6.061
 6730SOL    HW221090   1.819   6.615   6.033
 6731SOL     OW21091   2.006   4.401   0.852
 6731SOL    HW121092   2.074   4.448   0.909
 6731SOL    HW221093   1.956   4.469   0.797
 6732SOL     OW21094   4.507   5.674   5.968
 6732SOL    HW121095   4.569   5.738   6.014
 6732SOL    HW221096   4.415   5.712   5.968
 6733SOL     OW21097   4.095   4.969   6.713
 6733SOL    HW121098   4.097   5.021   6.799
 6733SOL    HW221099   4.010   4.989   6.664
 6734SOL     OW21100   0.495   3.082   5.339
 6734SOL    HW121101   0.579   3.036   5.366
 6734SOL    HW221102   0.461   3.043   5.253
 6735SOL     OW21103   1.057   5.878   5.189
 6735SOL    HW121104   1.012   5.805   5.139
 6735SOL    HW221105   1.147   5.846   5.220
 6736SOL     OW21106   1.764   3.614   0.559
 6736SOL    HW121107   1.774   3.581   0.653
 6736SOL    HW221108   1.670   3.643   0.544
 6737SOL     OW21109   2.070   2.629   0.842
 6737SOL    HW121110   1.993   2.692   0.854
 6737SOL    HW221111   2.155   2.676   0.867
 6738SOL     OW21112   2.093   3.286   2.255
 6738SOL    HW121113   2.133   3.310   2.343
 6738SOL    HW221114   2.134   3.343   2.183
 6739SOL     OW21115   3.536   5.419   6.129
 6739SOL    HW121116   3.477   5.387   6.203
 6739SOL    HW221117   3.513   5.513   6.105
 6740SOL     OW21118   2.068   1.534   4.577
 6740SOL    HW121119   2.136   1.598   4.542
 6740SOL    HW221120   1.999   1.517   4.507
 6741SOL     OW21121   4.644   1.505   5.279
 6741SOL    HW121122   4.698   1.543   5.354
 6741SOL    HW221123   4.703   1.489   5.200
 6742SOL     OW21124   0.416   5.797   2.721
 6742SOL    HW121125   0.416   5.753   2.810
 6742SOL    HW221126   0.425   5.728   2.649
 6743SOL     OW21127   3.898   4.164   0.103
 6743SOL    HW121128   3.904   4.230   0.178
 6743SOL    HW221129   3.830   4.094   0.125
 6744SOL     OW21130   4.122   5.780   5.627
 6744SOL    HW121131   4.104   5.690   5.666
 6744SOL    HW221132   4.191   5.827   5.682
 6745SOL     OW21133   1.046   6.308   2.159
 6745SOL    HW121134   1.131   6.260   2.138
 6745SOL    HW221135   1.039   6.324   2.257
 6746SOL     OW21136   0.899   0.876   2.827
 6746SOL    HW121137   0.830   0.924   2.880
 6746SOL    HW221138   0.893   0.777   2.845
 6747SOL     OW21139   5.395   6.982   4.592
 6747SOL    HW121140   5.426   0.054   4.614
 6747SOL    HW221141   5.474   6.925   4.572
 6748SOL     OW21142   1.357   0.380   3.084
 6748SOL    HW121143   1.429   0.438   3.047
 6748SOL    HW221144   1.302   0.433   3.148
 6749SOL     OW21145   3.018   6.779   0.109
 6749SOL    HW121146   2.967   6.852   0.155
 6749SOL    HW221147   3.115   6.803   0.107
 6750SOL     OW21148   3.737   1.073   4.696
 6750SOL    HW121149   3.743   1.108   4.602
 6750SOL    HW221150   3.818   1.018   4.716
 6751SOL     OW21151   3.913   1.767   3.733
 6751SOL    HW121152   3.918   1.675   3.694
 6751SOL    HW221153   3.911   1.761   3.832
 6752SOL     OW21154   6.126   2.925   2.400
 6752SOL    HW121155   6.033   2.899   2.377
 6752SOL    HW221156   6.180   2.935   2.317
 6753SOL     OW21157   4.899   1.353   6.204
 6753SOL    HW121158   4.811   1.304   6.207
 6753SOL    HW221159   4.882   1.450   6.219
 6754SOL     OW21160   6.518   1.887   5.814
 6754SOL    HW121161   6.606   1.847   5.786
 6754SOL    HW221162   6.514   1.891   5.913
 6755SOL     OW21163   4.460   2.108   3.616
 6755SOL    HW121164   4.432   2.134   3.709
 6755SOL    HW221165   4.467   2.009   3.610
 6756SOL     OW21166   4.790   4.423   4.755
 6756SOL    HW121167   4.799   4.333   4.711
 6756SOL    HW221168   4.741   4.485   4.695
 6757SOL     OW21169   4.600   6.485   0.593
 6757SOL    HW121170   4.700   6.487   0.590
 6757SOL    HW221171   4.569   6.521   0.681
 6758SOL     OW21172   5.375   3.968   2.174
 6758SOL    HW121173   5.436   3.996   2.100
 6758SOL    HW221174   5.301   3.911   2.137
 6759SOL     OW21175   1.139   3.297   3.891
 6759SOL    HW121176   1.198   3.378   3.898
 6759SOL    HW221177   1.063   3.305   3.955
 6760SOL     OW21178   6.540   5.347   4.566
 6760SOL    HW121179   6.562   5.416   4.635
 6760SOL    HW221180   6.502   5.266   4.611
 6761SOL     OW21181   5.581   2.426   5.771
 6761SOL    HW121182   5.668   2.408   5.724
 6761SOL    HW221183   5.517   2.469   5.708
 6762SOL     OW21184   0.256   5.362   3.206
 6762SOL    HW121185   0.314   5.329   3.131
 6762SOL    HW221186   0.209   5.285   3.249
 6763SOL     OW21187   6.933   6.146   4.196
 6763SOL    HW121188   7.000   6.081   4.160
 6763SOL    HW221189   6.895   6.200   4.120
 6764SOL     OW21190   3.012   4.878   6.491
 6764SOL    HW121191   3.100   4.911   6.458
 6764SOL    HW221192   2.943   4.949   6.477
 6765SOL     OW21193   5.959   5.077   3.629
 6765SOL    HW121194   5.959   5.046   3.724
 6765SOL    HW221195   5.870   5.057   3.588
 6766SOL     OW21196   3.046   0.281   6.547
 6766SOL    HW121197   2.964   0.234   6.514
 6766SOL    HW221198   3.081   0.341   6.475
 6767SOL     OW21199   0.494   2.626   1.207
 6767SOL    HW121200   0.435   2.665   1.136
 6767SOL    HW221201   0.438   2.591   1.282
 6768SOL     OW21202   1.509   0.515   3.513
 6768SOL    HW121203   1.523   0.603   3.560
 6768SOL    HW221204   1.468   0.450   3.577
 6769SOL     OW21205   3.036   1.486   5.476
 6769SOL    HW121206   3.046   1.391   5.445
 6769SOL    HW221207   3.035   1.547   5.397
 6770SOL     OW21208   6.978   2.144   4.267
 6770SOL    HW121209   0.055   2.132   4.253
 6770SOL    HW221210   6.949   2.092   4.348
 6771SOL     OW21211   4.091   2.209   3.705
 6771SOL    HW121212   4.126   2.115   3.714
 6771SOL    HW221213   3.991   2.208   3.711
 6772SOL     OW21214   5.752   1.943   2.261
 6772SOL    HW121215   5.779   1.936   2.357
 6772SOL    HW221216   5.663   1.900   2.248
 6773SOL     OW21217   6.731   6.424   1.607
 6773SOL    HW121218   6.767   6.463   1.522
 6773SOL    HW221219   6.805   6.383   1.659
 6774SOL     OW21220   1.845   2.084   5.677
 6774SOL    HW121221   1.869   2.130   5.592
 6774SOL    HW221222   1.828   2.151   5.749
 6775SOL     OW21223   0.926   1.984   3.683
 6775SOL    HW121224   0.856   2.031   3.629
 6775SOL    HW221225   0.923   1.886   3.663
 6776SOL     OW21226   3.864   3.196   2.067
 6776SOL    HW121227   3.798   3.247   2.012
 6776SOL    HW221228   3.943   3.254   2.086
 6777SOL     OW21229   4.221   5.302   1.464
 6777SOL    HW121230   4.208   5.205   1.487
 6777SOL    HW221231   4.279   5.344   1.533
 6778SOL     OW21232   5.570   3.435   2.518
 6778SOL    HW121233   5.555   3.466   2.424
 6778SOL    HW221234   5.488   3.386   2.550
 6779SOL     OW21235   5.923   3.965   5.823
 6779SOL    HW121236   5.916   3.947   5.725
 6779SOL    HW221237   6.009   3.928   5.858
 6780SOL     OW21238   2.247   3.010   3.165
 6780SOL    HW121239   2.204   2.933   3.119
 6780SOL    HW221240   2.200   3.094   3.141
 6781SOL     OW21241   6.661   0.902   4.114
 6781SOL    HW121242   6.633   0.983   4.063
 6781SOL    HW221243   6.760   0.890   4.107
 6782SOL     OW21244   0.772   1.499   3.622
 6782SOL    HW121245   0.761   1.527   3.527
 6782SOL    HW221246   0.791   1.401   3.626
 6783SOL     OW21247   1.328   4.175   4.903
 6783SOL    HW121248   1.276   4.092   4.884
 6783SOL    HW221249   1.330   4.191   5.001
 6784SOL     OW21250   2.348   3.264   1.701
 6784SOL    HW121251   2.359   3.307   1.611
 6784SOL    HW221252   2.309   3.331   1.765
 6785SOL     OW21253   5.718   4.750   5.432
 6785SOL    HW121254   5.742   4.768   5.528
 6785SOL    HW221255   5.714   4.652   5.417
 6786SOL     OW21256   6.105   3.068   0.854
 6786SOL    HW121257   6.160   3.107   0.928
 6786SOL    HW221258   6.132   3.109   0.767
 6787SOL     OW21259   3.824   2.238   0.873
 6787SOL    HW121260   3.924   2.246   0.863
 6787SOL    HW221261   3.803   2.155   0.924
 6788SOL     OW21262   0.558   3.814   2.347
 6788SOL    HW121263   0.547   3.881   2.272
 6788SOL    HW221264   0.622   3.850   2.414
 6789SOL     OW21265   6.363   4.427   4.151
 6789SOL    HW121266   6.362   4.359   4.078
 6789SOL    HW221267   6.457   4.451   4.173
 6790SOL     OW21268   0.495   4.960   5.870
 6790SOL    HW121269   0.483   4.956   5.770
 6790SOL    HW221270   0.584   4.920   5.894
 6791SOL     OW21271   4.725   1.642   3.482
 6791SOL    HW121272   4.752   1.574   3.413
 6791SOL    HW221273   4.724   1.599   3.572
 6792SOL     OW21274   4.153   6.830   5.463
 6792SOL    HW121275   4.212   6.900   5.422
 6792SOL    HW221276   4.199   6.790   5.542
 6793SOL     OW21277   3.092   1.868   6.779
 6793SOL    HW121278   3.170   1.919   6.743
 6793SOL    HW221279   3.013   1.883   6.719
 6794SOL     OW21280   4.536   1.308   5.812
 6794SOL    HW121281   4.631   1.339   5.810
 6794SOL    HW221282   4.533   1.211   5.835
 6795SOL     OW21283   1.208   1.187   1.458
 6795SOL    HW121284   1.290   1.231   1.494
 6795SOL    HW221285   1.197   1.097   1.500
 6796SOL     OW21286   6.179   1.135   1.949
 6796SOL    HW121287   6.156   1.049   1.903
 6796SOL    HW221288   6.229   1.115   2.033
 6797SOL     OW21289   6.642   2.917   1.612
 6797SOL    HW121290   6.699   2.874   1.541
 6797SOL    HW221291   6.583   2.848   1.653
 6798SOL     OW21292   5.355   0.481   1.550
 6798SOL    HW121293   5.276   0.465   1.490
 6798SOL    HW221294   5.328   0.468   1.645
 6799SOL     OW21295   5.409   6.902   3.237
 6799SOL    HW121296   5.344   6.829   3.257
 6799SOL    HW221297   5.479   6.868   3.173
 6800SOL     OW21298   1.391   1.561   1.056
 6800SOL    HW121299   1.447   1.630   1.101
 6800SOL    HW221300   1.323   1.525   1.120
 6801SOL     OW21301   1.461   6.409   4.666
 6801SOL    HW121302   1.433   6.475   4.736
 6801SOL    HW221303   1.457   6.451   4.576
 6802SOL     OW21304   3.009   6.354   0.761
 6802SOL    HW121305   3.002   6.284   0.832
 6802SOL    HW221306   3.033   6.311   0.674
 6803SOL     OW21307   5.132   4.530   6.980
 6803SOL    HW121308   5.118   4.543   0.057
 6803SOL    HW221309   5.096   4.609   6.930
 6804SOL     OW21310   2.827   5.046   2.822
 6804SOL    HW121311   2.729   5.049   2.841
 6804SOL    HW221312   2.875   5.110   2.882
 6805SOL     OW21313   0.313   4.645   5.402
 6805SOL    HW121314   0.306   4.678   5.496
 6805SOL    HW221315   0.334   4.721   5.341
 6806SOL     OW21316   6.943   0.921   4.138
 6806SOL    HW121317   7.007   0.961   4.073
 6806SOL    HW221318   6.994   0.878   4.213
 6807SOL     OW21319   3.740   3.188   3.492
 6807SOL    HW121320   3.723   3.175   3.590
 6807SOL    HW221321   3.706   3.278   3.465
 6808SOL     OW21322   4.868   1.258   5.152
 6808SOL    HW121323   4.889   1.168   5.191
 6808SOL    HW221324   4.950   1.315   5.155
 6809SOL     OW21325   6.170   4.757   1.770
 6809SOL    HW121326   6.075   4.728   1.777
 6809SOL    HW221327   6.229   4.688   1.811
 6810SOL     OW21328   3.440   0.854   3.137
 6810SOL    HW121329   3.435   0.953   3.150
 6810SOL    HW221330   3.533   0.823   3.156
 6811SOL     OW21331   6.927   1.954   2.550
 6811SOL    HW121332   6.955   1.966   2.645
 6811SOL    HW221333   6.841   2.003   2.534
 6812SOL     OW21334   3.340   3.583   4.558
 6812SOL    HW121335   3.270   3.513   4.573
 6812SOL    HW221336   3.309   3.645   4.486
 6813SOL     OW21337   5.067   3.567   1.896
 6813SOL    HW121338   4.977   3.523   1.896
 6813SOL    HW221339   5.139   3.498   1.901
 6814SOL     OW21340   4.155   1.710   5.820
 6814SOL    HW121341   4.182   1.791   5.872
 6814SOL    HW221342   4.227   1.642   5.823
 6815SOL     OW21343   1.855   4.840   6.957
 6815SOL    HW121344   1.915   4.893   6.898
 6815SOL    HW221345   1.886   4.746   6.962
 6816SOL     OW21346   6.025   1.832   4.736
 6816SOL    HW121347   5.974   1.746   4.726
 6816SOL    HW221348   6.076   1.830   4.822
 6817SOL     OW21349   2.908   2.258   3.080
 6817SOL    HW121350   2.845   2.336   3.073
 6817SOL    HW221351   2.865   2.186   3.133
 6818SOL     OW21352   2.174   6.637   6.093
 6818SOL    HW121353   2.197   6.610   6.187
 6818SOL    HW221354   2.235   6.710   6.063
 6819SOL     OW21355   4.441   5.699   3.095
 6819SOL    HW121356   4.522   5.687   3.037
 6819SOL    HW221357   4.446   5.788   3.141
 6820SOL     OW21358   1.339   6.553   1.619
 6820SOL    HW121359   1.306   6.643   1.647
 6820SOL    HW221360   1.357   6.553   1.520
 6821SOL     OW21361   4.046   2.370   5.364
 6821SOL    HW121362   4.061   2.408   5.456
 6821SOL    HW221363   3.955   2.396   5.332
 6822SOL     OW21364   6.806   2.842   6.640
 6822SOL    HW121365   6.784   2.837   6.737
 6822SOL    HW221366   6.846   2.756   6.610
 6823SOL     OW21367   4.893   3.622   6.968
 6823SOL    HW121368   4.865   3.622   0.043
 6823SOL    HW221369   4.847   3.548   6.919
 6824SOL     OW21370   1.400   1.826   6.702
 6824SOL    HW121371   1.349   1.795   6.782
 6824SOL    HW221372   1.429   1.747   6.648
 6825SOL     OW21373   6.635   6.171   1.213
 6825SOL    HW121374   6.684   6.087   1.188
 6825SOL    HW221375   6.612   6.169   1.310
 6826SOL     OW21376   0.336   3.706   2.911
 6826SOL    HW121377   0.405   3.770   2.945
 6826SOL    HW221378   0.376   3.615   2.901
 6827SOL     OW21379   5.143   5.249   5.662
 6827SOL    HW121380   5.184   5.331   5.623
 6827SOL    HW221381   5.185   5.167   5.622
 6828SOL     OW21382   3.770   1.559   2.961
 6828SOL    HW121383   3.845   1.603   2.911
 6828SOL    HW221384   3.801   1.470   2.994
 6829SOL     OW21385   5.596   0.204   5.202
 6829SOL    HW121386   5.626   0.149   5.280
 6829SOL    HW221387   5.560   0.291   5.234
 6830SOL     OW21388   6.099   0.857   3.499
 6830SOL    HW121389   6.026   0.822   3.441
 6830SOL    HW221390   6.092   0.957   3.505
 6831SOL     OW21391   1.128   1.422   5.639
 6831SOL    HW121392   1.064   1.447   5.711
 6831SOL    HW221393   1.080   1.412   5.553
 6832SOL     OW21394   2.884   2.390   0.309
 6832SOL    HW121395   2.864   2.478   0.267
 6832SOL    HW221396   2.957   2.401   0.377
 6833SOL     OW21397   3.258   5.547   6.265
 6833SOL    HW121398   3.267   5.645   6.243
 6833SOL    HW221399   3.186   5.507   6.207
 6834SOL     OW21400   5.094   6.985   0.618
 6834SOL    HW121401   5.068   7.020   0.528
 6834SOL    HW221402   5.071   0.033   0.688
 6835SOL     OW21403   3.575   1.576   3.998
 6835SOL    HW121404   3.586   1.554   4.095
 6835SOL    HW221405   3.621   1.663   3.978
 6836SOL     OW21406   2.004   4.606   6.388
 6836SOL    HW121407   1.921   4.572   6.344
 6836SOL    HW221408   2.007   4.573   6.482
 6837SOL     OW21409   1.205   0.842   2.341
 6837SOL    HW121410   1.141   0.805   2.273
 6837SOL    HW221411   1.219   0.940   2.324
 6838SOL     OW21412   2.751   4.307   5.346
 6838SOL    HW121413   2.737   4.337   5.440
 6838SOL    HW221414   2.799   4.379   5.295
 6839SOL     OW21415   4.996   1.866   3.832
 6839SOL    HW121416   4.942   1.815   3.900
 6839SOL    HW221417   4.934   1.923   3.778
 6840SOL     OW21418   2.827   6.782   4.666
 6840SOL    HW121419   2.895   6.849   4.635
 6840SOL    HW221420   2.833   6.700   4.610
 6841SOL     OW21421   3.946   4.848   1.772
 6841SOL    HW121422   3.900   4.795   1.701
 6841SOL    HW221423   4.044   4.853   1.753
 6842SOL     OW21424   1.111   3.240   0.053
 6842SOL    HW121425   1.023   3.275   0.087
 6842SOL    HW221426   1.152   3.181   0.122
 6843SOL     OW21427   4.980   1.737   1.885
 6843SOL    HW121428   4.883   1.727   1.904
 6843SOL    HW221429   5.023   1.790   1.958
 6844SOL     OW21430   4.871   5.519   4.616
 6844SOL    HW121431   4.959   5.473   4.603
 6844SOL    HW221432   4.844   5.511   4.711
 6845SOL     OW21433   4.528   4.411   2.823
 6845SOL    HW121434   4.626   4.428   2.835
 6845SOL    HW221435   4.510   4.388   2.727
 6846SOL     OW21436   3.997   3.398   1.311
 6846SOL    HW121437   4.062   3.406   1.387
 6846SOL    HW221438   3.997   3.483   1.259
 6847SOL     OW21439   4.756   3.729   1.661
 6847SOL    HW121440   4.775   3.652   1.722
 6847SOL    HW221441   4.660   3.756   1.670
 6848SOL     OW21442   1.131   4.778   4.424
 6848SOL    HW121443   1.214   4.746   4.377
 6848SOL    HW221444   1.088   4.851   4.371
 6849SOL     OW21445   4.039   5.572   4.273
 6849SOL    HW121446   3.964   5.509   4.253
 6849SOL    HW221447   4.104   5.528   4.336
 6850SOL     OW21448   5.864   2.470   3.670
 6850SOL    HW121449   5.900   2.557   3.703
 6850SOL    HW221450   5.845   2.410   3.748
 6851SOL     OW21451   0.910   4.843   5.472
 6851SOL    HW121452   0.820   4.824   5.512
 6851SOL    HW221453   0.954   4.918   5.522
 6852SOL     OW21454   0.958   4.264   1.819
 6852SOL    HW121455   1.052   4.296   1.810
 6852SOL    HW221456   0.947   4.180   1.767
 6853SOL     OW21457   6.771   5.198   6.298
 6853SOL    HW121458   6.720   5.205   6.384
 6853SOL    HW221459   6.865   5.169   6.317
 6854SOL     OW21460   6.473   1.249   6.060
 6854SOL    HW121461   6.454   1.292   6.148
 6854SOL    HW221462   6.571   1.246   6.044
 6855SOL     OW21463   3.526   6.887   2.664
 6855SOL    HW121464   3.616   6.863   2.699
 6855SOL    HW221465   3.474   6.935   2.735
 6856SOL     OW21466   5.710   4.154   5.593
 6856SOL    HW121467   5.673   4.095   5.521
 6856SOL    HW221468   5.646   4.156   5.670
 6857SOL     OW21469   3.469   1.358   6.462
 6857SOL    HW121470   3.434   1.279   6.413
 6857SOL    HW221471   3.522   1.415   6.399
 6858SOL     OW21472   3.898   3.045   4.169
 6858SOL    HW121473   3.836   3.002   4.235
 6858SOL    HW221474   3.932   3.131   4.206
 6859SOL     OW21475   1.710   0.013   1.028
 6859SOL    HW121476   1.657   0.001   1.112
 6859SOL    HW221477   1.688   0.102   0.988
 6860SOL     OW21478   5.813   4.935   1.861
 6860SOL    HW121479   5.869   4.855   1.842
 6860SOL    HW221480   5.856   5.016   1.822
 6861SOL     OW21481   5.615   4.719   0.836
 6861SOL    HW121482   5.709   4.702   0.866
 6861SOL    HW221483   5.552   4.667   0.894
 6862SOL     OW21484   2.520   4.989   4.686
 6862SOL    HW121485   2.469   5.044   4.621
 6862SOL    HW221486   2.516   4.893   4.659
 6863SOL     OW21487   5.875   1.302   4.847
 6863SOL    HW121488   5.852   1.268   4.756
 6863SOL    HW221489   5.967   1.342   4.846
 6864SOL     OW21490   3.660   5.893   4.071
 6864SOL    HW121491   3.692   5.977   4.028
 6864SOL    HW221492   3.682   5.814   4.014
 6865SOL     OW21493   6.381   4.538   3.871
 6865SOL    HW121494   6.412   4.501   3.784
 6865SOL    HW221495   6.381   4.466   3.940
 6866SOL     OW21496   6.419   4.141   2.326
 6866SOL    HW121497   6.349   4.198   2.282
 6866SOL    HW221498   6.380   4.099   2.409
 6867SOL     OW21499   1.216   3.826   1.282
 6867SOL    HW121500   1.295   3.811   1.222
 6867SOL    HW221501   1.238   3.795   1.375
 6868SOL     OW21502   1.947   6.044   4.972
 6868SOL    HW121503   1.913   6.137   4.987
 6868SOL    HW221504   2.043   6.039   4.998
 6869SOL     OW21505   5.389   3.158   4.777
 6869SOL    HW121506   5.453   3.233   4.764
 6869SOL    HW221507   5.311   3.190   4.832
 6870SOL     OW21508   5.982   3.398   3.082
 6870SOL    HW121509   6.014   3.391   2.988
 6870SOL    HW221510   5.999   3.491   3.116
 6871SOL     OW21511   6.043   5.054   2.109
 6871SOL    HW121512   6.077   5.020   2.196
 6871SOL    HW221513   5.944   5.067   2.115
 6872SOL     OW21514   1.749   3.502   0.801
 6872SOL    HW121515   1.730   3.562   0.879
 6872SOL    HW221516   1.686   3.424   0.802
 6873SOL     OW21517   6.215   3.371   5.813
 6873SOL    HW121518   6.277   3.358   5.735
 6873SOL    HW221519   6.197   3.283   5.856
 6874SOL     OW21520   0.481   4.005   3.285
 6874SOL    HW121521   0.490   3.906   3.298
 6874SOL    HW221522   0.422   4.042   3.357
 6875SOL     OW21523   1.306   2.058   3.684
 6875SOL    HW121524   1.397   2.021   3.704
 6875SOL    HW221525   1.261   2.000   3.615
 6876SOL     OW21526   3.449   5.334   6.632
 6876SOL    HW121527   3.466   5.431   6.615
 6876SOL    HW221528   3.480   5.311   6.725
 6877SOL     OW21529   2.854   4.123   6.997
 6877SOL    HW121530   2.903   4.067   0.043
 6877SOL    HW221531   2.783   4.176   0.022
 6878SOL     OW21532   1.955   1.795   6.032
 6878SOL    HW121533   2.042   1.809   5.987
 6878SOL    HW221534   1.893   1.745   5.971
 6879SOL     OW21535   0.543   2.199   0.648
 6879SOL    HW121536   0.445   2.181   0.648
 6879SOL    HW221537   0.592   2.121   0.688
 6880SOL     OW21538   2.037   3.618   4.947
 6880SOL    HW121539   2.083   3.530   4.954
 6880SOL    HW221540   1.956   3.610   4.889
 6881SOL     OW21541   6.865   4.727   2.129
 6881SOL    HW121542   6.913   4.675   2.200
 6881SOL    HW221543   6.848   4.667   2.050
 6882SOL     OW21544   2.024   0.737   5.751
 6882SOL    HW121545   1.982   0.774   5.668
 6882SOL    HW221546   1.961   0.675   5.796
 6883SOL     OW21547   3.538   0.447   1.176
 6883SOL    HW121548   3.441   0.432   1.158
 6883SOL    HW221549   3.569   0.385   1.248
 6884SOL     OW21550   2.399   4.550   3.996
 6884SOL    HW121551   2.420   4.602   3.914
 6884SOL    HW221552   2.338   4.475   3.974
 6885SOL     OW21553   2.711   5.556   3.940
 6885SOL    HW121554   2.751   5.505   3.863
 6885SOL    HW221555   2.747   5.649   3.941
 6886SOL     OW21556   6.210   1.100   2.350
 6886SOL    HW121557   6.159   1.042   2.414
 6886SOL    HW221558   6.225   1.190   2.392
 6887SOL     OW21559   5.332   0.904   5.560
 6887SOL    HW121560   5.336   0.854   5.473
 6887SOL    HW221561   5.294   0.844   5.631
 6888SOL     OW21562   5.807   6.896   6.052
 6888SOL    HW121563   5.775   6.802   6.059
 6888SOL    HW221564   5.899   6.904   6.090
 6889SOL     OW21565   1.145   2.773   5.839
 6889SOL    HW121566   1.141   2.731   5.748
 6889SOL    HW221567   1.230   2.747   5.884
 6890SOL     OW21568   1.734   0.444   0.741
 6890SOL    HW121569   1.761   0.541   0.742
 6890SOL    HW221570   1.694   0.420   0.830
 6891SOL     OW21571   1.941   3.979   4.855
 6891SOL    HW121572   2.005   3.952   4.928
 6891SOL    HW221573   1.865   3.915   4.852
 6892SOL     OW21574   4.221   0.263   4.318
 6892SOL    HW121575   4.187   0.173   4.343
 6892SOL    HW221576   4.272   0.257   4.232
 6893SOL     OW21577   5.228   6.343   2.332
 6893SOL    HW121578   5.272   6.428   2.362
 6893SOL    HW221579   5.213   6.346   2.233
 6894SOL     OW21580   6.082   5.733   1.135
 6894SOL    HW121581   6.033   5.680   1.066
 6894SOL    HW221582   6.104   5.675   1.213
 6895SOL     OW21583   3.165   4.781   6.920
 6895SOL    HW121584   3.250   4.729   6.921
 6895SOL    HW221585   3.179   4.869   6.874
 6896SOL     OW21586   3.935   6.905   3.492
 6896SOL    HW121587   4.003   6.891   3.420
 6896SOL    HW221588   3.966   6.861   3.576
 6897SOL     OW21589   2.796   3.395   0.298
 6897SOL    HW121590   2.811   3.493   0.310
 6897SOL    HW221591   2.872   3.356   0.246
 6898SOL     OW21592   4.388   1.567   2.243
 6898SOL    HW121593   4.382   1.478   2.198
 6898SOL    HW221594   4.397   1.639   2.175
 6899SOL     OW21595   4.721   6.946   6.494
 6899SOL    HW121596   4.708   6.873   6.561
 6899SOL    HW221597   4.818   6.953   6.470
 6900SOL     OW21598   6.290   0.538   6.341
 6900SOL    HW121599   6.257   0.529   6.247
 6900SOL    HW221600   6.338   0.626   6.351
 6901SOL     OW21601   0.338   0.146   6.343
 6901SOL    HW121602   0.255   0.131   6.396
 6901SOL    HW221603   0.322   0.215   6.273
 6902SOL     OW21604   7.012   6.504   0.457
 6902SOL    HW121605   7.015   6.454   0.544
 6902SOL    HW221606   0.080   6.545   0.439
 6903SOL     OW21607   3.766   3.470   6.939
 6903SOL    HW121608   3.728   3.561   6.958
 6903SOL    HW221609   3.789   3.464   6.842
 6904SOL     OW21610   6.727   1.086   3.432
 6904SOL    HW121611   6.789   1.049   3.364
 6904SOL    HW221612   6.648   1.026   3.442
 6905SOL     OW21613   5.976   6.200   0.312
 6905SOL    HW121614   5.925   6.281   0.341
 6905SOL    HW221615   6.074   6.217   0.320
 6906SOL     OW21616   4.096   0.883   4.352
 6906SOL    HW121617   4.007   0.911   4.317
 6906SOL    HW221618   4.155   0.963   4.361
 6907SOL     OW21619   4.063   2.265   0.733
 6907SOL    HW121620   4.108   2.307   0.654
 6907SOL    HW221621   4.061   2.166   0.721
 6908SOL     OW21622   1.346   0.277   4.878
 6908SOL    HW121623   1.349   0.180   4.902
 6908SOL    HW221624   1.424   0.324   4.920
 6909SOL     OW21625   4.517   4.528   1.287
 6909SOL    HW121626   4.570   4.612   1.284
 6909SOL    HW221627   4.422   4.548   1.261
 6910SOL     OW21628   6.612   1.786   3.068
 6910SOL    HW121629   6.627   1.754   3.161
 6910SOL    HW221630   6.692   1.837   3.037
 6911SOL     OW21631   4.414   0.340   3.043
 6911SOL    HW121632   4.428   0.394   3.125
 6911SOL    HW221633   4.327   0.365   3.000
 6912SOL     OW21634   4.931   4.355   1.861
 6912SOL    HW121635   4.995   4.424   1.893
 6912SOL    HW221636   4.838   4.390   1.864
 6913SOL     OW21637   5.030   4.041   5.537
 6913SOL    HW121638   5.073   4.127   5.562
 6913SOL    HW221639   4.971   4.055   5.457
 6914SOL     OW21640   5.912   5.591   0.083
 6914SOL    HW121641   5.949   5.680   0.058
 6914SOL    HW221642   5.817   5.585   0.051
 6915SOL     OW21643   0.407   4.839   1.720
 6915SOL    HW121644   0.358   4.875   1.800
 6915SOL    HW221645   0.500   4.876   1.719
 6916SOL     OW21646   6.186   4.277   7.007
 6916SOL    HW121647   6.213   4.255   6.914
 6916SOL    HW221648   6.165   4.192   0.036
 6917SOL     OW21649   4.355   5.011   6.653
 6917SOL    HW121650   4.387   5.049   6.739
 6917SOL    HW221651   4.268   4.963   6.668
 6918SOL     OW21652   0.352   4.334   4.154
 6918SOL    HW121653   0.427   4.382   4.107
 6918SOL    HW221654   0.370   4.235   4.151
 6919SOL     OW21655   1.671   5.590   2.439
 6919SOL    HW121656   1.658   5.518   2.507
 6919SOL    HW221657   1.748   5.648   2.466
 6920SOL     OW21658   5.163   5.020   5.905
 6920SOL    HW121659   5.156   5.102   5.849
 6920SOL    HW221660   5.114   4.945   5.861
 6921SOL     OW21661   5.673   5.796   3.226
 6921SOL    HW121662   5.624   5.784   3.312
 6921SOL    HW221663   5.713   5.888   3.222
 6922SOL     OW21664   1.847   5.796   6.982
 6922SOL    HW121665   1.824   5.877   6.928
 6922SOL    HW221666   1.945   5.776   6.971
 6923SOL     OW21667   5.413   6.532   3.956
 6923SOL    HW121668   5.499   6.551   3.908
 6923SOL    HW221669   5.413   6.579   4.044
 6924SOL     OW21670   0.975   3.975   6.808
 6924SOL    HW121671   0.983   3.875   6.801
 6924SOL    HW221672   0.888   4.004   6.770
 6925SOL     OW21673   4.046   6.404   4.232
 6925SOL    HW121674   4.059   6.435   4.138
 6925SOL    HW221675   3.976   6.332   4.235
 6926SOL     OW21676   3.454   3.462   3.018
 6926SOL    HW121677   3.375   3.456   2.957
 6926SOL    HW221678   3.503   3.375   3.017
 6927SOL     OW21679   5.695   3.058   6.021
 6927SOL    HW121680   5.639   2.997   6.076
 6927SOL    HW221681   5.636   3.126   5.977
 6928SOL     OW21682   5.360   6.888   0.046
 6928SOL    HW121683   5.354   6.793   0.015
 6928SOL    HW221684   5.384   6.947   6.989
 6929SOL     OW21685   4.537   6.071   7.008
 6929SOL    HW121686   4.535   5.992   0.049
 6929SOL    HW221687   4.448   6.117   7.011
 6930SOL     OW21688   6.977   6.916   1.583
 6930SOL    HW121689   6.988   6.848   1.511
 6930SOL    HW221690   6.982   6.871   1.673
 6931SOL     OW21691   0.910   0.781   1.647
 6931SOL    HW121692   0.862   0.696   1.623
 6931SOL    HW221693   0.881   0.854   1.584
 6932SOL     OW21694   3.425   0.910   0.490
 6932SOL    HW121695   3.450   0.981   0.555
 6932SOL    HW221696   3.358   0.849   0.531
 6933SOL     OW21697   3.840   5.887   4.656
 6933SOL    HW121698   3.921   5.845   4.615
 6933SOL    HW221699   3.822   5.843   4.745
 6934SOL     OW21700   5.388   3.708   6.368
 6934SOL    HW121701   5.412   3.798   6.332
 6934SOL    HW221702   5.468   3.668   6.415
 6935SOL     OW21703   3.998   6.775   2.622
 6935SOL    HW121704   4.054   6.704   2.664
 6935SOL    HW221705   4.055   6.853   2.597
 6936SOL     OW21706   6.661   1.834   2.704
 6936SOL    HW121707   6.723   1.909   2.729
 6936SOL    HW221708   6.587   1.828   2.771
 6937SOL     OW21709   5.707   6.744   6.973
 6937SOL    HW121710   5.757   6.807   6.914
 6937SOL    HW221711   5.657   6.678   6.917
 6938SOL     OW21712   5.143   3.693   5.306
 6938SOL    HW121713   5.082   3.643   5.367
 6938SOL    HW221714   5.237   3.685   5.340
 6939SOL     OW21715   6.829   5.147   3.064
 6939SOL    HW121716   6.832   5.061   3.115
 6939SOL    HW221717   6.747   5.198   3.090
 6940SOL     OW21718   4.641   1.635   0.915
 6940SOL    HW121719   4.682   1.605   1.001
 6940SOL    HW221720   4.711   1.677   0.857
 6941SOL     OW21721   4.058   3.095   2.862
 6941SOL    HW121722   4.098   3.102   2.770
 6941SOL    HW221723   3.987   3.025   2.862
 6942SOL     OW21724   0.670   2.942   1.302
 6942SOL    HW121725   0.641   2.865   1.245
 6942SOL    HW221726   0.703   3.016   1.244
 6943SOL     OW21727   5.149   6.551   6.755
 6943SOL    HW121728   5.057   6.565   6.718
 6943SOL    HW221729   5.169   6.453   6.759
 6944SOL     OW21730   1.354   4.612   5.360
 6944SOL    HW121731   1.294   4.534   5.379
 6944SOL    HW221732   1.414   4.627   5.438
 6945SOL     OW21733   5.920   3.061   0.235
 6945SOL    HW121734   5.886   3.116   0.158
 6945SOL    HW221735   6.010   3.094   0.262
 6946SOL     OW21736   6.147   5.325   2.444
 6946SOL    HW121737   6.243   5.351   2.435
 6946SOL    HW221738   6.102   5.333   2.355
 6947SOL     OW21739   4.245   6.807   5.107
 6947SOL    HW121740   4.316   6.825   5.039
 6947SOL    HW221741   4.286   6.762   5.186
 6948SOL     OW21742   5.596   0.633   0.540
 6948SOL    HW121743   5.523   0.592   0.485
 6948SOL    HW221744   5.662   0.563   0.567
 6949SOL     OW21745   5.252   6.517   3.731
 6949SOL    HW121746   5.181   6.446   3.735
 6949SOL    HW221747   5.304   6.516   3.816
 6950SOL     OW21748   2.328   0.083   3.407
 6950SOL    HW121749   2.391   0.007   3.424
 6950SOL    HW221750   2.303   0.126   3.494
 6951SOL     OW21751   6.285   6.313   6.086
 6951SOL    HW121752   6.327   6.372   6.016
 6951SOL    HW221753   6.358   6.270   6.140
 6952SOL     OW21754   0.048   5.134   3.558
 6952SOL    HW121755   0.092   5.046   3.579
 6952SOL    HW221756   6.983   5.141   3.608
 6953SOL     OW21757   5.348   0.313   5.936
 6953SOL    HW121758   5.282   0.242   5.911
 6953SOL    HW221759   5.395   0.287   6.021
 6954SOL     OW21760   1.149   4.124   3.900
 6954SOL    HW121761   1.120   4.078   3.817
 6954SOL    HW221762   1.106   4.215   3.904
 6955SOL     OW21763   0.151   0.296   1.510
 6955SOL    HW121764   0.058   0.261   1.505
 6955SOL    HW221765   0.151   0.393   1.484
 6956SOL     OW21766   4.249   6.296   2.767
 6956SOL    HW121767   4.210   6.223   2.710
 6956SOL    HW221768   4.281   6.257   2.853
 6957SOL     OW21769   7.008   4.488   1.217
 6957SOL    HW121770   0.014   4.575   1.177
 6957SOL    HW221771   0.043   4.415   1.179
 6958SOL     OW21772   2.790   3.612   5.784
 6958SOL    HW121773   2.839   3.562   5.856
 6958SOL    HW221774   2.836   3.698   5.766
 6959SOL     OW21775   1.712   1.195   4.789
 6959SOL    HW121776   1.740   1.265   4.856
 6959SOL    HW221777   1.730   1.104   4.826
 6960SOL     OW21778   0.716   4.971   0.186
 6960SOL    HW121779   0.813   4.972   0.163
 6960SOL    HW221780   0.663   4.996   0.105
 6961SOL     OW21781   0.459   2.813   4.504
 6961SOL    HW121782   0.539   2.824   4.563
 6961SOL    HW221783   0.463   2.724   4.459
 6962SOL     OW21784   5.490   5.309   2.743
 6962SOL    HW121785   5.462   5.265   2.829
 6962SOL    HW221786   5.589   5.322   2.744
 6963SOL     OW21787   0.393   5.789   0.648
 6963SOL    HW121788   0.492   5.803   0.646
 6963SOL    HW221789   0.356   5.826   0.733
 6964SOL     OW21790   4.888   4.784   5.088
 6964SOL    HW121791   4.894   4.743   5.179
 6964SOL    HW221792   4.812   4.849   5.085
 6965SOL     OW21793   0.329   3.632   6.114
 6965SOL    HW121794   0.428   3.639   6.126
 6965SOL    HW221795   0.304   3.536   6.102
 6966SOL     OW21796   5.816   2.615   2.900
 6966SOL    HW121797   5.767   2.598   2.986
 6966SOL    HW221798   5.804   2.537   2.839
 6967SOL     OW21799   1.462   1.745   5.019
 6967SOL    HW121800   1.467   1.825   4.959
 6967SOL    HW221801   1.499   1.665   4.971
 6968SOL     OW21802   3.407   6.233   2.403
 6968SOL    HW121803   3.503   6.255   2.423
 6968SOL    HW221804   3.371   6.299   2.337
 6969SOL     OW21805   4.031   1.926   2.103
 6969SOL    HW121806   3.977   1.914   2.186
 6969SOL    HW221807   3.976   1.970   2.032
 6970SOL     OW21808   4.175   4.329   0.496
 6970SOL    HW121809   4.246   4.267   0.462
 6970SOL    HW221810   4.094   4.276   0.520
 6971SOL     OW21811   6.364   3.726   2.421
 6971SOL    HW121812   6.324   3.807   2.379
 6971SOL    HW221813   6.307   3.646   2.403
 6972SOL     OW21814   6.099   4.880   4.617
 6972SOL    HW121815   6.189   4.846   4.644
 6972SOL    HW221816   6.109   4.972   4.578
 6973SOL     OW21817   1.239   3.916   4.727
 6973SOL    HW121818   1.253   3.943   4.631
 6973SOL    HW221819   1.142   3.907   4.746
 6974SOL     OW21820   3.490   2.943   3.386
 6974SOL    HW121821   3.565   3.007   3.403
 6974SOL    HW221822   3.409   2.972   3.437
 6975SOL     OW21823   2.970   6.449   5.976
 6975SOL    HW121824   2.951   6.519   5.907
 6975SOL    HW221825   3.053   6.398   5.951
 6976SOL     OW21826   4.099   3.625   5.661
 6976SOL    HW121827   4.023   3.634   5.725
 6976SOL    HW221828   4.085   3.545   5.603
 6977SOL     OW21829   5.625   2.244   1.252
 6977SOL    HW121830   5.561   2.320   1.264
 6977SOL    HW221831   5.573   2.159   1.242
 6978SOL     OW21832   6.012   1.667   1.422
 6978SOL    HW121833   5.984   1.571   1.424
 6978SOL    HW221834   5.935   1.724   1.393
 6979SOL     OW21835   1.741   4.449   1.358
 6979SOL    HW121836   1.689   4.364   1.369
 6979SOL    HW221837   1.681   4.527   1.374
 6980SOL     OW21838   1.658   0.587   3.921
 6980SOL    HW121839   1.581   0.524   3.926
 6980SOL    HW221840   1.646   0.661   3.987
 6981SOL     OW21841   2.608   3.180   6.889
 6981SOL    HW121842   2.694   3.173   6.838
 6981SOL    HW221843   2.558   3.262   6.859
 6982SOL     OW21844   1.443   1.652   3.766
 6982SOL    HW121845   1.528   1.681   3.812
 6982SOL    HW221846   1.367   1.657   3.831
 6983SOL     OW21847   6.142   2.289   3.278
 6983SOL    HW121848   6.184   2.375   3.305
 6983SOL    HW221849   6.205   2.214   3.297
 6984SOL     OW21850   2.792   1.672   5.055
 6984SOL    HW121851   2.765   1.760   5.017
 6984SOL    HW221852   2.722   1.603   5.034
 6985SOL     OW21853   3.562   5.216   2.631
 6985SOL    HW121854   3.584   5.198   2.535
 6985SOL    HW221855   3.502   5.143   2.665
 6986SOL     OW21856   1.892   6.248   5.988
 6986SOL    HW121857   1.990   6.265   5.999
 6986SOL    HW221858   1.853   6.217   6.075
 6987SOL     OW21859   0.844   2.095   6.607
 6987SOL    HW121860   0.807   2.188   6.609
 6987SOL    HW221861   0.887   2.078   6.519
 6988SOL     OW21862   6.021   1.066   4.970
 6988SOL    HW121863   5.996   1.157   4.938
 6988SOL    HW221864   5.944   1.026   5.021
 6989SOL     OW21865   0.857   2.499   3.373
 6989SOL    HW121866   0.824   2.593   3.361
 6989SOL    HW221867   0.928   2.480   3.305
 6990SOL     OW21868   5.465   1.793   0.119
 6990SOL    HW121869   5.429   1.733   0.191
 6990SOL    HW221870   5.549   1.837   0.151
 6991SOL     OW21871   2.686   4.682   4.794
 6991SOL    HW121872   2.589   4.658   4.805
 6991SOL    HW221873   2.730   4.682   4.884
 6992SOL     OW21874   6.034   5.820   5.246
 6992SOL    HW121875   6.098   5.885   5.204
 6992SOL    HW221876   6.009   5.852   5.338
 6993SOL     OW21877   6.070   6.760   3.012
 6993SOL    HW121878   6.071   6.850   3.056
 6993SOL    HW221879   6.073   6.771   2.913
 6994SOL     OW21880   0.792   3.317   4.771
 6994SOL    HW121881   0.733   3.381   4.821
 6994SOL    HW221882   0.736   3.248   4.726
 6995SOL     OW21883   6.468   5.180   4.787
 6995SOL    HW121884   6.466   5.122   4.706
 6995SOL    HW221885   6.381   5.230   4.794
 6996SOL     OW21886   2.366   1.172   4.795
 6996SOL    HW121887   2.426   1.252   4.798
 6996SOL    HW221888   2.328   1.162   4.703
 6997SOL     OW21889   5.155   6.105   5.517
 6997SOL    HW121890   5.114   6.184   5.562
 6997SOL    HW221891   5.253   6.100   5.540
 6998SOL     OW21892   1.823   2.655   1.650
 6998SOL    HW121893   1.922   2.660   1.653
 6998SOL    HW221894   1.788   2.710   1.574
 6999SOL     OW21895   2.360   2.031   6.784
 6999SOL    HW121896   2.347   2.127   6.807
 6999SOL    HW221897   2.302   1.974   6.842
 7000SOL     OW21898   6.819   6.318   2.682
 7000SOL    HW121899   6.858   6.251   2.746
 7000SOL    HW221900   6.726   6.342   2.710
 7001SOL     OW21901   2.441   3.068   5.465
 7001SOL    HW121902   2.357   3.119   5.485
 7001SOL    HW221903   2.453   3.061   5.366
 7002SOL     OW21904   2.534   4.677   2.954
 7002SOL    HW121905   2.517   4.582   2.927
 7002SOL    HW221906   2.619   4.681   3.006
 7003SOL     OW21907   3.780   6.785   0.138
 7003SOL    HW121908   3.741   6.830   0.219
 7003SOL    HW221909   3.874   6.816   0.125
 7004SOL     OW21910   2.049   5.073   1.677
 7004SOL    HW121911   2.031   4.974   1.674
 7004SOL    HW221912   1.963   5.123   1.668
 7005SOL     OW21913   0.782   6.682   5.547
 7005SOL    HW121914   0.814   6.657   5.638
 7005SOL    HW221915   0.707   6.748   5.555
 7006SOL     OW21916   5.608   4.800   4.554
 7006SOL    HW121917   5.615   4.720   4.612
 7006SOL    HW221918   5.683   4.863   4.573
 7007SOL     OW21919   5.229   6.469   2.987
 7007SOL    HW121920   5.278   6.556   2.983
 7007SOL    HW221921   5.186   6.459   3.076
 7008SOL     OW21922   2.321   5.456   4.380
 7008SOL    HW121923   2.392   5.440   4.449
 7008SOL    HW221924   2.354   5.523   4.313
 7009SOL     OW21925   5.716   5.326   2.471
 7009SOL    HW121926   5.745   5.237   2.506
 7009SOL    HW221927   5.628   5.317   2.426
 7010SOL     OW21928   4.500   3.890   6.354
 7010SOL    HW121929   4.561   3.811   6.347
 7010SOL    HW221930   4.430   3.885   6.284
 7011SOL     OW21931   1.551   0.685   5.886
 7011SOL    HW121932   1.643   0.724   5.895
 7011SOL    HW221933   1.495   0.714   5.963
 7012SOL     OW21934   1.994   0.960   2.142
 7012SOL    HW121935   1.942   0.979   2.225
 7012SOL    HW221936   2.008   1.046   2.091
 7013SOL     OW21937   0.137   6.884   0.822
 7013SOL    HW121938   0.112   6.889   0.725
 7013SOL    HW221939   0.177   6.795   0.841
 7014SOL     OW21940   4.461   3.755   1.075
 7014SOL    HW121941   4.510   3.697   1.010
 7014SOL    HW221942   4.452   3.707   1.162
 7015SOL     OW21943   5.404   4.627   2.041
 7015SOL    HW121944   5.312   4.635   2.081
 7015SOL    HW221945   5.401   4.655   1.945
 7016SOL     OW21946   3.418   4.917   2.190
 7016SOL    HW121947   3.457   4.847   2.130
 7016SOL    HW221948   3.326   4.940   2.159
 7017SOL     OW21949   2.323   0.361   2.109
 7017SOL    HW121950   2.316   0.424   2.187
 7017SOL    HW221951   2.257   0.286   2.121
 7018SOL     OW21952   6.483   4.324   4.590
 7018SOL    HW121953   6.446   4.415   4.572
 7018SOL    HW221954   6.571   4.333   4.637
 7019SOL     OW21955   3.122   4.624   6.330
 7019SOL    HW121956   3.074   4.687   6.390
 7019SOL    HW221957   3.131   4.535   6.376
 7020SOL     OW21958   6.210   6.498   6.491
 7020SOL    HW121959   6.284   6.563   6.475
 7020SOL    HW221960   6.206   6.475   6.588
 7021SOL     OW21961   2.163   0.665   5.324
 7021SOL    HW121962   2.232   0.725   5.284
 7021SOL    HW221963   2.185   0.649   5.421
 7022SOL     OW21964   4.423   4.404   0.807
 7022SOL    HW121965   4.468   4.456   0.735
 7022SOL    HW221966   4.437   4.306   0.793
 7023SOL     OW21967   0.438   2.287   3.576
 7023SOL    HW121968   0.447   2.362   3.510
 7023SOL    HW221969   0.498   2.305   3.654
 7024SOL     OW21970   1.188   5.393   6.103
 7024SOL    HW121971   1.288   5.399   6.100
 7024SOL    HW221972   1.154   5.438   6.185
 7025SOL     OW21973   3.079   1.601   0.351
 7025SOL    HW121974   3.080   1.604   0.251
 7025SOL    HW221975   2.985   1.601   0.384
 7026SOL     OW21976   3.033   1.507   2.135
 7026SOL    HW121977   2.999   1.420   2.171
 7026SOL    HW221978   3.132   1.513   2.150
 7027SOL     OW21979   2.875   5.424   2.464
 7027SOL    HW121980   2.811   5.364   2.513
 7027SOL    HW221981   2.916   5.489   2.528
 7028SOL     OW21982   6.023   6.209   4.797
 7028SOL    HW121983   6.082   6.130   4.816
 7028SOL    HW221984   5.940   6.178   4.750
 7029SOL     OW21985   3.763   0.118   0.023
 7029SOL    HW121986   3.794   0.180   0.095
 7029SOL    HW221987   3.718   0.039   0.065
 7030SOL     OW21988   6.819   2.537   6.046
 7030SOL    HW121989   6.893   2.602   6.031
 7030SOL    HW221990   6.802   2.527   6.144
 7031SOL     OW21991   2.071   5.898   3.776
 7031SOL    HW121992   2.127   5.817   3.794
 7031SOL    HW221993   2.100   5.973   3.836
 7032SOL     OW21994   3.193   6.544   3.751
 7032SOL    HW121995   3.197   6.457   3.701
 7032SOL    HW221996   3.249   6.612   3.703
 7033SOL     OW21997   0.057   1.604   3.672
 7033SOL    HW121998   6.980   1.590   3.662
 7033SOL    HW221999   0.104   1.570   3.591
 7034SOL     OW22000   6.292   0.692   2.795
 7034SOL    HW122001   6.245   0.752   2.860
 7034SOL    HW222002   6.390   0.707   2.801
 7035SOL     OW22003   1.181   6.714   2.054
 7035SOL    HW122004   1.095   6.664   2.062
 7035SOL    HW222005   1.198   6.735   1.957
 7036SOL     OW22006   6.624   0.018   1.481
 7036SOL    HW122007   6.681   0.021   1.399
 7036SOL    HW222008   6.586   6.947   1.492
 7037SOL     OW22009   0.728   6.932   6.228
 7037SOL    HW122010   0.810   6.880   6.203
 7037SOL    HW222011   0.668   6.940   6.148
 7038SOL     OW22012   1.775   3.839   4.234
 7038SOL    HW122013   1.773   3.900   4.314
 7038SOL    HW222014   1.713   3.875   4.164
 7039SOL     OW22015   2.678   6.245   0.511
 7039SOL    HW122016   2.586   6.211   0.533
 7039SOL    HW222017   2.674   6.302   0.430
 7040SOL     OW22018   4.758   2.470   5.354
 7040SOL    HW122019   4.782   2.388   5.405
 7040SOL    HW222020   4.839   2.505   5.307
 7041SOL     OW22021   0.824   1.725   2.999
 7041SOL    HW122022   0.911   1.676   2.995
 7041SOL    HW222023   0.818   1.790   2.923
 7042SOL     OW22024   5.664   5.359   6.868
 7042SOL    HW122025   5.751   5.326   6.831
 7042SOL    HW222026   5.637   5.443   6.820
 7043SOL     OW22027   2.254   2.519   3.039
 7043SOL    HW122028   2.197   2.493   3.116
 7043SOL    HW222029   2.260   2.442   2.975
 7044SOL     OW22030   4.899   4.775   3.056
 7044SOL    HW122031   4.951   4.837   3.114
 7044SOL    HW222032   4.961   4.726   2.995
 7045SOL     OW22033   4.559   5.827   1.792
 7045SOL    HW122034   4.508   5.901   1.748
 7045SOL    HW222035   4.507   5.793   1.870
 7046SOL     OW22036   3.780   2.149   3.548
 7046SOL    HW122037   3.684   2.155   3.521
 7046SOL    HW222038   3.836   2.138   3.466
 7047SOL     OW22039   1.165   2.385   2.927
 7047SOL    HW122040   1.244   2.368   2.986
 7047SOL    HW222041   1.130   2.298   2.893
 7048SOL     OW22042   0.186   6.000   1.661
 7048SOL    HW122043   0.150   5.908   1.647
 7048SOL    HW222044   0.194   6.046   1.573
 7049SOL     OW22045   2.332   0.968   0.709
 7049SOL    HW122046   2.237   0.996   0.691
 7049SOL    HW222047   2.376   1.036   0.767
 7050SOL     OW22048   3.718   4.088   3.721
 7050SOL    HW122049   3.736   4.117   3.815
 7050SOL    HW222050   3.621   4.067   3.710
 7051SOL     OW22051   0.147   0.818   0.975
 7051SOL    HW122052   0.090   0.777   0.904
 7051SOL    HW222053   0.226   0.759   0.992
 7052SOL     OW22054   6.168   2.824   4.125
 7052SOL    HW122055   6.226   2.893   4.168
 7052SOL    HW222056   6.142   2.754   4.192
 7053SOL     OW22057   0.922   2.936   4.994
 7053SOL    HW122058   0.917   3.028   4.955
 7053SOL    HW222059   0.972   2.876   4.932
 7054SOL     OW22060   0.982   6.544   1.191
 7054SOL    HW122061   0.990   6.511   1.285
 7054SOL    HW222062   1.050   6.616   1.175
 7055SOL     OW22063   3.851   6.420   5.258
 7055SOL    HW122064   3.909   6.498   5.277
 7055SOL    HW222065   3.755   6.447   5.262
 7056SOL     OW22066   5.260   5.385   3.755
 7056SOL    HW122067   5.215   5.306   3.798
 7056SOL    HW222068   5.330   5.421   3.817
 7057SOL     OW22069   1.481   5.219   4.300
 7057SOL    HW122070   1.450   5.145   4.360
 7057SOL    HW222071   1.531   5.179   4.222
 7058SOL     OW22072   6.091   5.460   6.320
 7058SOL    HW122073   6.147   5.542   6.327
 7058SOL    HW222074   6.091   5.428   6.225
 7059SOL     OW22075   0.853   0.695   3.083
 7059SOL    HW122076   0.830   0.632   3.158
 7059SOL    HW222077   0.911   0.647   3.017
 7060SOL     OW22078   2.918   0.177   1.676
 7060SOL    HW122079   2.992   0.123   1.638
 7060SOL    HW222080   2.831   0.143   1.641
 7061SOL     OW22081   0.495   2.577   3.908
 7061SOL    HW122082   0.510   2.596   3.811
 7061SOL    HW222083   0.414   2.519   3.919
 7062SOL     OW22084   5.338   1.671   6.478
 7062SOL    HW122085   5.259   1.653   6.537
 7062SOL    HW222086   5.325   1.623   6.391
 7063SOL     OW22087   0.483   0.244   1.010
 7063SOL    HW122088   0.542   0.164   1.003
 7063SOL    HW222089   0.532   0.317   1.057
 7064SOL     OW22090   4.019   2.164   1.778
 7064SOL    HW122091   3.968   2.078   1.773
 7064SOL    HW222092   3.973   2.233   1.722
 7065SOL     OW22093   4.201   3.775   0.483
 7065SOL    HW122094   4.183   3.778   0.385
 7065SOL    HW222095   4.243   3.861   0.512
 7066SOL     OW22096   4.131   0.740   0.900
 7066SOL    HW122097   4.193   0.666   0.875
 7066SOL    HW222098   4.039   0.704   0.915
 7067SOL     OW22099   1.324   1.800   5.257
 7067SOL    HW122100   1.302   1.712   5.299
 7067SOL    HW222101   1.368   1.785   5.168
 7068SOL     OW22102   0.934   4.292   3.285
 7068SOL    HW122103   0.836   4.277   3.272
 7068SOL    HW222104   0.978   4.207   3.313
 7069SOL     OW22105   6.332   2.744   3.926
 7069SOL    HW122106   6.397   2.687   3.977
 7069SOL    HW222107   6.262   2.779   3.988
 7070SOL     OW22108   6.853   6.346   5.137
 7070SOL    HW122109   6.930   6.330   5.198
 7070SOL    HW222110   6.786   6.273   5.148
 7071SOL     OW22111   0.882   6.374   6.184
 7071SOL    HW122112   0.909   6.292   6.235
 7071SOL    HW222113   0.840   6.346   6.097
 7072SOL     OW22114   6.968   6.681   6.044
 7072SOL    HW122115   0.001   6.753   6.089
 7072SOL    HW222116   6.871   6.695   6.063
 7073SOL     OW22117   5.822   0.070   4.731
 7073SOL    HW122118   5.768   0.127   4.669
 7073SOL    HW222119   5.772   0.059   4.817
 7074SOL     OW22120   4.156   3.184   1.217
 7074SOL    HW122121   4.114   3.095   1.233
 7074SOL    HW222122   4.107   3.254   1.268
 7075SOL     OW22123   0.994   6.124   5.637
 7075SOL    HW122124   1.058   6.194   5.603
 7075SOL    HW222125   0.986   6.051   5.570
 7076SOL     OW22126   3.885   2.541   6.781
 7076SOL    HW122127   3.933   2.589   6.854
 7076SOL    HW222128   3.839   2.608   6.722
 7077SOL     OW22129   1.960   4.840   5.691
 7077SOL    HW122130   1.970   4.919   5.751
 7077SOL    HW222131   1.869   4.800   5.705
 7078SOL     OW22132   6.482   0.339   1.565
 7078SOL    HW122133   6.449   0.302   1.652
 7078SOL    HW222134   6.468   0.271   1.492
 7079SOL     OW22135   6.742   6.065   5.408
 7079SOL    HW122136   6.790   6.075   5.495
 7079SOL    HW222137   6.766   5.977   5.367
 7080SOL     OW22138   3.604   2.087   4.232
 7080SOL    HW122139   3.648   2.177   4.223
 7080SOL    HW222140   3.561   2.080   4.322
 7081SOL     OW22141   3.023   0.552   5.972
 7081SOL    HW122142   2.948   0.610   6.004
 7081SOL    HW222143   2.997   0.510   5.884
 7082SOL     OW22144   5.938   5.582   6.665
 7082SOL    HW122145   5.900   5.567   6.573
 7082SOL    HW222146   5.927   5.499   6.719
 7083SOL     OW22147   3.107   1.180   6.829
 7083SOL    HW122148   3.163   1.110   6.873
 7083SOL    HW222149   3.161   1.263   6.818
 7084SOL     OW22150   6.996   6.905   5.551
 7084SOL    HW122151   0.007   6.873   5.461
 7084SOL    HW222152   6.982   6.826   5.611
 7085SOL     OW22153   2.501   0.943   2.859
 7085SOL    HW122154   2.549   1.026   2.834
 7085SOL    HW222155   2.446   0.910   2.782
 7086SOL     OW22156   4.901   1.011   5.805
 7086SOL    HW122157   4.928   1.098   5.846
 7086SOL    HW222158   4.822   1.025   5.745
 7087SOL     OW22159   6.110   4.128   3.980
 7087SOL    HW122160   6.057   4.068   3.919
 7087SOL    HW222161   6.082   4.223   3.964
 7088SOL     OW22162   5.185   2.696   3.347
 7088SOL    HW122163   5.176   2.637   3.267
 7088SOL    HW222164   5.178   2.641   3.430
 7089SOL     OW22165   3.420   2.130   6.057
 7089SOL    HW122166   3.347   2.198   6.068
 7089SOL    HW222167   3.505   2.177   6.032
 7090SOL     OW22168   2.559   1.243   6.458
 7090SOL    HW122169   2.558   1.195   6.370
 7090SOL    HW222170   2.650   1.235   6.499
 7091SOL     OW22171   7.016   2.290   0.405
 7091SOL    HW122172   0.008   2.202   0.451
 7091SOL    HW222173   6.956   2.348   0.461
 7092SOL     OW22174   4.834   2.652   6.028
 7092SOL    HW122175   4.876   2.677   6.115
 7092SOL    HW222176   4.900   2.665   5.954
 7093SOL     OW22177   3.216   3.725   3.600
 7093SOL    HW122178   3.158   3.788   3.550
 7093SOL    HW222179   3.167   3.691   3.680
 7094SOL     OW22180   0.737   5.755   6.184
 7094SOL    HW122181   0.641   5.740   6.159
 7094SOL    HW222182   0.744   5.767   6.283
 7095SOL     OW22183   3.191   3.076   6.748
 7095SOL    HW122184   3.141   2.994   6.718
 7095SOL    HW222185   3.169   3.095   6.843
 7096SOL     OW22186   6.348   0.564   4.039
 7096SOL    HW122187   6.446   0.564   4.018
 7096SOL    HW222188   6.321   0.652   4.077
 7097SOL     OW22189   6.515   0.695   1.651
 7097SOL    HW122190   6.527   0.627   1.579
 7097SOL    HW222191   6.550   0.658   1.738
 7098SOL     OW22192   0.429   6.800   4.096
 7098SOL    HW122193   0.510   6.744   4.115
 7098SOL    HW222194   0.451   6.868   4.027
 7099SOL     OW22195   2.570   0.477   4.679
 7099SOL    HW122196   2.544   0.566   4.642
 7099SOL    HW222197   2.502   0.447   4.746
 7100SOL     OW22198   5.758   3.222   1.046
 7100SOL    HW122199   5.749   3.286   1.122
 7100SOL    HW222200   5.689   3.242   0.977
 7101SOL     OW22201   2.372   0.282   5.028
 7101SOL    HW122202   2.413   0.219   4.962
 7101SOL    HW222203   2.310   0.231   5.087
 7102SOL     OW22204   4.648   0.494   1.195
 7102SOL    HW122205   4.588   0.421   1.164
 7102SOL    HW222206   4.684   0.472   1.285
 7103SOL     OW22207   4.430   5.297   0.824
 7103SOL    HW122208   4.446   5.371   0.759
 7103SOL    HW222209   4.398   5.215   0.775
 7104SOL     OW22210   1.488   3.397   4.819
 7104SOL    HW122211   1.513   3.363   4.729
 7104SOL    HW222212   1.467   3.495   4.813
 7105SOL     OW22213   2.783   2.840   5.424
 7105SOL    HW122214   2.747   2.751   5.394
 7105SOL    HW222215   2.753   2.912   5.362
 7106SOL     OW22216   3.469   2.829   3.138
 7106SOL    HW122217   3.498   2.881   3.218
 7106SOL    HW222218   3.497   2.734   3.147
 7107SOL     OW22219   3.563   0.877   0.794
 7107SOL    HW122220   3.593   0.969   0.819
 7107SOL    HW222221   3.487   0.849   0.853
 7108SOL     OW22222   4.041   6.185   1.901
 7108SOL    HW122223   3.975   6.111   1.917
 7108SOL    HW222224   4.091   6.166   1.817
 7109SOL     OW22225   3.999   0.134   6.346
 7109SOL    HW122226   4.014   0.036   6.333
 7109SOL    HW222227   3.920   0.163   6.292
 7110SOL     OW22228   4.841   5.616   3.699
 7110SOL    HW122229   4.937   5.643   3.710
 7110SOL    HW222230   4.829   5.523   3.734
 7111SOL     OW22231   2.339   2.311   4.533
 7111SOL    HW122232   2.387   2.322   4.446
 7111SOL    HW222233   2.343   2.216   4.561
 7112SOL     OW22234   2.435   5.812   3.887
 7112SOL    HW122235   2.466   5.735   3.944
 7112SOL    HW222236   2.433   5.896   3.941
 7113SOL     OW22237   3.096   4.025   5.122
 7113SOL    HW122238   3.015   4.007   5.178
 7113SOL    HW222239   3.124   3.940   5.077
 7114SOL     OW22240   4.057   6.818   1.865
 7114SOL    HW122241   4.100   6.767   1.791
 7114SOL    HW222242   4.084   6.780   1.953
 7115SOL     OW22243   5.405   2.682   2.296
 7115SOL    HW122244   5.366   2.767   2.262
 7115SOL    HW222245   5.339   2.637   2.357
 7116SOL     OW22246   5.499   3.237   3.317
 7116SOL    HW122247   5.594   3.238   3.347
 7116SOL    HW222248   5.439   3.256   3.394
 7117SOL     OW22249   0.152   7.004   4.359
 7117SOL    HW122250   0.219   6.957   4.301
 7117SOL    HW222251   0.099   6.936   4.409
 7118SOL     OW22252   3.186   4.116   0.674
 7118SOL    HW122253   3.223   4.198   0.717
 7118SOL    HW222254   3.228   4.035   0.715
 7119SOL     OW22255   5.461   1.648   3.508
 7119SOL    HW122256   5.479   1.679   3.601
 7119SOL    HW222257   5.371   1.604   3.504
 7120SOL     OW22258   4.283   1.946   2.704
 7120SOL    HW122259   4.326   1.875   2.648
 7120SOL    HW222260   4.267   2.027   2.649
 7121SOL     OW22261   2.883   6.945   2.256
 7121SOL    HW122262   2.850   0.014   2.286
 7121SOL    HW222263   2.833   6.917   2.174
 7122SOL     OW22264   6.782   0.958   5.936
 7122SOL    HW122265   6.757   1.042   5.983
 7122SOL    HW222266   6.881   0.955   5.922
 7123SOL     OW22267   2.713   4.872   1.086
 7123SOL    HW122268   2.732   4.951   1.027
 7123SOL    HW222269   2.773   4.874   1.166
 7124SOL     OW22270   0.417   3.075   0.854
 7124SOL    HW122271   0.438   3.132   0.775
 7124SOL    HW222272   0.420   3.130   0.937
 7125SOL     OW22273   6.515   6.654   0.862
 7125SOL    HW122274   6.543   6.749   0.877
 7125SOL    HW222275   6.596   6.598   0.844
 7126SOL     OW22276   3.433   4.864   6.561
 7126SOL    HW122277   3.366   4.904   6.499
 7126SOL    HW222278   3.416   4.897   6.654
 7127SOL     OW22279   2.681   5.829   4.205
 7127SOL    HW122280   2.772   5.793   4.225
 7127SOL    HW222281   2.678   5.926   4.231
 7128SOL     OW22282   2.036   5.830   0.293
 7128SOL    HW122283   2.053   5.767   0.370
 7128SOL    HW222284   1.938   5.840   0.280
 7129SOL     OW22285   3.220   0.430   0.463
 7129SOL    HW122286   3.173   0.378   0.534
 7129SOL    HW222287   3.306   0.466   0.499
 7130SOL     OW22288   3.412   4.709   5.284
 7130SOL    HW122289   3.415   4.609   5.284
 7130SOL    HW222290   3.427   4.743   5.192
 7131SOL     OW22291   2.770   1.332   0.349
 7131SOL    HW122292   2.827   1.339   0.268
 7131SOL    HW222293   2.684   1.286   0.326
 7132SOL     OW22294   3.120   4.027   0.431
 7132SOL    HW122295   3.095   4.054   0.524
 7132SOL    HW222296   3.198   4.081   0.400
 7133SOL     OW22297   4.568   5.438   3.612
 7133SOL    HW122298   4.511   5.473   3.538
 7133SOL    HW222299   4.639   5.379   3.575
 7134SOL     OW22300   6.018   5.775   2.153
 7134SOL    HW122301   6.084   5.850   2.149
 7134SOL    HW222302   5.964   5.783   2.237
 7135SOL     OW22303   1.974   2.062   3.315
 7135SOL    HW122304   1.962   2.153   3.275
 7135SOL    HW222305   1.945   1.993   3.249
 7136SOL     OW22306   1.839   2.764   0.919
 7136SOL    HW122307   1.768   2.694   0.909
 7136SOL    HW222308   1.819   2.819   1.000
 7137SOL     OW22309   4.941   0.617   6.288
 7137SOL    HW122310   4.852   0.628   6.243
 7137SOL    HW222311   5.013   0.615   6.219
 7138SOL     OW22312   2.044   2.679   0.392
 7138SOL    HW122313   2.135   2.649   0.420
 7138SOL    HW222314   2.048   2.774   0.363
 7139SOL     OW22315   4.755   4.201   2.636
 7139SOL    HW122316   4.670   4.241   2.599
 7139SOL    HW222317   4.772   4.113   2.592
 7140SOL     OW22318   5.575   3.355   4.454
 7140SOL    HW122319   5.491   3.300   4.459
 7140SOL    HW222320   5.606   3.378   4.546
 7141SOL     OW22321   2.557   5.945   0.863
 7141SOL    HW122322   2.461   5.946   0.892
 7141SOL    HW222323   2.595   5.854   0.876
 7142SOL     OW22324   4.611   6.997   3.061
 7142SOL    HW122325   4.519   0.011   3.046
 7142SOL    HW222326   4.671   0.052   3.088
 7143SOL     OW22327   1.860   2.695   6.294
 7143SOL    HW122328   1.934   2.714   6.230
 7143SOL    HW222329   1.891   2.630   6.363
 7144SOL     OW22330   1.833   1.475   3.351
 7144SOL    HW122331   1.787   1.386   3.351
 7144SOL    HW222332   1.770   1.545   3.382
 7145SOL     OW22333   4.725   6.417   6.116
 7145SOL    HW122334   4.626   6.407   6.106
 7145SOL    HW222335   4.746   6.485   6.186
 7146SOL     OW22336   2.183   0.514   6.768
 7146SOL    HW122337   2.245   0.463   6.828
 7146SOL    HW222338   2.173   0.465   6.681
 7147SOL     OW22339   6.480   6.097   2.964
 7147SOL    HW122340   6.431   6.150   3.034
 7147SOL    HW222341   6.415   6.057   2.900
 7148SOL     OW22342   6.812   6.548   1.371
 7148SOL    HW122343   6.815   6.463   1.319
 7148SOL    HW222344   6.757   6.615   1.322
 7149SOL     OW22345   6.578   6.784   3.077
 7149SOL    HW122346   6.491   6.736   3.064
 7149SOL    HW222347   6.578   6.830   3.166
 7150SOL     OW22348   4.601   2.268   1.841
 7150SOL    HW122349   4.576   2.358   1.876
 7150SOL    HW222350   4.607   2.272   1.741
 7151SOL     OW22351   1.330   6.043   0.474
 7151SOL    HW122352   1.418   5.997   0.478
 7151SOL    HW222353   1.263   5.983   0.430
 7152SOL     OW22354   0.527   1.925   5.122
 7152SOL    HW122355   0.597   1.908   5.191
 7152SOL    HW222356   0.567   1.972   5.044
 7153SOL     OW22357   3.158   6.138   3.010
 7153SOL    HW122358   3.158   6.187   2.923
 7153SOL    HW222359   3.188   6.043   2.994
 7154SOL     OW22360   4.030   6.465   4.899
 7154SOL    HW122361   4.058   6.369   4.901
 7154SOL    HW222362   4.037   6.500   4.806
 7155SOL     OW22363   2.660   5.309   1.886
 7155SOL    HW122364   2.679   5.214   1.911
 7155SOL    HW222365   2.567   5.333   1.912
 7156SOL     OW22366   0.539   4.152   4.619
 7156SOL    HW122367   0.572   4.195   4.535
 7156SOL    HW222368   0.572   4.058   4.624
 7157SOL     OW22369   6.263   4.292   1.254
 7157SOL    HW122370   6.252   4.193   1.247
 7157SOL    HW222371   6.181   4.338   1.218
 7158SOL     OW22372   1.035   0.098   2.668
 7158SOL    HW122373   1.053   0.088   2.766
 7158SOL    HW222374   0.942   0.067   2.647
 7159SOL     OW22375   0.047   4.371   2.945
 7159SOL    HW122376   0.001   4.282   2.947
 7159SOL    HW222377   7.007   4.438   2.903
 7160SOL     OW22378   5.812   0.380   3.348
 7160SOL    HW122379   5.883   0.331   3.399
 7160SOL    HW222380   5.844   0.473   3.328
 7161SOL     OW22381   3.388   4.037   5.091
 7161SOL    HW122382   3.290   4.018   5.098
 7161SOL    HW222383   3.428   3.983   5.017
 7162SOL     OW22384   2.224   5.691   5.744
 7162SOL    HW122385   2.158   5.740   5.687
 7162SOL    HW222386   2.176   5.651   5.823
 7163SOL     OW22387   2.771   6.102   3.359
 7163SOL    HW122388   2.848   6.137   3.304
 7163SOL    HW222389   2.740   6.173   3.421
 7164SOL     OW22390   2.055   1.542   3.537
 7164SOL    HW122391   2.142   1.511   3.497
 7164SOL    HW222392   1.979   1.503   3.486
 7165SOL     OW22393   6.701   1.640   1.339
 7165SOL    HW122394   6.638   1.562   1.338
 7165SOL    HW222395   6.721   1.667   1.244
 7166SOL     OW22396   5.254   3.011   0.534
 7166SOL    HW122397   5.308   2.948   0.590
 7166SOL    HW222398   5.162   2.973   0.521
 7167SOL     OW22399   5.184   3.733   4.906
 7167SOL    HW122400   5.267   3.782   4.933
 7167SOL    HW222401   5.192   3.637   4.935
 7168SOL     OW22402   1.097   2.415   4.153
 7168SOL    HW122403   1.076   2.496   4.207
 7168SOL    HW222404   1.163   2.439   4.081
 7169SOL     OW22405   0.653   3.494   4.940
 7169SOL    HW122406   0.628   3.591   4.928
 7169SOL    HW222407   0.699   3.482   5.027
 7170SOL     OW22408   4.909   6.099   3.775
 7170SOL    HW122409   4.889   6.007   3.741
 7170SOL    HW222410   4.850   6.119   3.853
 7171SOL     OW22411   5.588   4.071   6.223
 7171SOL    HW122412   5.643   4.103   6.146
 7171SOL    HW222413   5.593   3.971   6.228
 7172SOL     OW22414   1.523   0.655   5.301
 7172SOL    HW122415   1.549   0.617   5.390
 7172SOL    HW222416   1.452   0.724   5.314
 7173SOL     OW22417   0.348   4.852   5.228
 7173SOL    HW122418   0.347   4.949   5.204
 7173SOL    HW222419   0.386   4.799   5.151
 7174SOL     OW22420   0.712   5.420   6.482
 7174SOL    HW122421   0.720   5.380   6.390
 7174SOL    HW222422   0.709   5.347   6.550
 7175SOL     OW22423   5.460   3.648   0.354
 7175SOL    HW122424   5.498   3.686   0.439
 7175SOL    HW222425   5.431   3.722   0.294
 7176SOL     OW22426   1.028   5.610   3.279
 7176SOL    HW122427   1.092   5.553   3.228
 7176SOL    HW222428   0.972   5.662   3.215
 7177SOL     OW22429   2.622   6.753   4.248
 7177SOL    HW122430   2.558   6.745   4.324
 7177SOL    HW222431   2.685   6.829   4.265
 7178SOL     OW22432   2.289   3.774   5.834
 7178SOL    HW122433   2.267   3.779   5.736
 7178SOL    HW222434   2.363   3.708   5.848
 7179SOL     OW22435   1.815   3.551   4.749
 7179SOL    HW122436   1.787   3.457   4.769
 7179SOL    HW222437   1.749   3.615   4.788
 7180SOL     OW22438   1.340   4.583   6.568
 7180SOL    HW122439   1.396   4.659   6.534
 7180SOL    HW222440   1.254   4.618   6.603
 7181SOL     OW22441   2.184   5.666   0.870
 7181SOL    HW122442   2.166   5.573   0.901
 7181SOL    HW222443   2.105   5.724   0.891
 7182SOL     OW22444   1.833   3.104   5.388
 7182SOL    HW122445   1.830   3.195   5.431
 7182SOL    HW222446   1.926   3.083   5.361
 7183SOL     OW22447   1.441   5.501   0.621
 7183SOL    HW122448   1.398   5.545   0.700
 7183SOL    HW222449   1.483   5.415   0.649
 7184SOL     OW22450   0.906   0.320   2.933
 7184SOL    HW122451   0.981   0.256   2.918
 7184SOL    HW222452   0.855   0.294   3.016
 7185SOL     OW22453   5.436   1.461   5.923
 7185SOL    HW122454   5.363   1.395   5.936
 7185SOL    HW222455   5.400   1.543   5.877
 7186SOL     OW22456   0.071   0.078   6.417
 7186SOL    HW122457   7.017   0.064   6.482
 7186SOL    HW222458   0.120   7.013   6.403
 7187SOL     OW22459   3.037   4.581   0.319
 7187SOL    HW122460   2.949   4.601   0.364
 7187SOL    HW222461   3.022   4.566   0.222
 7188SOL     OW22462   5.757   6.845   0.201
 7188SOL    HW122463   5.733   6.794   0.118
 7188SOL    HW222464   5.757   6.783   0.280
 7189SOL     OW22465   6.475   1.441   6.317
 7189SOL    HW122466   6.429   1.494   6.389
 7189SOL    HW222467   6.524   1.504   6.256
 7190SOL     OW22468   6.009   3.660   3.144
 7190SOL    HW122469   6.107   3.640   3.148
 7190SOL    HW222470   5.991   3.719   3.065
 7191SOL     OW22471   0.277   4.211   2.678
 7191SOL    HW122472   0.327   4.127   2.699
 7191SOL    HW222473   0.289   4.276   2.753
 7192SOL     OW22474   3.284   4.994   5.369
 7192SOL    HW122475   3.292   4.899   5.338
 7192SOL    HW222476   3.322   5.054   5.298
 7193SOL     OW22477   2.674   1.570   3.148
 7193SOL    HW122478   2.608   1.495   3.140
 7193SOL    HW222479   2.637   1.640   3.209
 7194SOL     OW22480   2.720   2.069   0.735
 7194SOL    HW122481   2.674   2.142   0.785
 7194SOL    HW222482   2.783   2.108   0.668
 7195SOL     OW22483   0.313   5.077   6.276
 7195SOL    HW122484   0.363   5.162   6.259
 7195SOL    HW222485   0.373   4.999   6.256
 7196SOL     OW22486   3.368   4.157   1.867
 7196SOL    HW122487   3.322   4.102   1.798
 7196SOL    HW222488   3.400   4.098   1.941
 7197SOL     OW22489   6.769   2.486   6.310
 7197SOL    HW122490   6.743   2.531   6.395
 7197SOL    HW222491   6.705   2.410   6.292
 7198SOL     OW22492   0.516   1.118   5.860
 7198SOL    HW122493   0.515   1.039   5.920
 7198SOL    HW222494   0.443   1.109   5.791
 7199SOL     OW22495   2.385   0.509   1.878
 7199SOL    HW122496   2.354   0.600   1.904
 7199SOL    HW222497   2.364   0.444   1.952
 7200SOL     OW22498   2.032   1.888   0.358
 7200SOL    HW122499   2.015   1.864   0.262
 7200SOL    HW222500   2.130   1.890   0.374
 7201SOL     OW22501   1.626   5.349   3.875
 7201SOL    HW122502   1.535   5.337   3.835
 7201SOL    HW222503   1.616   5.380   3.970
 7202SOL     OW22504   4.131   0.335   5.756
 7202SOL    HW122505   4.095   0.263   5.815
 7202SOL    HW222506   4.112   0.312   5.660
 7203SOL     OW22507   0.073   1.643   1.227
 7203SOL    HW122508   0.020   1.559   1.230
 7203SOL    HW222509   0.013   1.720   1.208
 7204SOL     OW22510   6.297   6.589   5.163
 7204SOL    HW122511   6.332   6.535   5.086
 7204SOL    HW222512   6.199   6.574   5.174
 7205SOL     OW22513   2.241   6.148   3.196
 7205SOL    HW122514   2.240   6.238   3.151
 7205SOL    HW222515   2.335   6.121   3.212
 7206SOL     OW22516   2.202   0.433   1.467
 7206SOL    HW122517   2.259   0.476   1.397
 7206SOL    HW222518   2.119   0.487   1.480
 7207SOL     OW22519   3.735   6.386   1.344
 7207SOL    HW122520   3.767   6.416   1.254
 7207SOL    HW222521   3.642   6.418   1.359
 7208SOL     OW22522   4.320   6.233   4.252
 7208SOL    HW122523   4.320   6.133   4.261
 7208SOL    HW222524   4.238   6.271   4.294
 7209SOL     OW22525   3.404   2.878   2.334
 7209SOL    HW122526   3.372   2.786   2.356
 7209SOL    HW222527   3.488   2.871   2.279
 7210SOL     OW22528   4.696   0.181   4.334
 7210SOL    HW122529   4.792   0.171   4.361
 7210SOL    HW222530   4.667   0.100   4.284
 7211SOL     OW22531   2.109   5.558   4.074
 7211SOL    HW122532   2.136   5.469   4.110
 7211SOL    HW222533   2.156   5.575   3.988
 7212SOL     OW22534   1.093   5.933   3.334
 7212SOL    HW122535   1.083   5.852   3.276
 7212SOL    HW222536   1.075   5.908   3.429
 7213SOL     OW22537   6.190   0.580   6.616
 7213SOL    HW122538   6.195   0.498   6.673
 7213SOL    HW222539   6.193   0.553   6.520
 7214SOL     OW22540   1.406   5.704   4.603
 7214SOL    HW122541   1.457   5.700   4.518
 7214SOL    HW222542   1.331   5.769   4.594
 7215SOL     OW22543   0.459   3.083   4.212
 7215SOL    HW122544   0.508   3.035   4.139
 7215SOL    HW222545   0.376   3.033   4.235
 7216SOL     OW22546   2.278   6.230   6.913
 7216SOL    HW122547   2.303   6.326   6.919
 7216SOL    HW222548   2.315   6.191   6.828
 7217SOL     OW22549   2.170   4.514   1.897
 7217SOL    HW122550   2.230   4.444   1.936
 7217SOL    HW222551   2.196   4.531   1.802
 7218SOL     OW22552   4.495   2.734   5.236
 7218SOL    HW122553   4.522   2.714   5.331
 7218SOL    HW222554   4.406   2.779   5.236
 7219SOL     OW22555   5.405   5.972   4.180
 7219SOL    HW122556   5.396   5.895   4.244
 7219SOL    HW222557   5.317   5.990   4.137
 7220SOL     OW22558   0.547   5.492   3.700
 7220SOL    HW122559   0.632   5.439   3.708
 7220SOL    HW222560   0.473   5.431   3.670
 7221SOL     OW22561   5.612   4.932   5.268
 7221SOL    HW122562   5.514   4.922   5.252
 7221SOL    HW222563   5.643   4.864   5.334
 7222SOL     OW22564   6.018   0.277   1.848
 7222SOL    HW122565   5.947   0.209   1.863
 7222SOL    HW222566   6.103   0.247   1.892
 7223SOL     OW22567   2.894   2.199   1.545
 7223SOL    HW122568   2.958   2.235   1.612
 7223SOL    HW222569   2.880   2.101   1.561
 7224SOL     OW22570   5.698   1.898   4.136
 7224SOL    HW122571   5.627   1.865   4.198
 7224SOL    HW222572   5.743   1.820   4.092
 7225SOL     OW22573   1.288   6.556   6.220
 7225SOL    HW122574   1.202   6.602   6.197
 7225SOL    HW222575   1.273   6.458   6.229
 7226SOL     OW22576   1.018   0.429   0.622
 7226SOL    HW122577   0.937   0.475   0.585
 7226SOL    HW222578   1.100   0.465   0.577
 7227SOL     OW22579   0.196   3.028   1.111
 7227SOL    HW122580   0.202   2.991   1.204
 7227SOL    HW222581   0.199   2.953   1.045
 7228SOL     OW22582   6.898   1.278   2.313
 7228SOL    HW122583   6.987   1.246   2.280
 7228SOL    HW222584   6.884   1.372   2.284
 7229SOL     OW22585   1.472   0.903   3.956
 7229SOL    HW122586   1.517   0.984   3.919
 7229SOL    HW222587   1.538   0.848   4.007
 7230SOL     OW22588   4.887   5.853   4.958
 7230SOL    HW122589   4.869   5.762   4.996
 7230SOL    HW222590   4.973   5.851   4.906
 7231SOL     OW22591   4.936   6.744   6.925
 7231SOL    HW122592   5.008   6.724   6.858
 7231SOL    HW222593   4.910   6.661   6.973
 7232SOL     OW22594   4.494   5.210   3.449
 7232SOL    HW122595   4.450   5.205   3.538
 7232SOL    HW222596   4.556   5.132   3.437
 7233SOL     OW22597   0.412   2.558   4.908
 7233SOL    HW122598   0.315   2.571   4.889
 7233SOL    HW222599   0.440   2.617   4.983
 7234SOL     OW22600   5.756   2.581   3.166
 7234SOL    HW122601   5.836   2.521   3.172
 7234SOL    HW222602   5.757   2.646   3.242
 7235SOL     OW22603   6.308   4.480   3.067
 7235SOL    HW122604   6.308   4.456   2.970
 7235SOL    HW222605   6.232   4.542   3.086
 7236SOL     OW22606   3.202   1.413   2.637
 7236SOL    HW122607   3.205   1.339   2.705
 7236SOL    HW222608   3.107   1.440   2.621
 7237SOL     OW22609   6.292   6.620   5.477
 7237SOL    HW122610   6.376   6.571   5.453
 7237SOL    HW222611   6.233   6.626   5.396
 7238SOL     OW22612   2.297   2.196   1.177
 7238SOL    HW122613   2.346   2.141   1.244
 7238SOL    HW222614   2.276   2.139   1.097
 7239SOL     OW22615   2.669   1.332   3.874
 7239SOL    HW122616   2.570   1.320   3.878
 7239SOL    HW222617   2.694   1.377   3.788
 7240SOL     OW22618   2.243   4.351   6.742
 7240SOL    HW122619   2.337   4.346   6.775
 7240SOL    HW222620   2.198   4.263   6.757
 7241SOL     OW22621   3.308   0.639   6.979
 7241SOL    HW122622   3.362   0.575   0.012
 7241SOL    HW222623   3.361   0.721   6.961
 7242SOL     OW22624   6.702   5.035   6.866
 7242SOL    HW122625   6.683   5.043   6.964
 7242SOL    HW222626   6.712   4.939   6.841
 7243SOL     OW22627   0.695   4.669   6.354
 7243SOL    HW122628   0.790   4.681   6.324
 7243SOL    HW222629   0.662   4.580   6.323
 7244SOL     OW22630   4.647   0.612   1.515
 7244SOL    HW122631   4.738   0.608   1.475
 7244SOL    HW222632   4.594   0.685   1.472
 7245SOL     OW22633   0.597   1.687   4.978
 7245SOL    HW122634   0.560   1.749   5.047
 7245SOL    HW222635   0.653   1.739   4.913
 7246SOL     OW22636   6.129   6.867   4.835
 7246SOL    HW122637   6.148   6.913   4.748
 7246SOL    HW222638   6.072   6.787   4.818
 7247SOL     OW22639   2.548   6.393   3.207
 7247SOL    HW122640   2.449   6.396   3.193
 7247SOL    HW222641   2.595   6.411   3.121
 7248SOL     OW22642   4.442   0.889   3.169
 7248SOL    HW122643   4.350   0.860   3.144
 7248SOL    HW222644   4.493   0.910   3.085
 7249SOL     OW22645   5.555   4.933   1.961
 7249SOL    HW122646   5.505   4.870   1.903
 7249SOL    HW222647   5.650   4.938   1.931
 7250SOL     OW22648   3.171   5.133   6.169
 7250SOL    HW122649   3.196   5.200   6.239
 7250SOL    HW222650   3.083   5.092   6.193
 7251SOL     OW22651   6.901   6.579   5.409
 7251SOL    HW122652   6.813   6.584   5.361
 7251SOL    HW222653   6.963   6.648   5.372
 7252SOL     OW22654   3.281   3.279   3.913
 7252SOL    HW122655   3.369   3.284   3.961
 7252SOL    HW222656   3.240   3.189   3.929
 7253SOL     OW22657   1.490   0.195   0.252
 7253SOL    HW122658   1.409   0.137   0.243
 7253SOL    HW222659   1.462   0.290   0.262
 7254SOL     OW22660   4.411   5.016   5.044
 7254SOL    HW122661   4.350   4.937   5.031
 7254SOL    HW222662   4.433   5.027   5.141
 7255SOL     OW22663   3.868   3.701   1.878
 7255SOL    HW122664   3.893   3.668   1.787
 7255SOL    HW222665   3.847   3.799   1.873
 7256SOL     OW22666   4.922   4.724   4.572
 7256SOL    HW122667   4.880   4.811   4.597
 7256SOL    HW222668   5.020   4.728   4.589
 7257SOL     OW22669   5.908   2.866   3.239
 7257SOL    HW122670   5.837   2.937   3.237
 7257SOL    HW222671   5.969   2.878   3.160
 7258SOL     OW22672   3.924   0.267   4.009
 7258SOL    HW122673   3.991   0.268   3.934
 7258SOL    HW222674   3.911   0.360   4.043
 7259SOL     OW22675   3.174   4.002   1.309
 7259SOL    HW122676   3.121   3.998   1.393
 7259SOL    HW222677   3.203   3.910   1.284
 7260SOL     OW22678   3.295   2.081   2.887
 7260SOL    HW122679   3.249   2.125   2.964
 7260SOL    HW222680   3.385   2.122   2.874
 7261SOL     OW22681   3.351   2.739   1.508
 7261SOL    HW122682   3.415   2.698   1.443
 7261SOL    HW222683   3.318   2.669   1.571
 7262SOL     OW22684   5.955   2.722   3.703
 7262SOL    HW122685   5.950   2.790   3.630
 7262SOL    HW222686   5.964   2.769   3.791
 7263SOL     OW22687   0.540   5.593   2.071
 7263SOL    HW122688   0.609   5.533   2.111
 7263SOL    HW222689   0.506   5.553   1.986
 7264SOL     OW22690   6.830   1.800   6.999
 7264SOL    HW122691   6.850   1.839   6.910
 7264SOL    HW222692   6.798   1.706   6.988
 7265SOL     OW22693   5.365   5.341   5.979
 7265SOL    HW122694   5.403   5.381   5.896
 7265SOL    HW222695   5.412   5.255   5.999
 7266SOL     OW22696   4.358   0.901   0.724
 7266SOL    HW122697   4.310   0.956   0.656
 7266SOL    HW222698   4.297   0.884   0.802
 7267SOL     OW22699   6.944   4.771   5.257
 7267SOL    HW122700   6.918   4.849   5.201
 7267SOL    HW222701   0.014   4.740   5.230
 7268SOL     OW22702   4.162   4.878   2.909
 7268SOL    HW122703   4.224   4.883   2.987
 7268SOL    HW222704   4.180   4.794   2.858
 7269SOL     OW22705   0.031   5.752   1.601
 7269SOL    HW122706   6.953   5.768   1.595
 7269SOL    HW222707   0.048   5.655   1.618
 7270SOL     OW22708   1.569   2.322   3.243
 7270SOL    HW122709   1.566   2.236   3.294
 7270SOL    HW222710   1.661   2.336   3.207
 7271SOL     OW22711   0.842   4.740   3.157
 7271SOL    HW122712   0.936   4.765   3.181
 7271SOL    HW222713   0.843   4.656   3.102
 7272SOL     OW22714   5.813   3.330   2.617
 7272SOL    HW122715   5.727   3.374   2.594
 7272SOL    HW222716   5.885   3.365   2.558
 7273SOL     OW22717   5.906   4.575   2.109
 7273SOL    HW122718   5.812   4.545   2.098
 7273SOL    HW222719   5.958   4.506   2.159
 7274SOL     OW22720   6.828   6.085   6.278
 7274SOL    HW122721   6.889   6.007   6.297
 7274SOL    HW222722   6.764   6.061   6.206
 7275SOL     OW22723   6.277   0.473   0.506
 7275SOL    HW122724   6.178   0.459   0.511
 7275SOL    HW222725   6.307   0.528   0.583
 7276SOL     OW22726   3.268   1.235   3.392
 7276SOL    HW122727   3.311   1.207   3.478
 7276SOL    HW222728   3.260   1.335   3.390
 7277SOL     OW22729   5.411   1.026   5.240
 7277SOL    HW122730   5.444   1.098   5.180
 7277SOL    HW222731   5.322   0.993   5.208
 7278SOL     OW22732   3.626   2.095   3.090
 7278SOL    HW122733   3.721   2.122   3.106
 7278SOL    HW222734   3.619   2.051   3.000
 7279SOL     OW22735   4.345   4.101   0.187
 7279SOL    HW122736   4.278   4.173   0.168
 7279SOL    HW222737   4.434   4.127   0.148
 7280SOL     OW22738   5.632   2.217   5.020
 7280SOL    HW122739   5.687   2.237   5.100
 7280SOL    HW222740   5.555   2.280   5.015
 7281SOL     OW22741   3.344   0.107   0.946
 7281SOL    HW122742   3.300   0.030   0.901
 7281SOL    HW222743   3.412   0.073   1.011
 7282SOL     OW22744   6.567   5.552   1.737
 7282SOL    HW122745   6.559   5.510   1.828
 7282SOL    HW222746   6.579   5.651   1.747
 7283SOL     OW22747   3.122   6.658   1.798
 7283SOL    HW122748   3.027   6.632   1.785
 7283SOL    HW222749   3.167   6.595   1.861
 7284SOL     OW22750   6.784   2.634   3.655
 7284SOL    HW122751   6.760   2.715   3.601
 7284SOL    HW222752   6.813   2.661   3.746
 7285SOL     OW22753   4.946   3.493   1.505
 7285SOL    HW122754   4.925   3.589   1.518
 7285SOL    HW222755   5.043   3.483   1.480
 7286SOL     OW22756   0.701   1.285   0.812
 7286SOL    HW122757   0.658   1.350   0.875
 7286SOL    HW222758   0.631   1.241   0.756
 7287SOL     OW22759   0.125   2.505   4.070
 7287SOL    HW122760   0.172   2.443   4.007
 7287SOL    HW222761   0.193   2.557   4.122
 7288SOL     OW22762   1.843   2.802   2.504
 7288SOL    HW122763   1.881   2.756   2.424
 7288SOL    HW222764   1.847   2.901   2.490
 7289SOL     OW22765   5.497   2.919   1.922
 7289SOL    HW122766   5.413   2.866   1.931
 7289SOL    HW222767   5.570   2.860   1.887
 7290SOL     OW22768   3.847   0.974   5.246
 7290SOL    HW122769   3.880   1.056   5.201
 7290SOL    HW222770   3.786   0.924   5.184
 7291SOL     OW22771   3.448   0.185   0.355
 7291SOL    HW122772   3.397   0.227   0.430
 7291SOL    HW222773   3.471   0.254   0.287
 7292SOL     OW22774   1.879   6.584   3.610
 7292SOL    HW122775   1.978   6.569   3.612
 7292SOL    HW222776   1.841   6.562   3.700
 7293SOL     OW22777   1.265   1.590   5.938
 7293SOL    HW122778   1.311   1.531   5.871
 7293SOL    HW222779   1.215   1.533   6.004
 7294SOL     OW22780   2.943   4.675   1.641
 7294SOL    HW122781   2.968   4.616   1.718
 7294SOL    HW222782   2.846   4.664   1.620
 7295SOL     OW22783   6.442   4.753   1.426
 7295SOL    HW122784   6.461   4.843   1.466
 7295SOL    HW222785   6.457   4.682   1.495
 7296SOL     OW22786   3.618   5.248   2.973
 7296SOL    HW122787   3.702   5.200   2.948
 7296SOL    HW222788   3.547   5.181   2.995
 7297SOL     OW22789   3.048   6.174   1.809
 7297SOL    HW122790   3.076   6.261   1.850
 7297SOL    HW222791   2.956   6.150   1.842
 7298SOL     OW22792   4.649   6.412   6.768
 7298SOL    HW122793   4.579   6.465   6.816
 7298SOL    HW222794   4.605   6.344   6.709
 7299SOL     OW22795   1.307   2.241   0.569
 7299SOL    HW122796   1.398   2.204   0.552
 7299SOL    HW222797   1.254   2.177   0.624
 7300SOL     OW22798   0.694   4.894   1.670
 7300SOL    HW122799   0.704   4.890   1.570
 7300SOL    HW222800   0.757   4.828   1.712
 7301SOL     OW22801   0.448   0.334   5.755
 7301SOL    HW122802   0.521   0.272   5.723
 7301SOL    HW222803   0.392   0.361   5.677
 7302SOL     OW22804   6.031   2.326   5.771
 7302SOL    HW122805   5.956   2.348   5.708
 7302SOL    HW222806   5.996   2.324   5.864
 7303SOL     OW22807   3.125   1.079   0.238
 7303SOL    HW122808   3.210   1.091   0.290
 7303SOL    HW222809   3.122   0.985   0.202
 7304SOL     OW22810   2.502   4.950   1.281
 7304SOL    HW122811   2.554   4.926   1.200
 7304SOL    HW222812   2.555   4.926   1.363
 7305SOL     OW22813   5.494   2.434   0.740
 7305SOL    HW122814   5.508   2.532   0.749
 7305SOL    HW222815   5.398   2.411   0.760
 7306SOL     OW22816   3.651   1.404   1.547
 7306SOL    HW122817   3.675   1.433   1.639
 7306SOL    HW222818   3.642   1.484   1.488
 7307SOL     OW22819   3.896   6.480   2.272
 7307SOL    HW122820   3.881   6.573   2.307
 7307SOL    HW222821   3.984   6.476   2.226
 7308SOL     OW22822   6.700   1.103   2.691
 7308SOL    HW122823   6.634   1.178   2.689
 7308SOL    HW222824   6.764   1.118   2.766
 7309SOL     OW22825   2.554   6.231   2.791
 7309SOL    HW122826   2.499   6.153   2.821
 7309SOL    HW222827   2.587   6.215   2.698
 7310SOL     OW22828   1.443   2.921   0.195
 7310SOL    HW122829   1.488   2.833   0.203
 7310SOL    HW222830   1.471   2.964   0.109
 7311SOL     OW22831   0.992   0.548   0.127
 7311SOL    HW122832   0.901   0.546   0.170
 7311SOL    HW222833   0.998   0.475   0.059
 7312SOL     OW22834   0.265   1.259   4.936
 7312SOL    HW122835   0.223   1.349   4.922
 7312SOL    HW222836   0.247   1.202   4.856
 7313SOL     OW22837   2.566   1.213   0.700
 7313SOL    HW122838   2.635   1.180   0.635
 7313SOL    HW222839   2.599   1.199   0.793
 7314SOL     OW22840   0.292   4.178   6.804
 7314SOL    HW122841   0.314   4.108   6.736
 7314SOL    HW222842   0.199   4.212   6.788
 7315SOL     OW22843   6.380   5.465   2.380
 7315SOL    HW122844   6.463   5.504   2.418
 7315SOL    HW222845   6.332   5.534   2.326
 7316SOL     OW22846   3.205   1.977   6.113
 7316SOL    HW122847   3.276   2.028   6.067
 7316SOL    HW222848   3.179   2.024   6.198
 7317SOL     OW22849   3.460   1.708   2.069
 7317SOL    HW122850   3.388   1.772   2.044
 7317SOL    HW222851   3.420   1.630   2.118
 7318SOL     OW22852   4.025   6.886   2.312
 7318SOL    HW122853   4.066   6.931   2.391
 7318SOL    HW222854   3.973   6.953   2.259
 7319SOL     OW22855   0.023   3.125   6.803
 7319SOL    HW122856   6.993   3.105   6.719
 7319SOL    HW222857   0.099   3.061   6.812
 7320SOL     OW22858   6.728   4.332   1.173
 7320SOL    HW122859   6.786   4.255   1.203
 7320SOL    HW222860   6.774   4.418   1.195
 7321SOL     OW22861   1.738   6.479   6.166
 7321SOL    HW122862   1.666   6.465   6.235
 7321SOL    HW222863   1.701   6.459   6.076
 7322SOL     OW22864   0.629   2.365   3.264
 7322SOL    HW122865   0.684   2.346   3.183
 7322SOL    HW222866   0.686   2.411   3.333
 7323SOL     OW22867   2.548   1.544   1.944
 7323SOL    HW122868   2.507   1.457   1.973
 7323SOL    HW222869   2.558   1.545   1.845
 7324SOL     OW22870   6.051   4.343   2.230
 7324SOL    HW122871   6.077   4.326   2.325
 7324SOL    HW222872   5.987   4.273   2.200
 7325SOL     OW22873   3.139   0.607   5.574
 7325SOL    HW122874   3.233   0.629   5.599
 7325SOL    HW222875   3.086   0.692   5.569
 7326SOL     OW22876   3.726   0.435   6.727
 7326SOL    HW122877   3.722   0.359   6.663
 7326SOL    HW222878   3.719   0.521   6.677
 7327SOL     OW22879   6.032   4.232   3.428
 7327SOL    HW122880   6.082   4.164   3.481
 7327SOL    HW222881   6.075   4.242   3.338
 7328SOL     OW22882   4.103   5.506   5.671
 7328SOL    HW122883   4.090   5.417   5.627
 7328SOL    HW222884   4.185   5.504   5.728
 7329SOL     OW22885   0.437   2.555   0.418
 7329SOL    HW122886   0.359   2.497   0.395
 7329SOL    HW222887   0.515   2.532   0.360
 7330SOL     OW22888   3.170   2.916   1.263
 7330SOL    HW122889   3.206   2.831   1.302
 7330SOL    HW222890   3.093   2.948   1.318
 7331SOL     OW22891   4.748   0.000   1.863
 7331SOL    HW122892   4.688   0.080   1.858
 7331SOL    HW222893   4.749   6.986   1.957
 7332SOL     OW22894   4.118   4.153   6.941
 7332SOL    HW122895   4.144   4.248   6.922
 7332SOL    HW222896   4.025   4.151   6.976
 7333SOL     OW22897   5.775   3.091   3.132
 7333SOL    HW122898   5.765   3.170   3.193
 7333SOL    HW222899   5.790   3.123   3.038
 7334SOL     OW22900   2.619   5.930   6.413
 7334SOL    HW122901   2.597   5.979   6.329
 7334SOL    HW222902   2.534   5.911   6.463
 7335SOL     OW22903   0.026   3.505   2.830
 7335SOL    HW122904   0.117   3.500   2.789
 7335SOL    HW222905   0.025   3.574   2.902
 7336SOL     OW22906   1.667   6.196   0.844
 7336SOL    HW122907   1.624   6.280   0.809
 7336SOL    HW222908   1.732   6.161   0.777
 7337SOL     OW22909   3.497   2.578   1.350
 7337SOL    HW122910   3.553   2.502   1.385
 7337SOL    HW222911   3.503   2.580   1.250
 7338SOL     OW22912   5.724   2.746   1.332
 7338SOL    HW122913   5.795   2.708   1.391
 7338SOL    HW222914   5.739   2.844   1.319
 7339SOL     OW22915   0.227   6.482   5.471
 7339SOL    HW122916   0.263   6.550   5.407
 7339SOL    HW222917   0.254   6.505   5.564
 7340SOL     OW22918   3.274   0.988   6.964
 7340SOL    HW122919   3.246   0.942   0.027
 7340SOL    HW222920   3.365   0.956   6.937
 7341SOL     OW22921   1.119   5.247   4.385
 7341SOL    HW122922   1.182   5.218   4.457
 7341SOL    HW222923   1.077   5.167   4.343
 7342SOL     OW22924   6.657   0.449   0.745
 7342SOL    HW122925   6.603   0.378   0.790
 7342SOL    HW222926   6.657   0.531   0.802
 7343SOL     OW22927   5.650   3.644   2.058
 7343SOL    HW122928   5.699   3.664   1.974
 7343SOL    HW222929   5.711   3.653   2.136
 7344SOL     OW22930   1.729   0.061   6.818
 7344SOL    HW122931   1.674   7.003   6.790
 7344SOL    HW222932   1.680   0.145   6.797
 7345SOL     OW22933   4.627   4.830   6.077
 7345SOL    HW122934   4.708   4.879   6.044
 7345SOL    HW222935   4.641   4.803   6.172
 7346SOL     OW22936   4.079   4.032   1.183
 7346SOL    HW122937   3.991   4.078   1.199
 7346SOL    HW222938   4.153   4.099   1.193
 7347SOL     OW22939   6.647   2.444   2.608
 7347SOL    HW122940   6.668   2.346   2.598
 7347SOL    HW222941   6.586   2.472   2.534
 7348SOL     OW22942   1.825   3.558   3.634
 7348SOL    HW122943   1.873   3.480   3.674
 7348SOL    HW222944   1.857   3.643   3.676
 7349SOL     OW22945   3.681   1.628   1.412
 7349SOL    HW122946   3.644   1.720   1.427
 7349SOL    HW222947   3.668   1.602   1.316
 7350SOL     OW22948   0.272   3.071   3.753
 7350SOL    HW122949   0.255   3.132   3.676
 7350SOL    HW222950   0.222   2.985   3.739
 7351SOL     OW22951   3.986   4.255   6.390
 7351SOL    HW122952   4.028   4.306   6.466
 7351SOL    HW222953   3.887   4.267   6.393
 7352SOL     OW22954   1.446   1.756   3.503
 7352SOL    HW122955   1.382   1.681   3.516
 7352SOL    HW222956   1.476   1.791   3.592
 7353SOL     OW22957   0.520   1.652   5.470
 7353SOL    HW122958   0.479   1.629   5.382
 7353SOL    HW222959   0.452   1.697   5.528
 7354SOL     OW22960   0.051   0.719   6.214
 7354SOL    HW122961   0.119   0.789   6.235
 7354SOL    HW222962   0.045   0.708   6.114
 7355SOL     OW22963   1.524   5.631   1.158
 7355SOL    HW122964   1.492   5.548   1.205
 7355SOL    HW222965   1.449   5.697   1.154
 7356SOL     OW22966   5.455   2.418   6.411
 7356SOL    HW122967   5.552   2.423   6.434
 7356SOL    HW222968   5.407   2.362   6.479
 7357SOL     OW22969   4.808   0.985   1.570
 7357SOL    HW122970   4.819   0.923   1.493
 7357SOL    HW222971   4.878   1.057   1.565
 7358SOL     OW22972   2.573   2.012   2.307
 7358SOL    HW122973   2.628   2.091   2.281
 7358SOL    HW222974   2.628   1.950   2.364
 7359SOL     OW22975   3.579   2.772   0.912
 7359SOL    HW122976   3.551   2.713   0.988
 7359SOL    HW222977   3.538   2.739   0.827
 7360SOL     OW22978   1.949   2.263   5.495
 7360SOL    HW122979   1.984   2.317   5.572
 7360SOL    HW222980   2.017   2.261   5.422
 7361SOL     OW22981   4.654   7.020   1.424
 7361SOL    HW122982   4.669   6.926   1.455
 7361SOL    HW222983   4.719   0.060   1.470
 7362SOL     OW22984   0.754   6.813   4.642
 7362SOL    HW122985   0.770   6.776   4.551
 7362SOL    HW222986   0.791   6.906   4.647
 7363SOL     OW22987   4.904   2.016   0.229
 7363SOL    HW122988   4.967   1.941   0.248
 7363SOL    HW222989   4.955   2.099   0.210
 7364SOL     OW22990   3.898   6.484   1.600
 7364SOL    HW122991   3.851   6.402   1.564
 7364SOL    HW222992   3.909   6.550   1.526
 7365SOL     OW22993   2.859   6.502   2.250
 7365SOL    HW122994   2.795   6.449   2.195
 7365SOL    HW222995   2.879   6.452   2.335
 7366SOL     OW22996   1.126   5.172   0.416
 7366SOL    HW122997   1.182   5.255   0.413
 7366SOL    HW222998   1.034   5.193   0.382
 7367SOL     OW22999   4.218   3.920   0.984
 7367SOL    HW123000   4.294   3.864   1.015
 7367SOL    HW223001   4.170   3.958   1.063
 7368SOL     OW23002   2.907   3.307   3.835
 7368SOL    HW123003   2.937   3.340   3.745
 7368SOL    HW223004   2.920   3.379   3.903
 7369SOL     OW23005   4.773   3.298   0.912
 7369SOL    HW123006   4.859   3.309   0.962
 7369SOL    HW223007   4.697   3.330   0.969
 7370SOL     OW23008   1.734   0.888   5.963
 7370SOL    HW123009   1.811   0.841   6.007
 7370SOL    HW223010   1.699   0.958   6.025
 7371SOL     OW23011   3.006   5.451   4.386
 7371SOL    HW123012   3.100   5.449   4.352
 7371SOL    HW223013   2.994   5.383   4.459
 7372SOL     OW23014   3.392   0.121   5.558
 7372SOL    HW123015   3.420   0.086   5.469
 7372SOL    HW223016   3.307   0.172   5.549
 7373SOL     OW23017   4.635   1.228   3.588
 7373SOL    HW123018   4.629   1.141   3.635
 7373SOL    HW223019   4.654   1.213   3.491
 7374SOL     OW23020   2.083   2.707   5.386
 7374SOL    HW123021   2.178   2.685   5.411
 7374SOL    HW223022   2.037   2.747   5.465
 7375SOL     OW23023   1.395   1.912   3.927
 7375SOL    HW123024   1.345   1.996   3.905
 7375SOL    HW223025   1.478   1.907   3.872
 7376SOL     OW23026   3.194   2.633   6.924
 7376SOL    HW123027   3.117   2.698   6.918
 7376SOL    HW223028   3.277   2.677   6.890
 7377SOL     OW23029   4.385   5.428   2.323
 7377SOL    HW123030   4.371   5.458   2.417
 7377SOL    HW223031   4.357   5.333   2.313
 7378SOL     OW23032   6.669   1.901   4.482
 7378SOL    HW123033   6.637   1.951   4.563
 7378SOL    HW223034   6.668   1.803   4.500
 7379SOL     OW23035   4.357   1.358   2.935
 7379SOL    HW123036   4.369   1.292   2.860
 7379SOL    HW223037   4.271   1.407   2.922
 7380SOL     OW23038   0.666   3.352   5.734
 7380SOL    HW123039   0.644   3.440   5.776
 7380SOL    HW223040   0.699   3.367   5.641
 7381SOL     OW23041   4.880   2.905   2.360
 7381SOL    HW123042   4.873   2.810   2.328
 7381SOL    HW223043   4.850   2.910   2.455
 7382SOL     OW23044   7.017   4.913   4.462
 7382SOL    HW123045   0.015   4.985   4.396
 7382SOL    HW223046   6.923   4.882   4.452
 7383SOL     OW23047   6.923   6.591   2.713
 7383SOL    HW123048   7.020   6.600   2.736
 7383SOL    HW223049   6.906   6.500   2.676
 7384SOL     OW23050   5.059   1.219   1.717
 7384SOL    HW123051   5.034   1.234   1.813
 7384SOL    HW223052   5.103   1.302   1.681
 7385SOL     OW23053   3.724   5.758   2.384
 7385SOL    HW123054   3.707   5.687   2.453
 7385SOL    HW223055   3.821   5.780   2.383
 7386SOL     OW23056   0.981   2.660   5.584
 7386SOL    HW123057   0.906   2.634   5.523
 7386SOL    HW223058   1.050   2.587   5.585
 7387SOL     OW23059   4.691   6.335   4.638
 7387SOL    HW123060   4.759   6.382   4.693
 7387SOL    HW223061   4.713   6.237   4.634
 7388SOL     OW23062   6.727   5.568   3.753
 7388SOL    HW123063   6.769   5.575   3.662
 7388SOL    HW223064   6.753   5.647   3.808
 7389SOL     OW23065   1.208   4.559   6.978
 7389SOL    HW123066   1.258   4.644   6.992
 7389SOL    HW223067   1.263   4.482   7.008
 7390SOL     OW23068   1.524   1.710   6.518
 7390SOL    HW123069   1.479   1.699   6.430
 7390SOL    HW223070   1.573   1.797   6.520
 7391SOL     OW23071   4.605   4.034   5.433
 7391SOL    HW123072   4.509   4.012   5.418
 7391SOL    HW223073   4.658   4.011   5.351
 7392SOL     OW23074   2.615   6.027   6.091
 7392SOL    HW123075   2.606   5.967   6.012
 7392SOL    HW223076   2.694   6.087   6.080
 7393SOL     OW23077   5.738   5.423   1.808
 7393SOL    HW123078   5.716   5.395   1.902
 7393SOL    HW223079   5.809   5.493   1.810
 7394SOL     OW23080   3.563   2.795   6.407
 7394SOL    HW123081   3.571   2.849   6.323
 7394SOL    HW223082   3.466   2.784   6.430
 7395SOL     OW23083   0.868   1.019   6.985
 7395SOL    HW123084   0.861   1.101   6.928
 7395SOL    HW223085   0.963   0.990   6.991
 7396SOL     OW23086   1.521   1.124   6.903
 7396SOL    HW123087   1.529   1.124   7.003
 7396SOL    HW223088   1.603   1.165   6.863
 7397SOL     OW23089   6.423   4.992   4.292
 7397SOL    HW123090   6.475   5.006   4.207
 7397SOL    HW223091   6.330   4.964   4.269
 7398SOL     OW23092   3.576   5.235   4.495
 7398SOL    HW123093   3.651   5.298   4.513
 7398SOL    HW223094   3.582   5.203   4.400
 7399SOL     OW23095   0.860   4.167   4.831
 7399SOL    HW123096   0.871   4.213   4.919
 7399SOL    HW223097   0.863   4.068   4.844
 7400SOL     OW23098   2.955   3.988   0.205
 7400SOL    HW123099   3.021   3.921   0.169
 7400SOL    HW223100   2.992   4.030   0.288
 7401SOL     OW23101   0.484   1.449   3.281
 7401SOL    HW123102   0.437   1.528   3.244
 7401SOL    HW223103   0.449   1.366   3.237
 7402SOL     OW23104   2.080   0.073   4.026
 7402SOL    HW123105   2.011   0.131   3.983
 7402SOL    HW223106   2.035   7.019   4.075
 7403SOL     OW23107   2.216   3.039   3.432
 7403SOL    HW123108   2.194   3.135   3.454
 7403SOL    HW223109   2.255   3.033   3.341
 7404SOL     OW23110   2.177   6.806   1.150
 7404SOL    HW123111   2.128   6.838   1.069
 7404SOL    HW223112   2.240   6.732   1.124
 7405SOL     OW23113   0.996   4.956   4.224
 7405SOL    HW123114   0.955   4.865   4.221
 7405SOL    HW223115   0.945   5.018   4.164
 7406SOL     OW23116   1.721   3.298   2.389
 7406SOL    HW123117   1.682   3.278   2.479
 7406SOL    HW223118   1.759   3.390   2.388
 7407SOL     OW23119   0.376   6.636   4.982
 7407SOL    HW123120   0.362   6.651   4.884
 7407SOL    HW223121   0.337   6.547   5.007
 7408SOL     OW23122   1.286   4.303   5.153
 7408SOL    HW123123   1.372   4.335   5.193
 7408SOL    HW223124   1.241   4.379   5.107
 7409SOL     OW23125   0.634   1.053   4.536
 7409SOL    HW123126   0.565   1.091   4.598
 7409SOL    HW223127   0.710   1.118   4.528
 7410SOL     OW23128   6.650   5.117   1.011
 7410SOL    HW123129   6.602   5.169   0.940
 7410SOL    HW223130   6.583   5.069   1.067
 7411SOL     OW23131   2.586   0.046   4.420
 7411SOL    HW123132   2.518   7.004   4.458
 7411SOL    HW223133   2.653   7.015   4.366
 7412SOL     OW23134   3.247   1.316   1.039
 7412SOL    HW123135   3.308   1.267   0.976
 7412SOL    HW223136   3.261   1.414   1.029
 7413SOL     OW23137   0.264   4.671   3.813
 7413SOL    HW123138   0.212   4.597   3.856
 7413SOL    HW223139   0.346   4.633   3.771
 7414SOL     OW23140   6.984   0.105   2.419
 7414SOL    HW123141   0.039   0.171   2.424
 7414SOL    HW223142   7.000   0.031   2.484
 7415SOL     OW23143   0.527   3.901   3.042
 7415SOL    HW123144   0.507   3.941   3.132
 7415SOL    HW223145   0.603   3.837   3.049
 7416SOL     OW23146   3.546   0.748   3.796
 7416SOL    HW123147   3.458   0.705   3.816
 7416SOL    HW223148   3.609   0.732   3.872
 7417SOL     OW23149   1.325   7.021   6.010
 7417SOL    HW123150   1.230   0.006   5.976
 7417SOL    HW223151   1.380   0.070   5.966
 7418SOL     OW23152   3.364   4.635   1.054
 7418SOL    HW123153   3.409   4.639   0.964
 7418SOL    HW223154   3.373   4.723   1.100
 7419SOL     OW23155   6.498   1.972   5.046
 7419SOL    HW123156   6.457   2.023   5.122
 7419SOL    HW223157   6.440   1.980   4.965
 7420SOL     OW23158   6.349   6.475   2.878
 7420SOL    HW123159   6.383   6.561   2.840
 7420SOL    HW223160   6.335   6.485   2.977
 7421SOL     OW23161   2.519   2.889   1.391
 7421SOL    HW123162   2.549   2.909   1.298
 7421SOL    HW223163   2.571   2.811   1.426
 7422SOL     OW23164   0.217   3.373   2.273
 7422SOL    HW123165   0.229   3.275   2.292
 7422SOL    HW223166   0.139   3.408   2.323
 7423SOL     OW23167   0.368   4.066   6.168
 7423SOL    HW123168   0.322   3.982   6.141
 7423SOL    HW223169   0.302   4.131   6.204
 7424SOL     OW23170   5.812   1.225   4.321
 7424SOL    HW123171   5.824   1.129   4.297
 7424SOL    HW223172   5.898   1.274   4.305
 7425SOL     OW23173   4.115   4.706   6.646
 7425SOL    HW123174   4.087   4.802   6.646
 7425SOL    HW223175   4.204   4.696   6.601
 7426SOL     OW23176   0.835   2.189   6.881
 7426SOL    HW123177   0.852   2.242   6.798
 7426SOL    HW223178   0.746   2.214   6.919
 7427SOL     OW23179   3.252   5.900   5.053
 7427SOL    HW123180   3.210   5.853   5.131
 7427SOL    HW223181   3.183   5.915   4.982
 7428SOL     OW23182   3.350   1.480   5.490
 7428SOL    HW123183   3.374   1.539   5.414
 7428SOL    HW223184   3.260   1.440   5.474
 7429SOL     OW23185   5.938   0.385   3.045
 7429SOL    HW123186   5.953   0.482   3.064
 7429SOL    HW223187   6.002   0.330   3.098
 7430SOL     OW23188   0.329   4.605   5.800
 7430SOL    HW123189   0.409   4.574   5.749
 7430SOL    HW223190   0.334   4.570   5.894
 7431SOL     OW23191   0.260   4.284   2.281
 7431SOL    HW123192   0.263   4.280   2.381
 7431SOL    HW223193   0.298   4.371   2.249
 7432SOL     OW23194   0.617   6.684   3.698
 7432SOL    HW123195   0.544   6.744   3.731
 7432SOL    HW223196   0.705   6.719   3.730
 7433SOL     OW23197   6.702   5.331   0.184
 7433SOL    HW123198   6.636   5.274   0.135
 7433SOL    HW223199   6.711   5.419   0.139
 7434SOL     OW23200   3.823   0.715   6.588
 7434SOL    HW123201   3.908   0.668   6.564
 7434SOL    HW223202   3.746   0.665   6.549
 7435SOL     OW23203   2.991   6.577   6.740
 7435SOL    HW123204   2.956   6.625   6.660
 7435SOL    HW223205   3.067   6.518   6.712
 7436SOL     OW23206   0.042   3.110   6.307
 7436SOL    HW123207   0.139   3.122   6.325
 7436SOL    HW223208   0.026   3.019   6.271
 7437SOL     OW23209   6.984   5.765   7.006
 7437SOL    HW123210   6.974   5.672   0.019
 7437SOL    HW223211   6.893   5.803   6.984
 7438SOL     OW23212   1.092   4.055   0.877
 7438SOL    HW123213   1.001   4.022   0.854
 7438SOL    HW223214   1.138   4.087   0.794
 7439SOL     OW23215   2.693   0.087   4.050
 7439SOL    HW123216   2.708   0.084   4.149
 7439SOL    HW223217   2.671   7.016   4.017
 7440SOL     OW23218   0.979   3.102   4.420
 7440SOL    HW123219   0.982   3.091   4.520
 7440SOL    HW223220   0.902   3.050   4.384
 7441SOL     OW23221   5.853   6.524   4.497
 7441SOL    HW123222   5.776   6.530   4.433
 7441SOL    HW223223   5.918   6.455   4.465
 7442SOL     OW23224   0.917   0.805   5.966
 7442SOL    HW123225   0.981   0.878   5.986
 7442SOL    HW223226   0.851   0.836   5.898
 7443SOL     OW23227   0.192   1.592   1.537
 7443SOL    HW123228   0.220   1.593   1.441
 7443SOL    HW223229   0.104   1.638   1.547
 7444SOL     OW23230   0.494   3.361   5.433
 7444SOL    HW123231   0.490   3.272   5.388
 7444SOL    HW223232   0.585   3.400   5.420
 7445SOL     OW23233   3.799   1.011   1.398
 7445SOL    HW123234   3.832   1.007   1.493
 7445SOL    HW223235   3.753   1.098   1.382
 7446SOL     OW23236   5.506   4.660   0.339
 7446SOL    HW123237   5.535   4.739   0.286
 7446SOL    HW223238   5.541   4.576   0.295
 7447SOL     OW23239   2.649   3.694   6.965
 7447SOL    HW123240   2.741   3.726   6.989
 7447SOL    HW223241   2.598   3.766   6.919
 7448SOL     OW23242   5.325   5.986   5.932
 7448SOL    HW123243   5.268   6.052   5.982
 7448SOL    HW223244   5.267   5.922   5.883
 7449SOL     OW23245   4.712   2.789   2.158
 7449SOL    HW123246   4.635   2.817   2.101
 7449SOL    HW223247   4.797   2.829   2.123
 7450SOL     OW23248   5.290   2.860   4.475
 7450SOL    HW123249   5.235   2.927   4.425
 7450SOL    HW223250   5.232   2.783   4.501
 7451SOL     OW23251   1.714   0.340   3.451
 7451SOL    HW123252   1.640   0.405   3.465
 7451SOL    HW223253   1.770   0.369   3.373
 7452SOL     OW23254   1.006   0.064   4.965
 7452SOL    HW123255   0.919   0.061   4.915
 7452SOL    HW223256   0.995   0.118   5.048
 7453SOL     OW23257   5.458   5.764   5.202
 7453SOL    HW123258   5.490   5.809   5.119
 7453SOL    HW223259   5.453   5.831   5.276
 7454SOL     OW23260   1.067   3.015   2.114
 7454SOL    HW123261   1.031   3.078   2.045
 7454SOL    HW223262   1.104   2.933   2.069
 7455SOL     OW23263   6.900   1.347   1.644
 7455SOL    HW123264   6.863   1.264   1.686
 7455SOL    HW223265   6.838   1.424   1.661
 7456SOL     OW23266   1.191   1.884   4.329
 7456SOL    HW123267   1.289   1.899   4.336
 7456SOL    HW223268   1.146   1.968   4.299
 7457SOL     OW23269   4.038   0.553   6.477
 7457SOL    HW123270   4.124   0.572   6.429
 7457SOL    HW223271   4.059   0.517   6.568
 7458SOL     OW23272   1.538   0.175   6.623
 7458SOL    HW123273   1.521   0.272   6.641
 7458SOL    HW223274   1.530   0.158   6.525
 7459SOL     OW23275   4.414   0.082   0.151
 7459SOL    HW123276   4.369   0.105   0.064
 7459SOL    HW223277   4.508   0.117   0.150
 7460SOL     OW23278   2.117   4.204   0.272
 7460SOL    HW123279   2.138   4.293   0.230
 7460SOL    HW223280   2.106   4.216   0.371
 7461SOL     OW23281   4.842   1.609   5.463
 7461SOL    HW123282   4.831   1.631   5.559
 7461SOL    HW223283   4.842   1.693   5.409
 7462SOL     OW23284   1.881   2.711   2.116
 7462SOL    HW123285   1.790   2.671   2.106
 7462SOL    HW223286   1.936   2.689   2.035
 7463SOL     OW23287   3.925   3.667   1.592
 7463SOL    HW123288   3.852   3.603   1.570
 7463SOL    HW223289   3.978   3.686   1.509
 7464SOL     OW23290   3.691   6.555   6.432
 7464SOL    HW123291   3.776   6.574   6.480
 7464SOL    HW223292   3.615   6.554   6.498
 7465SOL     OW23293   1.362   0.536   0.907
 7465SOL    HW123294   1.420   0.591   0.968
 7465SOL    HW223295   1.401   0.535   0.815
 7466SOL     OW23296   0.244   0.946   6.790
 7466SOL    HW123297   0.319   1.013   6.787
 7466SOL    HW223298   0.227   0.919   6.884
 7467SOL     OW23299   6.117   2.068   1.036
 7467SOL    HW123300   6.049   2.011   0.991
 7467SOL    HW223301   6.076   2.112   1.116
 7468SOL     OW23302   5.271   2.313   2.357
 7468SOL    HW123303   5.325   2.365   2.423
 7468SOL    HW223304   5.242   2.374   2.282
 7469SOL     OW23305   0.694   0.185   0.024
 7469SOL    HW123306   0.712   0.137   0.110
 7469SOL    HW223307   0.602   0.163   7.013
 7470SOL     OW23308   0.010   3.197   3.621
 7470SOL    HW123309   6.956   3.247   3.663
 7470SOL    HW223310   0.077   3.261   3.583
 7471SOL     OW23311   6.049   6.811   4.207
 7471SOL    HW123312   6.051   6.721   4.252
 7471SOL    HW223313   5.958   6.827   4.170
 7472SOL     OW23314   5.765   6.542   3.950
 7472SOL    HW123315   5.788   6.447   3.931
 7472SOL    HW223316   5.835   6.582   4.009
 7473SOL     OW23317   0.296   4.762   3.138
 7473SOL    HW123318   0.371   4.710   3.095
 7473SOL    HW223319   0.319   4.859   3.135
 7474SOL     OW23320   3.098   1.053   4.761
 7474SOL    HW123321   3.136   0.965   4.791
 7474SOL    HW223322   3.115   1.122   4.831
 7475SOL     OW23323   4.092   1.620   2.603
 7475SOL    HW123324   4.128   1.679   2.531
 7475SOL    HW223325   4.059   1.535   2.562
 7476SOL     OW23326   4.241   6.488   4.407
 7476SOL    HW123327   4.325   6.497   4.354
 7476SOL    HW223328   4.165   6.464   4.346
 7477SOL     OW23329   4.932   1.259   3.940
 7477SOL    HW123330   4.981   1.187   3.990
 7477SOL    HW223331   4.834   1.251   3.957
 7478SOL     OW23332   4.039   3.704   6.241
 7478SOL    HW123333   3.953   3.724   6.194
 7478SOL    HW223334   4.063   3.781   6.300
 7479SOL     OW23335   4.227   2.804   1.049
 7479SOL    HW123336   4.171   2.732   1.088
 7479SOL    HW223337   4.221   2.886   1.106
 7480SOL     OW23338   5.928   5.464   1.529
 7480SOL    HW123339   5.924   5.554   1.485
 7480SOL    HW223340   5.961   5.474   1.623
 7481SOL     OW23341   5.371   5.441   1.468
 7481SOL    HW123342   5.395   5.349   1.436
 7481SOL    HW223343   5.274   5.458   1.448
 7482SOL     OW23344   4.539   1.786   2.464
 7482SOL    HW123345   4.441   1.791   2.450
 7482SOL    HW223346   4.576   1.878   2.476
 7483SOL     OW23347   4.110   1.851   4.661
 7483SOL    HW123348   4.052   1.918   4.707
 7483SOL    HW223349   4.174   1.811   4.726
 7484SOL     OW23350   6.435   0.249   2.321
 7484SOL    HW123351   6.443   0.348   2.314
 7484SOL    HW223352   6.520   0.206   2.290
 7485SOL     OW23353   3.175   5.988   5.529
 7485SOL    HW123354   3.126   5.972   5.615
 7485SOL    HW223355   3.268   6.019   5.549
 7486SOL     OW23356   2.491   0.067   5.744
 7486SOL    HW123357   2.457   6.996   5.722
 7486SOL    HW223358   2.423   0.115   5.800
 7487SOL     OW23359   2.123   6.393   2.453
 7487SOL    HW123360   2.160   6.312   2.498
 7487SOL    HW223361   2.194   6.436   2.396
 7488SOL     OW23362   1.870   6.337   4.998
 7488SOL    HW123363   1.935   6.352   5.072
 7488SOL    HW223364   1.780   6.373   5.025
 7489SOL     OW23365   5.119   2.613   5.210
 7489SOL    HW123366   5.198   2.606   5.149
 7489SOL    HW223367   5.061   2.690   5.181
 7490SOL     OW23368   1.023   1.606   1.290
 7490SOL    HW123369   1.039   1.567   1.200
 7490SOL    HW223370   0.957   1.681   1.283
 7491SOL     OW23371   0.287   4.696   6.478
 7491SOL    HW123372   0.230   4.689   6.559
 7491SOL    HW223373   0.240   4.655   6.400
 7492SOL     OW23374   2.557   1.476   4.496
 7492SOL    HW123375   2.559   1.454   4.594
 7492SOL    HW223376   2.580   1.573   4.484
 7493SOL     OW23377   5.960   4.377   6.357
 7493SOL    HW123378   6.056   4.396   6.334
 7493SOL    HW223379   5.926   4.302   6.300
 7494SOL     OW23380   5.749   1.215   2.652
 7494SOL    HW123381   5.740   1.276   2.731
 7494SOL    HW223382   5.774   1.269   2.571
 7495SOL     OW23383   2.250   1.514   0.898
 7495SOL    HW123384   2.274   1.423   0.933
 7495SOL    HW223385   2.304   1.533   0.816
 7496SOL     OW23386   0.587   3.614   6.097
 7496SOL    HW123387   0.640   3.688   6.140
 7496SOL    HW223388   0.605   3.528   6.146
 7497SOL     OW23389   3.003   4.670   1.131
 7497SOL    HW123390   3.085   4.648   1.184
 7497SOL    HW223391   2.941   4.726   1.186
 7498SOL     OW23392   2.413   0.727   4.352
 7498SOL    HW123393   2.433   0.790   4.426
 7498SOL    HW223394   2.498   0.686   4.319
 7499SOL     OW23395   6.383   0.879   3.557
 7499SOL    HW123396   6.288   0.849   3.573
 7499SOL    HW223397   6.441   0.799   3.542
 7500SOL     OW23398   4.324   6.390   3.263
 7500SOL    HW123399   4.271   6.463   3.220
 7500SOL    HW223400   4.416   6.388   3.224
 7501SOL     OW23401   6.782   4.264   4.441
 7501SOL    HW123402   6.701   4.245   4.385
 7501SOL    HW223403   6.767   4.347   4.494
 7502SOL     OW23404   1.315   0.836   5.269
 7502SOL    HW123405   1.268   0.753   5.298
 7502SOL    HW223406   1.255   0.890   5.211
 7503SOL     OW23407   2.513   1.248   0.284
 7503SOL    HW123408   2.455   1.259   0.365
 7503SOL    HW223409   2.483   1.168   0.232
 7504SOL     OW23410   3.419   0.261   3.245
 7504SOL    HW123411   3.516   0.241   3.253
 7504SOL    HW223412   3.405   0.334   3.179
 7505SOL     OW23413   2.564   0.654   5.311
 7505SOL    HW123414   2.497   0.725   5.288
 7505SOL    HW223415   2.534   0.567   5.273
 7506SOL     OW23416   4.087   0.026   2.510
 7506SOL    HW123417   4.022   0.090   2.551
 7506SOL    HW223418   4.181   0.056   2.530
 7507SOL     OW23419   6.973   0.325   1.195
 7507SOL    HW123420   6.971   0.409   1.248
 7507SOL    HW223421   0.047   0.296   1.181
 7508SOL     OW23422   5.340   6.926   2.148
 7508SOL    HW123423   5.405   6.944   2.074
 7508SOL    HW223424   5.278   7.004   2.157
 7509SOL     OW23425   5.460   4.541   0.998
 7509SOL    HW123426   5.537   4.477   0.996
 7509SOL    HW223427   5.393   4.514   0.928
 7510SOL     OW23428   2.641   4.190   5.772
 7510SOL    HW123429   2.674   4.183   5.867
 7510SOL    HW223430   2.714   4.227   5.715
 7511SOL     OW23431   1.634   0.879   2.837
 7511SOL    HW123432   1.682   0.859   2.922
 7511SOL    HW223433   1.628   0.978   2.825
 7512SOL     OW23434   2.855   4.502   1.447
 7512SOL    HW123435   2.877   4.473   1.353
 7512SOL    HW223436   2.914   4.578   1.473
 7513SOL     OW23437   1.948   2.205   0.903
 7513SOL    HW123438   1.956   2.288   0.847
 7513SOL    HW223439   1.972   2.226   0.998
 7514SOL     OW23440   2.830   5.877   2.134
 7514SOL    HW123441   2.839   5.785   2.172
 7514SOL    HW223442   2.901   5.891   2.064
 7515SOL     OW23443   1.643   6.230   2.177
 7515SOL    HW123444   1.722   6.265   2.227
 7515SOL    HW223445   1.575   6.196   2.241
 7516SOL     OW23446   0.100   5.823   4.526
 7516SOL    HW123447   0.168   5.887   4.490
 7516SOL    HW223448   0.074   5.851   4.618
 7517SOL     OW23449   6.748   3.593   1.652
 7517SOL    HW123450   6.827   3.626   1.601
 7517SOL    HW223451   6.737   3.495   1.637
 7518SOL     OW23452   3.929   5.770   3.817
 7518SOL    HW123453   3.946   5.696   3.752
 7518SOL    HW223454   3.895   5.850   3.769
 7519SOL     OW23455   0.353   6.858   3.716
 7519SOL    HW123456   0.255   6.840   3.727
 7519SOL    HW223457   0.370   6.889   3.622
 7520SOL     OW23458   2.630   0.127   2.018
 7520SOL    HW123459   2.609   0.130   2.116
 7520SOL    HW223460   2.719   0.168   2.001
 7521SOL     OW23461   4.465   4.297   5.696
 7521SOL    HW123462   4.559   4.291   5.730
 7521SOL    HW223463   4.402   4.261   5.765
 7522SOL     OW23464   2.996   1.064   6.370
 7522SOL    HW123465   3.059   0.987   6.375
 7522SOL    HW223466   3.048   1.149   6.365
 7523SOL     OW23467   5.286   1.056   5.827
 7523SOL    HW123468   5.282   1.037   5.729
 7523SOL    HW223469   5.308   0.973   5.877
 7524SOL     OW23470   0.864   2.564   6.316
 7524SOL    HW123471   0.945   2.609   6.279
 7524SOL    HW223472   0.847   2.480   6.265
 7525SOL     OW23473   2.586   6.816   6.601
 7525SOL    HW123474   2.632   6.861   6.677
 7525SOL    HW223475   2.615   6.858   6.515
 7526SOL     OW23476   3.519   3.072   2.512
 7526SOL    HW123477   3.464   3.012   2.454
 7526SOL    HW223478   3.459   3.125   2.571
 7527SOL     OW23479   4.243   5.674   3.553
 7527SOL    HW123480   4.155   5.711   3.524
 7527SOL    HW223481   4.290   5.635   3.474
 7528SOL     OW23482   4.267   2.362   6.869
 7528SOL    HW123483   4.335   2.290   6.860
 7528SOL    HW223484   4.189   2.342   6.811
 7529SOL     OW23485   5.845   1.162   4.601
 7529SOL    HW123486   5.825   1.154   4.504
 7529SOL    HW223487   5.895   1.081   4.632
 7530SOL     OW23488   6.061   3.587   2.205
 7530SOL    HW123489   6.104   3.515   2.149
 7530SOL    HW223490   6.111   3.673   2.193
 7531SOL     OW23491   4.088   2.233   4.014
 7531SOL    HW123492   3.992   2.209   4.006
 7531SOL    HW223493   4.142   2.178   3.950
 7532SOL     OW23494   4.931   5.554   1.577
 7532SOL    HW123495   4.861   5.626   1.581
 7532SOL    HW223496   4.961   5.543   1.482
 7533SOL     OW23497   2.696   0.761   3.109
 7533SOL    HW123498   2.636   0.821   3.163
 7533SOL    HW223499   2.763   0.817   3.060
 7534SOL     OW23500   3.389   6.677   4.992
 7534SOL    HW123501   3.315   6.722   4.941
 7534SOL    HW223502   3.351   6.604   5.048
 7535SOL     OW23503   2.192   1.045   5.587
 7535SOL    HW123504   2.231   1.135   5.609
 7535SOL    HW223505   2.098   1.040   5.620
 7536SOL     OW23506   5.238   4.748   4.724
 7536SOL    HW123507   5.298   4.668   4.722
 7536SOL    HW223508   5.282   4.824   4.676
 7537SOL     OW23509   2.405   5.147   4.929
 7537SOL    HW123510   2.465   5.082   4.883
 7537SOL    HW223511   2.346   5.192   4.861
 7538SOL     OW23512   3.277   3.279   1.974
 7538SOL    HW123513   3.272   3.374   1.944
 7538SOL    HW223514   3.337   3.271   2.054
 7539SOL     OW23515   2.438   2.450   4.735
 7539SOL    HW123516   2.390   2.399   4.663
 7539SOL    HW223517   2.514   2.394   4.770
 7540SOL     OW23518   2.720   0.795   5.795
 7540SOL    HW123519   2.760   0.852   5.867
 7540SOL    HW223520   2.622   0.815   5.788
 7541SOL     OW23521   6.743   3.274   4.490
 7541SOL    HW123522   6.731   3.252   4.393
 7541SOL    HW223523   6.719   3.369   4.506
 7542SOL     OW23524   0.318   6.462   6.835
 7542SOL    HW123525   0.328   6.371   6.874
 7542SOL    HW223526   0.232   6.467   6.784
 7543SOL     OW23527   4.083   2.003   0.704
 7543SOL    HW123528   4.162   1.980   0.647
 7543SOL    HW223529   4.096   1.966   0.796
 7544SOL     OW23530   0.747   2.569   4.002
 7544SOL    HW123531   0.660   2.570   3.952
 7544SOL    HW223532   0.818   2.614   3.948
 7545SOL     OW23533   5.496   6.914   2.958
 7545SOL    HW123534   5.441   6.979   2.905
 7545SOL    HW223535   5.592   6.942   2.953
 7546SOL     OW23536   4.450   0.804   1.449
 7546SOL    HW123537   4.427   0.880   1.509
 7546SOL    HW223538   4.390   0.806   1.368
 7547SOL     OW23539   3.812   6.373   0.681
 7547SOL    HW123540   3.771   6.406   0.596
 7547SOL    HW223541   3.885   6.436   0.710
 7548SOL     OW23542   3.039   1.916   0.491
 7548SOL    HW123543   3.049   1.900   0.393
 7548SOL    HW223544   2.983   1.843   0.531
 7549SOL     OW23545   6.311   2.024   1.495
 7549SOL    HW123546   6.357   2.019   1.583
 7549SOL    HW223547   6.354   2.095   1.438
 7550SOL     OW23548   2.467   4.982   1.967
 7550SOL    HW123549   2.451   5.075   2.002
 7550SOL    HW223550   2.529   4.934   2.028
 7551SOL     OW23551   4.548   4.348   0.092
 7551SOL    HW123552   4.499   4.410   0.031
 7551SOL    HW223553   4.587   4.272   0.040
 7552SOL     OW23554   1.837   5.565   3.910
 7552SOL    HW123555   1.812   5.482   3.860
 7552SOL    HW223556   1.922   5.549   3.960
 7553SOL     OW23557   4.111   5.001   5.250
 7553SOL    HW123558   4.100   5.069   5.177
 7553SOL    HW223559   4.098   5.046   5.339
 7554SOL     OW23560   4.871   0.788   0.713
 7554SOL    HW123561   4.947   0.806   0.775
 7554SOL    HW223562   4.785   0.789   0.764
 7555SOL     OW23563   1.590   4.805   4.528
 7555SOL    HW123564   1.541   4.776   4.610
 7555SOL    HW223565   1.629   4.724   4.483
 7556SOL     OW23566   0.755   2.309   5.432
 7556SOL    HW123567   0.808   2.282   5.351
 7556SOL    HW223568   0.682   2.243   5.448
 7557SOL     OW23569   5.774   3.223   6.303
 7557SOL    HW123570   5.871   3.214   6.326
 7557SOL    HW223571   5.758   3.191   6.210
 7558SOL     OW23572   2.729   2.420   3.552
 7558SOL    HW123573   2.767   2.463   3.470
 7558SOL    HW223574   2.629   2.422   3.548
 7559SOL     OW23575   6.569   5.817   0.934
 7559SOL    HW123576   6.594   5.755   1.008
 7559SOL    HW223577   6.469   5.821   0.927
 7560SOL     OW23578   5.488   6.255   6.943
 7560SOL    HW123579   5.407   6.223   6.991
 7560SOL    HW223580   5.502   6.201   6.860
 7561SOL     OW23581   0.789   3.131   0.642
 7561SOL    HW123582   0.698   3.172   0.643
 7561SOL    HW223583   0.786   3.046   0.588
 7562SOL     OW23584   5.102   6.129   4.718
 7562SOL    HW123585   5.002   6.123   4.713
 7562SOL    HW223586   5.140   6.038   4.731
 7563SOL     OW23587   2.646   0.185   0.440
 7563SOL    HW123588   2.697   0.121   0.499
 7563SOL    HW223589   2.710   0.230   0.377
 7564SOL     OW23590   4.773   1.599   2.598
 7564SOL    HW123591   4.717   1.658   2.656
 7564SOL    HW223592   4.726   1.583   2.511
 7565SOL     OW23593   4.804   4.777   0.234
 7565SOL    HW123594   4.728   4.745   0.178
 7565SOL    HW223595   4.877   4.812   0.175
 7566SOL     OW23596   1.090   4.996   2.955
 7566SOL    HW123597   1.126   4.942   3.031
 7566SOL    HW223598   1.035   5.071   2.992
 7567SOL     OW23599   2.174   2.368   5.089
 7567SOL    HW123600   2.139   2.325   5.007
 7567SOL    HW223601   2.121   2.450   5.109
 7568SOL     OW23602   5.736   6.043   3.526
 7568SOL    HW123603   5.767   6.036   3.431
 7568SOL    HW223604   5.815   6.061   3.585
 7569SOL     OW23605   4.203   4.576   6.184
 7569SOL    HW123606   4.168   4.669   6.193
 7569SOL    HW223607   4.302   4.577   6.191
 7570SOL     OW23608   5.254   4.491   5.746
 7570SOL    HW123609   5.350   4.485   5.720
 7570SOL    HW223610   5.242   4.564   5.813
 7571SOL     OW23611   5.413   4.973   2.685
 7571SOL    HW123612   5.471   4.894   2.704
 7571SOL    HW223613   5.415   5.035   2.763
 7572SOL     OW23614   5.279   0.575   3.330
 7572SOL    HW123615   5.337   0.593   3.410
 7572SOL    HW223616   5.190   0.542   3.361
 7573SOL     OW23617   5.968   5.676   4.509
 7573SOL    HW123618   6.052   5.667   4.456
 7573SOL    HW223619   5.949   5.589   4.556
 7574SOL     OW23620   6.781   0.977   4.875
 7574SOL    HW123621   6.687   1.011   4.886
 7574SOL    HW223622   6.829   1.033   4.808
 7575SOL     OW23623   4.758   0.347   5.477
 7575SOL    HW123624   4.700   0.358   5.396
 7575SOL    HW223625   4.802   0.434   5.499
 7576SOL     OW23626   6.126   5.900   0.602
 7576SOL    HW123627   6.117   5.801   0.591
 7576SOL    HW223628   6.127   5.944   0.512
 7577SOL     OW23629   6.798   6.979   5.356
 7577SOL    HW123630   6.856   6.955   5.433
 7577SOL    HW223631   6.829   6.932   5.274
 7578SOL     OW23632   2.265   6.249   3.520
 7578SOL    HW123633   2.346   6.211   3.564
 7578SOL    HW223634   2.258   6.213   3.427
 7579SOL     OW23635   4.663   2.049   2.443
 7579SOL    HW123636   4.611   2.080   2.364
 7579SOL    HW223637   4.702   2.128   2.490
 7580SOL     OW23638   1.591   4.298   3.735
 7580SOL    HW123639   1.511   4.353   3.710
 7580SOL    HW223640   1.673   4.355   3.732
 7581SOL     OW23641   5.073   0.697   0.975
 7581SOL    HW123642   5.002   0.627   0.971
 7581SOL    HW223643   5.030   0.787   0.986
 7582SOL     OW23644   3.089   0.647   0.330
 7582SOL    HW123645   3.021   0.686   0.392
 7582SOL    HW223646   3.151   0.588   0.382
 7583SOL     OW23647   5.835   3.666   1.262
 7583SOL    HW123648   5.872   3.680   1.170
 7583SOL    HW223649   5.815   3.569   1.275
 7584SOL     OW23650   3.181   6.951   0.770
 7584SOL    HW123651   3.118   6.932   0.845
 7584SOL    HW223652   3.139   7.018   0.708
 7585SOL     OW23653   1.753   2.994   6.115
 7585SOL    HW123654   1.824   3.055   6.150
 7585SOL    HW223655   1.789   2.942   6.038
 7586SOL     OW23656   3.430   0.608   3.417
 7586SOL    HW123657   3.489   0.651   3.348
 7586SOL    HW223658   3.485   0.550   3.477
 7587SOL     OW23659   3.544   1.211   6.677
 7587SOL    HW123660   3.536   1.279   6.604
 7587SOL    HW223661   3.514   1.251   6.763
 7588SOL     OW23662   0.872   3.335   2.088
 7588SOL    HW123663   0.783   3.317   2.046
 7588SOL    HW223664   0.944   3.305   2.026
 7589SOL     OW23665   5.869   6.916   0.542
 7589SOL    HW123666   5.793   6.858   0.512
 7589SOL    HW223667   5.924   6.867   0.610
 7590SOL     OW23668   2.838   2.000   6.656
 7590SOL    HW123669   2.743   1.974   6.677
 7590SOL    HW223670   2.857   2.090   6.694
 7591SOL     OW23671   6.659   5.196   0.415
 7591SOL    HW123672   6.642   5.262   0.342
 7591SOL    HW223673   6.741   5.221   0.465
 7592SOL     OW23674   0.041   4.496   6.816
 7592SOL    HW123675   0.040   4.440   6.898
 7592SOL    HW223676   0.028   4.439   6.735
 7593SOL     OW23677   4.955   2.331   0.870
 7593SOL    HW123678   4.896   2.305   0.794
 7593SOL    HW223679   4.907   2.394   0.931
 7594SOL     OW23680   6.964   4.334   2.586
 7594SOL    HW123681   6.972   4.332   2.486
 7594SOL    HW223682   0.034   4.325   2.627
 7595SOL     OW23683   0.109   2.387   5.975
 7595SOL    HW123684   0.075   2.451   5.905
 7595SOL    HW223685   0.198   2.419   6.008
 7596SOL     OW23686   4.352   5.050   3.177
 7596SOL    HW123687   4.325   5.057   3.273
 7596SOL    HW223688   4.451   5.063   3.169
 7597SOL     OW23689   2.722   5.617   1.568
 7597SOL    HW123690   2.736   5.519   1.558
 7597SOL    HW223691   2.810   5.664   1.565
 7598SOL     OW23692   0.199   1.083   3.058
 7598SOL    HW123693   0.200   1.009   2.991
 7598SOL    HW223694   0.209   1.045   3.150
 7599SOL     OW23695   5.747   1.533   3.482
 7599SOL    HW123696   5.685   1.578   3.419
 7599SOL    HW223697   5.751   1.435   3.461
 7600SOL     OW23698   1.777   0.471   2.761
 7600SOL    HW123699   1.708   0.520   2.815
 7600SOL    HW223700   1.756   0.481   2.664
 7601SOL     OW23701   2.114   5.876   2.715
 7601SOL    HW123702   2.176   5.825   2.655
 7601SOL    HW223703   2.033   5.905   2.664
 7602SOL     OW23704   1.983   3.950   6.018
 7602SOL    HW123705   1.950   3.972   6.110
 7602SOL    HW223706   2.075   3.913   6.024
 7603SOL     OW23707   1.160   5.739   6.014
 7603SOL    HW123708   1.086   5.806   6.014
 7603SOL    HW223709   1.122   5.648   6.030
 7604SOL     OW23710   2.639   4.658   4.143
 7604SOL    HW123711   2.640   4.642   4.242
 7604SOL    HW223712   2.551   4.628   4.105
 7605SOL     OW23713   1.675   6.354   0.430
 7605SOL    HW123714   1.721   6.432   0.390
 7605SOL    HW223715   1.604   6.321   0.367
 7606SOL     OW23716   0.125   3.008   3.032
 7606SOL    HW123717   0.108   2.969   3.122
 7606SOL    HW223718   0.095   2.943   2.961
 7607SOL     OW23719   4.606   6.174   0.272
 7607SOL    HW123720   4.563   6.085   0.291
 7607SOL    HW223721   4.698   6.160   0.236
 7608SOL     OW23722   3.293   4.137   2.887
 7608SOL    HW123723   3.260   4.231   2.887
 7608SOL    HW223724   3.216   4.075   2.869
 7609SOL     OW23725   0.083   4.513   3.248
 7609SOL    HW123726   0.074   4.594   3.190
 7609SOL    HW223727   0.021   4.442   3.215
 7610SOL     OW23728   6.173   6.816   6.526
 7610SOL    HW123729   6.103   6.798   6.594
 7610SOL    HW223730   6.250   6.754   6.540
 7611SOL     OW23731   0.780   2.273   0.193
 7611SOL    HW123732   0.717   2.202   0.161
 7611SOL    HW223733   0.803   2.256   0.289
 7612SOL     OW23734   4.498   2.558   4.714
 7612SOL    HW123735   4.430   2.487   4.703
 7612SOL    HW223736   4.492   2.623   4.638
 7613SOL     OW23737   5.371   2.209   1.906
 7613SOL    HW123738   5.370   2.290   1.847
 7613SOL    HW223739   5.443   2.219   1.975
 7614SOL     OW23740   4.947   2.936   1.540
 7614SOL    HW123741   4.985   2.972   1.454
 7614SOL    HW223742   4.873   2.995   1.570
 7615SOL     OW23743   4.938   4.091   6.034
 7615SOL    HW123744   4.961   4.180   5.995
 7615SOL    HW223745   4.839   4.077   6.031
 7616SOL     OW23746   6.807   4.478   4.618
 7616SOL    HW123747   6.766   4.562   4.653
 7616SOL    HW223748   6.891   4.499   4.569
 7617SOL     OW23749   2.908   5.617   2.703
 7617SOL    HW123750   2.953   5.626   2.791
 7617SOL    HW223751   2.881   5.707   2.670
 7618SOL     OW23752   0.523   2.131   0.132
 7618SOL    HW123753   0.483   2.195   0.066
 7618SOL    HW223754   0.566   2.055   0.083
 7619SOL     OW23755   5.652   3.051   4.904
 7619SOL    HW123756   5.559   3.073   4.876
 7619SOL    HW223757   5.678   2.961   4.868
 7620SOL     OW23758   4.042   5.078   6.973
 7620SOL    HW123759   3.976   5.026   0.005
 7620SOL    HW223760   4.081   5.151   0.009
 7621SOL     OW23761   0.327   1.597   0.484
 7621SOL    HW123762   0.422   1.575   0.461
 7621SOL    HW223763   0.288   1.524   0.539
 7622SOL     OW23764   4.742   4.953   1.760
 7622SOL    HW123765   4.807   4.931   1.688
 7622SOL    HW223766   4.751   4.889   1.836
 7623SOL     OW23767   4.592   4.665   6.759
 7623SOL    HW123768   4.594   4.765   6.761
 7623SOL    HW223769   4.684   4.629   6.772
 7624SOL     OW23770   6.801   2.743   4.566
 7624SOL    HW123771   6.832   2.764   4.473
 7624SOL    HW223772   6.878   2.711   4.620
 7625SOL     OW23773   4.342   0.537   1.506
 7625SOL    HW123774   4.397   0.456   1.487
 7625SOL    HW223775   4.391   0.619   1.474
 7626SOL     OW23776   0.067   6.519   4.425
 7626SOL    HW123777   0.100   6.467   4.503
 7626SOL    HW223778   0.126   6.598   4.408
 7627SOL     OW23779   5.005   3.052   0.203
 7627SOL    HW123780   5.076   2.991   0.238
 7627SOL    HW223781   4.921   3.038   0.255
 7628SOL     OW23782   3.585   0.649   1.974
 7628SOL    HW123783   3.528   0.591   1.917
 7628SOL    HW223784   3.530   0.724   2.011
 7629SOL     OW23785   6.493   0.181   3.056
 7629SOL    HW123786   6.445   0.107   3.103
 7629SOL    HW223787   6.561   0.141   2.993
 7630SOL     OW23788   5.413   6.995   1.894
 7630SOL    HW123789   5.429   6.944   1.810
 7630SOL    HW223790   5.314   7.006   1.907
 7631SOL     OW23791   0.634   0.757   5.194
 7631SOL    HW123792   0.627   0.800   5.104
 7631SOL    HW223793   0.677   0.668   5.185
 7632SOL     OW23794   3.616   2.559   1.761
 7632SOL    HW123795   3.553   2.531   1.688
 7632SOL    HW223796   3.646   2.479   1.812
 7633SOL     OW23797   4.390   2.496   0.372
 7633SOL    HW123798   4.413   2.415   0.317
 7633SOL    HW223799   4.418   2.579   0.323
 7634SOL     OW23800   1.543   1.239   2.341
 7634SOL    HW123801   1.611   1.203   2.276
 7634SOL    HW223802   1.580   1.235   2.434
 7635SOL     OW23803   2.943   5.969   5.137
 7635SOL    HW123804   2.958   6.059   5.096
 7635SOL    HW223805   2.854   5.934   5.106
 7636SOL     OW23806   1.466   2.103   3.399
 7636SOL    HW123807   1.462   2.069   3.493
 7636SOL    HW223808   1.418   2.041   3.338
 7637SOL     OW23809   2.914   6.576   2.678
 7637SOL    HW123810   2.926   6.641   2.602
 7637SOL    HW223811   2.973   6.603   2.754
 7638SOL     OW23812   4.051   5.593   1.882
 7638SOL    HW123813   4.118   5.665   1.861
 7638SOL    HW223814   3.968   5.609   1.829
 7639SOL     OW23815   1.455   2.319   0.829
 7639SOL    HW123816   1.515   2.365   0.764
 7639SOL    HW223817   1.373   2.287   0.783
 7640SOL     OW23818   3.443   2.318   0.234
 7640SOL    HW123819   3.450   2.402   0.180
 7640SOL    HW223820   3.441   2.239   0.172
 7641SOL     OW23821   0.871   4.697   1.822
 7641SOL    HW123822   0.817   4.728   1.901
 7641SOL    HW223823   0.828   4.615   1.784
 7642SOL     OW23824   2.892   1.649   2.462
 7642SOL    HW123825   2.988   1.673   2.445
 7642SOL    HW223826   2.887   1.575   2.529
 7643SOL     OW23827   5.189   2.771   3.989
 7643SOL    HW123828   5.122   2.838   3.957
 7643SOL    HW223829   5.272   2.818   4.018
 7644SOL     OW23830   5.823   2.156   2.592
 7644SOL    HW123831   5.922   2.170   2.600
 7644SOL    HW223832   5.789   2.202   2.510
 7645SOL     OW23833   4.346   3.985   5.411
 7645SOL    HW123834   4.273   3.919   5.426
 7645SOL    HW223835   4.307   4.069   5.373
 7646SOL     OW23836   2.102   2.397   2.213
 7646SOL    HW123837   2.028   2.335   2.190
 7646SOL    HW223838   2.162   2.354   2.280
 7647SOL     OW23839   0.126   3.329   2.037
 7647SOL    HW123840   0.167   3.255   1.982
 7647SOL    HW223841   0.164   3.326   2.129
 7648SOL     OW23842   3.633   1.341   3.538
 7648SOL    HW123843   3.713   1.309   3.488
 7648SOL    HW223844   3.598   1.425   3.496
 7649SOL     OW23845   1.297   1.474   2.839
 7649SOL    HW123846   1.262   1.397   2.785
 7649SOL    HW223847   1.306   1.555   2.781
 7650SOL     OW23848   5.242   2.749   1.228
 7650SOL    HW123849   5.185   2.711   1.301
 7650SOL    HW223850   5.213   2.712   1.140
 7651SOL     OW23851   2.794   6.350   5.302
 7651SOL    HW123852   2.852   6.426   5.273
 7651SOL    HW223853   2.834   6.306   5.382
 7652SOL     OW23854   0.043   3.924   3.692
 7652SOL    HW123855   7.011   3.907   3.775
 7652SOL    HW223856   0.019   4.013   3.654
 7653SOL     OW23857   2.409   1.650   0.712
 7653SOL    HW123858   2.322   1.698   0.720
 7653SOL    HW223859   2.478   1.713   0.677
 7654SOL     OW23860   4.961   3.698   4.131
 7654SOL    HW123861   4.988   3.602   4.135
 7654SOL    HW223862   4.934   3.721   4.037
 7655SOL     OW23863   3.235   0.096   3.364
 7655SOL    HW123864   3.275   0.051   3.443
 7655SOL    HW223865   3.288   0.178   3.341
 7656SOL     OW23866   1.906   4.852   6.315
 7656SOL    HW123867   1.946   4.763   6.337
 7656SOL    HW223868   1.918   4.871   6.217
 7657SOL     OW23869   2.678   2.427   3.028
 7657SOL    HW123870   2.615   2.398   3.100
 7657SOL    HW223871   2.640   2.508   2.982
 7658SOL     OW23872   3.989   6.335   6.071
 7658SOL    HW123873   3.952   6.273   6.140
 7658SOL    HW223874   3.939   6.422   6.073
 7659SOL     OW23875   5.503   5.571   6.745
 7659SOL    HW123876   5.526   5.636   6.817
 7659SOL    HW223877   5.413   5.593   6.707
 7660SOL     OW23878   0.132   6.263   4.063
 7660SOL    HW123879   0.137   6.200   4.141
 7660SOL    HW223880   0.202   6.238   3.996
 7661SOL     OW23881   5.669   2.362   4.221
 7661SOL    HW123882   5.721   2.431   4.170
 7661SOL    HW223883   5.695   2.271   4.189
 7662SOL     OW23884   0.732   2.358   2.315
 7662SOL    HW123885   0.769   2.278   2.269
 7662SOL    HW223886   0.659   2.330   2.378
 7663SOL     OW23887   0.072   6.921   6.125
 7663SOL    HW123888   0.027   6.975   6.055
 7663SOL    HW223889   0.010   6.907   6.202
 7664SOL     OW23890   3.970   0.801   1.976
 7664SOL    HW123891   4.005   0.889   2.006
 7664SOL    HW223892   4.013   0.728   2.029
 7665SOL     OW23893   4.948   0.374   4.707
 7665SOL    HW123894   4.960   0.431   4.789
 7665SOL    HW223895   4.861   0.325   4.714
 7666SOL     OW23896   0.775   6.761   1.664
 7666SOL    HW123897   0.775   6.783   1.566
 7666SOL    HW223898   0.805   6.842   1.715
 7667SOL     OW23899   4.699   5.980   1.473
 7667SOL    HW123900   4.760   6.022   1.407
 7667SOL    HW223901   4.739   5.894   1.506
 7668SOL     OW23902   2.462   4.339   0.939
 7668SOL    HW123903   2.411   4.263   0.978
 7668SOL    HW223904   2.485   4.405   1.011
 7669SOL     OW23905   5.972   1.940   6.116
 7669SOL    HW123906   5.971   1.906   6.022
 7669SOL    HW223907   5.912   1.883   6.173
 7670SOL     OW23908   1.384   4.706   6.000
 7670SOL    HW123909   1.406   4.608   5.994
 7670SOL    HW223910   1.294   4.717   6.043
 7671SOL     OW23911   4.545   0.768   5.028
 7671SOL    HW123912   4.615   0.838   5.034
 7671SOL    HW223913   4.478   0.781   5.101
 7672SOL     OW23914   5.947   6.370   3.718
 7672SOL    HW123915   6.001   6.322   3.787
 7672SOL    HW223916   5.859   6.324   3.706
 7673SOL     OW23917   2.109   5.069   6.968
 7673SOL    HW123918   2.086   5.057   6.871
 7673SOL    HW223919   2.208   5.063   6.979
 7674SOL     OW23920   6.091   2.479   3.982
 7674SOL    HW123921   6.134   2.527   3.906
 7674SOL    HW223922   6.046   2.396   3.948
 7675SOL     OW23923   4.894   0.292   2.937
 7675SOL    HW123924   4.844   0.304   2.851
 7675SOL    HW223925   4.830   0.268   3.010
 7676SOL     OW23926   1.578   2.161   0.534
 7676SOL    HW123927   1.608   2.177   0.440
 7676SOL    HW223928   1.657   2.164   0.595
 7677SOL     OW23929   7.011   3.717   2.512
 7677SOL    HW123930   0.075   3.702   2.562
 7677SOL    HW223931   7.004   3.813   2.486
 7678SOL     OW23932   1.918   1.436   5.857
 7678SOL    HW123933   2.006   1.476   5.832
 7678SOL    HW223934   1.931   1.340   5.882
 7679SOL     OW23935   1.988   5.996   5.798
 7679SOL    HW123936   2.020   6.089   5.781
 7679SOL    HW223937   1.949   5.990   5.890
 7680SOL     OW23938   1.459   2.128   0.078
 7680SOL    HW123939   1.473   2.033   0.106
 7680SOL    HW223940   1.527   2.185   0.123
 7681SOL     OW23941   3.293   6.990   0.327
 7681SOL    HW123942   3.305   6.919   0.257
 7681SOL    HW223943   3.360   0.041   0.313
 7682SOL     OW23944   3.408   0.469   1.852
 7682SOL    HW123945   3.408   0.498   1.756
 7682SOL    HW223946   3.326   0.414   1.869
 7683SOL     OW23947   6.589   1.996   3.787
 7683SOL    HW123948   6.609   2.028   3.879
 7683SOL    HW223949   6.504   1.942   3.788
 7684SOL     OW23950   4.197   1.846   0.929
 7684SOL    HW123951   4.228   1.756   0.898
 7684SOL    HW223952   4.192   1.846   1.029
 7685SOL     OW23953   3.007   3.304   0.133
 7685SOL    HW123954   2.971   3.350   0.053
 7685SOL    HW223955   3.105   3.324   0.143
 7686SOL     OW23956   5.004   0.476   3.353
 7686SOL    HW123957   5.001   0.388   3.307
 7686SOL    HW223958   4.951   0.472   3.438
 7687SOL     OW23959   6.020   5.007   5.479
 7687SOL    HW123960   6.002   4.979   5.573
 7687SOL    HW223961   6.101   5.066   5.477
 7688SOL     OW23962   0.425   6.858   5.336
 7688SOL    HW123963   0.516   6.894   5.315
 7688SOL    HW223964   0.372   6.928   5.384
 7689SOL     OW23965   4.957   5.787   3.360
 7689SOL    HW123966   4.925   5.815   3.270
 7689SOL    HW223967   4.972   5.867   3.418
 7690SOL     OW23968   6.307   5.111   0.958
 7690SOL    HW123969   6.359   5.169   0.895
 7690SOL    HW223970   6.348   5.114   1.049
 7691SOL     OW23971   5.357   3.169   4.152
 7691SOL    HW123972   5.441   3.116   4.164
 7691SOL    HW223973   5.342   3.227   4.233
 7692SOL     OW23974   1.038   6.580   1.702
 7692SOL    HW123975   1.073   6.674   1.700
 7692SOL    HW223976   1.024   6.552   1.797
 7693SOL     OW23977   3.708   6.791   1.444
 7693SOL    HW123978   3.798   6.819   1.479
 7693SOL    HW223979   3.647   6.773   1.520
 7694SOL     OW23980   0.076   4.319   4.096
 7694SOL    HW123981   0.040   4.253   4.162
 7694SOL    HW223982   0.174   4.332   4.111
 7695SOL     OW23983   3.550   6.552   0.136
 7695SOL    HW123984   3.634   6.605   0.138
 7695SOL    HW223985   3.522   6.530   0.230
 7696SOL     OW23986   6.390   1.562   4.725
 7696SOL    HW123987   6.448   1.634   4.763
 7696SOL    HW223988   6.310   1.603   4.681
 7697SOL     OW23989   2.701   0.462   2.206
 7697SOL    HW123990   2.790   0.460   2.251
 7697SOL    HW223991   2.647   0.383   2.236
 7698SOL     OW23992   6.931   1.969   4.487
 7698SOL    HW123993   6.850   1.913   4.469
 7698SOL    HW223994   6.952   1.966   4.585
 7699SOL     OW23995   4.029   5.501   6.723
 7699SOL    HW123996   4.006   5.405   6.705
 7699SOL    HW223997   4.008   5.523   6.818
 7700SOL     OW23998   4.703   6.062   4.948
 7700SOL    HW123999   4.683   6.106   4.860
 7700SOL    HW224000   4.754   5.977   4.932
 7701SOL     OW24001   6.698   1.646   6.472
 7701SOL    HW124002   6.691   1.620   6.375
 7701SOL    HW224003   6.751   1.731   6.479
 7702SOL     OW24004   2.871   6.656   6.181
 7702SOL    HW124005   2.809   6.606   6.241
 7702SOL    HW224006   2.907   6.595   6.111
 7703SOL     OW24007   6.815   0.454   5.005
 7703SOL    HW124008   6.794   0.542   5.046
 7703SOL    HW224009   6.769   0.446   4.916
 7704SOL     OW24010   5.163   4.653   5.512
 7704SOL    HW124011   5.254   4.694   5.522
 7704SOL    HW224012   5.143   4.597   5.593
 7705SOL     OW24013   4.108   5.069   6.094
 7705SOL    HW124014   4.106   5.167   6.112
 7705SOL    HW224015   4.042   5.046   6.023
 7706SOL     OW24016   4.287   1.855   5.402
 7706SOL    HW124017   4.209   1.828   5.345
 7706SOL    HW224018   4.370   1.854   5.346
 7707SOL     OW24019   1.176   6.271   6.508
 7707SOL    HW124020   1.241   6.257   6.583
 7707SOL    HW224021   1.129   6.359   6.520
 7708SOL     OW24022   5.201   6.281   5.309
 7708SOL    HW124023   5.131   6.352   5.300
 7708SOL    HW224024   5.161   6.199   5.350
 7709SOL     OW24025   5.699   4.222   1.508
 7709SOL    HW124026   5.746   4.310   1.506
 7709SOL    HW224027   5.604   4.235   1.479
 7710SOL     OW24028   3.646   1.130   0.896
 7710SOL    HW124029   3.635   1.142   0.994
 7710SOL    HW224030   3.618   1.214   0.849
 7711SOL     OW24031   6.184   5.568   5.220
 7711SOL    HW124032   6.221   5.558   5.127
 7711SOL    HW224033   6.149   5.660   5.232
 7712SOL     OW24034   5.694   4.490   1.899
 7712SOL    HW124035   5.640   4.408   1.883
 7712SOL    HW224036   5.648   4.547   1.968
 7713SOL     OW24037   1.251   4.965   0.523
 7713SOL    HW124038   1.205   5.041   0.476
 7713SOL    HW224039   1.230   4.879   0.477
 7714SOL     OW24040   6.563   4.817   5.278
 7714SOL    HW124041   6.654   4.799   5.314
 7714SOL    HW224042   6.497   4.814   5.354
 7715SOL     OW24043   4.676   2.007   0.948
 7715SOL    HW124044   4.604   2.076   0.941
 7715SOL    HW224045   4.718   1.993   0.859
 7716SOL     OW24046   6.392   3.919   3.615
 7716SOL    HW124047   6.382   3.822   3.592
 7716SOL    HW224048   6.393   3.930   3.714
 7717SOL     OW24049   1.847   0.943   4.866
 7717SOL    HW124050   1.920   0.916   4.803
 7717SOL    HW224051   1.784   0.866   4.879
 7718SOL     OW24052   1.866   1.890   3.127
 7718SOL    HW124053   1.783   1.941   3.106
 7718SOL    HW224054   1.862   1.799   3.085
 7719SOL     OW24055   0.425   3.748   4.303
 7719SOL    HW124056   0.399   3.807   4.380
 7719SOL    HW224057   0.350   3.746   4.236
 7720SOL     OW24058   6.910   7.018   0.884
 7720SOL    HW124059   6.977   6.944   0.875
 7720SOL    HW224060   6.946   0.079   0.840
 7721SOL     OW24061   1.288   4.820   2.363
 7721SOL    HW124062   1.220   4.832   2.435
 7721SOL    HW224063   1.268   4.881   2.287
 7722SOL     OW24064   0.138   5.710   2.980
 7722SOL    HW124065   0.063   5.671   2.926
 7722SOL    HW224066   0.150   5.657   3.064
 7723SOL     OW24067   6.595   3.935   0.047
 7723SOL    HW124068   6.630   3.917   6.976
 7723SOL    HW224069   6.619   3.859   0.107
 7724SOL     OW24070   2.447   4.139   1.790
 7724SOL    HW124071   2.393   4.055   1.796
 7724SOL    HW224072   2.397   4.207   1.737
 7725SOL     OW24073   4.997   3.186   3.802
 7725SOL    HW124074   5.090   3.217   3.781
 7725SOL    HW224075   5.002   3.109   3.866
 7726SOL     OW24076   0.961   6.254   4.608
 7726SOL    HW124077   1.045   6.202   4.593
 7726SOL    HW224078   0.983   6.350   4.628
 7727SOL     OW24079   0.058   0.741   3.066
 7727SOL    HW124080   0.143   0.787   3.093
 7727SOL    HW224081   7.001   0.800   3.087
 7728SOL     OW24082   1.166   4.956   3.407
 7728SOL    HW124083   1.237   5.016   3.371
 7728SOL    HW224084   1.206   4.892   3.472
 7729SOL     OW24085   6.026   3.468   0.688
 7729SOL    HW124086   5.996   3.417   0.608
 7729SOL    HW224087   5.973   3.440   0.768
 7730SOL     OW24088   5.647   5.700   2.080
 7730SOL    HW124089   5.585   5.766   2.037
 7730SOL    HW224090   5.733   5.697   2.030
 7731SOL     OW24091   6.915   1.143   0.586
 7731SOL    HW124092   6.936   1.069   0.651
 7731SOL    HW224093   6.867   1.105   0.507
 7732SOL     OW24094   4.295   6.148   0.790
 7732SOL    HW124095   4.255   6.130   0.880
 7732SOL    HW224096   4.384   6.192   0.801
 7733SOL     OW24097   4.281   6.765   2.315
 7733SOL    HW124098   4.187   6.799   2.320
 7733SOL    HW224099   4.291   6.688   2.377
 7734SOL     OW24100   2.387   4.785   3.420
 7734SOL    HW124101   2.474   4.820   3.454
 7734SOL    HW224102   2.313   4.848   3.446
 7735SOL     OW24103   4.601   6.319   6.415
 7735SOL    HW124104   4.636   6.407   6.447
 7735SOL    HW224105   4.540   6.280   6.484
 7736SOL     OW24106   4.380   3.984   6.847
 7736SOL    HW124107   4.287   3.958   6.872
 7736SOL    HW224108   4.379   4.042   6.765
 7737SOL     OW24109   4.548   0.969   1.883
 7737SOL    HW124110   4.594   0.880   1.887
 7737SOL    HW224111   4.484   0.977   1.959
 7738SOL     OW24112   1.619   5.563   6.459
 7738SOL    HW124113   1.532   5.539   6.416
 7738SOL    HW224114   1.672   5.621   6.397
 7739SOL     OW24115   0.407   1.494   2.138
 7739SOL    HW124116   0.469   1.415   2.139
 7739SOL    HW224117   0.339   1.482   2.066
 7740SOL     OW24118   1.554   0.632   2.792
 7740SOL    HW124119   1.463   0.628   2.834
 7740SOL    HW224120   1.594   0.722   2.808
 7741SOL     OW24121   1.232   6.203   4.600
 7741SOL    HW124122   1.281   6.282   4.635
 7741SOL    HW224123   1.274   6.174   4.513
 7742SOL     OW24124   6.138   1.944   3.118
 7742SOL    HW124125   6.160   2.038   3.144
 7742SOL    HW224126   6.222   1.892   3.104
 7743SOL     OW24127   4.935   2.167   6.383
 7743SOL    HW124128   4.854   2.213   6.346
 7743SOL    HW224129   4.908   2.112   6.462
 7744SOL     OW24130   0.667   6.132   3.671
 7744SOL    HW124131   0.663   6.229   3.696
 7744SOL    HW224132   0.587   6.109   3.615
 7745SOL     OW24133   3.136   1.217   5.416
 7745SOL    HW124134   3.117   1.120   5.429
 7745SOL    HW224135   3.130   1.239   5.319
 7746SOL     OW24136   2.296   6.441   0.156
 7746SOL    HW124137   2.341   6.451   0.244
 7746SOL    HW224138   2.364   6.448   0.082
 7747SOL     OW24139   4.242   5.605   1.540
 7747SOL    HW124140   4.288   5.577   1.625
 7747SOL    HW224141   4.147   5.627   1.560
 7748SOL     OW24142   3.381   3.420   5.693
 7748SOL    HW124143   3.425   3.360   5.760
 7748SOL    HW224144   3.439   3.500   5.677
 7749SOL     OW24145   3.104   3.066   5.642
 7749SOL    HW124146   3.134   3.152   5.600
 7749SOL    HW224147   3.181   3.003   5.649
 7750SOL     OW24148   6.775   5.806   1.582
 7750SOL    HW124149   6.701   5.815   1.649
 7750SOL    HW224150   6.736   5.784   1.492
 7751SOL     OW24151   1.750   1.209   2.170
 7751SOL    HW124152   1.839   1.250   2.191
 7751SOL    HW224153   1.698   1.271   2.112
 7752SOL     OW24154   5.041   6.979   5.685
 7752SOL    HW124155   5.012   6.886   5.705
 7752SOL    HW224156   4.966   0.008   5.642
 7753SOL     OW24157   2.271   1.684   4.467
 7753SOL    HW124158   2.345   1.751   4.472
 7753SOL    HW224159   2.284   1.625   4.388
 7754SOL     OW24160   3.638   5.812   1.624
 7754SOL    HW124161   3.660   5.874   1.549
 7754SOL    HW224162   3.585   5.861   1.693
 7755SOL     OW24163   1.209   2.437   6.277
 7755SOL    HW124164   1.184   2.521   6.229
 7755SOL    HW224165   1.241   2.460   6.369
 7756SOL     OW24166   3.169   6.094   1.444
 7756SOL    HW124167   3.078   6.051   1.438
 7756SOL    HW224168   3.198   6.122   1.352
 7757SOL     OW24169   6.986   4.545   1.492
 7757SOL    HW124170   7.009   4.552   1.394
 7757SOL    HW224171   6.922   4.618   1.516
 7758SOL     OW24172   1.759   6.721   5.700
 7758SOL    HW124173   1.787   6.632   5.734
 7758SOL    HW224174   1.688   6.760   5.759
 7759SOL     OW24175   2.608   1.369   5.547
 7759SOL    HW124176   2.584   1.442   5.611
 7759SOL    HW224177   2.699   1.336   5.567
 7760SOL     OW24178   5.510   2.281   2.149
 7760SOL    HW124179   5.541   2.376   2.160
 7760SOL    HW224180   5.448   2.257   2.223
 7761SOL     OW24181   6.657   5.798   4.725
 7761SOL    HW124182   6.638   5.774   4.629
 7761SOL    HW224183   6.750   5.772   4.749
 7762SOL     OW24184   2.237   0.282   3.616
 7762SOL    HW124185   2.234   0.348   3.690
 7762SOL    HW224186   2.147   0.275   3.573
 7763SOL     OW24187   2.508   0.129   6.248
 7763SOL    HW124188   2.492   0.227   6.234
 7763SOL    HW224189   2.502   0.082   6.160
 7764SOL     OW24190   3.106   4.321   6.366
 7764SOL    HW124191   3.115   4.258   6.443
 7764SOL    HW224192   3.174   4.297   6.296
 7765SOL     OW24193   6.338   3.146   4.614
 7765SOL    HW124194   6.404   3.175   4.544
 7765SOL    HW224195   6.373   3.173   4.704
 7766SOL     OW24196   7.018   4.405   0.411
 7766SOL    HW124197   0.089   4.368   0.395
 7766SOL    HW224198   6.962   4.389   0.330
 7767SOL     OW24199   4.802   6.491   2.291
 7767SOL    HW124200   4.858   6.481   2.209
 7767SOL    HW224201   4.771   6.586   2.299
 7768SOL     OW24202   4.730   4.739   3.867
 7768SOL    HW124203   4.781   4.803   3.925
 7768SOL    HW224204   4.688   4.789   3.791
 7769SOL     OW24205   3.808   1.672   4.682
 7769SOL    HW124206   3.887   1.680   4.743
 7769SOL    HW224207   3.812   1.742   4.611
 7770SOL     OW24208   0.190   3.432   4.379
 7770SOL    HW124209   0.125   3.370   4.423
 7770SOL    HW224210   0.277   3.428   4.428
 7771SOL     OW24211   2.701   1.752   6.096
 7771SOL    HW124212   2.714   1.675   6.033
 7771SOL    HW224213   2.697   1.718   6.190
 7772SOL     OW24214   5.010   0.437   1.201
 7772SOL    HW124215   5.080   0.433   1.271
 7772SOL    HW224216   5.031   0.372   1.128
 7773SOL     OW24217   2.795   5.729   5.632
 7773SOL    HW124218   2.714   5.678   5.660
 7773SOL    HW224219   2.793   5.820   5.672
 7774SOL     OW24220   4.764   2.369   4.554
 7774SOL    HW124221   4.726   2.278   4.572
 7774SOL    HW224222   4.701   2.439   4.588
 7775SOL     OW24223   4.049   6.857   0.479
 7775SOL    HW124224   4.138   6.901   0.469
 7775SOL    HW224225   4.062   6.763   0.510
 7776SOL     OW24226   0.704   6.585   6.274
 7776SOL    HW124227   0.793   6.564   6.233
 7776SOL    HW224228   0.666   6.503   6.317
 7777SOL     OW24229   6.630   5.503   4.800
 7777SOL    HW124230   6.704   5.473   4.861
 7777SOL    HW224231   6.658   5.587   4.754
 7778SOL     OW24232   5.819   4.229   2.202
 7778SOL    HW124233   5.827   4.130   2.186
 7778SOL    HW224234   5.723   4.255   2.201
 7779SOL     OW24235   2.787   0.394   2.597
 7779SOL    HW124236   2.828   0.483   2.583
 7779SOL    HW224237   2.793   0.369   2.694
 7780SOL     OW24238   0.753   5.932   5.568
 7780SOL    HW124239   0.759   5.833   5.567
 7780SOL    HW224240   0.734   5.964   5.661
 7781SOL     OW24241   1.474   4.087   0.090
 7781SOL    HW124242   1.386   4.105   0.048
 7781SOL    HW224243   1.488   4.147   0.169
 7782SOL     OW24244   5.522   5.231   3.553
 7782SOL    HW124245   5.439   5.187   3.519
 7782SOL    HW224246   5.600   5.169   3.544
 7783SOL     OW24247   0.693   0.081   5.920
 7783SOL    HW124248   0.647   7.013   5.908
 7783SOL    HW224249   0.644   0.134   5.989
 7784SOL     OW24250   2.997   2.641   1.453
 7784SOL    HW124251   3.032   2.549   1.434
 7784SOL    HW224252   3.009   2.661   1.551
 7785SOL     OW24253   1.430   6.833   3.976
 7785SOL    HW124254   1.352   6.820   3.915
 7785SOL    HW224255   1.459   6.744   4.012
 7786SOL     OW24256   4.345   0.718   6.919
 7786SOL    HW124257   4.313   0.811   6.900
 7786SOL    HW224258   4.434   0.723   6.964
 7787SOL     OW24259   2.074   2.965   0.248
 7787SOL    HW124260   1.978   2.956   0.275
 7787SOL    HW224261   2.123   3.021   0.315
 7788SOL     OW24262   1.286   6.271   2.354
 7788SOL    HW124263   1.311   6.264   2.257
 7788SOL    HW224264   1.361   6.233   2.410
 7789SOL     OW24265   3.239   0.418   6.393
 7789SOL    HW124266   3.272   0.369   6.474
 7789SOL    HW224267   3.316   0.436   6.331
 7790SOL     OW24268   6.454   4.994   2.583
 7790SOL    HW124269   6.446   4.974   2.485
 7790SOL    HW224270   6.426   5.088   2.601
 7791SOL     OW24271   2.569   5.825   2.050
 7791SOL    HW124272   2.661   5.851   2.079
 7791SOL    HW224273   2.575   5.763   1.972
 7792SOL     OW24274   0.780   0.320   2.684
 7792SOL    HW124275   0.843   0.324   2.761
 7792SOL    HW224276   0.686   0.310   2.717
 7793SOL     OW24277   4.789   0.526   6.602
 7793SOL    HW124278   4.816   0.460   6.532
 7793SOL    HW224279   4.850   0.605   6.597
 7794SOL     OW24280   0.432   5.474   1.836
 7794SOL    HW124281   0.358   5.410   1.858
 7794SOL    HW224282   0.450   5.471   1.738
 7795SOL     OW24283   3.356   5.601   5.855
 7795SOL    HW124284   3.379   5.512   5.816
 7795SOL    HW224285   3.433   5.636   5.908
 7796SOL     OW24286   2.995   2.890   5.797
 7796SOL    HW124287   2.949   2.812   5.755
 7796SOL    HW224288   3.004   2.963   5.729
 7797SOL     OW24289   0.592   5.307   1.209
 7797SOL    HW124290   0.604   5.407   1.209
 7797SOL    HW224291   0.639   5.268   1.130
 7798SOL     OW24292   1.789   1.244   2.534
 7798SOL    HW124293   1.732   1.311   2.580
 7798SOL    HW224294   1.771   1.153   2.572
 7799SOL     OW24295   2.611   5.829   2.833
 7799SOL    HW124296   2.546   5.787   2.896
 7799SOL    HW224297   2.663   5.900   2.881
 7800SOL     OW24298   0.090   5.888   2.729
 7800SOL    HW124299   0.142   5.939   2.661
 7800SOL    HW224300   0.148   5.871   2.809
 7801SOL     OW24301   1.819   1.353   2.856
 7801SOL    HW124302   1.761   1.429   2.828
 7801SOL    HW224303   1.914   1.373   2.833
 7802SOL     OW24304   6.939   3.992   0.090
 7802SOL    HW124305   7.001   3.958   0.019
 7802SOL    HW224306   6.889   4.071   0.055
 7803SOL     OW24307   4.480   1.734   6.945
 7803SOL    HW124308   4.579   1.745   6.935
 7803SOL    HW224309   4.451   1.650   6.899
 7804SOL     OW24310   3.797   1.857   4.480
 7804SOL    HW124311   3.793   1.951   4.513
 7804SOL    HW224312   3.749   1.851   4.392
 7805SOL     OW24313   4.995   3.511   2.553
 7805SOL    HW124314   4.930   3.586   2.543
 7805SOL    HW224315   4.952   3.426   2.522
 7806SOL     OW24316   6.392   2.421   6.363
 7806SOL    HW124317   6.417   2.504   6.313
 7806SOL    HW224318   6.450   2.413   6.444
 7807SOL     OW24319   1.097   4.103   5.140
 7807SOL    HW124320   1.017   4.161   5.124
 7807SOL    HW224321   1.179   4.160   5.147
 7808SOL     OW24322   4.962   4.324   2.774
 7808SOL    HW124323   5.017   4.244   2.798
 7808SOL    HW224324   4.877   4.295   2.730
 7809SOL     OW24325   5.041   4.885   4.881
 7809SOL    HW124326   5.107   4.820   4.844
 7809SOL    HW224327   5.000   4.847   4.964
 7810SOL     OW24328   3.663   6.782   4.690
 7810SOL    HW124329   3.585   6.719   4.689
 7810SOL    HW224330   3.724   6.758   4.766
 7811SOL     OW24331   2.098   6.110   2.855
 7811SOL    HW124332   2.018   6.084   2.909
 7811SOL    HW224333   2.144   6.028   2.821
 7812SOL     OW24334   2.280   3.251   5.229
 7812SOL    HW124335   2.294   3.333   5.284
 7812SOL    HW224336   2.363   3.196   5.230
 7813SOL     OW24337   4.400   2.870   1.264
 7813SOL    HW124338   4.342   2.794   1.295
 7813SOL    HW224339   4.442   2.846   1.177
 7814SOL     OW24340   6.660   3.551   2.449
 7814SOL    HW124341   6.643   3.649   2.454
 7814SOL    HW224342   6.732   3.526   2.514
 7815SOL     OW24343   5.827   2.041   5.315
 7815SOL    HW124344   5.924   2.021   5.327
 7815SOL    HW224345   5.803   2.122   5.369
 7816SOL     OW24346   0.485   2.209   5.728
 7816SOL    HW124347   0.520   2.160   5.648
 7816SOL    HW224348   0.561   2.245   5.781
 7817SOL     OW24349   4.566   3.732   5.529
 7817SOL    HW124350   4.511   3.793   5.587
 7817SOL    HW224351   4.626   3.787   5.471
 7818SOL     OW24352   4.922   1.273   2.421
 7818SOL    HW124353   4.842   1.236   2.467
 7818SOL    HW224354   5.005   1.243   2.470
 7819SOL     OW24355   6.881   3.253   3.980
 7819SOL    HW124356   6.841   3.328   3.928
 7819SOL    HW224357   6.980   3.250   3.963
 7820SOL     OW24358   1.919   1.622   5.378
 7820SOL    HW124359   2.008   1.640   5.337
 7820SOL    HW224360   1.847   1.662   5.322
 7821SOL     OW24361   5.385   5.813   0.517
 7821SOL    HW124362   5.340   5.895   0.551
 7821SOL    HW224363   5.476   5.836   0.483
 7822SOL     OW24364   0.829   1.669   6.122
 7822SOL    HW124365   0.813   1.614   6.203
 7822SOL    HW224366   0.742   1.693   6.080
 7823SOL     OW24367   1.276   4.082   6.290
 7823SOL    HW124368   1.237   4.019   6.223
 7823SOL    HW224369   1.217   4.162   6.299
 7824SOL     OW24370   6.355   0.430   4.450
 7824SOL    HW124371   6.429   0.464   4.393
 7824SOL    HW224372   6.384   0.427   4.545
 7825SOL     OW24373   2.100   2.713   1.634
 7825SOL    HW124374   2.159   2.789   1.660
 7825SOL    HW224375   2.097   2.705   1.534
 7826SOL     OW24376   5.220   2.261   6.488
 7826SOL    HW124377   5.214   2.303   6.397
 7826SOL    HW224378   5.155   2.185   6.494
 7827SOL     OW24379   3.311   5.060   1.304
 7827SOL    HW124380   3.319   5.144   1.359
 7827SOL    HW224381   3.262   4.991   1.356
 7828SOL     OW24382   0.681   5.379   0.210
 7828SOL    HW124383   0.736   5.382   0.126
 7828SOL    HW224384   0.619   5.301   0.207
 7829SOL     OW24385   2.069   3.329   1.451
 7829SOL    HW124386   2.084   3.230   1.452
 7829SOL    HW224387   1.981   3.350   1.495
 7830SOL     OW24388   5.625   3.836   5.880
 7830SOL    HW124389   5.525   3.846   5.879
 7830SOL    HW224390   5.667   3.920   5.848
 7831SOL     OW24391   1.112   4.934   6.982
 7831SOL    HW124392   1.136   4.984   6.900
 7831SOL    HW224393   1.196   4.908   0.010
 7832SOL     OW24394   3.510   0.598   4.844
 7832SOL    HW124395   3.531   0.537   4.921
 7832SOL    HW224396   3.458   0.677   4.877
 7833SOL     OW24397   1.212   0.642   0.539
 7833SOL    HW124398   1.199   0.655   0.441
 7833SOL    HW224399   1.167   0.716   0.589
 7834SOL     OW24400   0.245   1.821   2.359
 7834SOL    HW124401   0.295   1.804   2.274
 7834SOL    HW224402   0.199   1.909   2.354
 7835SOL     OW24403   2.095   2.620   4.811
 7835SOL    HW124404   2.156   2.693   4.843
 7835SOL    HW224405   2.001   2.641   4.839
 7836SOL     OW24406   3.457   1.072   6.330
 7836SOL    HW124407   3.386   1.019   6.375
 7836SOL    HW224408   3.507   1.014   6.265
 7837SOL     OW24409   6.164   6.292   1.564
 7837SOL    HW124410   6.183   6.386   1.593
 7837SOL    HW224411   6.191   6.281   1.469
 7838SOL     OW24412   4.537   6.629   6.414
 7838SOL    HW124413   4.617   6.643   6.356
 7838SOL    HW224414   4.562   6.638   6.510
 7839SOL     OW24415   6.739   4.123   4.681
 7839SOL    HW124416   6.789   4.036   4.687
 7839SOL    HW224417   6.765   4.170   4.596
 7840SOL     OW24418   5.157   3.960   3.965
 7840SOL    HW124419   5.187   4.042   3.914
 7840SOL    HW224420   5.207   3.881   3.931
 7841SOL     OW24421   5.607   1.690   6.619
 7841SOL    HW124422   5.532   1.665   6.559
 7841SOL    HW224423   5.692   1.649   6.585
 7842SOL     OW24424   1.629   0.968   3.291
 7842SOL    HW124425   1.698   0.963   3.219
 7842SOL    HW224426   1.582   0.879   3.298
 7843SOL     OW24427   5.576   4.739   1.567
 7843SOL    HW124428   5.624   4.661   1.608
 7843SOL    HW224429   5.553   4.717   1.472
 7844SOL     OW24430   4.503   0.626   3.875
 7844SOL    HW124431   4.429   0.616   3.942
 7844SOL    HW224432   4.516   0.540   3.826
 7845SOL     OW24433   0.723   1.003   3.952
 7845SOL    HW124434   0.798   1.034   4.011
 7845SOL    HW224435   0.761   0.973   3.864
 7846SOL     OW24436   2.302   0.307   1.674
 7846SOL    HW124437   2.277   0.352   1.588
 7846SOL    HW224438   2.357   0.369   1.730
 7847SOL     OW24439   0.315   1.605   1.274
 7847SOL    HW124440   0.364   1.693   1.271
 7847SOL    HW224441   0.219   1.620   1.249
 7848SOL     OW24442   2.876   4.341   1.201
 7848SOL    HW124443   2.953   4.392   1.162
 7848SOL    HW224444   2.807   4.326   1.130
 7849SOL     OW24445   5.722   3.937   4.361
 7849SOL    HW124446   5.644   3.938   4.424
 7849SOL    HW224447   5.805   3.917   4.413
 7850SOL     OW24448   0.327   0.741   3.929
 7850SOL    HW124449   0.312   0.756   4.027
 7850SOL    HW224450   0.381   0.658   3.916
 7851SOL     OW24451   6.777   6.623   0.755
 7851SOL    HW124452   6.768   6.713   0.713
 7851SOL    HW224453   6.854   6.624   0.818
 7852SOL     OW24454   3.192   6.594   6.466
 7852SOL    HW124455   3.102   6.638   6.479
 7852SOL    HW224456   3.202   6.519   6.530
 7853SOL     OW24457   4.127   1.550   0.894
 7853SOL    HW124458   4.158   1.476   0.835
 7853SOL    HW224459   4.178   1.547   0.980
 7854SOL     OW24460   3.693   4.423   0.876
 7854SOL    HW124461   3.765   4.370   0.920
 7854SOL    HW224462   3.614   4.364   0.859
 7855SOL     OW24463   4.280   5.421   5.870
 7855SOL    HW124464   4.275   5.483   5.948
 7855SOL    HW224465   4.319   5.333   5.899
 7856SOL     OW24466   6.161   4.863   3.965
 7856SOL    HW124467   6.165   4.768   3.935
 7856SOL    HW224468   6.168   4.868   4.065
 7857SOL     OW24469   6.914   2.750   5.710
 7857SOL    HW124470   6.902   2.741   5.809
 7857SOL    HW224471   6.974   2.828   5.690
 7858SOL     OW24472   5.308   5.054   3.547
 7858SOL    HW124473   5.315   4.957   3.525
 7858SOL    HW224474   5.228   5.069   3.605
 7859SOL     OW24475   0.089   3.807   5.920
 7859SOL    HW124476   7.010   3.801   5.914
 7859SOL    HW224477   0.119   3.782   6.012
 7860SOL     OW24478   3.774   6.262   2.913
 7860SOL    HW124479   3.853   6.288   2.968
 7860SOL    HW224480   3.801   6.256   2.817
 7861SOL     OW24481   4.245   5.824   1.956
 7861SOL    HW124482   4.276   5.747   1.902
 7861SOL    HW224483   4.162   5.864   1.916
 7862SOL     OW24484   2.741   4.423   1.711
 7862SOL    HW124485   2.763   4.498   1.773
 7862SOL    HW224486   2.795   4.431   1.627
 7863SOL     OW24487   0.236   5.651   3.541
 7863SOL    HW124488   0.288   5.735   3.530
 7863SOL    HW224489   0.261   5.608   3.628
 7864SOL     OW24490   0.030   5.722   5.732
 7864SOL    HW124491   6.982   5.743   5.663
 7864SOL    HW224492   0.029   5.791   5.803
 7865SOL     OW24493   4.400   6.688   4.091
 7865SOL    HW124494   4.456   6.752   4.143
 7865SOL    HW224495   4.407   6.596   4.129
 7866SOL     OW24496   2.613   1.902   1.451
 7866SOL    HW124497   2.684   1.905   1.380
 7866SOL    HW224498   2.655   1.915   1.540
 7867SOL     OW24499   5.664   5.103   2.934
 7867SOL    HW124500   5.710   5.057   2.858
 7867SOL    HW224501   5.674   5.202   2.923
 7868SOL     OW24502   5.281   6.912   2.653
 7868SOL    HW124503   5.282   6.873   2.745
 7868SOL    HW224504   5.345   6.862   2.594
 7869SOL     OW24505   6.077   3.832   0.777
 7869SOL    HW124506   6.150   3.826   0.709
 7869SOL    HW224507   6.102   3.897   0.849
 7870SOL     OW24508   5.548   5.891   3.649
 7870SOL    HW124509   5.537   5.796   3.618
 7870SOL    HW224510   5.623   5.934   3.598
 7871SOL     OW24511   5.759   4.193   3.333
 7871SOL    HW124512   5.789   4.128   3.263
 7871SOL    HW224513   5.838   4.242   3.369
 7872SOL     OW24514   0.756   4.279   2.012
 7872SOL    HW124515   0.831   4.275   1.946
 7872SOL    HW224516   0.672   4.245   1.970
 7873SOL     OW24517   6.062   0.605   5.562
 7873SOL    HW124518   5.978   0.640   5.520
 7873SOL    HW224519   6.123   0.682   5.583
 7874SOL     OW24520   6.477   1.333   6.616
 7874SOL    HW124521   6.571   1.304   6.632
 7874SOL    HW224522   6.431   1.346   6.703
 7875SOL     OW24523   4.072   3.295   6.470
 7875SOL    HW124524   4.115   3.371   6.519
 7875SOL    HW224525   3.978   3.285   6.502
 7876SOL     OW24526   0.073   6.551   4.856
 7876SOL    HW124527   7.000   6.576   4.878
 7876SOL    HW224528   0.109   6.491   4.928
 7877SOL     OW24529   0.477   2.656   2.396
 7877SOL    HW124530   0.564   2.697   2.367
 7877SOL    HW224531   0.486   2.619   2.488
 7878SOL     OW24532   4.705   5.009   3.398
 7878SOL    HW124533   4.671   4.942   3.332
 7878SOL    HW224534   4.772   5.069   3.354
 7879SOL     OW24535   4.630   5.848   3.435
 7879SOL    HW124536   4.603   5.839   3.531
 7879SOL    HW224537   4.655   5.758   3.399
 7880SOL     OW24538   0.145   6.124   1.420
 7880SOL    HW124539   0.158   6.217   1.387
 7880SOL    HW224540   0.048   6.110   1.444
 7881SOL     OW24541   0.124   3.597   4.734
 7881SOL    HW124542   0.126   3.646   4.647
 7881SOL    HW224543   0.115   3.499   4.717
 7882SOL     OW24544   1.839   2.311   3.142
 7882SOL    HW124545   1.806   2.386   3.086
 7882SOL    HW224546   1.882   2.242   3.084
 7883SOL     OW24547   1.919   0.496   1.269
 7883SOL    HW124548   1.984   0.567   1.243
 7883SOL    HW224549   1.883   0.515   1.360
 7884SOL     OW24550   1.369   3.914   3.380
 7884SOL    HW124551   1.373   3.824   3.423
 7884SOL    HW224552   1.452   3.931   3.328
 7885SOL     OW24553   5.491   5.665   3.058
 7885SOL    HW124554   5.402   5.664   3.102
 7885SOL    HW224555   5.557   5.714   3.115
 7886SOL     OW24556   5.928   3.963   1.235
 7886SOL    HW124557   6.024   3.938   1.241
 7886SOL    HW224558   5.872   3.880   1.239
 7887SOL     OW24559   3.228   2.933   4.986
 7887SOL    HW124560   3.209   2.865   5.056
 7887SOL    HW224561   3.238   3.023   5.030
 7888SOL     OW24562   0.536   0.533   4.700
 7888SOL    HW124563   0.449   0.494   4.728
 7888SOL    HW224564   0.526   0.631   4.686
 7889SOL     OW24565   0.465   5.503   6.383
 7889SOL    HW124566   0.547   5.489   6.439
 7889SOL    HW224567   0.436   5.599   6.390
 7890SOL     OW24568   1.424   3.035   3.663
 7890SOL    HW124569   1.407   3.097   3.739
 7890SOL    HW224570   1.495   2.969   3.687
 7891SOL     OW24571   1.049   3.134   4.153
 7891SOL    HW124572   1.012   3.102   4.241
 7891SOL    HW224573   1.007   3.221   4.129
 7892SOL     OW24574   1.446   2.085   4.319
 7892SOL    HW124575   1.399   2.130   4.244
 7892SOL    HW224576   1.465   1.990   4.294
 7893SOL     OW24577   6.032   6.100   2.308
 7893SOL    HW124578   5.938   6.119   2.334
 7893SOL    HW224579   6.084   6.070   2.388
 7894SOL     OW24580   3.085   0.995   1.091
 7894SOL    HW124581   2.990   0.978   1.118
 7894SOL    HW224582   3.147   0.958   1.161
 7895SOL     OW24583   3.529   6.408   4.552
 7895SOL    HW124584   3.475   6.344   4.497
 7895SOL    HW224585   3.626   6.394   4.533
 7896SOL     OW24586   5.294   2.763   1.880
 7896SOL    HW124587   5.233   2.768   1.960
 7896SOL    HW224588   5.242   2.779   1.797
 7897SOL     OW24589   3.342   3.452   6.583
 7897SOL    HW124590   3.293   3.449   6.496
 7897SOL    HW224591   3.284   3.495   6.652
 7898SOL     OW24592   4.510   0.355   3.742
 7898SOL    HW124593   4.553   0.349   3.833
 7898SOL    HW224594   4.528   0.271   3.692
 7899SOL     OW24595   5.294   6.578   2.468
 7899SOL    HW124596   5.370   6.642   2.459
 7899SOL    HW224597   5.278   6.559   2.565
 7900SOL     OW24598   0.606   3.736   0.326
 7900SOL    HW124599   0.698   3.707   0.297
 7900SOL    HW224600   0.538   3.694   0.266
 7901SOL     OW24601   5.223   1.302   5.880
 7901SOL    HW124602   5.135   1.290   5.925
 7901SOL    HW224603   5.263   1.213   5.859
 7902SOL     OW24604   6.566   6.211   3.561
 7902SOL    HW124605   6.476   6.237   3.595
 7902SOL    HW224606   6.556   6.148   3.484
 7903SOL     OW24607   4.247   1.992   3.232
 7903SOL    HW124608   4.298   2.023   3.152
 7903SOL    HW224609   4.183   2.064   3.261
 7904SOL     OW24610   6.038   0.196   3.475
 7904SOL    HW124611   6.135   0.175   3.466
 7904SOL    HW224612   6.017   0.219   3.570
 7905SOL     OW24613   5.775   1.279   0.509
 7905SOL    HW124614   5.710   1.354   0.494
 7905SOL    HW224615   5.864   1.316   0.535
 7906SOL     OW24616   0.903   5.567   0.497
 7906SOL    HW124617   0.981   5.623   0.522
 7906SOL    HW224618   0.877   5.509   0.574
 7907SOL     OW24619   6.044   0.806   2.923
 7907SOL    HW124620   5.991   0.721   2.914
 7907SOL    HW224621   5.998   0.879   2.873
 7908SOL     OW24622   1.039   1.957   6.752
 7908SOL    HW124623   1.044   1.857   6.743
 7908SOL    HW224624   0.950   1.989   6.719
 7909SOL     OW24625   4.773   4.232   3.591
 7909SOL    HW124626   4.835   4.162   3.555
 7909SOL    HW224627   4.772   4.226   3.691
 7910SOL     OW24628   1.538   3.125   1.579
 7910SOL    HW124629   1.597   3.177   1.518
 7910SOL    HW224630   1.466   3.080   1.526
 7911SOL     OW24631   0.987   3.956   1.237
 7911SOL    HW124632   0.990   4.050   1.204
 7911SOL    HW224633   1.080   3.925   1.258
 7912SOL     OW24634   4.810   4.078   0.740
 7912SOL    HW124635   4.907   4.067   0.763
 7912SOL    HW224636   4.754   4.044   0.815
 7913SOL     OW24637   1.722   4.449   0.999
 7913SOL    HW124638   1.749   4.490   0.912
 7913SOL    HW224639   1.652   4.505   1.042
 7914SOL     OW24640   0.108   4.339   0.092
 7914SOL    HW124641   0.180   4.403   0.063
 7914SOL    HW224642   0.149   4.267   0.148
 7915SOL     OW24643   4.640   1.739   2.810
 7915SOL    HW124644   4.609   1.834   2.805
 7915SOL    HW224645   4.570   1.683   2.854
 7916SOL     OW24646   0.745   0.134   4.846
 7916SOL    HW124647   0.729   0.231   4.867
 7916SOL    HW224648   0.669   0.079   4.881
 7917SOL     OW24649   3.885   2.773   5.523
 7917SOL    HW124650   3.912   2.699   5.585
 7917SOL    HW224651   3.866   2.736   5.432
 7918SOL     OW24652   0.369   1.311   5.323
 7918SOL    HW124653   0.314   1.389   5.293
 7918SOL    HW224654   0.348   1.231   5.266
 7919SOL     OW24655   1.169   5.015   1.861
 7919SOL    HW124656   1.253   5.012   1.807
 7919SOL    HW224657   1.090   5.021   1.800
 7920SOL     OW24658   5.249   0.832   1.859
 7920SOL    HW124659   5.155   0.820   1.889
 7920SOL    HW224660   5.307   0.762   1.900
 7921SOL     OW24661   5.835   0.917   1.475
 7921SOL    HW124662   5.917   0.880   1.519
 7921SOL    HW224663   5.754   0.873   1.513
 7922SOL     OW24664   0.337   6.320   0.280
 7922SOL    HW124665   0.388   6.391   0.232
 7922SOL    HW224666   0.303   6.356   0.367
 7923SOL     OW24667   3.351   1.621   6.518
 7923SOL    HW124668   3.252   1.627   6.504
 7923SOL    HW224669   3.380   1.526   6.510
 7924SOL     OW24670   4.792   0.157   1.595
 7924SOL    HW124671   4.740   0.107   1.665
 7924SOL    HW224672   4.804   0.252   1.625
 7925SOL     OW24673   1.311   6.774   0.818
 7925SOL    HW124674   1.396   6.722   0.806
 7925SOL    HW224675   1.232   6.714   0.804
 7926SOL     OW24676   5.180   1.356   6.790
 7926SOL    HW124677   5.202   1.406   6.874
 7926SOL    HW224678   5.224   1.267   6.791
 7927SOL     OW24679   5.051   6.883   1.512
 7927SOL    HW124680   5.028   6.787   1.522
 7927SOL    HW224681   5.041   6.930   1.600
 7928SOL     OW24682   0.247   1.414   3.751
 7928SOL    HW124683   0.337   1.453   3.732
 7928SOL    HW224684   0.178   1.486   3.753
 7929SOL     OW24685   4.285   3.586   6.150
 7929SOL    HW124686   4.319   3.494   6.172
 7929SOL    HW224687   4.188   3.592   6.170
 7930SOL     OW24688   3.626   5.181   6.403
 7930SOL    HW124689   3.638   5.088   6.436
 7930SOL    HW224690   3.567   5.232   6.467
 7931SOL     OW24691   4.469   2.450   0.652
 7931SOL    HW124692   4.408   2.485   0.724
 7931SOL    HW224693   4.429   2.469   0.563
 7932SOL     OW24694   0.882   4.742   0.901
 7932SOL    HW124695   0.920   4.816   0.846
 7932SOL    HW224696   0.796   4.771   0.942
 7933SOL     OW24697   6.857   0.449   5.770
 7933SOL    HW124698   6.869   0.544   5.798
 7933SOL    HW224699   6.762   0.434   5.742
 7934SOL     OW24700   1.349   4.898   0.070
 7934SOL    HW124701   1.407   4.864   0.144
 7934SOL    HW224702   1.395   4.974   0.025
 7935SOL     OW24703   5.129   5.393   2.640
 7935SOL    HW124704   5.222   5.425   2.626
 7935SOL    HW224705   5.085   5.377   2.552
 7936SOL     OW24706   2.868   5.546   3.237
 7936SOL    HW124707   2.933   5.496   3.180
 7936SOL    HW224708   2.856   5.639   3.201
 7937SOL     OW24709   1.970   5.902   4.246
 7937SOL    HW124710   1.878   5.902   4.208
 7937SOL    HW224711   2.002   5.808   4.257
 7938SOL     OW24712   5.527   6.314   5.688
 7938SOL    HW124713   5.514   6.376   5.610
 7938SOL    HW224714   5.621   6.324   5.722
 7939SOL     OW24715   0.913   1.934   6.103
 7939SOL    HW124716   0.867   1.848   6.125
 7939SOL    HW224717   0.998   1.914   6.054
 7940SOL     OW24718   3.568   1.719   2.814
 7940SOL    HW124719   3.655   1.698   2.859
 7940SOL    HW224720   3.529   1.634   2.777
 7941SOL     OW24721   4.978   6.607   3.039
 7941SOL    HW124722   5.044   6.682   3.034
 7941SOL    HW224723   4.939   6.603   3.131
 7942SOL     OW24724   0.952   3.068   3.125
 7942SOL    HW124725   1.014   3.141   3.154
 7942SOL    HW224726   0.860   3.089   3.158
 7943SOL     OW24727   0.823   4.331   5.573
 7943SOL    HW124728   0.894   4.350   5.641
 7943SOL    HW224729   0.753   4.272   5.614
 7944SOL     OW24730   0.255   2.564   1.735
 7944SOL    HW124731   0.189   2.621   1.686
 7944SOL    HW224732   0.324   2.622   1.778
 7945SOL     OW24733   6.043   5.362   2.691
 7945SOL    HW124734   6.109   5.325   2.757
 7945SOL    HW224735   6.089   5.377   2.603
 7946SOL     OW24736   3.562   6.587   5.769
 7946SOL    HW124737   3.595   6.577   5.863
 7946SOL    HW224738   3.513   6.674   5.760
 7947SOL     OW24739   2.195   2.037   5.100
 7947SOL    HW124740   2.175   2.007   5.193
 7947SOL    HW224741   2.292   2.021   5.080
 7948SOL     OW24742   1.009   5.105   0.877
 7948SOL    HW124743   0.981   5.024   0.825
 7948SOL    HW224744   1.014   5.184   0.815
 7949SOL     OW24745   4.294   3.850   6.125
 7949SOL    HW124746   4.277   3.752   6.134
 7949SOL    HW224747   4.377   3.864   6.070
 7950SOL     OW24748   5.008   5.971   5.174
 7950SOL    HW124749   5.107   5.981   5.163
 7950SOL    HW224750   4.966   5.963   5.083
 7951SOL     OW24751   2.093   5.035   2.313
 7951SOL    HW124752   2.169   4.979   2.347
 7951SOL    HW224753   2.123   5.130   2.305
 7952SOL     OW24754   6.880   3.532   0.314
 7952SOL    HW124755   6.955   3.545   0.378
 7952SOL    HW224756   6.821   3.457   0.346
 7953SOL     OW24757   4.380   1.940   1.592
 7953SOL    HW124758   4.319   1.862   1.603
 7953SOL    HW224759   4.378   1.996   1.675
 7954SOL     OW24760   3.807   3.984   6.330
 7954SOL    HW124761   3.882   4.044   6.305
 7954SOL    HW224762   3.743   4.032   6.390
 7955SOL     OW24763   2.214   1.334   6.759
 7955SOL    HW124764   2.243   1.246   6.722
 7955SOL    HW224765   2.133   1.367   6.710
 7956SOL     OW24766   5.812   1.511   1.809
 7956SOL    HW124767   5.724   1.474   1.837
 7956SOL    HW224768   5.885   1.450   1.838
 7957SOL     OW24769   2.167   1.020   0.061
 7957SOL    HW124770   2.157   1.120   0.067
 7957SOL    HW224771   2.156   0.991   6.987
 7958SOL     OW24772   5.348   3.892   5.907
 7958SOL    HW124773   5.337   3.991   5.913
 7958SOL    HW224774   5.289   3.848   5.975
 7959SOL     OW24775   5.056   0.375   6.733
 7959SOL    HW124776   4.976   0.433   6.722
 7959SOL    HW224777   5.029   0.279   6.727
 7960SOL     OW24778   1.033   1.457   6.058
 7960SOL    HW124779   0.998   1.415   5.974
 7960SOL    HW224780   0.973   1.533   6.085
 7961SOL     OW24781   6.238   0.144   0.595
 7961SOL    HW124782   6.173   0.151   0.520
 7961SOL    HW224783   6.330   0.165   0.562
 7962SOL     OW24784   0.190   1.708   5.956
 7962SOL    HW124785   0.250   1.772   6.004
 7962SOL    HW224786   0.209   1.615   5.987
 7963SOL     OW24787   6.849   5.394   3.961
 7963SOL    HW124788   6.808   5.440   4.041
 7963SOL    HW224789   6.817   5.439   3.878
 7964SOL     OW24790   6.140   2.919   1.967
 7964SOL    HW124791   6.103   2.829   1.992
 7964SOL    HW224792   6.116   2.986   2.037
 7965SOL     OW24793   3.924   2.152   6.021
 7965SOL    HW124794   3.970   2.190   6.100
 7965SOL    HW224795   3.927   2.052   6.025
 7966SOL     OW24796   3.321   3.042   5.385
 7966SOL    HW124797   3.418   3.058   5.368
 7966SOL    HW224798   3.308   3.022   5.482
 7967SOL     OW24799   2.047   5.378   1.848
 7967SOL    HW124800   1.967   5.318   1.851
 7967SOL    HW224801   2.055   5.427   1.935
 7968SOL     OW24802   6.379   2.148   5.219
 7968SOL    HW124803   6.355   2.119   5.312
 7968SOL    HW224804   6.327   2.230   5.195
 7969SOL     OW24805   5.226   6.020   0.625
 7969SOL    HW124806   5.295   6.091   0.635
 7969SOL    HW224807   5.182   6.002   0.713
 7970SOL     OW24808   5.654   3.575   3.011
 7970SOL    HW124809   5.677   3.573   3.108
 7970SOL    HW224810   5.733   3.545   2.957
 7971SOL     OW24811   3.098   0.690   2.028
 7971SOL    HW124812   3.105   0.790   2.022
 7971SOL    HW224813   3.183   0.653   2.067
 7972SOL     OW24814   3.834   3.532   2.094
 7972SOL    HW124815   3.777   3.451   2.082
 7972SOL    HW224816   3.835   3.586   2.010
 7973SOL     OW24817   5.451   4.021   4.765
 7973SOL    HW124818   5.496   4.054   4.682
 7973SOL    HW224819   5.483   3.929   4.786
 7974SOL     OW24820   6.109   1.089   5.917
 7974SOL    HW124821   6.086   1.118   5.825
 7974SOL    HW224822   6.042   1.023   5.950
 7975SOL     OW24823   4.869   0.278   0.919
 7975SOL    HW124824   4.779   0.253   0.884
 7975SOL    HW224825   4.869   0.375   0.943
 7976SOL     OW24826   1.061   0.019   5.932
 7976SOL    HW124827   1.030   0.017   5.837
 7976SOL    HW224828   1.002   0.081   5.984
 7977SOL     OW24829   4.553   6.029   2.532
 7977SOL    HW124830   4.456   6.014   2.552
 7977SOL    HW224831   4.565   6.035   2.433
 7978SOL     OW24832   0.207   2.574   6.325
 7978SOL    HW124833   0.278   2.543   6.388
 7978SOL    HW224834   0.214   2.673   6.314
 7979SOL     OW24835   2.003   4.492   5.819
 7979SOL    HW124836   2.034   4.419   5.758
 7979SOL    HW224837   2.080   4.550   5.844
 7980SOL     OW24838   2.825   5.651   6.788
 7980SOL    HW124839   2.769   5.577   6.824
 7980SOL    HW224840   2.765   5.726   6.758
 7981SOL     OW24841   0.595   5.148   1.685
 7981SOL    HW124842   0.640   5.059   1.675
 7981SOL    HW224843   0.639   5.200   1.757
 7982SOL     OW24844   1.476   1.738   6.112
 7982SOL    HW124845   1.444   1.683   6.035
 7982SOL    HW224846   1.496   1.831   6.081
 7983SOL     OW24847   6.262   1.759   1.443
 7983SOL    HW124848   6.165   1.734   1.450
 7983SOL    HW224849   6.271   1.858   1.456
 7984SOL     OW24850   0.235   1.185   0.680
 7984SOL    HW124851   0.203   1.162   0.772
 7984SOL    HW224852   0.331   1.213   0.684
 7985SOL     OW24853   2.507   2.197   4.860
 7985SOL    HW124854   2.436   2.144   4.812
 7985SOL    HW224855   2.493   2.190   4.958
 7986SOL     OW24856   3.185   0.839   5.797
 7986SOL    HW124857   3.145   0.872   5.882
 7986SOL    HW224858   3.183   0.913   5.729
 7987SOL     OW24859   1.989   3.159   0.710
 7987SOL    HW124860   2.040   3.226   0.763
 7987SOL    HW224861   1.941   3.204   0.635
 7988SOL     OW24862   1.632   0.718   2.385
 7988SOL    HW124863   1.702   0.754   2.447
 7988SOL    HW224864   1.620   0.781   2.308
 7989SOL     OW24865   2.591   3.653   0.393
 7989SOL    HW124866   2.540   3.622   0.473
 7989SOL    HW224867   2.547   3.734   0.354
 7990SOL     OW24868   2.420   5.161   4.520
 7990SOL    HW124869   2.468   5.137   4.435
 7990SOL    HW224870   2.455   5.247   4.556
 7991SOL     OW24871   5.933   1.390   3.905
 7991SOL    HW124872   5.885   1.455   3.846
 7991SOL    HW224873   5.868   1.343   3.964
 7992SOL     OW24874   1.390   0.470   0.290
 7992SOL    HW124875   1.457   0.479   0.364
 7992SOL    HW224876   1.305   0.516   0.317
 7993SOL     OW24877   6.931   0.177   1.487
 7993SOL    HW124878   6.917   0.078   1.478
 7993SOL    HW224879   6.868   0.214   1.554
 7994SOL     OW24880   5.267   0.845   3.205
 7994SOL    HW124881   5.262   0.921   3.270
 7994SOL    HW224882   5.297   0.762   3.252
 7995SOL     OW24883   6.166   5.321   3.612
 7995SOL    HW124884   6.073   5.285   3.612
 7995SOL    HW224885   6.216   5.286   3.691
 7996SOL     OW24886   3.602   6.059   4.496
 7996SOL    HW124887   3.671   5.994   4.463
 7996SOL    HW224888   3.610   6.070   4.595
 7997SOL     OW24889   6.925   1.856   0.313
 7997SOL    HW124890   7.010   1.908   0.308
 7997SOL    HW224891   6.936   1.769   0.265
 7998SOL     OW24892   3.203   6.962   6.642
 7998SOL    HW124893   3.284   6.913   6.611
 7998SOL    HW224894   3.181   6.935   6.736
 7999SOL     OW24895   0.933   1.045   5.739
 7999SOL    HW124896   0.840   1.036   5.705
 7999SOL    HW224897   0.998   1.034   5.663
 8000SOL     OW24898   5.726   6.643   6.003
 8000SOL    HW124899   5.773   6.569   6.053
 8000SOL    HW224900   5.662   6.603   5.937
 8001SOL     OW24901   4.445   6.047   1.366
 8001SOL    HW124902   4.491   5.978   1.423
 8001SOL    HW224903   4.363   6.007   1.325
 8002SOL     OW24904   0.925   0.762   5.482
 8002SOL    HW124905   0.843   0.732   5.530
 8002SOL    HW224906   0.917   0.739   5.385
 8003SOL     OW24907   2.110   5.799   1.424
 8003SOL    HW124908   2.210   5.792   1.425
 8003SOL    HW224909   2.071   5.724   1.477
 8004SOL     OW24910   2.100   3.398   3.725
 8004SOL    HW124911   2.033   3.333   3.760
 8004SOL    HW224912   2.118   3.379   3.628
 8005SOL     OW24913   2.334   0.748   3.419
 8005SOL    HW124914   2.354   0.650   3.423
 8005SOL    HW224915   2.349   0.790   3.508
 8006SOL     OW24916   2.497   5.991   5.179
 8006SOL    HW124917   2.523   6.086   5.163
 8006SOL    HW224918   2.555   5.952   5.251
 8007SOL     OW24919   5.937   1.949   6.522
 8007SOL    HW124920   5.896   1.873   6.573
 8007SOL    HW224921   5.869   1.989   6.461
 8008SOL     OW24922   3.427   5.637   6.580
 8008SOL    HW124923   3.337   5.668   6.547
 8008SOL    HW224924   3.438   5.663   6.675
 8009SOL     OW24925   4.541   1.054   0.363
 8009SOL    HW124926   4.603   1.114   0.414
 8009SOL    HW224927   4.451   1.096   0.359
 8010SOL     OW24928   2.778   2.335   4.916
 8010SOL    HW124929   2.875   2.310   4.922
 8010SOL    HW224930   2.724   2.255   4.892
 8011SOL     OW24931   3.345   2.164   1.530
 8011SOL    HW124932   3.406   2.161   1.609
 8011SOL    HW224933   3.276   2.092   1.538
 8012SOL     OW24934   1.202   2.687   6.765
 8012SOL    HW124935   1.286   2.740   6.777
 8012SOL    HW224936   1.207   2.604   6.821
 8013SOL     OW24937   1.802   3.941   3.469
 8013SOL    HW124938   1.720   3.949   3.526
 8013SOL    HW224939   1.877   3.905   3.524
 8014SOL     OW24940   2.164   0.250   4.517
 8014SOL    HW124941   2.071   0.266   4.549
 8014SOL    HW224942   2.214   0.197   4.585
 8015SOL     OW24943   2.072   0.481   5.981
 8015SOL    HW124944   1.979   0.468   5.945
 8015SOL    HW224945   2.135   0.419   5.933
 8016SOL     OW24946   4.168   1.265   5.111
 8016SOL    HW124947   4.245   1.324   5.137
 8016SOL    HW224948   4.129   1.224   5.193
 8017SOL     OW24949   6.305   6.982   6.704
 8017SOL    HW124950   6.258   6.938   6.627
 8017SOL    HW224951   6.398   7.007   6.676
 8018SOL     OW24952   3.217   2.782   0.307
 8018SOL    HW124953   3.304   2.802   0.263
 8018SOL    HW224954   3.143   2.822   0.253
 8019SOL     OW24955   1.825   4.200   1.587
 8019SOL    HW124956   1.900   4.231   1.529
 8019SOL    HW224957   1.742   4.190   1.532
 8020SOL     OW24958   6.546   0.101   6.410
 8020SOL    HW124959   6.501   0.191   6.410
 8020SOL    HW224960   6.557   0.070   6.505
 8021SOL     OW24961   1.834   2.930   1.800
 8021SOL    HW124962   1.756   2.948   1.861
 8021SOL    HW224963   1.822   2.840   1.758
 8022SOL     OW24964   6.294   0.648   2.087
 8022SOL    HW124965   6.233   0.609   2.156
 8022SOL    HW224966   6.242   0.671   2.005
 8023SOL     OW24967   5.849   4.668   2.571
 8023SOL    HW124968   5.861   4.582   2.621
 8023SOL    HW224969   5.937   4.695   2.530
 8024SOL     OW24970   1.125   5.079   6.187
 8024SOL    HW124971   1.213   5.120   6.211
 8024SOL    HW224972   1.061   5.150   6.160
 8025SOL     OW24973   1.381   5.250   0.815
 8025SOL    HW124974   1.472   5.284   0.838
 8025SOL    HW224975   1.377   5.151   0.833
 8026SOL     OW24976   6.771   4.553   0.842
 8026SOL    HW124977   6.784   4.460   0.875
 8026SOL    HW224978   6.785   4.617   0.918
 8027SOL     OW24979   3.235   6.336   5.912
 8027SOL    HW124980   3.294   6.358   5.990
 8027SOL    HW224981   3.267   6.251   5.869
 8028SOL     OW24982   3.389   4.887   5.043
 8028SOL    HW124983   3.433   4.941   4.971
 8028SOL    HW224984   3.298   4.924   5.062
 8029SOL     OW24985   4.944   2.413   2.017
 8029SOL    HW124986   4.951   2.313   2.023
 8029SOL    HW224987   4.880   2.446   2.086
 8030SOL     OW24988   5.893   5.431   1.153
 8030SOL    HW124989   5.914   5.478   1.067
 8030SOL    HW224990   5.856   5.497   1.219
 8031SOL     OW24991   6.986   6.453   3.254
 8031SOL    HW124992   6.890   6.477   3.264
 8031SOL    HW224993   0.016   6.533   3.221
 8032SOL     OW24994   5.345   3.855   1.705
 8032SOL    HW124995   5.263   3.883   1.754
 8032SOL    HW224996   5.324   3.846   1.607
 8033SOL     OW24997   4.643   3.314   0.157
 8033SOL    HW124998   4.612   3.407   0.177
 8033SOL    HW224999   4.743   3.310   0.165
 8034SOL     OW25000   4.890   6.765   5.718
 8034SOL    HW125001   4.856   6.833   5.783
 8034SOL    HW225002   4.881   6.674   5.758
 8035SOL     OW25003   5.215   1.819   2.071
 8035SOL    HW125004   5.223   1.918   2.058
 8035SOL    HW225005   5.140   1.800   2.135
 8036SOL     OW25006   6.932   3.634   3.650
 8036SOL    HW125007   6.970   3.674   3.733
 8036SOL    HW225008   6.840   3.671   3.634
 8037SOL     OW25009   1.609   3.308   0.080
 8037SOL    HW125010   1.515   3.321   0.111
 8037SOL    HW225011   1.639   3.389   0.029
 8038SOL     OW25012   4.240   6.596   2.978
 8038SOL    HW125013   4.339   6.595   2.980
 8038SOL    HW225014   4.208   6.587   2.883
 8039SOL     OW25015   6.895   1.636   4.605
 8039SOL    HW125016   6.817   1.623   4.543
 8039SOL    HW225017   6.932   1.546   4.630
 8040SOL     OW25018   1.656   6.530   6.667
 8040SOL    HW125019   1.699   6.618   6.686
 8040SOL    HW225020   1.672   6.505   6.572
 8041SOL     OW25021   3.319   0.857   2.877
 8041SOL    HW125022   3.222   0.850   2.898
 8041SOL    HW225023   3.371   0.865   2.962
 8042SOL     OW25024   4.518   3.968   5.700
 8042SOL    HW125025   4.460   4.021   5.638
 8042SOL    HW225026   4.614   3.982   5.677
 8043SOL     OW25027   3.583   4.855   0.209
 8043SOL    HW125028   3.514   4.790   0.176
 8043SOL    HW225029   3.652   4.869   0.137
 8044SOL     OW25030   3.910   3.745   0.622
 8044SOL    HW125031   3.846   3.675   0.655
 8044SOL    HW225032   3.999   3.731   0.665
 8045SOL     OW25033   6.415   2.145   2.551
 8045SOL    HW125034   6.370   2.089   2.621
 8045SOL    HW225035   6.514   2.139   2.563
 8046SOL     OW25036   0.447   4.492   2.261
 8046SOL    HW125037   0.455   4.492   2.162
 8046SOL    HW225038   0.538   4.490   2.303
 8047SOL     OW25039   3.424   6.787   6.558
 8047SOL    HW125040   3.357   6.718   6.531
 8047SOL    HW225041   3.507   6.742   6.590
 8048SOL     OW25042   3.105   2.414   0.053
 8048SOL    HW125043   3.129   2.506   0.022
 8048SOL    HW225044   3.007   2.409   0.070
 8049SOL     OW25045   0.260   6.860   0.428
 8049SOL    HW125046   0.280   6.762   0.434
 8049SOL    HW225047   0.238   6.883   0.333
 8050SOL     OW25048   2.083   3.477   4.190
 8050SOL    HW125049   2.012   3.544   4.209
 8050SOL    HW225050   2.144   3.513   4.118
 8051SOL     OW25051   5.149   6.265   4.486
 8051SOL    HW125052   5.177   6.356   4.518
 8051SOL    HW225053   5.142   6.203   4.564
 8052SOL     OW25054   2.620   2.162   1.283
 8052SOL    HW125055   2.688   2.138   1.352
 8052SOL    HW225056   2.620   2.261   1.268
 8053SOL     OW25057   3.242   3.136   5.153
 8053SOL    HW125058   3.259   3.110   5.248
 8053SOL    HW225059   3.285   3.224   5.134
 8054SOL     OW25060   0.015   4.145   4.328
 8054SOL    HW125061   6.959   4.189   4.373
 8054SOL    HW225062   0.098   4.157   4.382
 8055SOL     OW25063   6.585   0.483   5.479
 8055SOL    HW125064   6.530   0.557   5.440
 8055SOL    HW225065   6.565   0.474   5.576
 8056SOL     OW25066   3.281   0.334   4.911
 8056SOL    HW125067   3.370   0.367   4.942
 8056SOL    HW225068   3.259   0.248   4.957
 8057SOL     OW25069   2.276   2.484   2.588
 8057SOL    HW125070   2.365   2.452   2.620
 8057SOL    HW225071   2.279   2.583   2.574
 8058SOL     OW25072   2.975   6.701   2.418
 8058SOL    HW125073   2.877   6.702   2.397
 8058SOL    HW225074   3.026   6.681   2.334
 8059SOL     OW25075   2.732   0.860   5.261
 8059SOL    HW125076   2.669   0.783   5.248
 8059SOL    HW225077   2.741   0.879   5.359
 8060SOL     OW25078   0.355   2.262   6.228
 8060SOL    HW125079   0.441   2.221   6.198
 8060SOL    HW225080   0.352   2.359   6.201
 8061SOL     OW25081   0.837   0.435   2.447
 8061SOL    HW125082   0.799   0.527   2.461
 8061SOL    HW225083   0.819   0.379   2.528
 8062SOL     OW25084   4.152   5.193   4.344
 8062SOL    HW125085   4.164   5.284   4.384
 8062SOL    HW225086   4.219   5.180   4.271
 8063SOL     OW25087   2.883   0.936   2.981
 8063SOL    HW125088   2.968   0.968   3.022
 8063SOL    HW225089   2.828   1.014   2.951
 8064SOL     OW25090   6.108   2.354   0.229
 8064SOL    HW125091   6.015   2.329   0.257
 8064SOL    HW225092   6.125   2.322   0.136
 8065SOL     OW25093   2.855   6.565   4.478
 8065SOL    HW125094   2.933   6.506   4.495
 8065SOL    HW225095   2.828   6.558   4.382
 8066SOL     OW25096   6.562   6.995   5.008
 8066SOL    HW125097   6.549   0.044   5.078
 8066SOL    HW225098   6.488   6.928   5.014
 8067SOL     OW25099   5.004   2.114   2.979
 8067SOL    HW125100   4.922   2.125   3.034
 8067SOL    HW225101   4.990   2.156   2.889
 8068SOL     OW25102   0.449   4.980   1.148
 8068SOL    HW125103   0.508   4.984   1.228
 8068SOL    HW225104   0.361   4.940   1.173
 8069SOL     OW25105   2.130   4.311   1.646
 8069SOL    HW125106   2.171   4.289   1.557
 8069SOL    HW225107   2.086   4.401   1.641
 8070SOL     OW25108   3.780   2.787   0.173
 8070SOL    HW125109   3.760   2.786   0.075
 8070SOL    HW225110   3.834   2.706   0.196
 8071SOL     OW25111   3.116   6.615   5.413
 8071SOL    HW125112   3.026   6.601   5.455
 8071SOL    HW225113   3.161   6.526   5.401
 8072SOL     OW25114   3.427   1.842   1.362
 8072SOL    HW125115   3.431   1.766   1.297
 8072SOL    HW225116   3.332   1.874   1.368
 8073SOL     OW25117   3.242   5.632   5.463
 8073SOL    HW125118   3.200   5.702   5.406
 8073SOL    HW225119   3.235   5.658   5.559
 8074SOL     OW25120   2.635   1.485   0.747
 8074SOL    HW125121   2.607   1.390   0.736
 8074SOL    HW225122   2.560   1.545   0.721
 8075SOL     OW25123   0.015   0.331   0.139
 8075SOL    HW125124   0.043   0.378   0.223
 8075SOL    HW225125   0.093   0.282   0.101
 8076SOL     OW25126   6.099   6.927   5.463
 8076SOL    HW125127   6.167   6.899   5.394
 8076SOL    HW225128   6.084   0.005   5.456
 8077SOL     OW25129   3.313   6.031   2.581
 8077SOL    HW125130   3.317   6.107   2.517
 8077SOL    HW225131   3.229   5.979   2.567
 8078SOL     OW25132   0.478   1.888   1.887
 8078SOL    HW125133   0.486   1.987   1.888
 8078SOL    HW225134   0.451   1.858   1.795
 8079SOL     OW25135   6.928   1.222   3.530
 8079SOL    HW125136   6.912   1.314   3.567
 8079SOL    HW225137   6.840   1.178   3.512
 8080SOL     OW25138   1.074   2.243   2.334
 8080SOL    HW125139   1.163   2.218   2.296
 8080SOL    HW225140   1.086   2.317   2.401
 8081SOL     OW25141   6.010   5.315   6.079
 8081SOL    HW125142   6.024   5.227   6.125
 8081SOL    HW225143   5.922   5.314   6.031
 8082SOL     OW25144   3.518   0.757   2.293
 8082SOL    HW125145   3.471   0.781   2.208
 8082SOL    HW225146   3.601   0.705   2.272
 8083SOL     OW25147   5.100   2.592   3.804
 8083SOL    HW125148   5.139   2.660   3.865
 8083SOL    HW225149   5.024   2.545   3.850
 8084SOL     OW25150   2.586   0.537   0.053
 8084SOL    HW125151   2.544   0.450   0.077
 8084SOL    HW225152   2.677   0.522   0.016
 8085SOL     OW25153   5.731   5.914   2.726
 8085SOL    HW125154   5.680   5.981   2.780
 8085SOL    HW225155   5.742   5.949   2.633
 8086SOL     OW25156   0.045   0.558   1.464
 8086SOL    HW125157   0.011   0.555   1.558
 8086SOL    HW225158   6.988   0.559   1.400
 8087SOL     OW25159   1.487   0.440   7.017
 8087SOL    HW125160   1.573   0.388   7.014
 8087SOL    HW225161   1.454   0.445   0.090
 8088SOL     OW25162   5.385   0.469   0.425
 8088SOL    HW125163   5.348   0.398   0.484
 8088SOL    HW225164   5.310   0.518   0.379
 8089SOL     OW25165   5.509   3.060   6.840
 8089SOL    HW125166   5.581   3.117   6.802
 8089SOL    HW225167   5.549   2.977   6.881
 8090SOL     OW25168   3.742   0.925   6.241
 8090SOL    HW125169   3.699   0.993   6.300
 8090SOL    HW225170   3.716   0.942   6.146
 8091SOL     OW25171   1.740   3.805   4.855
 8091SOL    HW125172   1.739   3.811   4.954
 8091SOL    HW225173   1.661   3.855   4.817
 8092SOL     OW25174   4.835   1.965   5.014
 8092SOL    HW125175   4.913   1.925   5.063
 8092SOL    HW225176   4.860   1.983   4.919
 8093SOL     OW25177   2.666   5.362   3.310
 8093SOL    HW125178   2.720   5.446   3.301
 8093SOL    HW225179   2.599   5.374   3.384
 8094SOL     OW25180   0.403   2.720   5.204
 8094SOL    HW125181   0.461   2.786   5.155
 8094SOL    HW225182   0.320   2.703   5.150
 8095SOL     OW25183   0.863   4.187   4.561
 8095SOL    HW125184   0.864   4.213   4.657
 8095SOL    HW225185   0.956   4.191   4.524
 8096SOL     OW25186   2.321   0.587   2.282
 8096SOL    HW125187   2.310   0.517   2.353
 8096SOL    HW225188   2.257   0.662   2.298
 8097SOL     OW25189   4.644   6.898   4.722
 8097SOL    HW125190   4.695   6.918   4.806
 8097SOL    HW225191   4.709   6.879   4.648
 8098SOL     OW25192   2.360   6.471   3.891
 8098SOL    HW125193   2.398   6.440   3.977
 8098SOL    HW225194   2.428   6.462   3.818
 8099SOL     OW25195   5.003   6.373   4.298
 8099SOL    HW125196   5.033   6.383   4.203
 8099SOL    HW225197   5.067   6.313   4.346
 8100SOL     OW25198   6.709   1.556   6.738
 8100SOL    HW125199   6.730   1.602   6.652
 8100SOL    HW225200   6.714   1.457   6.725
 8101SOL     OW25201   1.600   5.876   0.795
 8101SOL    HW125202   1.638   5.960   0.833
 8101SOL    HW225203   1.639   5.797   0.843
 8102SOL     OW25204   0.704   3.713   2.779
 8102SOL    HW125205   0.668   3.700   2.687
 8102SOL    HW225206   0.722   3.811   2.794
 8103SOL     OW25207   3.648   0.032   1.525
 8103SOL    HW125208   3.720   0.058   1.589
 8103SOL    HW225209   3.650   6.954   1.511
 8104SOL     OW25210   1.512   0.735   6.324
 8104SOL    HW125211   1.511   0.635   6.321
 8104SOL    HW225212   1.602   0.767   6.353
 8105SOL     OW25213   6.802   2.848   2.497
 8105SOL    HW125214   6.858   2.777   2.539
 8105SOL    HW225215   6.746   2.892   2.567
 8106SOL     OW25216   3.164   5.892   3.184
 8106SOL    HW125217   3.153   5.850   3.094
 8106SOL    HW225218   3.260   5.914   3.199
 8107SOL     OW25219   1.071   5.591   3.828
 8107SOL    HW125220   1.057   5.607   3.730
 8107SOL    HW225221   1.159   5.631   3.856
 8108SOL     OW25222   6.565   2.738   6.813
 8108SOL    HW125223   6.625   2.734   6.893
 8108SOL    HW225224   6.470   2.751   6.844
 8109SOL     OW25225   0.072   3.530   6.614
 8109SOL    HW125226   7.005   3.495   6.582
 8109SOL    HW225227   0.128   3.454   6.648
 8110SOL     OW25228   4.242   5.803   2.244
 8110SOL    HW125229   4.334   5.779   2.273
 8110SOL    HW225230   4.237   5.801   2.144
 8111SOL     OW25231   4.621   1.439   4.511
 8111SOL    HW125232   4.639   1.514   4.447
 8111SOL    HW225233   4.693   1.370   4.503
 8112SOL     OW25234   2.463   2.646   4.387
 8112SOL    HW125235   2.408   2.699   4.323
 8112SOL    HW225236   2.443   2.675   4.481
 8113SOL     OW25237   0.392   4.077   0.858
 8113SOL    HW125238   0.345   4.005   0.806
 8113SOL    HW225239   0.350   4.165   0.838
 8114SOL     OW25240   2.097   3.596   2.694
 8114SOL    HW125241   2.022   3.578   2.756
 8114SOL    HW225242   2.119   3.693   2.695
 8115SOL     OW25243   3.536   6.945   6.337
 8115SOL    HW125244   3.506   6.911   6.426
 8115SOL    HW225245   3.458   6.982   6.287
 8116SOL     OW25246   3.971   5.028   0.432
 8116SOL    HW125247   4.067   5.011   0.412
 8116SOL    HW225248   3.962   5.109   0.490
 8117SOL     OW25249   2.000   0.288   3.063
 8117SOL    HW125250   1.923   0.225   3.053
 8117SOL    HW225251   2.072   0.244   3.117
 8118SOL     OW25252   5.407   3.698   5.717
 8118SOL    HW125253   5.445   3.658   5.800
 8118SOL    HW225254   5.340   3.768   5.741
 8119SOL     OW25255   5.459   6.337   6.302
 8119SOL    HW125256   5.479   6.434   6.303
 8119SOL    HW225257   5.516   6.290   6.370
 8120SOL     OW25258   3.176   4.412   0.979
 8120SOL    HW125259   3.178   4.506   1.012
 8120SOL    HW225260   3.196   4.349   1.055
 8121SOL     OW25261   0.741   4.986   1.411
 8121SOL    HW125262   0.814   4.971   1.344
 8121SOL    HW225263   0.760   5.069   1.463
 8122SOL     OW25264   0.259   4.693   2.763
 8122SOL    HW125265   0.163   4.719   2.773
 8122SOL    HW225266   0.317   4.763   2.806
 8123SOL     OW25267   6.597   2.176   6.687
 8123SOL    HW125268   6.692   2.143   6.686
 8123SOL    HW225269   6.568   2.191   6.782
 8124SOL     OW25270   4.679   6.038   1.948
 8124SOL    HW125271   4.683   5.956   2.005
 8124SOL    HW225272   4.667   6.011   1.852
 8125SOL     OW25273   1.395   1.863   3.226
 8125SOL    HW125274   1.397   1.865   3.326
 8125SOL    HW225275   1.353   1.778   3.195
 8126SOL     OW25276   5.126   5.212   3.290
 8126SOL    HW125277   5.157   5.241   3.381
 8126SOL    HW225278   5.199   5.228   3.223
 8127SOL     OW25279   2.643   3.545   6.321
 8127SOL    HW125280   2.666   3.476   6.252
 8127SOL    HW225281   2.568   3.511   6.378
 8128SOL     OW25282   2.733   2.230   2.245
 8128SOL    HW125283   2.815   2.262   2.198
 8128SOL    HW225284   2.684   2.308   2.285
 8129SOL     OW25285   3.716   1.289   5.826
 8129SOL    HW125286   3.633   1.309   5.773
 8129SOL    HW225287   3.691   1.273   5.921
 8130SOL     OW25288   0.583   4.691   6.611
 8130SOL    HW125289   0.650   4.695   6.537
 8130SOL    HW225290   0.546   4.598   6.618
 8131SOL     OW25291   2.529   1.514   1.660
 8131SOL    HW125292   2.468   1.584   1.623
 8131SOL    HW225293   2.620   1.522   1.618
 8132SOL     OW25294   5.393   6.871   5.195
 8132SOL    HW125295   5.369   6.968   5.189
 8132SOL    HW225296   5.330   6.817   5.140
 8133SOL     OW25297   2.861   5.291   2.229
 8133SOL    HW125298   2.891   5.327   2.317
 8133SOL    HW225299   2.941   5.278   2.169
 8134SOL     OW25300   0.325   2.038   6.634
 8134SOL    HW125301   0.358   2.012   6.543
 8134SOL    HW225302   0.375   1.987   6.704
 8135SOL     OW25303   2.590   0.373   1.663
 8135SOL    HW125304   2.582   0.273   1.663
 8135SOL    HW225305   2.634   0.402   1.748
 8136SOL     OW25306   4.500   5.299   2.812
 8136SOL    HW125307   4.550   5.214   2.822
 8136SOL    HW225308   4.415   5.294   2.865
 8137SOL     OW25309   2.978   1.597   5.218
 8137SOL    HW125310   3.039   1.665   5.179
 8137SOL    HW225311   2.894   1.593   5.164
 8138SOL     OW25312   5.268   1.163   1.439
 8138SOL    HW125313   5.215   1.227   1.383
 8138SOL    HW225314   5.209   1.087   1.467
 8139SOL     OW25315   0.252   0.484   1.808
 8139SOL    HW125316   0.333   0.532   1.776
 8139SOL    HW225317   0.212   0.534   1.884
 8140SOL     OW25318   6.075   0.480   5.861
 8140SOL    HW125319   5.989   0.480   5.810
 8140SOL    HW225320   6.087   0.568   5.906
 8141SOL     OW25321   4.300   5.341   5.209
 8141SOL    HW125322   4.382   5.398   5.209
 8141SOL    HW225323   4.258   5.343   5.118
 8142SOL     OW25324   0.285   5.450   0.111
 8142SOL    HW125325   0.220   5.424   0.181
 8142SOL    HW225326   0.344   5.523   0.146
 8143SOL     OW25327   5.876   4.350   0.629
 8143SOL    HW125328   5.911   4.434   0.589
 8143SOL    HW225329   5.776   4.350   0.626
 8144SOL     OW25330   5.954   6.171   0.028
 8144SOL    HW125331   5.952   6.179   0.127
 8144SOL    HW225332   5.867   6.131   7.018
 8145SOL     OW25333   5.059   5.932   1.539
 8145SOL    HW125334   5.042   5.949   1.443
 8145SOL    HW225335   5.076   6.018   1.586
 8146SOL     OW25336   4.073   0.705   4.861
 8146SOL    HW125337   4.127   0.770   4.914
 8146SOL    HW225338   4.084   0.724   4.763
 8147SOL     OW25339   6.053   2.292   2.584
 8147SOL    HW125340   6.003   2.325   2.504
 8147SOL    HW225341   6.147   2.328   2.582
 8148SOL     OW25342   5.169   4.514   1.869
 8148SOL    HW125343   5.204   4.445   1.805
 8148SOL    HW225344   5.185   4.483   1.963
 8149SOL     OW25345   2.292   6.007   1.920
 8149SOL    HW125346   2.332   6.031   2.008
 8149SOL    HW225347   2.319   6.075   1.851
 8150SOL     OW25348   0.358   4.924   6.756
 8150SOL    HW125349   0.313   4.981   6.686
 8150SOL    HW225350   0.423   4.863   6.711
 8151SOL     OW25351   6.390   2.210   1.727
 8151SOL    HW125352   6.399   2.210   1.827
 8151SOL    HW225353   6.473   2.172   1.686
 8152SOL     OW25354   0.672   2.363   2.753
 8152SOL    HW125355   0.662   2.268   2.782
 8152SOL    HW225356   0.768   2.383   2.736
 8153SOL     OW25357   3.485   0.254   2.661
 8153SOL    HW125358   3.560   0.320   2.668
 8153SOL    HW225359   3.409   0.294   2.609
 8154SOL     OW25360   3.012   5.788   3.671
 8154SOL    HW125361   2.982   5.810   3.578
 8154SOL    HW225362   3.112   5.787   3.674
 8155SOL     OW25363   2.505   3.633   1.688
 8155SOL    HW125364   2.473   3.555   1.741
 8155SOL    HW225365   2.465   3.629   1.596
 8156SOL     OW25366   4.913   0.134   6.119
 8156SOL    HW125367   4.838   0.188   6.158
 8156SOL    HW225368   4.926   0.160   6.024
 8157SOL     OW25369   5.840   5.533   6.397
 8157SOL    HW125370   5.934   5.504   6.375
 8157SOL    HW225371   5.776   5.461   6.373
 8158SOL     OW25372   0.350   5.380   0.985
 8158SOL    HW125373   0.377   5.472   1.014
 8158SOL    HW225374   0.295   5.337   1.056
 8159SOL     OW25375   2.640   6.224   2.506
 8159SOL    HW125376   2.735   6.252   2.518
 8159SOL    HW225377   2.611   6.244   2.413
 8160SOL     OW25378   4.699   1.768   1.898
 8160SOL    HW125379   4.703   1.854   1.949
 8160SOL    HW225380   4.674   1.786   1.803
 8161SOL     OW25381   5.093   1.172   0.344
 8161SOL    HW125382   5.083   1.073   0.342
 8161SOL    HW225383   5.156   1.201   0.272
 8162SOL     OW25384   6.676   6.824   6.123
 8162SOL    HW125385   6.642   6.736   6.157
 8162SOL    HW225386   6.693   6.818   6.024
 8163SOL     OW25387   2.585   3.831   5.606
 8163SOL    HW125388   2.586   3.788   5.696
 8163SOL    HW225389   2.521   3.908   5.606
 8164SOL     OW25390   5.760   3.794   0.613
 8164SOL    HW125391   5.748   3.713   0.670
 8164SOL    HW225392   5.671   3.835   0.595
 8165SOL     OW25393   0.925   5.007   6.560
 8165SOL    HW125394   1.023   5.004   6.540
 8165SOL    HW225395   0.873   5.003   6.474
 8166SOL     OW25396   2.422   1.004   2.225
 8166SOL    HW125397   2.489   0.933   2.206
 8166SOL    HW225398   2.371   0.980   2.308
 8167SOL     OW25399   5.543   1.544   4.302
 8167SOL    HW125400   5.627   1.581   4.262
 8167SOL    HW225401   5.510   1.468   4.246
 8168SOL     OW25402   3.448   1.096   2.696
 8168SOL    HW125403   3.398   1.123   2.613
 8168SOL    HW225404   3.412   1.009   2.729
 8169SOL     OW25405   5.263   3.762   1.453
 8169SOL    HW125406   5.270   3.681   1.511
 8169SOL    HW225407   5.353   3.784   1.416
 8170SOL     OW25408   1.830   6.085   2.945
 8170SOL    HW125409   1.792   6.041   3.027
 8170SOL    HW225410   1.817   6.184   2.951
 8171SOL     OW25411   1.066   1.684   6.787
 8171SOL    HW125412   1.094   1.620   6.714
 8171SOL    HW225413   1.027   1.632   6.863
 8172SOL     OW25414   0.607   0.736   1.441
 8172SOL    HW125415   0.686   0.728   1.381
 8172SOL    HW225416   0.542   0.801   1.401
 8173SOL     OW25417   3.675   2.103   0.341
 8173SOL    HW125418   3.747   2.037   0.363
 8173SOL    HW225419   3.708   2.168   0.273
 8174SOL     OW25420   4.929   1.778   0.890
 8174SOL    HW125421   4.913   1.850   0.823
 8174SOL    HW225422   4.950   1.819   0.979
 8175SOL     OW25423   0.327   2.507   6.099
 8175SOL    HW125424   0.266   2.545   6.168
 8175SOL    HW225425   0.385   2.580   6.062
 8176SOL     OW25426   2.790   6.117   1.847
 8176SOL    HW125427   2.767   6.032   1.894
 8176SOL    HW225428   2.758   6.113   1.752
 8177SOL     OW25429   1.972   5.999   4.506
 8177SOL    HW125430   1.974   5.971   4.410
 8177SOL    HW225431   2.065   5.992   4.544
 8178SOL     OW25432   1.801   6.901   6.581
 8178SOL    HW125433   1.847   6.813   6.568
 8178SOL    HW225434   1.866   6.968   6.615
 8179SOL     OW25435   3.712   3.103   6.947
 8179SOL    HW125436   3.759   3.142   6.868
 8179SOL    HW225437   3.615   3.129   6.943
 8180SOL     OW25438   6.612   0.051   4.203
 8180SOL    HW125439   6.708   0.067   4.180
 8180SOL    HW225440   6.563   0.138   4.207
 8181SOL     OW25441   2.191   0.845   2.313
 8181SOL    HW125442   2.150   0.910   2.248
 8181SOL    HW225443   2.164   0.870   2.406
 8182SOL     OW25444   4.007   1.761   6.743
 8182SOL    HW125445   4.042   1.744   6.835
 8182SOL    HW225446   4.082   1.790   6.684
 8183SOL     OW25447   0.600   2.117   4.918
 8183SOL    HW125448   0.693   2.132   4.953
 8183SOL    HW225449   0.574   2.194   4.860
 8184SOL     OW25450   5.572   1.860   5.676
 8184SOL    HW125451   5.595   1.822   5.586
 8184SOL    HW225452   5.553   1.958   5.667
 8185SOL     OW25453   3.258   0.743   0.671
 8185SOL    HW125454   3.302   0.654   0.661
 8185SOL    HW225455   3.253   0.766   0.769
 8186SOL     OW25456   2.969   6.167   6.699
 8186SOL    HW125457   2.956   6.183   6.601
 8186SOL    HW225458   3.002   6.074   6.714
 8187SOL     OW25459   1.778   2.200   4.964
 8187SOL    HW125460   1.872   2.184   4.936
 8187SOL    HW225461   1.768   2.293   5.000
 8188SOL     OW25462   5.478   1.586   2.347
 8188SOL    HW125463   5.413   1.655   2.315
 8188SOL    HW225464   5.565   1.598   2.300
 8189SOL     OW25465   4.999   4.383   2.443
 8189SOL    HW125466   5.021   4.289   2.467
 8189SOL    HW225467   4.963   4.385   2.349
 8190SOL     OW25468   5.393   5.491   4.486
 8190SOL    HW125469   5.366   5.415   4.545
 8190SOL    HW225470   5.327   5.500   4.411
 8191SOL     OW25471   2.452   5.403   3.475
 8191SOL    HW125472   2.439   5.482   3.535
 8191SOL    HW225473   2.362   5.363   3.453
 8192SOL     OW25474   2.394   5.903   6.938
 8192SOL    HW125475   2.313   5.887   6.994
 8192SOL    HW225476   2.443   5.984   6.970
 8193SOL     OW25477   6.149   6.828   4.517
 8193SOL    HW125478   6.112   6.846   4.426
 8193SOL    HW225479   6.107   6.745   4.554
 8194SOL     OW25480   6.352   2.765   0.173
 8194SOL    HW125481   6.332   2.742   0.269
 8194SOL    HW225482   6.322   2.690   0.114
 8195SOL     OW25483   0.731   0.840   0.945
 8195SOL    HW125484   0.797   0.912   0.969
 8195SOL    HW225485   0.738   0.766   1.012
 8196SOL     OW25486   4.064   7.019   5.679
 8196SOL    HW125487   4.151   0.043   5.700
 8196SOL    HW225488   4.079   6.922   5.662
 8197SOL     OW25489   5.136   1.616   6.133
 8197SOL    HW125490   5.051   1.613   6.186
 8197SOL    HW225491   5.184   1.529   6.141
 8198SOL     OW25492   3.278   6.752   2.207
 8198SOL    HW125493   3.284   6.833   2.265
 8198SOL    HW225494   3.188   6.750   2.163
 8199SOL     OW25495   6.574   4.039   0.579
 8199SOL    HW125496   6.512   4.041   0.658
 8199SOL    HW225497   6.526   4.075   0.499
 8200SOL     OW25498   4.451   3.982   1.270
 8200SOL    HW125499   4.456   3.894   1.223
 8200SOL    HW225500   4.544   4.011   1.295
 8201SOL     OW25501   5.272   0.981   4.633
 8201SOL    HW125502   5.239   1.001   4.541
 8201SOL    HW225503   5.208   1.017   4.700
 8202SOL     OW25504   1.565   5.678   4.348
 8202SOL    HW125505   1.589   5.581   4.349
 8202SOL    HW225506   1.646   5.733   4.367
 8203SOL     OW25507   4.729   3.321   0.510
 8203SOL    HW125508   4.638   3.361   0.505
 8203SOL    HW225509   4.726   3.239   0.567
 8204SOL     OW25510   3.548   6.001   1.192
 8204SOL    HW125511   3.586   5.909   1.203
 8204SOL    HW225512   3.622   6.063   1.164
 8205SOL     OW25513   5.910   4.647   1.859
 8205SOL    HW125514   5.952   4.632   1.949
 8205SOL    HW225515   5.821   4.601   1.857
 8206SOL     OW25516   3.362   2.366   5.665
 8206SOL    HW125517   3.297   2.442   5.666
 8206SOL    HW225518   3.345   2.309   5.585
 8207SOL     OW25519   3.499   4.818   5.531
 8207SOL    HW125520   3.482   4.750   5.460
 8207SOL    HW225521   3.512   4.908   5.489
 8208SOL     OW25522   2.039   6.636   1.344
 8208SOL    HW125523   2.075   6.690   1.267
 8208SOL    HW225524   2.110   6.573   1.376
 8209SOL     OW25525   0.813   1.143   5.279
 8209SOL    HW125526   0.895   1.199   5.290
 8209SOL    HW225527   0.794   1.093   5.364
 8210SOL     OW25528   3.668   1.248   0.396
 8210SOL    HW125529   3.652   1.242   0.494
 8210SOL    HW225530   3.735   1.180   0.368
 8211SOL     OW25531   3.638   4.138   4.280
 8211SOL    HW125532   3.714   4.135   4.345
 8211SOL    HW225533   3.556   4.171   4.327
 8212SOL     OW25534   2.852   0.682   0.696
 8212SOL    HW125535   2.885   0.775   0.678
 8212SOL    HW225536   2.917   0.615   0.660
 8213SOL     OW25537   4.361   5.444   3.389
 8213SOL    HW125538   4.362   5.459   3.290
 8213SOL    HW225539   4.396   5.352   3.409
 8214SOL     OW25540   2.229   5.874   4.452
 8214SOL    HW125541   2.244   5.812   4.375
 8214SOL    HW225542   2.314   5.884   4.504
 8215SOL     OW25543   4.344   5.454   0.222
 8215SOL    HW125544   4.425   5.397   0.208
 8215SOL    HW225545   4.320   5.455   0.319
 8216SOL     OW25546   5.131   6.837   3.082
 8216SOL    HW125547   5.096   6.897   3.155
 8216SOL    HW225548   5.168   6.893   3.008
 8217SOL     OW25549   2.254   4.273   2.550
 8217SOL    HW125550   2.234   4.187   2.503
 8217SOL    HW225551   2.320   4.325   2.496
 8218SOL     OW25552   1.973   6.883   4.949
 8218SOL    HW125553   1.924   6.797   4.933
 8218SOL    HW225554   1.913   6.947   4.998
 8219SOL     OW25555   2.891   4.000   1.260
 8219SOL    HW125556   2.875   3.998   1.161
 8219SOL    HW225557   2.870   4.091   1.295
 8220SOL     OW25558   3.356   4.436   5.305
 8220SOL    HW125559   3.446   4.393   5.304
 8220SOL    HW225560   3.287   4.371   5.271
 8221SOL     OW25561   6.230   4.147   3.586
 8221SOL    HW125562   6.315   4.094   3.582
 8221SOL    HW225563   6.159   4.093   3.630
 8222SOL     OW25564   5.878   2.530   0.646
 8222SOL    HW125565   5.874   2.540   0.745
 8222SOL    HW225566   5.911   2.438   0.623
 8223SOL     OW25567   0.048   5.118   5.471
 8223SOL    HW125568   0.104   5.176   5.412
 8223SOL    HW225569   6.975   5.117   5.437
 8224SOL     OW25570   4.779   1.568   1.151
 8224SOL    HW125571   4.736   1.488   1.109
 8224SOL    HW225572   4.813   1.542   1.242
 8225SOL     OW25573   3.965   0.028   0.671
 8225SOL    HW125574   3.865   0.035   0.680
 8225SOL    HW225575   3.987   6.982   0.599
 8226SOL     OW25576   3.488   0.562   0.573
 8226SOL    HW125577   3.587   0.568   0.587
 8226SOL    HW225578   3.444   0.546   0.661
 8227SOL     OW25579   5.718   1.072   2.295
 8227SOL    HW125580   5.691   1.052   2.201
 8227SOL    HW225581   5.695   0.995   2.354
 8228SOL     OW25582   0.658   1.364   5.296
 8228SOL    HW125583   0.561   1.343   5.307
 8228SOL    HW225584   0.711   1.279   5.298
 8229SOL     OW25585   4.061   4.625   0.986
 8229SOL    HW125586   4.033   4.545   1.039
 8229SOL    HW225587   4.033   4.614   0.891
 8230SOL     OW25588   4.339   0.007   5.763
 8230SOL    HW125589   4.387   0.085   5.804
 8230SOL    HW225590   4.406   6.969   5.718
 8231SOL     OW25591   3.497   1.298   2.354
 8231SOL    HW125592   3.552   1.361   2.409
 8231SOL    HW225593   3.546   1.277   2.269
 8232SOL     OW25594   5.305   1.332   1.967
 8232SOL    HW125595   5.346   1.264   1.906
 8232SOL    HW225596   5.367   1.350   2.044
 8233SOL     OW25597   0.942   0.344   5.858
 8233SOL    HW125598   0.975   0.275   5.794
 8233SOL    HW225599   0.918   0.300   5.945
 8234SOL     OW25600   3.298   3.128   0.352
 8234SOL    HW125601   3.286   3.113   0.254
 8234SOL    HW225602   3.245   3.208   0.381
 8235SOL     OW25603   0.116   4.700   6.674
 8235SOL    HW125604   0.094   4.783   6.726
 8235SOL    HW225605   0.097   4.620   6.731
 8236SOL     OW25606   0.172   5.970   6.088
 8236SOL    HW125607   0.113   5.892   6.067
 8236SOL    HW225608   0.141   6.013   6.173
 8237SOL     OW25609   4.267   5.412   6.193
 8237SOL    HW125610   4.192   5.366   6.145
 8237SOL    HW225611   4.338   5.346   6.216
 8238SOL     OW25612   1.583   5.760   6.954
 8238SOL    HW125613   1.542   5.850   6.945
 8238SOL    HW225614   1.674   5.769   6.995
 8239SOL     OW25615   0.263   1.068   4.744
 8239SOL    HW125616   0.279   1.082   4.646
 8239SOL    HW225617   0.272   0.970   4.765
 8240SOL     OW25618   3.061   3.253   2.798
 8240SOL    HW125619   3.010   3.322   2.747
 8240SOL    HW225620   3.147   3.232   2.750
 8241SOL     OW25621   1.603   3.202   0.473
 8241SOL    HW125622   1.653   3.182   0.389
 8241SOL    HW225623   1.664   3.246   0.539
 8242SOL     OW25624   1.054   3.603   4.479
 8242SOL    HW125625   1.000   3.614   4.563
 8242SOL    HW225626   1.061   3.691   4.432
 8243SOL     OW25627   0.524   4.511   5.578
 8243SOL    HW125628   0.444   4.453   5.560
 8243SOL    HW225629   0.606   4.455   5.581
 8244SOL     OW25630   1.257   0.706   3.109
 8244SOL    HW125631   1.219   0.797   3.128
 8244SOL    HW225632   1.208   0.638   3.163
 8245SOL     OW25633   4.515   1.831   3.551
 8245SOL    HW125634   4.482   1.805   3.641
 8245SOL    HW225635   4.604   1.789   3.533
 8246SOL     OW25636   1.040   4.045   6.488
 8246SOL    HW125637   1.136   4.028   6.511
 8246SOL    HW225638   0.981   3.995   6.551
 8247SOL     OW25639   3.081   5.206   3.634
 8247SOL    HW125640   3.161   5.249   3.676
 8247SOL    HW225641   3.041   5.268   3.567
 8248SOL     OW25642   1.346   6.089   4.095
 8248SOL    HW125643   1.372   6.008   4.041
 8248SOL    HW225644   1.374   6.172   4.047
 8249SOL     OW25645   2.478   1.809   5.536
 8249SOL    HW125646   2.409   1.875   5.567
 8249SOL    HW225647   2.519   1.841   5.450
 8250SOL     OW25648   3.013   1.745   0.840
 8250SOL    HW125649   2.995   1.667   0.900
 8250SOL    HW225650   3.084   1.721   0.774
 8251SOL     OW25651   6.381   2.142   4.576
 8251SOL    HW125652   6.321   2.220   4.594
 8251SOL    HW225653   6.476   2.170   4.585
 8252SOL     OW25654   2.381   2.098   6.495
 8252SOL    HW125655   2.322   2.066   6.570
 8252SOL    HW225656   2.447   2.164   6.531
 8253SOL     OW25657   3.829   5.827   6.279
 8253SOL    HW125658   3.817   5.799   6.184
 8253SOL    HW225659   3.772   5.771   6.339
 8254SOL     OW25660   6.064   4.639   6.252
 8254SOL    HW125661   6.031   4.684   6.170
 8254SOL    HW225662   5.995   4.644   6.324
 8255SOL     OW25663   0.682   0.105   6.433
 8255SOL    HW125664   0.647   0.068   6.519
 8255SOL    HW225665   0.694   0.030   6.368
 8256SOL     OW25666   0.028   6.831   3.408
 8256SOL    HW125667   7.011   6.742   3.434
 8256SOL    HW225668   6.979   6.885   3.362
 8257SOL     OW25669   5.742   4.347   4.412
 8257SOL    HW125670   5.735   4.413   4.337
 8257SOL    HW225671   5.749   4.255   4.373
 8258SOL     OW25672   5.554   2.770   1.122
 8258SOL    HW125673   5.591   2.740   1.210
 8258SOL    HW225674   5.474   2.827   1.137
 8259SOL     OW25675   4.436   1.819   4.364
 8259SOL    HW125676   4.394   1.729   4.376
 8259SOL    HW225677   4.430   1.870   4.450
 8260SOL     OW25678   2.017   6.596   0.405
 8260SOL    HW125679   2.087   6.543   0.453
 8260SOL    HW225680   2.058   6.679   0.367
 8261SOL     OW25681   5.705   6.474   3.538
 8261SOL    HW125682   5.684   6.551   3.599
 8261SOL    HW225683   5.633   6.405   3.546
 8262SOL     OW25684   0.480   5.147   0.252
 8262SOL    HW125685   0.410   5.075   0.257
 8262SOL    HW225686   0.488   5.178   0.157
 8263SOL     OW25687   6.920   3.080   6.571
 8263SOL    HW125688   6.952   3.108   6.480
 8263SOL    HW225689   6.856   3.003   6.561
 8264SOL     OW25690   1.644   0.087   1.477
 8264SOL    HW125691   1.724   0.065   1.532
 8264SOL    HW225692   1.565   0.100   1.537
 8265SOL     OW25693   4.109   0.613   1.664
 8265SOL    HW125694   4.179   0.581   1.600
 8265SOL    HW225695   4.135   0.703   1.699
 8266SOL     OW25696   3.001   6.978   4.579
 8266SOL    HW125697   2.955   0.014   4.511
 8266SOL    HW225698   3.097   6.965   4.553
 8267SOL     OW25699   1.560   4.989   2.222
 8267SOL    HW125700   1.658   5.011   2.223
 8267SOL    HW225701   1.544   4.905   2.273
 8268SOL     OW25702   2.534   3.875   6.790
 8268SOL    HW125703   2.592   3.955   6.775
 8268SOL    HW225704   2.546   3.812   6.713
 8269SOL     OW25705   4.754   2.839   2.943
 8269SOL    HW125706   4.759   2.908   3.015
 8269SOL    HW225707   4.693   2.765   2.973
 8270SOL     OW25708   2.920   6.956   5.806
 8270SOL    HW125709   2.854   7.013   5.758
 8270SOL    HW225710   2.966   7.011   5.876
 8271SOL     OW25711   5.783   6.129   4.684
 8271SOL    HW125712   5.685   6.148   4.691
 8271SOL    HW225713   5.797   6.047   4.628
 8272SOL     OW25714   0.760   0.239   2.080
 8272SOL    HW125715   0.674   0.199   2.048
 8272SOL    HW225716   0.830   0.168   2.086
 8273SOL     OW25717   2.948   0.192   0.053
 8273SOL    HW125718   3.033   0.229   0.090
 8273SOL    HW225719   2.948   0.202   6.974
 8274SOL     OW25720   4.152   4.425   6.924
 8274SOL    HW125721   4.170   4.494   6.995
 8274SOL    HW225722   4.059   4.438   6.889
 8275SOL     OW25723   6.835   0.175   4.608
 8275SOL    HW125724   6.859   0.094   4.661
 8275SOL    HW225725   6.905   0.192   4.539
 8276SOL     OW25726   7.018   2.494   5.722
 8276SOL    HW125727   6.994   2.580   5.677
 8276SOL    HW225728   0.085   2.461   5.688
 8277SOL     OW25729   1.901   5.517   5.628
 8277SOL    HW125730   1.944   5.435   5.666
 8277SOL    HW225731   1.890   5.506   5.529
 8278SOL     OW25732   3.346   1.177   6.071
 8278SOL    HW125733   3.395   1.172   6.158
 8278SOL    HW225734   3.320   1.272   6.053
 8279SOL     OW25735   5.018   5.665   6.894
 8279SOL    HW125736   5.079   5.597   6.853
 8279SOL    HW225737   5.072   5.725   6.954
 8280SOL     OW25738   4.811   2.563   0.191
 8280SOL    HW125739   4.814   2.485   0.129
 8280SOL    HW225740   4.741   2.628   0.160
 8281SOL     OW25741   2.022   4.565   0.349
 8281SOL    HW125742   2.015   4.535   0.444
 8281SOL    HW225743   2.109   4.612   0.335
 8282SOL     OW25744   2.640   2.247   0.944
 8282SOL    HW125745   2.555   2.300   0.949
 8282SOL    HW225746   2.654   2.198   1.030
 8283SOL     OW25747   0.749   5.330   3.605
 8283SOL    HW125748   0.699   5.246   3.588
 8283SOL    HW225749   0.772   5.373   3.517
 8284SOL     OW25750   1.992   2.566   2.806
 8284SOL    HW125751   2.092   2.564   2.814
 8284SOL    HW225752   1.966   2.539   2.713
 8285SOL     OW25753   3.353   3.738   5.915
 8285SOL    HW125754   3.392   3.829   5.898
 8285SOL    HW225755   3.271   3.727   5.860
 8286SOL     OW25756   5.551   0.994   4.635
 8286SOL    HW125757   5.453   0.973   4.627
 8286SOL    HW225758   5.562   1.084   4.677
 8287SOL     OW25759   1.228   6.820   4.488
 8287SOL    HW125760   1.204   6.871   4.405
 8287SOL    HW225761   1.170   6.739   4.495
 8288SOL     OW25762   1.882   2.009   2.356
 8288SOL    HW125763   1.923   2.046   2.439
 8288SOL    HW225764   1.953   2.001   2.285
 8289SOL     OW25765   5.800   1.163   5.774
 8289SOL    HW125766   5.709   1.202   5.764
 8289SOL    HW225767   5.841   1.195   5.859
 8290SOL     OW25768   3.784   2.906   1.607
 8290SOL    HW125769   3.686   2.892   1.622
 8290SOL    HW225770   3.823   2.955   1.685
 8291SOL     OW25771   5.777   6.642   6.523
 8291SOL    HW125772   5.751   6.546   6.526
 8291SOL    HW225773   5.694   6.699   6.520
 8292SOL     OW25774   1.477   4.896   5.832
 8292SOL    HW125775   1.412   4.922   5.762
 8292SOL    HW225776   1.435   4.830   5.894
 8293SOL     OW25777   2.084   4.744   1.714
 8293SOL    HW125778   2.088   4.816   1.782
 8293SOL    HW225779   2.024   4.670   1.746
 8294SOL     OW25780   7.011   4.026   5.265
 8294SOL    HW125781   0.012   4.013   5.362
 8294SOL    HW225782   0.004   4.122   5.240
 8295SOL     OW25783   4.942   3.764   3.596
 8295SOL    HW125784   4.884   3.804   3.525
 8295SOL    HW225785   5.038   3.777   3.573
 8296SOL     OW25786   3.435   5.746   6.816
 8296SOL    HW125787   3.408   5.838   6.790
 8296SOL    HW225788   3.442   5.740   6.916
 8297SOL     OW25789   6.008   3.957   2.436
 8297SOL    HW125790   6.039   3.997   2.349
 8297SOL    HW225791   5.944   4.019   2.480
 8298SOL     OW25792   0.807   0.937   6.548
 8298SOL    HW125793   0.777   0.975   6.636
 8298SOL    HW225794   0.907   0.947   6.541
 8299SOL     OW25795   0.083   3.905   1.897
 8299SOL    HW125796   0.008   3.851   1.859
 8299SOL    HW225797   0.054   3.946   1.983
 8300SOL     OW25798   6.004   5.414   4.606
 8300SOL    HW125799   5.955   5.329   4.593
 8300SOL    HW225800   6.100   5.402   4.578
 8301SOL     OW25801   4.245   0.162   6.990
 8301SOL    HW125802   4.235   0.247   6.939
 8301SOL    HW225803   4.155   0.120   7.003
 8302SOL     OW25804   2.992   6.432   4.837
 8302SOL    HW125805   2.903   6.472   4.861
 8302SOL    HW225806   3.064   6.498   4.858
 8303SOL     OW25807   6.660   0.403   2.346
 8303SOL    HW125808   6.706   0.315   2.330
 8303SOL    HW225809   6.631   0.408   2.441
 8304SOL     OW25810   5.633   4.206   3.688
 8304SOL    HW125811   5.669   4.114   3.679
 8304SOL    HW225812   5.707   4.272   3.672
 8305SOL     OW25813   4.713   5.495   4.388
 8305SOL    HW125814   4.760   5.502   4.476
 8305SOL    HW225815   4.615   5.506   4.401
 8306SOL     OW25816   6.580   0.877   2.821
 8306SOL    HW125817   6.610   0.948   2.757
 8306SOL    HW225818   6.654   0.856   2.884
 8307SOL     OW25819   1.227   5.051   1.036
 8307SOL    HW125820   1.258   5.143   1.061
 8307SOL    HW225821   1.137   5.057   0.992
 8308SOL     OW25822   1.230   4.480   0.318
 8308SOL    HW125823   1.295   4.414   0.283
 8308SOL    HW225824   1.138   4.440   0.318
 8309SOL     OW25825   6.586   4.949   4.848
 8309SOL    HW125826   6.517   4.910   4.910
 8309SOL    HW225827   6.569   5.047   4.838
 8310SOL     OW25828   0.544   6.621   0.736
 8310SOL    HW125829   0.618   6.555   0.723
 8310SOL    HW225830   0.570   6.709   0.697
 8311SOL     OW25831   5.586   6.266   3.859
 8311SOL    HW125832   5.559   6.342   3.919
 8311SOL    HW225833   5.639   6.199   3.911
 8312SOL     OW25834   5.014   0.071   0.387
 8312SOL    HW125835   4.989   0.157   0.343
 8312SOL    HW225836   5.021   7.021   0.317
 8313SOL     OW25837   3.896   6.688   5.810
 8313SOL    HW125838   3.833   6.724   5.741
 8313SOL    HW225839   3.964   6.629   5.766
 8314SOL     OW25840   5.181   6.267   6.407
 8314SOL    HW125841   5.125   6.311   6.337
 8314SOL    HW225842   5.276   6.297   6.397
 8315SOL     OW25843   3.609   3.527   3.933
 8315SOL    HW125844   3.702   3.549   3.903
 8315SOL    HW225845   3.601   3.428   3.945
 8316SOL     OW25846   1.345   3.400   0.096
 8316SOL    HW125847   1.346   3.460   0.016
 8316SOL    HW225848   1.266   3.339   0.091
 8317SOL     OW25849   2.041   2.128   4.905
 8317SOL    HW125850   2.107   2.104   4.977
 8317SOL    HW225851   2.082   2.193   4.842
 8318SOL     OW25852   3.989   0.798   6.267
 8318SOL    HW125853   3.971   0.718   6.209
 8318SOL    HW225854   3.912   0.861   6.262
 8319SOL     OW25855   1.346   0.472   6.132
 8319SOL    HW125856   1.253   0.510   6.136
 8319SOL    HW225857   1.350   0.388   6.186
 8320SOL     OW25858   3.366   4.178   3.986
 8320SOL    HW125859   3.328   4.270   3.976
 8320SOL    HW225860   3.337   4.139   4.074
 8321SOL     OW25861   0.111   0.444   6.616
 8321SOL    HW125862   0.149   0.510   6.551
 8321SOL    HW225863   0.026   0.407   6.579
 8322SOL     OW25864   0.155   1.450   0.652
 8322SOL    HW125865   0.155   1.359   0.692
 8322SOL    HW225866   0.128   1.518   0.721
 8323SOL     OW25867   4.976   4.658   1.720
 8323SOL    HW125868   4.903   4.605   1.676
 8323SOL    HW225869   5.028   4.599   1.782
 8324SOL     OW25870   6.236   0.797   6.988
 8324SOL    HW125871   6.179   0.850   6.924
 8324SOL    HW225872   6.307   0.856   0.005
 8325SOL     OW25873   1.307   5.486   4.939
 8325SOL    HW125874   1.399   5.456   4.964
 8325SOL    HW225875   1.242   5.414   4.961
 8326SOL     OW25876   2.816   3.917   0.476
 8326SOL    HW125877   2.846   3.995   0.532
 8326SOL    HW225878   2.803   3.837   0.535
 8327SOL     OW25879   0.519   0.915   5.388
 8327SOL    HW125880   0.422   0.894   5.402
 8327SOL    HW225881   0.554   0.863   5.310
 8328SOL     OW25882   0.822   6.018   5.834
 8328SOL    HW125883   0.875   6.083   5.780
 8328SOL    HW225884   0.734   6.058   5.858
 8329SOL     OW25885   0.860   2.177   4.990
 8329SOL    HW125886   0.856   2.256   5.051
 8329SOL    HW225887   0.926   2.195   4.916
 8330SOL     OW25888   3.937   1.157   6.289
 8330SOL    HW125889   4.015   1.105   6.326
 8330SOL    HW225890   3.873   1.177   6.363
 8331SOL     OW25891   1.950   2.063   0.542
 8331SOL    HW125892   1.984   1.981   0.497
 8331SOL    HW225893   1.980   2.144   0.491
 8332SOL     OW25894   4.982   4.864   2.083
 8332SOL    HW125895   5.034   4.779   2.086
 8332SOL    HW225896   4.959   4.892   2.177
 8333SOL     OW25897   1.980   4.903   0.946
 8333SOL    HW125898   1.954   4.937   0.856
 8333SOL    HW225899   1.915   4.833   0.976
 8334SOL     OW25900   3.627   1.488   6.286
 8334SOL    HW125901   3.698   1.450   6.226
 8334SOL    HW225902   3.663   1.569   6.331
 8335SOL     OW25903   4.398   2.780   6.654
 8335SOL    HW125904   4.319   2.770   6.595
 8335SOL    HW225905   4.474   2.726   6.618
 8336SOL     OW25906   1.450   3.326   2.258
 8336SOL    HW125907   1.391   3.250   2.285
 8336SOL    HW225908   1.542   3.311   2.294
 8337SOL     OW25909   1.317   0.845   4.737
 8337SOL    HW125910   1.248   0.917   4.740
 8337SOL    HW225911   1.397   0.874   4.791
 8338SOL     OW25912   3.780   4.851   2.196
 8338SOL    HW125913   3.770   4.852   2.296
 8338SOL    HW225914   3.690   4.846   2.153
 8339SOL     OW25915   0.141   0.949   0.563
 8339SOL    HW125916   0.201   0.870   0.576
 8339SOL    HW225917   0.185   1.031   0.600
 8340SOL     OW25918   5.176   2.588   1.022
 8340SOL    HW125919   5.247   2.593   0.951
 8340SOL    HW225920   5.089   2.562   0.980
 8341SOL     OW25921   3.429   0.476   6.197
 8341SOL    HW125922   3.498   0.440   6.135
 8341SOL    HW225923   3.368   0.538   6.146
 8342SOL     OW25924   3.307   6.248   0.485
 8342SOL    HW125925   3.368   6.303   0.427
 8342SOL    HW225926   3.363   6.189   0.544
 8343SOL     OW25927   6.584   5.276   3.995
 8343SOL    HW125928   6.601   5.262   4.092
 8343SOL    HW225929   6.671   5.282   3.946
 8344SOL     OW25930   0.566   4.461   4.044
 8344SOL    HW125931   0.627   4.420   3.977
 8344SOL    HW225932   0.562   4.560   4.031
 8345SOL     OW25933   5.246   1.315   3.431
 8345SOL    HW125934   5.216   1.403   3.466
 8345SOL    HW225935   5.218   1.305   3.336
 8346SOL     OW25936   4.261   2.854   6.329
 8346SOL    HW125937   4.170   2.814   6.327
 8346SOL    HW225938   4.257   2.945   6.371
 8347SOL     OW25939   1.966   6.707   6.496
 8347SOL    HW125940   2.065   6.711   6.510
 8347SOL    HW225941   1.943   6.628   6.439
 8348SOL     OW25942   3.031   6.942   0.990
 8348SOL    HW125943   2.969   7.008   1.031
 8348SOL    HW225944   3.032   6.858   1.044
 8349SOL     OW25945   0.756   6.642   1.970
 8349SOL    HW125946   0.689   6.640   1.896
 8349SOL    HW225947   0.844   6.609   1.936
 8350SOL     OW25948   2.856   0.076   6.116
 8350SOL    HW125949   2.925   0.003   6.117
 8350SOL    HW225950   2.767   0.037   6.092
 8351SOL     OW25951   6.462   5.556   4.240
 8351SOL    HW125952   6.435   5.464   4.269
 8351SOL    HW225953   6.545   5.550   4.184
 8352SOL     OW25954   2.862   6.365   2.513
 8352SOL    HW125955   2.933   6.298   2.488
 8352SOL    HW225956   2.903   6.436   2.571
 8353SOL     OW25957   1.218   4.052   1.602
 8353SOL    HW125958   1.199   4.106   1.684
 8353SOL    HW225959   1.170   3.965   1.608
 8354SOL     OW25960   3.482   6.545   3.964
 8354SOL    HW125961   3.485   6.643   3.944
 8354SOL    HW225962   3.398   6.523   4.014
 8355SOL     OW25963   1.655   0.374   6.385
 8355SOL    HW125964   1.641   0.415   6.294
 8355SOL    HW225965   1.634   0.442   6.455
 8356SOL     OW25966   1.102   5.550   2.044
 8356SOL    HW125967   1.041   5.612   2.095
 8356SOL    HW225968   1.195   5.558   2.080
 8357SOL     OW25969   3.824   5.539   6.395
 8357SOL    HW125970   3.742   5.594   6.409
 8357SOL    HW225971   3.808   5.474   6.321
 8358SOL     OW25972   1.390   2.759   6.020
 8358SOL    HW125973   1.409   2.719   5.930
 8358SOL    HW225974   1.474   2.760   6.074
 8359SOL     OW25975   2.479   0.836   4.599
 8359SOL    HW125976   2.413   0.817   4.671
 8359SOL    HW225977   2.530   0.919   4.621
 8360SOL     OW25978   4.615   6.938   0.738
 8360SOL    HW125979   4.559   7.004   0.789
 8360SOL    HW225980   4.587   6.845   0.762
 8361SOL     OW25981   2.441   0.115   6.513
 8361SOL    HW125982   2.484   0.121   6.423
 8361SOL    HW225983   2.468   0.194   6.568
 8362SOL     OW25984   6.103   1.919   0.556
 8362SOL    HW125985   6.149   1.832   0.544
 8362SOL    HW225986   6.170   1.992   0.562
 8363SOL     OW25987   4.133   1.980   0.325
 8363SOL    HW125988   4.209   1.984   0.260
 8363SOL    HW225989   4.120   2.071   0.367
 8364SOL     OW25990   0.756   3.298   3.830
 8364SOL    HW125991   0.800   3.212   3.802
 8364SOL    HW225992   0.667   3.306   3.784
 8365SOL     OW25993   1.886   2.483   2.569
 8365SOL    HW125994   1.917   2.523   2.483
 8365SOL    HW225995   1.789   2.461   2.562
 8366SOL     OW25996   4.259   5.454   1.220
 8366SOL    HW125997   4.244   5.441   1.318
 8366SOL    HW225998   4.327   5.388   1.188
 8367SOL     OW25999   3.010   5.228   4.970
 8367SOL    HW126000   2.976   5.156   5.030
 8367SOL    HW226001   3.083   5.191   4.912
 8368SOL     OW26002   0.705   6.386   6.918
 8368SOL    HW126003   0.792   6.411   6.875
 8368SOL    HW226004   0.684   6.451   6.991
 8369SOL     OW26005   0.868   1.857   1.380
 8369SOL    HW126006   0.788   1.813   1.421
 8369SOL    HW226007   0.851   1.954   1.367
 8370SOL     OW26008   2.732   1.685   6.954
 8370SOL    HW126009   2.725   1.646   6.862
 8370SOL    HW226010   2.662   1.757   6.964
 8371SOL     OW26011   1.633   2.979   5.639
 8371SOL    HW126012   1.730   2.964   5.655
 8371SOL    HW226013   1.613   2.970   5.541
 8372SOL     OW26014   2.305   6.552   1.524
 8372SOL    HW126015   2.288   6.471   1.468
 8372SOL    HW226016   2.393   6.542   1.570
 8373SOL     OW26017   0.694   1.430   4.506
 8373SOL    HW126018   0.654   1.370   4.436
 8373SOL    HW226019   0.762   1.489   4.464
 8374SOL     OW26020   1.261   0.311   3.966
 8374SOL    HW126021   1.240   0.374   4.041
 8374SOL    HW226022   1.315   0.234   4.000
 8375SOL     OW26023   3.697   0.831   5.501
 8375SOL    HW126024   3.768   0.864   5.564
 8375SOL    HW226025   3.702   0.882   5.416
 8376SOL     OW26026   1.566   1.386   3.628
 8376SOL    HW126027   1.600   1.292   3.633
 8376SOL    HW226028   1.538   1.408   3.535
 8377SOL     OW26029   4.827   5.464   0.698
 8377SOL    HW126030   4.826   5.530   0.773
 8377SOL    HW226031   4.738   5.463   0.653
 8378SOL     OW26032   5.358   5.301   3.165
 8378SOL    HW126033   5.365   5.275   3.069
 8378SOL    HW226034   5.413   5.239   3.221
 8379SOL     OW26035   4.924   2.258   1.372
 8379SOL    HW126036   4.921   2.355   1.395
 8379SOL    HW226037   4.852   2.237   1.306
 8380SOL     OW26038   6.693   6.825   7.012
 8380SOL    HW126039   6.616   6.762   7.016
 8380SOL    HW226040   6.768   6.790   0.047
 8381SOL     OW26041   0.378   2.570   3.424
 8381SOL    HW126042   0.344   2.661   3.401
 8381SOL    HW226043   0.411   2.524   3.342
 8382SOL     OW26044   2.367   0.374   0.943
 8382SOL    HW126045   2.320   0.285   0.946
 8382SOL    HW226046   2.397   0.393   0.850
 8383SOL     OW26047   2.586   0.379   5.192
 8383SOL    HW126048   2.675   0.367   5.147
 8383SOL    HW226049   2.513   0.353   5.129
 8384SOL     OW26050   6.867   1.939   1.280
 8384SOL    HW126051   6.844   1.848   1.246
 8384SOL    HW226052   6.811   2.008   1.233
 8385SOL     OW26053   4.676   3.141   0.706
 8385SOL    HW126054   4.715   3.184   0.787
 8385SOL    HW226055   4.577   3.155   0.705
 8386SOL     OW26056   1.972   5.845   0.946
 8386SOL    HW126057   1.899   5.776   0.950
 8386SOL    HW226058   1.990   5.881   1.038
 8387SOL     OW26059   1.967   1.791   1.548
 8387SOL    HW126060   1.923   1.855   1.611
 8387SOL    HW226061   1.928   1.700   1.558
 8388SOL     OW26062   1.263   6.696   0.334
 8388SOL    HW126063   1.303   6.741   0.414
 8388SOL    HW226064   1.173   6.735   0.316
 8389SOL     OW26065   1.844   3.292   3.789
 8389SOL    HW126066   1.755   3.292   3.744
 8389SOL    HW226067   1.851   3.213   3.850
 8390SOL     OW26068   3.402   0.275   6.589
 8390SOL    HW126069   3.351   0.244   6.669
 8390SOL    HW226070   3.494   0.236   6.591
 8391SOL     OW26071   5.080   5.321   0.753
 8391SOL    HW126072   5.093   5.330   0.851
 8391SOL    HW226073   4.991   5.359   0.728
 8392SOL     OW26074   6.604   5.446   5.137
 8392SOL    HW126075   6.511   5.436   5.170
 8392SOL    HW226076   6.667   5.402   5.201
 8393SOL     OW26077   0.592   0.270   3.692
 8393SOL    HW126078   0.507   0.228   3.724
 8393SOL    HW226079   0.665   0.253   3.759
 8394SOL     OW26080   1.038   1.754   2.432
 8394SOL    HW126081   1.131   1.763   2.468
 8394SOL    HW226082   0.990   1.683   2.483
 8395SOL     OW26083   0.647   6.639   4.136
 8395SOL    HW126084   0.701   6.564   4.175
 8395SOL    HW226085   0.700   6.685   4.066
 8396SOL     OW26086   4.566   4.410   2.539
 8396SOL    HW126087   4.492   4.424   2.472
 8396SOL    HW226088   4.640   4.475   2.520
 8397SOL     OW26089   2.197   6.753   2.727
 8397SOL    HW126090   2.201   6.828   2.794
 8397SOL    HW226091   2.243   6.673   2.765
 8398SOL     OW26092   3.630   1.755   0.185
 8398SOL    HW126093   3.713   1.800   0.218
 8398SOL    HW226094   3.556   1.822   0.179
 8399SOL     OW26095   6.400   6.398   0.301
 8399SOL    HW126096   6.349   6.316   0.328
 8399SOL    HW226097   6.426   6.449   0.383
 8400SOL     OW26098   0.982   0.592   2.869
 8400SOL    HW126099   1.068   0.616   2.823
 8400SOL    HW226100   0.982   0.495   2.892
 8401SOL     OW26101   4.237   3.257   5.614
 8401SOL    HW126102   4.312   3.201   5.649
 8401SOL    HW226103   4.173   3.276   5.688
 8402SOL     OW26104   3.073   1.475   5.766
 8402SOL    HW126105   2.999   1.538   5.791
 8402SOL    HW226106   3.084   1.475   5.667
 8403SOL     OW26107   0.752   1.499   3.344
 8403SOL    HW126108   0.765   1.589   3.303
 8403SOL    HW226109   0.663   1.463   3.317
 8404SOL     OW26110   5.650   6.384   6.627
 8404SOL    HW126111   5.597   6.301   6.607
 8404SOL    HW226112   5.604   6.435   6.700
 8405SOL     OW26113   1.817   1.580   0.204
 8405SOL    HW126114   1.886   1.517   0.241
 8405SOL    HW226115   1.861   1.645   0.142
 8406SOL     OW26116   3.874   1.646   0.960
 8406SOL    HW126117   3.807   1.654   0.886
 8406SOL    HW226118   3.964   1.630   0.921
 8407SOL     OW26119   5.652   5.459   4.481
 8407SOL    HW126120   5.556   5.487   4.476
 8407SOL    HW226121   5.701   5.493   4.401
 8408SOL     OW26122   5.113   1.505   4.060
 8408SOL    HW126123   5.091   1.450   4.140
 8408SOL    HW226124   5.067   1.467   3.980
 8409SOL     OW26125   6.484   2.384   3.833
 8409SOL    HW126126   6.506   2.291   3.861
 8409SOL    HW226127   6.389   2.389   3.802
 8410SOL     OW26128   4.287   1.030   1.530
 8410SOL    HW126129   4.241   1.100   1.475
 8410SOL    HW226130   4.384   1.052   1.538
 8411SOL     OW26131   1.864   5.302   4.147
 8411SOL    HW126132   1.880   5.351   4.233
 8411SOL    HW226133   1.783   5.243   4.157
 8412SOL     OW26134   3.947   1.724   1.252
 8412SOL    HW126135   3.935   1.645   1.311
 8412SOL    HW226136   3.962   1.693   1.158
 8413SOL     OW26137   4.768   4.617   0.741
 8413SOL    HW126138   4.716   4.641   0.823
 8413SOL    HW226139   4.705   4.580   0.672
 8414SOL     OW26140   3.987   0.215   1.941
 8414SOL    HW126141   4.022   0.135   1.893
 8414SOL    HW226142   3.973   0.290   1.877
 8415SOL     OW26143   0.458   4.885   3.787
 8415SOL    HW126144   0.471   4.929   3.698
 8415SOL    HW226145   0.365   4.850   3.794
 8416SOL     OW26146   4.650   4.871   3.050
 8416SOL    HW126147   4.742   4.833   3.043
 8416SOL    HW226148   4.590   4.805   3.096
 8417SOL     OW26149   1.566   6.244   5.287
 8417SOL    HW126150   1.648   6.189   5.302
 8417SOL    HW226151   1.551   6.256   5.188
 8418SOL     OW26152   5.478   5.249   1.710
 8418SOL    HW126153   5.543   5.186   1.667
 8418SOL    HW226154   5.396   5.198   1.738
 8419SOL     OW26155   4.410   0.496   1.954
 8419SOL    HW126156   4.405   0.552   1.871
 8419SOL    HW226157   4.503   0.496   1.988
 8420SOL     OW26158   3.916   6.480   1.104
 8420SOL    HW126159   3.949   6.440   1.018
 8420SOL    HW226160   3.885   6.574   1.088
 8421SOL     OW26161   3.192   6.541   1.322
 8421SOL    HW126162   3.159   6.481   1.249
 8421SOL    HW226163   3.117   6.560   1.386
 8422SOL     OW26164   4.823   6.009   1.115
 8422SOL    HW126165   4.724   6.005   1.126
 8422SOL    HW226166   4.849   5.964   1.029
 8423SOL     OW26167   4.226   4.407   6.463
 8423SOL    HW126168   4.264   4.498   6.479
 8423SOL    HW226169   4.234   4.385   6.366
 8424SOL     OW26170   2.573   2.459   2.672
 8424SOL    HW126171   2.559   2.533   2.737
 8424SOL    HW226172   2.636   2.391   2.710
 8425SOL     OW26173   6.854   5.475   0.944
 8425SOL    HW126174   6.835   5.489   0.847
 8425SOL    HW226175   6.785   5.414   0.983
 8426SOL     OW26176   3.554   2.949   4.066
 8426SOL    HW126177   3.626   2.926   4.132
 8426SOL    HW226178   3.586   2.930   3.973
 8427SOL     OW26179   1.373   4.108   5.746
 8427SOL    HW126180   1.433   4.095   5.825
 8427SOL    HW226181   1.425   4.149   5.671
 8428SOL     OW26182   6.425   4.625   2.229
 8428SOL    HW126183   6.492   4.603   2.300
 8428SOL    HW226184   6.382   4.541   2.197
 8429SOL     OW26185   2.054   4.516   4.540
 8429SOL    HW126186   2.044   4.542   4.636
 8429SOL    HW226187   2.079   4.420   4.534
 8430SOL     OW26188   3.841   5.105   2.942
 8430SOL    HW126189   3.926   5.120   2.992
 8430SOL    HW226190   3.834   5.009   2.916
 8431SOL     OW26191   2.468   4.970   0.769
 8431SOL    HW126192   2.470   4.918   0.854
 8431SOL    HW226193   2.561   4.998   0.746
 8432SOL     OW26194   4.698   5.255   5.932
 8432SOL    HW126195   4.757   5.199   5.874
 8432SOL    HW226196   4.680   5.343   5.887
 8433SOL     OW26197   0.033   2.361   6.477
 8433SOL    HW126198   0.018   2.408   6.390
 8433SOL    HW226199   0.129   2.374   6.505
 8434SOL     OW26200   2.735   0.064   5.102
 8434SOL    HW126201   2.724   0.010   5.185
 8434SOL    HW226202   2.743   0.161   5.126
 8435SOL     OW26203   5.038   1.643   1.305
 8435SOL    HW126204   4.970   1.578   1.338
 8435SOL    HW226205   5.121   1.594   1.280
 8436SOL     OW26206   3.790   6.647   3.736
 8436SOL    HW126207   3.695   6.630   3.712
 8436SOL    HW226208   3.849   6.584   3.685
 8437SOL     OW26209   1.800   6.727   2.344
 8437SOL    HW126210   1.701   6.731   2.335
 8437SOL    HW226211   1.837   6.662   2.278
 8438SOL     OW26212   2.940   4.789   2.190
 8438SOL    HW126213   2.860   4.730   2.182
 8438SOL    HW226214   2.999   4.777   2.111
 8439SOL     OW26215   6.554   5.815   1.803
 8439SOL    HW126216   6.597   5.905   1.809
 8439SOL    HW226217   6.529   5.783   1.895
 8440SOL     OW26218   0.310   0.886   2.417
 8440SOL    HW126219   0.224   0.837   2.399
 8440SOL    HW226220   0.386   0.835   2.377
 8441SOL     OW26221   6.248   6.171   0.352
 8441SOL    HW126222   6.319   6.137   0.413
 8441SOL    HW226223   6.263   6.136   0.259
 8442SOL     OW26224   3.777   3.194   6.122
 8442SOL    HW126225   3.734   3.209   6.033
 8442SOL    HW226226   3.806   3.099   6.130
 8443SOL     OW26227   1.647   6.885   3.266
 8443SOL    HW126228   1.555   6.921   3.283
 8443SOL    HW226229   1.698   6.883   3.352
 8444SOL     OW26230   3.236   6.288   3.646
 8444SOL    HW126231   3.314   6.238   3.608
 8444SOL    HW226232   3.152   6.256   3.602
 8445SOL     OW26233   3.226   5.033   1.972
 8445SOL    HW126234   3.185   5.011   2.060
 8445SOL    HW226235   3.165   5.095   1.922
 8446SOL     OW26236   4.560   5.526   1.636
 8446SOL    HW126237   4.641   5.549   1.689
 8446SOL    HW226238   4.579   5.540   1.539
 8447SOL     OW26239   5.824   2.441   2.049
 8447SOL    HW126240   5.753   2.374   2.027
 8447SOL    HW226241   5.813   2.471   2.143
 8448SOL     OW26242   6.937   3.636   5.170
 8448SOL    HW126243   6.965   3.608   5.262
 8448SOL    HW226244   6.838   3.626   5.160
 8449SOL     OW26245   6.977   2.987   4.687
 8449SOL    HW126246   0.025   3.045   4.729
 8449SOL    HW226247   6.989   2.987   4.587
 8450SOL     OW26248   2.053   6.067   2.109
 8450SOL    HW126249   1.999   6.046   2.028
 8450SOL    HW226250   2.139   6.015   2.106
 8451SOL     OW26251   4.205   2.752   0.326
 8451SOL    HW126252   4.270   2.702   0.383
 8451SOL    HW226253   4.248   2.776   0.239
 8452SOL     OW26254   0.248   0.053   1.307
 8452SOL    HW126255   0.206   7.003   1.249
 8452SOL    HW226256   0.200   0.057   1.394
 8453SOL     OW26257   6.165   4.332   6.024
 8453SOL    HW126258   6.241   4.381   5.982
 8453SOL    HW226259   6.092   4.321   5.957
 8454SOL     OW26260   1.458   5.350   1.774
 8454SOL    HW126261   1.470   5.429   1.834
 8454SOL    HW226262   1.476   5.266   1.825
 8455SOL     OW26263   4.861   2.023   0.717
 8455SOL    HW126264   4.805   2.095   0.675
 8455SOL    HW226265   4.958   2.042   0.700
 8456SOL     OW26266   5.497   4.718   3.205
 8456SOL    HW126267   5.511   4.618   3.206
 8456SOL    HW226268   5.523   4.755   3.116
 8457SOL     OW26269   6.855   6.275   5.861
 8457SOL    HW126270   6.767   6.282   5.814
 8457SOL    HW226271   6.840   6.275   5.960
 8458SOL     OW26272   1.894   1.046   6.627
 8458SOL    HW126273   1.944   1.071   6.544
 8458SOL    HW226274   1.796   1.045   6.609
 8459SOL     OW26275   3.152   6.702   1.117
 8459SOL    HW126276   3.174   6.642   1.194
 8459SOL    HW226277   3.199   6.670   1.035
 8460SOL     OW26278   4.474   2.562   5.966
 8460SOL    HW126279   4.407   2.633   5.985
 8460SOL    HW226280   4.540   2.595   5.899
 8461SOL     OW26281   1.013   3.583   2.165
 8461SOL    HW126282   1.099   3.558   2.209
 8461SOL    HW226283   0.960   3.500   2.146
 8462SOL     OW26284   3.178   2.519   0.341
 8462SOL    HW126285   3.209   2.453   0.273
 8462SOL    HW226286   3.215   2.609   0.320
 8463SOL     OW26287   6.902   1.701   0.628
 8463SOL    HW126288   6.883   1.603   0.626
 8463SOL    HW226289   6.994   1.719   0.594
 8464SOL     OW26290   6.843   4.453   5.098
 8464SOL    HW126291   6.911   4.526   5.086
 8464SOL    HW226292   6.825   4.411   5.009
 8465SOL     OW26293   3.100   2.110   0.657
 8465SOL    HW126294   3.195   2.123   0.630
 8465SOL    HW226295   3.053   2.053   0.589
 8466SOL     OW26296   5.947   6.994   5.009
 8466SOL    HW126297   6.022   6.956   4.955
 8466SOL    HW226298   5.941   6.946   5.097
 8467SOL     OW26299   4.026   1.097   1.176
 8467SOL    HW126300   4.087   1.141   1.242
 8467SOL    HW226301   3.954   1.048   1.225
 8468SOL     OW26302   5.771   3.223   0.049
 8468SOL    HW126303   5.705   3.157   0.085
 8468SOL    HW226304   5.747   3.315   0.079
 8469SOL     OW26305   2.822   2.043   5.316
 8469SOL    HW126306   2.882   2.072   5.391
 8469SOL    HW226307   2.763   2.120   5.290
 8470SOL     OW26308   1.270   4.740   0.340
 8470SOL    HW126309   1.363   4.772   0.327
 8470SOL    HW226310   1.267   4.641   0.327
 8471SOL     OW26311   3.932   0.344   5.272
 8471SOL    HW126312   4.004   0.398   5.229
 8471SOL    HW226313   3.966   0.302   5.356
 8472SOL     OW26314   5.561   1.340   5.344
 8472SOL    HW126315   5.614   1.260   5.314
 8472SOL    HW226316   5.621   1.401   5.397
 8473SOL     OW26317   5.321   5.564   0.330
 8473SOL    HW126318   5.261   5.554   0.409
 8473SOL    HW226319   5.370   5.650   0.337
 8474SOL     OW26320   3.384   4.141   2.158
 8474SOL    HW126321   3.345   4.224   2.118
 8474SOL    HW226322   3.315   4.069   2.162
 8475SOL     OW26323   6.512   2.753   2.381
 8475SOL    HW126324   6.610   2.752   2.399
 8475SOL    HW226325   6.478   2.659   2.374
 8476SOL     OW26326   6.714   1.527   1.594
 8476SOL    HW126327   6.648   1.552   1.665
 8476SOL    HW226328   6.697   1.582   1.512
 8477SOL     OW26329   4.144   6.545   2.708
 8477SOL    HW126330   4.162   6.451   2.738
 8477SOL    HW226331   4.133   6.547   2.609
 8478SOL     OW26332   0.700   1.031   5.577
 8478SOL    HW126333   0.627   0.994   5.520
 8478SOL    HW226334   0.675   1.124   5.607
 8479SOL     OW26335   1.378   2.939   1.428
 8479SOL    HW126336   1.439   2.886   1.369
 8479SOL    HW226337   1.289   2.951   1.383
 8480SOL     OW26338   5.489   3.739   6.905
 8480SOL    HW126339   5.498   3.826   6.858
 8480SOL    HW226340   5.458   3.754   6.999
 8481SOL     OW26341   4.961   2.427   4.910
 8481SOL    HW126342   5.025   2.401   4.837
 8481SOL    HW226343   4.868   2.429   4.873
 8482SOL     OW26344   4.977   0.484   2.044
 8482SOL    HW126345   5.011   0.521   2.131
 8482SOL    HW226346   4.974   0.384   2.049
 8483SOL     OW26347   2.784   5.794   3.144
 8483SOL    HW126348   2.735   5.795   3.231
 8483SOL    HW226349   2.769   5.881   3.096
 8484SOL     OW26350   6.859   6.140   4.742
 8484SOL    HW126351   6.775   6.168   4.695
 8484SOL    HW226352   6.853   6.042   4.764
 8485SOL     OW26353   3.684   2.511   0.392
 8485SOL    HW126354   3.747   2.450   0.442
 8485SOL    HW226355   3.598   2.517   0.442
 8486SOL     OW26356   1.898   0.634   2.954
 8486SOL    HW126357   1.865   0.548   2.915
 8486SOL    HW226358   1.934   0.692   2.882
 8487SOL     OW26359   5.815   2.254   6.367
 8487SOL    HW126360   5.903   2.284   6.329
 8487SOL    HW226361   5.741   2.290   6.310
 8488SOL     OW26362   5.156   6.030   2.815
 8488SOL    HW126363   5.214   6.110   2.830
 8488SOL    HW226364   5.208   5.947   2.832
 8489SOL     OW26365   6.833   0.541   1.327
 8489SOL    HW126366   6.754   0.567   1.383
 8489SOL    HW226367   6.801   0.486   1.250
 8490SOL     OW26368   3.288   6.556   5.683
 8490SOL    HW126369   3.380   6.548   5.721
 8490SOL    HW226370   3.233   6.477   5.710
 8491SOL     OW26371   1.772   6.178   2.484
 8491SOL    HW126372   1.772   6.275   2.508
 8491SOL    HW226373   1.849   6.159   2.423
 8492SOL     OW26374   5.821   5.093   4.280
 8492SOL    HW126375   5.790   5.000   4.263
 8492SOL    HW226376   5.798   5.152   4.203
 8493SOL     OW26377   1.864   1.753   6.857
 8493SOL    HW126378   1.766   1.748   6.877
 8493SOL    HW226379   1.900   1.661   6.843
 8494SOL     OW26380   3.743   5.195   2.412
 8494SOL    HW126381   3.793   5.213   2.327
 8494SOL    HW226382   3.802   5.213   2.490
 8495SOL     OW26383   0.367   5.320   0.432
 8495SOL    HW126384   0.295   5.260   0.467
 8495SOL    HW226385   0.437   5.266   0.386
 8496SOL     OW26386   6.457   1.257   2.657
 8496SOL    HW126387   6.431   1.334   2.715
 8496SOL    HW226388   6.412   1.266   2.568
 8497SOL     OW26389   0.344   0.817   3.067
 8497SOL    HW126390   0.354   0.804   2.969
 8497SOL    HW226391   0.373   0.734   3.115
 8498SOL     OW26392   6.745   6.586   3.281
 8498SOL    HW126393   6.685   6.650   3.232
 8498SOL    HW226394   6.707   6.567   3.371
 8499SOL     OW26395   0.763   4.276   0.047
 8499SOL    HW126396   0.820   4.351   0.014
 8499SOL    HW226397   0.753   4.283   0.147
 8500SOL     OW26398   1.618   6.793   5.447
 8500SOL    HW126399   1.612   6.725   5.374
 8500SOL    HW226400   1.656   6.749   5.529
 8501SOL     OW26401   0.404   2.495   6.510
 8501SOL    HW126402   0.367   2.416   6.559
 8501SOL    HW226403   0.504   2.490   6.508
 8502SOL     OW26404   0.608   3.070   1.524
 8502SOL    HW126405   0.687   3.045   1.580
 8502SOL    HW226406   0.626   3.045   1.429
 8503SOL     OW26407   0.081   5.784   5.370
 8503SOL    HW126408   0.156   5.720   5.384
 8503SOL    HW226409   0.106   5.873   5.407
 8504SOL     OW26410   1.475   5.565   1.975
 8504SOL    HW126411   1.570   5.553   2.004
 8504SOL    HW226412   1.433   5.641   2.026
 8505SOL     OW26413   6.005   3.399   2.818
 8505SOL    HW126414   5.931   3.347   2.775
 8505SOL    HW226415   6.050   3.455   2.749
 8506SOL     OW26416   1.896   0.382   6.558
 8506SOL    HW126417   1.843   0.350   6.480
 8506SOL    HW226418   1.974   0.322   6.573
 8507SOL     OW26419   3.827   6.705   4.896
 8507SOL    HW126420   3.890   6.640   4.938
 8507SOL    HW226421   3.831   6.792   4.945
 8508SOL     OW26422   4.228   1.479   5.314
 8508SOL    HW126423   4.231   1.435   5.404
 8508SOL    HW226424   4.133   1.506   5.294
 8509SOL     OW26425   5.789   6.891   3.194
 8509SOL    HW126426   5.750   6.850   3.276
 8509SOL    HW226427   5.839   6.974   3.219
 8510SOL     OW26428   5.410   3.775   2.676
 8510SOL    HW126429   5.366   3.686   2.685
 8510SOL    HW226430   5.365   3.828   2.604
 8511SOL     OW26431   6.301   2.826   2.572
 8511SOL    HW126432   6.370   2.798   2.505
 8511SOL    HW226433   6.235   2.887   2.529
 8512SOL     OW26434   2.668   6.839   2.688
 8512SOL    HW126435   2.743   6.905   2.686
 8512SOL    HW226436   2.659   6.800   2.779
 8513SOL     OW26437   0.018   5.684   1.058
 8513SOL    HW126438   0.066   5.755   1.006
 8513SOL    HW226439   7.015   5.609   0.996
 8514SOL     OW26440   2.896   0.715   3.672
 8514SOL    HW126441   2.855   0.634   3.714
 8514SOL    HW226442   2.995   0.713   3.687
 8515SOL     OW26443   4.763   2.447   1.026
 8515SOL    HW126444   4.719   2.481   0.943
 8515SOL    HW226445   4.711   2.370   1.063
 8516SOL     OW26446   0.133   2.086   2.469
 8516SOL    HW126447   0.098   2.114   2.379
 8516SOL    HW226448   0.059   2.044   2.522
 8517SOL     OW26449   0.730   2.585   5.429
 8517SOL    HW126450   0.764   2.619   5.341
 8517SOL    HW226451   0.722   2.485   5.426
 8518SOL     OW26452   4.175   4.320   0.209
 8518SOL    HW126453   4.082   4.325   0.245
 8518SOL    HW226454   4.221   4.407   0.224
 8519SOL     OW26455   1.970   5.630   2.006
 8519SOL    HW126456   1.967   5.717   1.957
 8519SOL    HW226457   1.877   5.598   2.025
 8520SOL     OW26458   3.683   1.517   0.364
 8520SOL    HW126459   3.653   1.551   0.274
 8520SOL    HW226460   3.670   1.418   0.367
 8521SOL     OW26461   1.990   5.802   5.590
 8521SOL    HW126462   1.921   5.730   5.586
 8521SOL    HW226463   1.972   5.860   5.670
 8522SOL     OW26464   1.314   5.359   2.091
 8522SOL    HW126465   1.372   5.316   2.160
 8522SOL    HW226466   1.368   5.426   2.040
 8523SOL     OW26467   2.703   6.953   6.384
 8523SOL    HW126468   2.786   6.997   6.418
 8523SOL    HW226469   2.646   7.020   6.336
 8524SOL     OW26470   1.324   3.005   4.571
 8524SOL    HW126471   1.313   3.093   4.525
 8524SOL    HW226472   1.420   2.977   4.567
 8525SOL     OW26473   6.126   3.865   3.392
 8525SOL    HW126474   6.200   3.894   3.453
 8525SOL    HW226475   6.101   3.771   3.411
 8526SOL     OW26476   2.766   3.751   1.719
 8526SOL    HW126477   2.754   3.851   1.716
 8526SOL    HW226478   2.676   3.707   1.715
 8527SOL     OW26479   4.227   0.063   5.023
 8527SOL    HW126480   4.313   0.060   4.971
 8527SOL    HW226481   4.219   7.001   5.079
 8528SOL     OW26482   5.569   3.275   5.937
 8528SOL    HW126483   5.599   3.349   5.997
 8528SOL    HW226484   5.564   3.308   5.843
 8529SOL     OW26485   1.223   6.963   0.074
 8529SOL    HW126486   1.131   6.967   0.113
 8529SOL    HW226487   1.287   6.931   0.144
 8530SOL     OW26488   0.986   5.079   5.683
 8530SOL    HW126489   0.917   5.151   5.684
 8530SOL    HW226490   1.057   5.102   5.618
 8531SOL     OW26491   5.496   4.117   3.303
 8531SOL    HW126492   5.526   4.047   3.238
 8531SOL    HW226493   5.576   4.159   3.346
 8532SOL     OW26494   4.269   4.788   5.003
 8532SOL    HW126495   4.183   4.775   5.053
 8532SOL    HW226496   4.314   4.700   4.991
 8533SOL     OW26497   1.924   0.674   5.167
 8533SOL    HW126498   1.887   0.765   5.188
 8533SOL    HW226499   1.992   0.649   5.236
 8534SOL     OW26500   7.012   4.817   2.828
 8534SOL    HW126501   6.959   4.849   2.750
 8534SOL    HW226502   0.032   4.895   2.875
 8535SOL     OW26503   1.041   2.227   4.781
 8535SOL    HW126504   1.043   2.142   4.727
 8535SOL    HW226505   1.026   2.305   4.720
 8536SOL     OW26506   6.069   2.476   4.923
 8536SOL    HW126507   6.123   2.542   4.871
 8536SOL    HW226508   5.972   2.496   4.911
 8537SOL     OW26509   6.314   1.649   0.742
 8537SOL    HW126510   6.361   1.565   0.769
 8537SOL    HW226511   6.362   1.728   0.780
 8538SOL     OW26512   0.897   0.754   5.001
 8538SOL    HW126513   0.898   0.852   5.018
 8538SOL    HW226514   0.987   0.725   4.967
 8539SOL     OW26515   6.290   2.347   2.688
 8539SOL    HW126516   6.356   2.281   2.653
 8539SOL    HW226517   6.268   2.325   2.783
 8540SOL     OW26518   3.602   1.936   0.560
 8540SOL    HW126519   3.504   1.927   0.542
 8540SOL    HW226520   3.638   2.015   0.511
 8541SOL     OW26521   2.608   1.529   5.347
 8541SOL    HW126522   2.618   1.462   5.421
 8541SOL    HW226523   2.676   1.601   5.358
 8542SOL     OW26524   3.460   4.330   6.505
 8542SOL    HW126525   3.463   4.350   6.603
 8542SOL    HW226526   3.476   4.415   6.454
 8543SOL     OW26527   2.760   1.743   5.383
 8543SOL    HW126528   2.749   1.841   5.364
 8543SOL    HW226529   2.800   1.698   5.304
 8544SOL     OW26530   5.412   3.120   5.157
 8544SOL    HW126531   5.332   3.114   5.098
 8544SOL    HW226532   5.420   3.212   5.194
 8545SOL     OW26533   3.094   6.688   4.846
 8545SOL    HW126534   3.143   6.758   4.794
 8545SOL    HW226535   3.012   6.729   4.887
 8546SOL     OW26536   5.454   0.611   0.968
 8546SOL    HW126537   5.511   0.691   0.946
 8546SOL    HW226538   5.376   0.640   1.024
 8547SOL     OW26539   6.323   0.551   5.366
 8547SOL    HW126540   6.283   0.630   5.412
 8547SOL    HW226541   6.335   0.477   5.433
 8548SOL     OW26542   0.788   2.740   5.223
 8548SOL    HW126543   0.732   2.815   5.259
 8548SOL    HW226544   0.850   2.776   5.154
 8549SOL     OW26545   0.972   1.959   3.957
 8549SOL    HW126546   0.981   1.986   3.861
 8549SOL    HW226547   1.014   2.028   4.015
 8550SOL     OW26548   0.739   3.777   6.307
 8550SOL    HW126549   0.760   3.874   6.309
 8550SOL    HW226550   0.809   3.727   6.359
 8551SOL     OW26551   2.060   2.263   6.861
 8551SOL    HW126552   2.115   2.263   6.944
 8551SOL    HW226553   1.969   2.301   6.882
 8552SOL     OW26554   3.256   0.527   2.186
 8552SOL    HW126555   3.327   0.465   2.154
 8552SOL    HW226556   3.236   0.510   2.282
 8553SOL     OW26557   3.909   4.341   0.322
 8553SOL    HW126558   3.903   4.290   0.408
 8553SOL    HW226559   3.861   4.428   0.330
 8554SOL     OW26560   1.010   6.484   1.451
 8554SOL    HW126561   1.039   6.549   1.522
 8554SOL    HW226562   1.060   6.398   1.463
 8555SOL     OW26563   4.359   1.756   3.309
 8555SOL    HW126564   4.343   1.854   3.294
 8555SOL    HW226565   4.433   1.745   3.375
 8556SOL     OW26566   1.722   6.317   5.549
 8556SOL    HW126567   1.769   6.229   5.544
 8556SOL    HW226568   1.624   6.301   5.560
 8557SOL     OW26569   6.635   1.053   0.767
 8557SOL    HW126570   6.618   1.135   0.713
 8557SOL    HW226571   6.721   1.063   0.817
 8558SOL     OW26572   2.255   4.834   2.954
 8558SOL    HW126573   2.355   4.825   2.951
 8558SOL    HW226574   2.216   4.752   2.996
 8559SOL     OW26575   0.902   6.748   2.937
 8559SOL    HW126576   0.862   6.826   2.984
 8559SOL    HW226577   0.981   6.778   2.883
 8560SOL     OW26578   1.642   5.353   1.572
 8560SOL    HW126579   1.678   5.446   1.578
 8560SOL    HW226580   1.568   5.341   1.638
 8561SOL     OW26581   4.200   6.974   3.215
 8561SOL    HW126582   4.245   6.925   3.290
 8561SOL    HW226583   4.134   6.913   3.170
 8562SOL     OW26584   4.023   0.401   6.747
 8562SOL    HW126585   4.048   0.322   6.691
 8562SOL    HW226586   3.924   0.409   6.751
 8563SOL     OW26587   1.141   5.900   1.890
 8563SOL    HW126588   1.058   5.927   1.842
 8563SOL    HW226589   1.133   5.928   1.986
 8564SOL     OW26590   3.667   5.886   6.563
 8564SOL    HW126591   3.645   5.935   6.479
 8564SOL    HW226592   3.672   5.787   6.544
 8565SOL     OW26593   3.883   5.115   1.682
 8565SOL    HW126594   3.943   5.037   1.695
 8565SOL    HW226595   3.809   5.091   1.618
 8566SOL     OW26596   2.605   0.858   2.542
 8566SOL    HW126597   2.517   0.841   2.586
 8566SOL    HW226598   2.651   0.770   2.526
 8567SOL     OW26599   1.575   2.084   1.909
 8567SOL    HW126600   1.608   2.120   1.822
 8567SOL    HW226601   1.637   2.113   1.982
 8568SOL     OW26602   6.733   1.032   0.404
 8568SOL    HW126603   6.667   0.960   0.384
 8568SOL    HW226604   6.697   1.120   0.373
 8569SOL     OW26605   4.716   1.978   5.682
 8569SOL    HW126606   4.654   1.904   5.708
 8569SOL    HW226607   4.807   1.939   5.663
 8570SOL     OW26608   1.919   1.737   4.099
 8570SOL    HW126609   1.988   1.808   4.085
 8570SOL    HW226610   1.884   1.744   4.192
 8571SOL     OW26611   1.262   0.660   4.542
 8571SOL    HW126612   1.256   0.706   4.631
 8571SOL    HW226613   1.223   0.569   4.549
 8572SOL     OW26614   1.880   4.207   5.917
 8572SOL    HW126615   1.797   4.256   5.945
 8572SOL    HW226616   1.874   4.112   5.946
 8573SOL     OW26617   2.951   6.279   6.938
 8573SOL    HW126618   2.978   6.375   6.932
 8573SOL    HW226619   2.953   6.238   6.847
 8574SOL     OW26620   6.418   6.851   5.832
 8574SOL    HW126621   6.427   6.946   5.862
 8574SOL    HW226622   6.453   6.842   5.739
 8575SOL     OW26623   3.879   0.808   2.327
 8575SOL    HW126624   3.845   0.735   2.269
 8575SOL    HW226625   3.860   0.785   2.423
 8576SOL     OW26626   1.747   4.643   4.176
 8576SOL    HW126627   1.839   4.624   4.142
 8576SOL    HW226628   1.750   4.724   4.235
 8577SOL     OW26629   1.558   0.901   5.700
 8577SOL    HW126630   1.466   0.868   5.723
 8577SOL    HW226631   1.624   0.861   5.764
 8578SOL     OW26632   6.088   5.778   5.850
 8578SOL    HW126633   6.078   5.683   5.880
 8578SOL    HW226634   6.145   5.780   5.768
 8579SOL     OW26635   1.615   6.062   1.975
 8579SOL    HW126636   1.640   6.134   2.040
 8579SOL    HW226637   1.551   6.099   1.908
 8580SOL     OW26638   1.471   6.500   0.841
 8580SOL    HW126639   1.556   6.501   0.788
 8580SOL    HW226640   1.399   6.456   0.788
 8581SOL     OW26641   3.904   4.796   1.499
 8581SOL    HW126642   3.879   4.857   1.423
 8581SOL    HW226643   3.998   4.766   1.487
 8582SOL     OW26644   4.942   4.388   5.429
 8582SOL    HW126645   4.867   4.324   5.448
 8582SOL    HW226646   4.926   4.474   5.477
 8583SOL     OW26647   3.689   6.885   3.009
 8583SOL    HW126648   3.726   6.885   2.916
 8583SOL    HW226649   3.725   6.806   3.059
 8584SOL     OW26650   0.142   0.561   5.140
 8584SOL    HW126651   0.191   0.482   5.175
 8584SOL    HW226652   0.060   0.577   5.194
 8585SOL     OW26653   6.066   1.406   0.588
 8585SOL    HW126654   6.072   1.484   0.525
 8585SOL    HW226655   6.099   1.434   0.678
 8586SOL     OW26656   4.442   6.540   1.349
 8586SOL    HW126657   4.455   6.573   1.442
 8586SOL    HW226658   4.473   6.445   1.343
 8587SOL     OW26659   1.147   1.381   4.904
 8587SOL    HW126660   1.240   1.381   4.941
 8587SOL    HW226661   1.091   1.447   4.954
 8588SOL     OW26662   4.649   1.369   0.005
 8588SOL    HW126663   4.587   1.422   0.062
 8588SOL    HW226664   4.600   1.337   6.944
 8589SOL     OW26665   6.593   3.064   5.294
 8589SOL    HW126666   6.635   3.027   5.378
 8589SOL    HW226667   6.654   3.047   5.217
 8590SOL     OW26668   0.186   0.259   2.470
 8590SOL    HW126669   0.250   0.324   2.430
 8590SOL    HW226670   0.235   0.199   2.533
 8591SOL     OW26671   6.764   4.635   0.248
 8591SOL    HW126672   6.828   4.655   0.174
 8591SOL    HW226673   6.741   4.538   0.247
 8592SOL     OW26674   0.397   3.024   0.361
 8592SOL    HW126675   0.303   3.007   0.332
 8592SOL    HW226676   0.439   2.938   0.389
 8593SOL     OW26677   3.682   0.909   6.719
 8593SOL    HW126678   3.719   0.841   6.656
 8593SOL    HW226679   3.681   0.999   6.676
 8594SOL     OW26680   6.489   2.860   5.928
 8594SOL    HW126681   6.483   2.860   5.829
 8594SOL    HW226682   6.396   2.859   5.967
 8595SOL     OW26683   6.590   0.786   3.857
 8595SOL    HW126684   6.595   0.811   3.954
 8595SOL    HW226685   6.574   0.687   3.850
 8596SOL     OW26686   1.303   4.170   2.868
 8596SOL    HW126687   1.260   4.155   2.779
 8596SOL    HW226688   1.234   4.163   2.940
 8597SOL     OW26689   5.856   2.165   0.779
 8597SOL    HW126690   5.881   2.071   0.760
 8597SOL    HW226691   5.839   2.177   0.877
 8598SOL     OW26692   5.452   0.120   5.671
 8598SOL    HW126693   5.458   0.132   5.770
 8598SOL    HW226694   5.408   0.033   5.650
 8599SOL     OW26695   0.990   2.632   4.354
 8599SOL    HW126696   0.961   2.692   4.428
 8599SOL    HW226697   1.019   2.687   4.276
 8600SOL     OW26698   4.943   3.741   0.611
 8600SOL    HW126699   4.992   3.678   0.551
 8600SOL    HW226700   4.899   3.689   0.684
 8601SOL     OW26701   6.787   1.583   3.926
 8601SOL    HW126702   6.689   1.575   3.946
 8601SOL    HW226703   6.799   1.592   3.827
 8602SOL     OW26704   2.269   6.356   3.007
 8602SOL    HW126705   2.198   6.409   3.053
 8602SOL    HW226706   2.310   6.410   2.934
 8603SOL     OW26707   5.311   0.425   6.833
 8603SOL    HW126708   5.228   0.429   6.777
 8603SOL    HW226709   5.381   0.373   6.785
 8604SOL     OW26710   1.068   2.656   6.139
 8604SOL    HW126711   1.048   2.748   6.172
 8604SOL    HW226712   1.113   2.662   6.050
 8605SOL     OW26713   0.880   4.588   3.809
 8605SOL    HW126714   0.821   4.668   3.821
 8605SOL    HW226715   0.964   4.601   3.861
 8606SOL     OW26716   2.973   1.613   0.066
 8606SOL    HW126717   2.876   1.626   0.043
 8606SOL    HW226718   2.982   1.532   0.124
 8607SOL     OW26719   2.779   4.524   6.793
 8607SOL    HW126720   2.831   4.604   6.764
 8607SOL    HW226721   2.718   4.549   6.868
 8608SOL     OW26722   2.319   5.288   1.767
 8608SOL    HW126723   2.375   5.353   1.817
 8608SOL    HW226724   2.223   5.317   1.769
 8609SOL     OW26725   4.979   0.832   3.926
 8609SOL    HW126726   4.906   0.782   3.972
 8609SOL    HW226727   4.942   0.881   3.847
 8610SOL     OW26728   6.971   0.172   3.313
 8610SOL    HW126729   6.939   0.267   3.316
 8610SOL    HW226730   6.912   0.118   3.252
 8611SOL     OW26731   3.154   1.262   4.036
 8611SOL    HW126732   3.133   1.208   4.118
 8611SOL    HW226733   3.253   1.262   4.021
 8612SOL     OW26734   2.972   3.588   1.646
 8612SOL    HW126735   2.907   3.661   1.663
 8612SOL    HW226736   2.951   3.510   1.706
 8613SOL     OW26737   2.960   2.599   1.717
 8613SOL    HW126738   2.969   2.521   1.778
 8613SOL    HW226739   2.868   2.637   1.725
 8614SOL     OW26740   1.644   2.450   3.542
 8614SOL    HW126741   1.565   2.403   3.582
 8614SOL    HW226742   1.614   2.536   3.502
 8615SOL     OW26743   4.371   1.505   4.983
 8615SOL    HW126744   4.383   1.549   5.072
 8615SOL    HW226745   4.459   1.497   4.938
 8616SOL     OW26746   2.438   4.483   1.691
 8616SOL    HW126747   2.415   4.540   1.613
 8616SOL    HW226748   2.537   4.470   1.695
 8617SOL     OW26749   5.805   0.991   3.940
 8617SOL    HW126750   5.771   1.028   3.854
 8617SOL    HW226751   5.893   1.033   3.962
 8618SOL     OW26752   6.268   4.424   0.930
 8618SOL    HW126753   6.304   4.365   1.002
 8618SOL    HW226754   6.338   4.491   0.903
 8619SOL     OW26755   4.207   4.971   3.414
 8619SOL    HW126756   4.110   4.989   3.427
 8619SOL    HW226757   4.249   4.952   3.503
 8620SOL     OW26758   1.892   0.316   4.632
 8620SOL    HW126759   1.821   0.252   4.663
 8620SOL    HW226760   1.864   0.357   4.545
 8621SOL     OW26761   4.917   3.135   2.205
 8621SOL    HW126762   4.918   3.052   2.261
 8621SOL    HW226763   4.846   3.127   2.135
 8622SOL     OW26764   5.862   5.172   1.689
 8622SOL    HW126765   5.836   5.265   1.716
 8622SOL    HW226766   5.780   5.121   1.662
 8623SOL     OW26767   0.865   3.873   4.896
 8623SOL    HW126768   0.943   3.812   4.909
 8623SOL    HW226769   0.797   3.857   4.968
 8624SOL     OW26770   3.792   3.389   5.731
 8624SOL    HW126771   3.817   3.473   5.780
 8624SOL    HW226772   3.745   3.413   5.646
 8625SOL     OW26773   4.290   0.868   6.041
 8625SOL    HW126774   4.215   0.805   6.021
 8625SOL    HW226775   4.253   0.961   6.049
 8626SOL     OW26776   3.604   3.346   6.284
 8626SOL    HW126777   3.541   3.271   6.304
 8626SOL    HW226778   3.666   3.318   6.211
 8627SOL     OW26779   2.441   1.530   2.684
 8627SOL    HW126780   2.371   1.602   2.674
 8627SOL    HW226781   2.499   1.529   2.603
 8628SOL     OW26782   6.280   6.772   6.869
 8628SOL    HW126783   6.295   6.856   6.817
 8628SOL    HW226784   6.366   6.740   6.907
 8629SOL     OW26785   1.397   6.311   5.489
 8629SOL    HW126786   1.300   6.308   5.464
 8629SOL    HW226787   1.452   6.274   5.414
 8630SOL     OW26788   4.942   3.908   4.569
 8630SOL    HW126789   4.955   3.828   4.511
 8630SOL    HW226790   5.013   3.976   4.548
 8631SOL     OW26791   1.491   6.137   6.159
 8631SOL    HW126792   1.406   6.187   6.171
 8631SOL    HW226793   1.518   6.138   6.063
 8632SOL     OW26794   4.064   4.047   5.205
 8632SOL    HW126795   4.127   4.123   5.221
 8632SOL    HW226796   3.970   4.076   5.224
 8633SOL     OW26797   6.028   3.584   5.752
 8633SOL    HW126798   6.025   3.662   5.690
 8633SOL    HW226799   6.104   3.524   5.728
 8634SOL     OW26800   5.080   4.577   0.211
 8634SOL    HW126801   5.124   4.531   0.288
 8634SOL    HW226802   4.981   4.568   0.218
 8635SOL     OW26803   5.907   2.960   6.850
 8635SOL    HW126804   5.829   2.904   6.822
 8635SOL    HW226805   5.921   2.949   6.949
 8636SOL     OW26806   4.505   5.801   0.746
 8636SOL    HW126807   4.466   5.826   0.835
 8636SOL    HW226808   4.442   5.828   0.674
 8637SOL     OW26809   2.134   1.533   6.222
 8637SOL    HW126810   2.049   1.479   6.227
 8637SOL    HW226811   2.199   1.487   6.162
 8638SOL     OW26812   3.863   2.649   5.297
 8638SOL    HW126813   3.951   2.610   5.269
 8638SOL    HW226814   3.790   2.581   5.283
 8639SOL     OW26815   4.257   3.566   0.140
 8639SOL    HW126816   4.168   3.528   0.166
 8639SOL    HW226817   4.248   3.615   0.053
 8640SOL     OW26818   4.267   3.368   1.063
 8640SOL    HW126819   4.222   3.301   1.121
 8640SOL    HW226820   4.271   3.334   0.969
 8641SOL     OW26821   4.035   4.817   4.374
 8641SOL    HW126822   3.982   4.895   4.408
 8641SOL    HW226823   4.080   4.772   4.451
 8642SOL     OW26824   0.671   6.915   3.284
 8642SOL    HW126825   0.716   6.836   3.240
 8642SOL    HW226826   0.639   6.978   3.213
 8643SOL     OW26827   2.228   0.510   0.206
 8643SOL    HW126828   2.204   0.565   0.286
 8643SOL    HW226829   2.245   0.571   0.128
 8644SOL     OW26830   6.283   2.880   6.314
 8644SOL    HW126831   6.290   2.894   6.216
 8644SOL    HW226832   6.364   2.830   6.346
 8645SOL     OW26833   4.506   5.016   1.562
 8645SOL    HW126834   4.517   4.945   1.632
 8645SOL    HW226835   4.591   5.067   1.554
 8646SOL     OW26836   0.382   1.789   6.991
 8646SOL    HW126837   0.348   1.701   0.001
 8646SOL    HW226838   0.475   1.804   0.005
 8647SOL     OW26839   2.725   5.143   0.302
 8647SOL    HW126840   2.756   5.212   0.236
 8647SOL    HW226841   2.626   5.131   0.294
 8648SOL     OW26842   6.106   6.254   1.104
 8648SOL    HW126843   6.174   6.236   1.034
 8648SOL    HW226844   6.015   6.228   1.070
 8649SOL     OW26845   5.543   6.355   0.197
 8649SOL    HW126846   5.620   6.415   0.217
 8649SOL    HW226847   5.527   6.353   0.099
 8650SOL     OW26848   1.487   6.702   4.441
 8650SOL    HW126849   1.466   6.604   4.437
 8650SOL    HW226850   1.404   6.755   4.429
 8651SOL     OW26851   3.267   1.599   0.981
 8651SOL    HW126852   3.178   1.630   1.016
 8651SOL    HW226853   3.293   1.654   0.902
 8652SOL     OW26854   1.261   4.792   3.595
 8652SOL    HW126855   1.216   4.828   3.677
 8652SOL    HW226856   1.253   4.692   3.594
 8653SOL     OW26857   6.650   1.391   5.506
 8653SOL    HW126858   6.556   1.412   5.532
 8653SOL    HW226859   6.693   1.471   5.464
 8654SOL     OW26860   0.440   4.936   0.491
 8654SOL    HW126861   0.473   4.922   0.584
 8654SOL    HW226862   0.505   4.895   0.426
 8655SOL     OW26863   5.695   1.030   5.306
 8655SOL    HW126864   5.742   1.011   5.392
 8655SOL    HW226865   5.598   1.006   5.315
 8656SOL     OW26866   5.589   0.556   1.926
 8656SOL    HW126867   5.617   0.497   2.002
 8656SOL    HW226868   5.490   0.565   1.926
 8657SOL     OW26869   5.503   5.918   0.147
 8657SOL    HW126870   5.435   5.987   0.171
 8657SOL    HW226871   5.554   5.891   0.229
 8658SOL     OW26872   6.299   5.801   0.948
 8658SOL    HW126873   6.254   5.871   0.894
 8658SOL    HW226874   6.240   5.774   1.024
 8659SOL     OW26875   4.428   2.371   2.897
 8659SOL    HW126876   4.348   2.415   2.855
 8659SOL    HW226877   4.487   2.333   2.826
 8660SOL     OW26878   0.228   2.542   2.417
 8660SOL    HW126879   0.317   2.579   2.390
 8660SOL    HW226880   0.242   2.465   2.480
 8661SOL     OW26881   5.874   4.157   1.860
 8661SOL    HW126882   5.844   4.089   1.793
 8661SOL    HW226883   5.972   4.145   1.878
 8662SOL     OW26884   3.919   6.183   2.215
 8662SOL    HW126885   3.883   6.266   2.257
 8662SOL    HW226886   3.854   6.149   2.146
 8663SOL     OW26887   2.679   5.062   2.296
 8663SOL    HW126888   2.697   5.051   2.394
 8663SOL    HW226889   2.753   5.116   2.255
 8664SOL     OW26890   2.434   5.246   2.504
 8664SOL    HW126891   2.396   5.217   2.592
 8664SOL    HW226892   2.402   5.184   2.432
 8665SOL     OW26893   6.402   5.792   4.575
 8665SOL    HW126894   6.348   5.716   4.611
 8665SOL    HW226895   6.479   5.756   4.523
 8666SOL     OW26896   5.435   0.566   4.665
 8666SOL    HW126897   5.491   0.502   4.612
 8666SOL    HW226898   5.443   0.658   4.627
 8667SOL     OW26899   4.980   1.593   4.368
 8667SOL    HW126900   4.964   1.654   4.446
 8667SOL    HW226901   5.019   1.507   4.401
 8668SOL     OW26902   5.199   3.257   4.920
 8668SOL    HW126903   5.099   3.263   4.922
 8668SOL    HW226904   5.237   3.327   4.981
 8669SOL     OW26905   0.261   6.503   6.039
 8669SOL    HW126906   0.175   6.508   5.987
 8669SOL    HW226907   0.301   6.412   6.028
 8670SOL     OW26908   4.893   5.133   5.759
 8670SOL    HW126909   4.976   5.153   5.707
 8670SOL    HW226910   4.817   5.117   5.696
 8671SOL     OW26911   0.697   1.704   2.320
 8671SOL    HW126912   0.736   1.674   2.406
 8671SOL    HW226913   0.702   1.630   2.253
 8672SOL     OW26914   0.734   0.272   3.440
 8672SOL    HW126915   0.750   0.173   3.439
 8672SOL    HW226916   0.677   0.295   3.519
 8673SOL     OW26917   6.650   1.282   0.023
 8673SOL    HW126918   6.591   1.242   6.974
 8673SOL    HW226919   6.645   1.227   0.106
 8674SOL     OW26920   6.672   4.995   2.744
 8674SOL    HW126921   6.589   4.980   2.690
 8674SOL    HW226922   6.731   5.060   2.695
 8675SOL     OW26923   4.342   1.124   5.327
 8675SOL    HW126924   4.393   1.135   5.412
 8675SOL    HW226925   4.245   1.138   5.344
 8676SOL     OW26926   5.255   0.722   1.170
 8676SOL    HW126927   5.247   0.820   1.184
 8676SOL    HW226928   5.181   0.690   1.110
 8677SOL     OW26929   1.902   5.770   5.964
 8677SOL    HW126930   1.998   5.746   5.947
 8677SOL    HW226931   1.845   5.689   5.949
 8678SOL     OW26932   0.480   6.942   0.636
 8678SOL    HW126933   0.524   7.001   0.568
 8678SOL    HW226934   0.389   6.915   0.603
 8679SOL     OW26935   2.149   0.996   3.837
 8679SOL    HW126936   2.217   1.040   3.778
 8679SOL    HW226937   2.057   1.019   3.805
 8680SOL     OW26938   6.104   2.901   6.636
 8680SOL    HW126939   6.030   2.909   6.703
 8680SOL    HW226940   6.091   2.817   6.583
 8681SOL     OW26941   4.715   5.190   1.536
 8681SOL    HW126942   4.784   5.156   1.600
 8681SOL    HW226943   4.739   5.282   1.506
 8682SOL     OW26944   6.647   0.461   1.098
 8682SOL    HW126945   6.551   0.453   1.127
 8682SOL    HW226946   6.684   0.370   1.082
 8683SOL     OW26947   1.643   2.931   4.867
 8683SOL    HW126948   1.545   2.943   4.882
 8683SOL    HW226949   1.689   3.019   4.880
 8684SOL     OW26950   0.085   3.337   4.718
 8684SOL    HW126951   0.037   3.321   4.633
 8684SOL    HW226952   0.125   3.251   4.751
 8685SOL     OW26953   5.448   3.385   6.600
 8685SOL    HW126954   5.363   3.343   6.568
 8685SOL    HW226955   5.510   3.313   6.631
 8686SOL     OW26956   5.971   6.742   2.494
 8686SOL    HW126957   5.989   6.841   2.496
 8686SOL    HW226958   6.057   6.692   2.492
 8687SOL     OW26959   6.173   4.831   3.157
 8687SOL    HW126960   6.130   4.906   3.209
 8687SOL    HW226961   6.171   4.747   3.212
 8688SOL     OW26962   1.307   3.858   6.976
 8688SOL    HW126963   1.244   3.921   6.930
 8688SOL    HW226964   1.258   3.809   0.027
 8689SOL     OW26965   4.925   3.337   0.194
 8689SOL    HW126966   4.974   3.405   0.249
 8689SOL    HW226967   4.972   3.249   0.199
 8690SOL     OW26968   0.525   2.929   2.688
 8690SOL    HW126969   0.615   2.922   2.645
 8690SOL    HW226970   0.533   2.976   2.776
 8691SOL     OW26971   3.026   2.031   5.147
 8691SOL    HW126972   3.048   2.120   5.109
 8691SOL    HW226973   2.958   2.042   5.220
 8692SOL     OW26974   3.685   0.831   5.075
 8692SOL    HW126975   3.740   0.751   5.051
 8692SOL    HW226976   3.593   0.820   5.039
 8693SOL     OW26977   6.667   1.602   6.175
 8693SOL    HW126978   6.746   1.579   6.118
 8693SOL    HW226979   6.624   1.685   6.140
 8694SOL     OW26980   5.718   1.976   4.922
 8694SOL    HW126981   5.686   2.066   4.950
 8694SOL    HW226982   5.734   1.976   4.823
 8695SOL     OW26983   4.272   2.799   6.007
 8695SOL    HW126984   4.305   2.883   6.051
 8695SOL    HW226985   4.202   2.823   5.939
 8696SOL     OW26986   2.641   5.859   5.359
 8696SOL    HW126987   2.692   5.773   5.356
 8696SOL    HW226988   2.607   5.875   5.452
 8697SOL     OW26989   0.623   4.161   6.165
 8697SOL    HW126990   0.660   4.113   6.086
 8697SOL    HW226991   0.530   4.130   6.182
 8698SOL     OW26992   5.404   6.069   5.601
 8698SOL    HW126993   5.452   5.990   5.639
 8698SOL    HW226994   5.450   6.153   5.628
 8699SOL     OW26995   2.066   3.044   6.149
 8699SOL    HW126996   2.163   3.069   6.145
 8699SOL    HW226997   2.058   2.950   6.183
 8700SOL     OW26998   1.433   1.138   5.430
 8700SOL    HW126999   1.465   1.074   5.360
 8700SOL    HW227000   1.376   1.208   5.387
 8701SOL     OW27001   1.857   1.448   6.891
 8701SOL    HW127002   1.865   1.349   6.893
 8701SOL    HW227003   1.764   1.475   6.919
 8702SOL     OW27004   4.859   5.143   2.008
 8702SOL    HW127005   4.918   5.063   2.024
 8702SOL    HW227006   4.775   5.113   1.963
 8703SOL     OW27007   3.223   5.069   6.890
 8703SOL    HW127008   3.205   5.130   6.813
 8703SOL    HW227009   3.257   5.122   6.967
 8704SOL     OW27010   6.538   3.549   3.722
 8704SOL    HW127011   6.563   3.615   3.651
 8704SOL    HW227012   6.528   3.458   3.680
 8705SOL     OW27013   4.548   1.825   6.388
 8705SOL    HW127014   4.588   1.911   6.421
 8705SOL    HW227015   4.525   1.766   6.465
 8706SOL     OW27016   5.374   2.289   6.974
 8706SOL    HW127017   5.311   2.272   6.898
 8706SOL    HW227018   5.376   2.210   0.013
 8707SOL     OW27019   0.828   2.744   3.786
 8707SOL    HW127020   0.899   2.691   3.739
 8707SOL    HW227021   0.807   2.826   3.733
 8708SOL     OW27022   3.907   1.500   4.141
 8708SOL    HW127023   3.980   1.456   4.194
 8708SOL    HW227024   3.932   1.596   4.124
 8709SOL     OW27025   6.970   0.077   6.935
 8709SOL    HW127026   6.896   0.144   6.924
 8709SOL    HW227027   6.982   0.056   0.011
 8710SOL     OW27028   1.824   2.300   3.722
 8710SOL    HW127029   1.886   2.238   3.674
 8710SOL    HW227030   1.771   2.352   3.656
 8711SOL     OW27031   1.533   6.589   1.900
 8711SOL    HW127032   1.568   6.654   1.967
 8711SOL    HW227033   1.515   6.636   1.814
 8712SOL     OW27034   3.039   1.494   3.925
 8712SOL    HW127035   3.118   1.552   3.947
 8712SOL    HW227036   3.060   1.400   3.950
 8713SOL     OW27037   0.286   4.358   1.334
 8713SOL    HW127038   0.366   4.298   1.329
 8713SOL    HW227039   0.315   4.454   1.326
 8714SOL     OW27040   0.689   6.791   0.188
 8714SOL    HW127041   0.672   6.729   0.264
 8714SOL    HW227042   0.741   6.742   0.117
 8715SOL     OW27043   3.843   1.528   6.798
 8715SOL    HW127044   3.764   1.585   6.824
 8715SOL    HW227045   3.909   1.584   6.748
 8716SOL     OW27046   6.998   6.466   1.016
 8716SOL    HW127047   0.045   6.393   1.006
 8716SOL    HW227048   6.906   6.426   1.018
 8717SOL     OW27049   2.053   3.427   5.903
 8717SOL    HW127050   2.050   3.525   5.924
 8717SOL    HW227051   2.101   3.414   5.816
 8718SOL     OW27052   2.040   2.549   6.477
 8718SOL    HW127053   2.138   2.550   6.459
 8718SOL    HW227054   2.024   2.540   6.575
 8719SOL     OW27055   4.075   0.852   0.303
 8719SOL    HW127056   4.006   0.781   0.287
 8719SOL    HW227057   4.080   0.912   0.223
 8720SOL     OW27058   0.034   5.753   6.052
 8720SOL    HW127059   0.098   5.676   6.049
 8720SOL    HW227060   6.964   5.720   6.078
 8721SOL     OW27061   6.242   6.935   0.186
 8721SOL    HW127062   6.315   6.984   0.233
 8721SOL    HW227063   6.218   6.983   0.101
 8722SOL     OW27064   3.390   1.241   0.345
 8722SOL    HW127065   3.489   1.254   0.352
 8722SOL    HW227066   3.355   1.293   0.267
 8723SOL     OW27067   5.588   7.016   2.291
 8723SOL    HW127068   5.597   7.002   2.390
 8723SOL    HW227069   5.502   6.976   2.259
 8724SOL     OW27070   5.743   0.566   4.517
 8724SOL    HW127071   5.685   0.605   4.445
 8724SOL    HW227072   5.782   0.480   4.485
 8725SOL     OW27073   0.625   6.386   5.412
 8725SOL    HW127074   0.621   6.431   5.501
 8725SOL    HW227075   0.544   6.329   5.399
 8726SOL     OW27076   6.634   0.772   0.367
 8726SOL    HW127077   6.665   0.791   0.461
 8726SOL    HW227078   6.654   0.677   0.344
 8727SOL     OW27079   5.600   7.002   6.772
 8727SOL    HW127080   5.693   6.977   6.799
 8727SOL    HW227081   5.554   0.027   6.848
 8728SOL     OW27082   5.487   1.647   1.999
 8728SOL    HW127083   5.513   1.724   2.057
 8728SOL    HW227084   5.410   1.674   1.941
 8729SOL     OW27085   3.137   5.349   5.651
 8729SOL    HW127086   3.129   5.287   5.728
 8729SOL    HW227087   3.156   5.297   5.567
 8730SOL     OW27088   4.851   4.633   3.345
 8730SOL    HW127089   4.784   4.618   3.418
 8730SOL    HW227090   4.890   4.725   3.354
 8731SOL     OW27091   0.498   3.092   2.913
 8731SOL    HW127092   0.482   3.014   2.973
 8731SOL    HW227093   0.412   3.141   2.897
 8732SOL     OW27094   5.615   4.236   1.885
 8732SOL    HW127095   5.550   4.165   1.913
 8732SOL    HW227096   5.708   4.205   1.904
 8733SOL     OW27097   0.907   5.817   0.788
 8733SOL    HW127098   0.949   5.898   0.827
 8733SOL    HW227099   0.837   5.782   0.850
 8734SOL     OW27100   6.617   3.026   2.289
 8734SOL    HW127101   6.642   2.935   2.323
 8734SOL    HW227102   6.671   3.047   2.208
 8735SOL     OW27103   1.098   3.190   5.320
 8735SOL    HW127104   1.165   3.190   5.394
 8735SOL    HW227105   1.111   3.271   5.263
 8736SOL     OW27106   0.595   5.353   2.413
 8736SOL    HW127107   0.521   5.289   2.434
 8736SOL    HW227108   0.672   5.336   2.475
 8737SOL     OW27109   2.693   6.468   6.706
 8737SOL    HW127110   2.782   6.506   6.731
 8737SOL    HW227111   2.665   6.505   6.617
 8738SOL     OW27112   2.298   5.030   3.486
 8738SOL    HW127113   2.302   5.027   3.386
 8738SOL    HW227114   2.266   5.120   3.516
 8739SOL     OW27115   5.009   4.348   5.945
 8739SOL    HW127116   5.040   4.388   6.031
 8739SOL    HW227117   5.018   4.415   5.871
 8740SOL     OW27118   3.600   2.002   2.787
 8740SOL    HW127119   3.575   1.905   2.783
 8740SOL    HW227120   3.608   2.038   2.694
 8741SOL     OW27121   2.478   0.476   2.577
 8741SOL    HW127122   2.554   0.541   2.585
 8741SOL    HW227123   2.513   0.384   2.563
 8742SOL     OW27124   3.912   0.093   2.163
 8742SOL    HW127125   3.921   0.168   2.097
 8742SOL    HW227126   3.854   0.021   2.123
 8743SOL     OW27127   1.796   1.273   1.757
 8743SOL    HW127128   1.734   1.210   1.708
 8743SOL    HW227129   1.846   1.327   1.691
 8744SOL     OW27130   4.731   2.855   0.785
 8744SOL    HW127131   4.708   2.953   0.782
 8744SOL    HW227132   4.829   2.845   0.805
 8745SOL     OW27133   6.673   2.644   6.517
 8745SOL    HW127134   6.670   2.727   6.574
 8745SOL    HW227135   6.605   2.579   6.549
 8746SOL     OW27136   4.811   5.513   4.899
 8746SOL    HW127137   4.900   5.474   4.925
 8746SOL    HW227138   4.766   5.551   4.980
 8747SOL     OW27139   6.809   1.550   2.288
 8747SOL    HW127140   6.883   1.606   2.326
 8747SOL    HW227141   6.730   1.554   2.349
 8748SOL     OW27142   0.900   1.921   4.597
 8748SOL    HW127143   0.999   1.906   4.599
 8748SOL    HW227144   0.879   1.996   4.535
 8749SOL     OW27145   1.852   0.966   5.139
 8749SOL    HW127146   1.893   0.963   5.048
 8749SOL    HW227147   1.880   1.050   5.185
 8750SOL     OW27148   3.944   3.071   5.460
 8750SOL    HW127149   4.042   3.078   5.444
 8750SOL    HW227150   3.922   2.979   5.490
 8751SOL     OW27151   6.783   0.220   1.023
 8751SOL    HW127152   6.844   0.253   1.095
 8751SOL    HW227153   6.797   0.122   1.010
 8752SOL     OW27154   4.729   3.066   6.551
 8752SOL    HW127155   4.737   3.085   6.649
 8752SOL    HW227156   4.796   3.121   6.501
 8753SOL     OW27157   2.131   3.703   0.010
 8753SOL    HW127158   2.181   3.786   7.005
 8753SOL    HW227159   2.169   3.625   6.981
 8754SOL     OW27160   2.884   4.757   5.900
 8754SOL    HW127161   2.906   4.815   5.821
 8754SOL    HW227162   2.963   4.755   5.962
 8755SOL     OW27163   1.814   0.982   1.021
 8755SOL    HW127164   1.911   0.960   1.020
 8755SOL    HW227165   1.801   1.079   1.038
 8756SOL     OW27166   1.615   2.836   3.685
 8756SOL    HW127167   1.699   2.860   3.638
 8756SOL    HW227168   1.636   2.787   3.770
 8757SOL     OW27169   4.942   5.953   6.203
 8757SOL    HW127170   4.954   5.859   6.173
 8757SOL    HW227171   4.862   5.960   6.263
 8758SOL     OW27172   4.363   6.707   3.819
 8758SOL    HW127173   4.374   6.704   3.918
 8758SOL    HW227174   4.408   6.789   3.783
 8759SOL     OW27175   6.162   1.876   0.170
 8759SOL    HW127176   6.144   1.778   0.175
 8759SOL    HW227177   6.076   1.926   0.156
 8760SOL     OW27178   2.465   1.871   4.297
 8760SOL    HW127179   2.382   1.925   4.295
 8760SOL    HW227180   2.544   1.930   4.281
 8761SOL     OW27181   6.106   2.085   1.671
 8761SOL    HW127182   6.073   2.059   1.580
 8761SOL    HW227183   6.201   2.116   1.664
 8762SOL     OW27184   1.635   6.013   4.356
 8762SOL    HW127185   1.614   6.100   4.400
 8762SOL    HW227186   1.669   5.948   4.423
 8763SOL     OW27187   6.215   0.334   4.921
 8763SOL    HW127188   6.179   0.412   4.869
 8763SOL    HW227189   6.211   0.354   5.019
 8764SOL     OW27190   4.686   6.137   6.045
 8764SOL    HW127191   4.601   6.128   6.097
 8764SOL    HW227192   4.735   6.218   6.077
 8765SOL     OW27193   5.513   1.202   5.005
 8765SOL    HW127194   5.427   1.254   5.000
 8765SOL    HW227195   5.590   1.265   5.010
 8766SOL     OW27196   4.229   4.241   5.314
 8766SOL    HW127197   4.268   4.311   5.255
 8766SOL    HW227198   4.164   4.283   5.377
 8767SOL     OW27199   3.659   6.941   3.568
 8767SOL    HW127200   3.588   6.945   3.497
 8767SOL    HW227201   3.745   6.911   3.526
 8768SOL     OW27202   0.734   1.577   1.136
 8768SOL    HW127203   0.822   1.531   1.124
 8768SOL    HW227204   0.705   1.568   1.231
 8769SOL     OW27205   0.122   1.134   2.284
 8769SOL    HW127206   0.089   1.100   2.373
 8769SOL    HW227207   0.222   1.142   2.287
 8770SOL     OW27208   5.134   4.637   2.157
 8770SOL    HW127209   5.169   4.662   2.247
 8770SOL    HW227210   5.050   4.585   2.167
 8771SOL     OW27211   0.266   2.892   6.118
 8771SOL    HW127212   0.338   2.895   6.187
 8771SOL    HW227213   0.246   2.985   6.087
 8772SOL     OW27214   4.940   0.508   5.623
 8772SOL    HW127215   4.962   0.604   5.607
 8772SOL    HW227216   4.923   0.493   5.720
 8773SOL     OW27217   5.644   2.335   3.154
 8773SOL    HW127218   5.671   2.431   3.141
 8773SOL    HW227219   5.663   2.308   3.248
 8774SOL     OW27220   0.660   6.938   6.640
 8774SOL    HW127221   0.726   6.923   6.713
 8774SOL    HW227222   0.669   6.867   6.570
 8775SOL     OW27223   5.197   1.387   5.616
 8775SOL    HW127224   5.253   1.316   5.574
 8775SOL    HW227225   5.195   1.374   5.716
 8776SOL     OW27226   4.740   3.317   1.559
 8776SOL    HW127227   4.813   3.381   1.534
 8776SOL    HW227228   4.780   3.230   1.587
 8777SOL     OW27229   0.457   3.722   3.284
 8777SOL    HW127230   0.363   3.694   3.302
 8777SOL    HW227231   0.501   3.655   3.224
 8778SOL     OW27232   4.570   3.471   5.830
 8778SOL    HW127233   4.492   3.531   5.816
 8778SOL    HW227234   4.653   3.516   5.798
 8779SOL     OW27235   2.861   5.622   2.260
 8779SOL    HW127236   2.955   5.598   2.235
 8779SOL    HW227237   2.830   5.561   2.333
 8780SOL     OW27238   0.623   6.046   3.207
 8780SOL    HW127239   0.722   6.031   3.211
 8780SOL    HW227240   0.598   6.080   3.116
 8781SOL     OW27241   4.547   6.759   2.865
 8781SOL    HW127242   4.613   6.835   2.862
 8781SOL    HW227243   4.536   6.722   2.773
 8782SOL     OW27244   6.042   1.393   1.909
 8782SOL    HW127245   6.098   1.316   1.937
 8782SOL    HW227246   6.079   1.434   1.826
 8783SOL     OW27247   6.062   3.773   3.833
 8783SOL    HW127248   6.148   3.727   3.813
 8783SOL    HW227249   6.002   3.711   3.883
 8784SOL     OW27250   6.453   6.275   1.012
 8784SOL    HW127251   6.524   6.294   0.944
 8784SOL    HW227252   6.495   6.242   1.096
 8785SOL     OW27253   0.064   5.221   6.275
 8785SOL    HW127254   0.054   5.251   6.181
 8785SOL    HW227255   0.144   5.160   6.282
 8786SOL     OW27256   3.731   1.692   2.545
 8786SOL    HW127257   3.711   1.755   2.620
 8786SOL    HW227258   3.669   1.710   2.469
 8787SOL     OW27259   3.674   0.946   2.200
 8787SOL    HW127260   3.770   0.924   2.219
 8787SOL    HW227261   3.615   0.894   2.261
 8788SOL     OW27262   6.616   1.105   5.154
 8788SOL    HW127263   6.547   1.168   5.189
 8788SOL    HW227264   6.603   1.093   5.055
 8789SOL     OW27265   6.694   4.196   5.437
 8789SOL    HW127266   6.709   4.129   5.365
 8789SOL    HW227267   6.733   4.284   5.410
 8790SOL     OW27268   6.466   1.634   6.833
 8790SOL    HW127269   6.471   1.599   6.927
 8790SOL    HW227270   6.554   1.621   6.788
 8791SOL     OW27271   4.887   6.443   4.809
 8791SOL    HW127272   4.912   6.415   4.902
 8791SOL    HW227273   4.931   6.531   4.788
 8792SOL     OW27274   2.954   4.796   2.797
 8792SOL    HW127275   2.924   4.891   2.789
 8792SOL    HW227276   2.991   4.766   2.709
 8793SOL     OW27277   0.894   4.934   3.637
 8793SOL    HW127278   0.916   5.017   3.585
 8793SOL    HW227279   0.975   4.876   3.643
 8794SOL     OW27280   6.753   0.940   3.714
 8794SOL    HW127281   6.685   0.872   3.742
 8794SOL    HW227282   6.706   1.024   3.686
 8795SOL     OW27283   1.025   5.006   5.076
 8795SOL    HW127284   0.993   5.050   5.159
 8795SOL    HW227285   0.948   4.965   5.028
 8796SOL     OW27286   6.033   3.604   3.479
 8796SOL    HW127287   5.938   3.635   3.480
 8796SOL    HW227288   6.037   3.506   3.501
 8797SOL     OW27289   6.870   0.141   4.179
 8797SOL    HW127290   6.917   0.168   4.263
 8797SOL    HW227291   6.915   0.184   4.101
 8798SOL     OW27292   4.575   6.550   5.657
 8798SOL    HW127293   4.504   6.535   5.589
 8798SOL    HW227294   4.618   6.463   5.681
 8799SOL     OW27295   2.703   4.679   2.402
 8799SOL    HW127296   2.676   4.608   2.466
 8799SOL    HW227297   2.718   4.639   2.311
 8800SOL     OW27298   5.801   5.535   5.737
 8800SOL    HW127299   5.810   5.448   5.785
 8800SOL    HW227300   5.806   5.610   5.802
 8801SOL     OW27301   6.193   2.001   4.995
 8801SOL    HW127302   6.109   2.048   4.965
 8801SOL    HW227303   6.231   2.049   5.073
 8802SOL     OW27304   1.416   5.450   5.575
 8802SOL    HW127305   1.320   5.477   5.563
 8802SOL    HW227306   1.445   5.469   5.669
 8803SOL     OW27307   0.072   0.907   0.030
 8803SOL    HW127308   0.103   0.987   0.082
 8803SOL    HW227309   7.017   0.863   0.077
 8804SOL     OW27310   1.509   6.223   1.181
 8804SOL    HW127311   1.511   6.238   1.082
 8804SOL    HW227312   1.513   6.311   1.228
 8805SOL     OW27313   3.859   5.282   3.932
 8805SOL    HW127314   3.905   5.211   3.985
 8805SOL    HW227315   3.916   5.364   3.927
 8806SOL     OW27316   2.035   5.261   0.442
 8806SOL    HW127317   2.130   5.271   0.413
 8806SOL    HW227318   1.981   5.220   0.368
 8807SOL     OW27319   4.588   2.060   6.723
 8807SOL    HW127320   4.617   1.965   6.707
 8807SOL    HW227321   4.517   2.061   6.793
 8808SOL     OW27322   0.480   2.333   6.968
 8808SOL    HW127323   0.404   2.368   0.001
 8808SOL    HW227324   0.535   2.409   6.934
 8809SOL     OW27325   2.367   4.420   3.395
 8809SOL    HW127326   2.449   4.475   3.412
 8809SOL    HW227327   2.328   4.389   3.482
 8810SOL     OW27328   5.660   1.437   4.959
 8810SOL    HW127329   5.744   1.396   4.923
 8810SOL    HW227330   5.683   1.502   5.031
 8811SOL     OW27331   3.856   0.429   2.638
 8811SOL    HW127332   3.850   0.507   2.701
 8811SOL    HW227333   3.952   0.413   2.614
 8812SOL     OW27334   3.140   0.448   6.878
 8812SOL    HW127335   3.188   0.513   6.937
 8812SOL    HW227336   3.075   0.496   6.819
 8813SOL     OW27337   1.783   4.193   2.238
 8813SOL    HW127338   1.734   4.225   2.157
 8813SOL    HW227339   1.846   4.265   2.268
 8814SOL     OW27340   5.370   6.768   0.396
 8814SOL    HW127341   5.424   6.830   0.339
 8814SOL    HW227342   5.354   6.810   0.485
 8815SOL     OW27343   5.659   0.165   1.439
 8815SOL    HW127344   5.652   0.237   1.508
 8815SOL    HW227345   5.660   0.075   1.484
 8816SOL     OW27346   0.451   6.703   6.863
 8816SOL    HW127347   0.506   6.720   6.945
 8816SOL    HW227348   0.412   6.611   6.868
 8817SOL     OW27349   0.311   3.587   3.935
 8817SOL    HW127350   0.402   3.550   3.953
 8817SOL    HW227351   0.246   3.547   3.998
 8818SOL     OW27352   0.950   6.303   3.171
 8818SOL    HW127353   0.983   6.291   3.265
 8818SOL    HW227354   0.983   6.390   3.135
 8819SOL     OW27355   5.734   4.474   5.421
 8819SOL    HW127356   5.717   4.425   5.335
 8819SOL    HW227357   5.820   4.441   5.461
 8820SOL     OW27358   2.898   1.688   4.628
 8820SOL    HW127359   2.941   1.607   4.589
 8820SOL    HW227360   2.893   1.679   4.727
 8821SOL     OW27361   1.315   5.592   0.006
 8821SOL    HW127362   1.345   5.539   6.948
 8821SOL    HW227363   1.374   5.673   0.016
 8822SOL     OW27364   0.550   0.317   3.259
 8822SOL    HW127365   0.622   0.293   3.325
 8822SOL    HW227366   0.554   0.415   3.240
 8823SOL     OW27367   2.341   1.027   1.873
 8823SOL    HW127368   2.387   1.008   1.786
 8823SOL    HW227369   2.371   0.961   1.942
 8824SOL     OW27370   1.217   0.870   1.159
 8824SOL    HW127371   1.294   0.915   1.114
 8824SOL    HW227372   1.244   0.841   1.251
 8825SOL     OW27373   0.831   0.512   1.616
 8825SOL    HW127374   0.848   0.465   1.703
 8825SOL    HW227375   0.822   0.444   1.543
 8826SOL     OW27376   0.948   3.391   1.600
 8826SOL    HW127377   0.848   3.399   1.599
 8826SOL    HW227378   0.982   3.416   1.690
 8827SOL     OW27379   3.893   0.144   2.681
 8827SOL    HW127380   3.873   0.235   2.644
 8827SOL    HW227381   3.807   0.098   2.705
 8828SOL     OW27382   3.719   4.415   6.319
 8828SOL    HW127383   3.637   4.472   6.316
 8828SOL    HW227384   3.737   4.387   6.414
 8829SOL     OW27385   6.207   1.470   1.689
 8829SOL    HW127386   6.306   1.479   1.685
 8829SOL    HW227387   6.175   1.422   1.607
 8830SOL     OW27388   1.716   1.593   2.688
 8830SOL    HW127389   1.717   1.670   2.751
 8830SOL    HW227390   1.786   1.607   2.617
 8831SOL     OW27391   6.142   3.198   2.447
 8831SOL    HW127392   6.106   3.106   2.429
 8831SOL    HW227393   6.241   3.198   2.434
 8832SOL     OW27394   0.429   6.498   4.243
 8832SOL    HW127395   0.496   6.563   4.206
 8832SOL    HW227396   0.366   6.546   4.304
 8833SOL     OW27397   3.749   3.945   0.138
 8833SOL    HW127398   3.778   3.931   0.232
 8833SOL    HW227399   3.804   3.888   0.077
 8834SOL     OW27400   6.164   3.391   4.885
 8834SOL    HW127401   6.076   3.414   4.928
 8834SOL    HW227402   6.188   3.297   4.907
 8835SOL     OW27403   5.854   1.611   6.528
 8835SOL    HW127404   5.878   1.515   6.518
 8835SOL    HW227405   5.911   1.652   6.600
 8836SOL     OW27406   5.449   2.368   0.454
 8836SOL    HW127407   5.473   2.414   0.540
 8836SOL    HW227408   5.531   2.358   0.398
 8837SOL     OW27409   6.777   0.176   1.950
 8837SOL    HW127410   6.833   0.107   1.904
 8837SOL    HW227411   6.771   0.155   2.047
 8838SOL     OW27412   0.645   4.709   2.443
 8838SOL    HW127413   0.597   4.794   2.422
 8838SOL    HW227414   0.592   4.656   2.509
 8839SOL     OW27415   4.031   5.623   2.634
 8839SOL    HW127416   4.074   5.533   2.629
 8839SOL    HW227417   3.936   5.613   2.664
 8840SOL     OW27418   5.871   0.055   1.932
 8840SOL    HW127419   5.882   0.030   1.836
 8840SOL    HW227420   5.774   0.062   1.954
 8841SOL     OW27421   5.019   1.513   2.751
 8841SOL    HW127422   5.082   1.492   2.676
 8841SOL    HW227423   4.927   1.527   2.715
 8842SOL     OW27424   3.442   4.077   3.746
 8842SOL    HW127425   3.409   3.983   3.743
 8842SOL    HW227426   3.427   4.115   3.837
 8843SOL     OW27427   1.683   3.182   4.495
 8843SOL    HW127428   1.721   3.182   4.402
 8843SOL    HW227429   1.628   3.100   4.509
 8844SOL     OW27430   0.068   1.764   4.982
 8844SOL    HW127431   0.115   1.803   5.062
 8844SOL    HW227432   7.018   1.701   5.013
 8845SOL     OW27433   2.616   4.716   6.932
 8845SOL    HW127434   2.644   4.799   6.885
 8845SOL    HW227435   2.527   4.686   6.897
 8846SOL     OW27436   5.535   4.758   4.294
 8846SOL    HW127437   5.572   4.764   4.387
 8846SOL    HW227438   5.436   4.751   4.298
 8847SOL     OW27439   1.874   0.959   2.395
 8847SOL    HW127440   1.885   0.860   2.404
 8847SOL    HW227441   1.784   0.987   2.429
 8848SOL     OW27442   3.160   2.115   2.200
 8848SOL    HW127443   3.146   2.044   2.132
 8848SOL    HW227444   3.116   2.200   2.170
 8849SOL     OW27445   3.133   4.933   3.610
 8849SOL    HW127446   3.068   5.008   3.623
 8849SOL    HW227447   3.219   4.956   3.655
 8850SOL     OW27448   2.716   1.233   0.931
 8850SOL    HW127449   2.808   1.263   0.908
 8850SOL    HW227450   2.705   1.232   1.030
 8851SOL     OW27451   1.277   4.565   2.197
 8851SOL    HW127452   1.270   4.622   2.279
 8851SOL    HW227453   1.225   4.607   2.123
 8852SOL     OW27454   5.164   2.982   6.209
 8852SOL    HW127455   5.224   3.062   6.203
 8852SOL    HW227456   5.111   2.975   6.125
 8853SOL     OW27457   3.442   0.078   4.026
 8853SOL    HW127458   3.520   0.140   4.014
 8853SOL    HW227459   3.357   0.130   4.022
 8854SOL     OW27460   2.412   0.699   6.260
 8854SOL    HW127461   2.465   0.766   6.312
 8854SOL    HW227462   2.319   0.695   6.297
 8855SOL     OW27463   6.663   6.238   0.239
 8855SOL    HW127464   6.747   6.253   0.292
 8855SOL    HW227465   6.593   6.301   0.271
 8856SOL     OW27466   6.482   6.821   5.562
 8856SOL    HW127467   6.404   6.766   5.532
 8856SOL    HW227468   6.495   6.898   5.499
 8857SOL     OW27469   6.168   1.685   3.801
 8857SOL    HW127470   6.177   1.719   3.707
 8857SOL    HW227471   6.166   1.585   3.800
 8858SOL     OW27472   2.197   3.225   5.556
 8858SOL    HW127473   2.103   3.256   5.541
 8858SOL    HW227474   2.235   3.272   5.636
 8859SOL     OW27475   0.414   0.044   5.539
 8859SOL    HW127476   0.321   0.081   5.542
 8859SOL    HW227477   0.477   0.107   5.584
 8860SOL     OW27478   1.541   3.618   2.871
 8860SOL    HW127479   1.466   3.562   2.906
 8860SOL    HW227480   1.539   3.708   2.915
 8861SOL     OW27481   3.167   2.136   6.330
 8861SOL    HW127482   3.080   2.121   6.375
 8861SOL    HW227483   3.156   2.206   6.259
 8862SOL     OW27484   6.386   1.355   3.625
 8862SOL    HW127485   6.296   1.381   3.661
 8862SOL    HW227486   6.404   1.259   3.647
 8863SOL     OW27487   1.404   5.407   4.659
 8863SOL    HW127488   1.367   5.495   4.630
 8863SOL    HW227489   1.455   5.419   4.744
 8864SOL     OW27490   2.464   3.421   6.458
 8864SOL    HW127491   2.492   3.329   6.485
 8864SOL    HW227492   2.366   3.432   6.474
 8865SOL     OW27493   3.103   1.772   5.045
 8865SOL    HW127494   3.109   1.757   4.946
 8865SOL    HW227495   3.085   1.868   5.063
 8866SOL     OW27496   4.978   6.835   4.289
 8866SOL    HW127497   5.042   6.794   4.355
 8866SOL    HW227498   4.900   6.774   4.277
 8867SOL     OW27499   4.948   2.646   2.901
 8867SOL    HW127500   4.963   2.653   2.802
 8867SOL    HW227501   4.878   2.712   2.929
 8868SOL     OW27502   5.870   4.026   0.855
 8868SOL    HW127503   5.888   3.971   0.774
 8868SOL    HW227504   5.936   4.004   0.926
 8869SOL     OW27505   4.158   5.316   3.585
 8869SOL    HW127506   4.235   5.257   3.610
 8869SOL    HW227507   4.190   5.392   3.529
 8870SOL     OW27508   3.474   6.907   0.526
 8870SOL    HW127509   3.414   6.944   0.454
 8870SOL    HW227510   3.428   6.833   0.573
 8871SOL     OW27511   3.576   1.309   3.955
 8871SOL    HW127512   3.584   1.408   3.948
 8871SOL    HW227513   3.520   1.275   3.879
 8872SOL     OW27514   1.582   4.090   4.202
 8872SOL    HW127515   1.555   4.106   4.107
 8872SOL    HW227516   1.502   4.098   4.261
 8873SOL     OW27517   6.360   6.086   1.639
 8873SOL    HW127518   6.296   6.160   1.617
 8873SOL    HW227519   6.318   6.025   1.706
 8874SOL     OW27520   1.867   0.102   1.241
 8874SOL    HW127521   1.799   0.116   1.313
 8874SOL    HW227522   1.829   0.043   1.170
 8875SOL     OW27523   1.408   2.689   4.723
 8875SOL    HW127524   1.471   2.679   4.646
 8875SOL    HW227525   1.401   2.602   4.772
 8876SOL     OW27526   0.833   0.065   4.587
 8876SOL    HW127527   0.794   0.114   4.665
 8876SOL    HW227528   0.919   0.108   4.559
 8877SOL     OW27529   3.150   0.446   4.693
 8877SOL    HW127530   3.209   0.389   4.750
 8877SOL    HW227531   3.204   0.515   4.647
 8878SOL     OW27532   0.879   5.249   0.366
 8878SOL    HW127533   0.815   5.285   0.299
 8878SOL    HW227534   0.835   5.245   0.456
 8879SOL     OW27535   6.163   5.311   1.313
 8879SOL    HW127536   6.116   5.336   1.228
 8879SOL    HW227537   6.112   5.239   1.359
 8880SOL     OW27538   0.173   5.578   4.419
 8880SOL    HW127539   0.184   5.674   4.446
 8880SOL    HW227540   0.137   5.525   4.497
 8881SOL     OW27541   5.688   0.042   3.916
 8881SOL    HW127542   5.631   0.080   3.844
 8881SOL    HW227543   5.784   0.062   3.898
 8882SOL     OW27544   5.192   1.484   0.554
 8882SOL    HW127545   5.189   1.558   0.620
 8882SOL    HW227546   5.175   1.397   0.600
 8883SOL     OW27547   0.644   1.277   5.688
 8883SOL    HW127548   0.675   1.371   5.699
 8883SOL    HW227549   0.611   1.242   5.775
 8884SOL     OW27550   5.898   6.313   6.528
 8884SOL    HW127551   5.831   6.334   6.599
 8884SOL    HW227552   5.952   6.234   6.556
 8885SOL     OW27553   6.701   4.035   1.501
 8885SOL    HW127554   6.775   4.100   1.516
 8885SOL    HW227555   6.738   3.951   1.461
 8886SOL     OW27556   3.324   6.082   5.909
 8886SOL    HW127557   3.418   6.067   5.879
 8886SOL    HW227558   3.271   5.997   5.902
 8887SOL     OW27559   3.076   1.699   1.156
 8887SOL    HW127560   3.064   1.787   1.202
 8887SOL    HW227561   3.009   1.633   1.191
 8888SOL     OW27562   0.554   1.831   1.503
 8888SOL    HW127563   0.479   1.811   1.566
 8888SOL    HW227564   0.580   1.749   1.454
 8889SOL     OW27565   5.307   6.305   5.870
 8889SOL    HW127566   5.251   6.223   5.868
 8889SOL    HW227567   5.361   6.311   5.786
 8890SOL     OW27568   6.604   6.167   4.641
 8890SOL    HW127569   6.589   6.266   4.641
 8890SOL    HW227570   6.641   6.139   4.552
 8891SOL     OW27571   6.203   3.406   6.463
 8891SOL    HW127572   6.163   3.467   6.531
 8891SOL    HW227573   6.298   3.385   6.488
 8892SOL     OW27574   3.192   5.997   3.560
 8892SOL    HW127575   3.232   5.952   3.640
 8892SOL    HW227576   3.093   5.987   3.562
 8893SOL     OW27577   1.123   0.624   1.716
 8893SOL    HW127578   1.066   0.706   1.704
 8893SOL    HW227579   1.170   0.604   1.629
 8894SOL     OW27580   3.872   3.333   5.324
 8894SOL    HW127581   3.810   3.394   5.373
 8894SOL    HW227582   3.902   3.260   5.386
 8895SOL     OW27583   6.763   1.289   1.982
 8895SOL    HW127584   6.702   1.231   2.035
 8895SOL    HW227585   6.757   1.265   1.885
 8896SOL     OW27586   1.603   3.431   4.572
 8896SOL    HW127587   1.614   3.333   4.555
 8896SOL    HW227588   1.692   3.473   4.587
 8897SOL     OW27589   1.673   1.847   2.791
 8897SOL    HW127590   1.736   1.919   2.820
 8897SOL    HW227591   1.638   1.868   2.700
 8898SOL     OW27592   5.921   3.444   4.557
 8898SOL    HW127593   6.003   3.498   4.574
 8898SOL    HW227594   5.936   3.349   4.586
 8899SOL     OW27595   1.440   4.335   0.237
 8899SOL    HW127596   1.512   4.367   0.298
 8899SOL    HW227597   1.444   4.385   0.151
 8900SOL     OW27598   5.613   3.940   3.149
 8900SOL    HW127599   5.708   3.926   3.175
 8900SOL    HW227600   5.571   3.852   3.125
 8901SOL     OW27601   2.875   0.922   4.317
 8901SOL    HW127602   2.787   0.959   4.288
 8901SOL    HW227603   2.896   0.956   4.409
 8902SOL     OW27604   3.162   6.016   7.008
 8902SOL    HW127605   3.091   6.003   0.056
 8902SOL    HW227606   3.125   5.995   6.917
 8903SOL     OW27607   2.071   1.065   4.245
 8903SOL    HW127608   2.079   1.034   4.340
 8903SOL    HW227609   2.021   0.996   4.192
 8904SOL     OW27610   6.782   5.029   3.800
 8904SOL    HW127611   6.783   4.947   3.742
 8904SOL    HW227612   6.706   5.088   3.771
 8905SOL     OW27613   2.210   4.006   4.653
 8905SOL    HW127614   2.300   4.013   4.695
 8905SOL    HW227615   2.139   4.025   4.721
 8906SOL     OW27616   6.807   6.926   6.789
 8906SOL    HW127617   6.883   6.984   6.817
 8906SOL    HW227618   6.765   6.884   6.870
 8907SOL     OW27619   3.543   2.053   4.746
 8907SOL    HW127620   3.533   1.957   4.772
 8907SOL    HW227621   3.465   2.105   4.781
 8908SOL     OW27622   1.628   2.727   0.047
 8908SOL    HW127623   1.674   2.686   0.125
 8908SOL    HW227624   1.696   2.759   7.002
 8909SOL     OW27625   2.322   0.584   5.033
 8909SOL    HW127626   2.222   0.574   5.037
 8909SOL    HW227627   2.363   0.498   5.002
 8910SOL     OW27628   2.200   3.507   6.288
 8910SOL    HW127629   2.277   3.528   6.228
 8910SOL    HW227630   2.131   3.456   6.236
 8911SOL     OW27631   3.947   2.075   4.805
 8911SOL    HW127632   3.863   2.058   4.857
 8911SOL    HW227633   4.016   2.114   4.866
 8912SOL     OW27634   3.991   1.427   6.490
 8912SOL    HW127635   3.920   1.484   6.451
 8912SOL    HW227636   3.954   1.336   6.509
 8913SOL     OW27637   4.387   5.032   0.762
 8913SOL    HW127638   4.316   5.007   0.696
 8913SOL    HW227639   4.452   4.957   0.771
 8914SOL     OW27640   4.240   0.788   5.592
 8914SOL    HW127641   4.340   0.794   5.586
 8914SOL    HW227642   4.200   0.878   5.576
 8915SOL     OW27643   1.192   2.786   3.824
 8915SOL    HW127644   1.157   2.862   3.879
 8915SOL    HW227645   1.172   2.803   3.728
 8916SOL     OW27646   0.186   3.709   2.174
 8916SOL    HW127647   0.250   3.653   2.122
 8916SOL    HW227648   0.135   3.768   2.112
 8917SOL     OW27649   5.550   4.857   6.265
 8917SOL    HW127650   5.488   4.923   6.307
 8917SOL    HW227651   5.574   4.787   6.332
 8918SOL     OW27652   6.835   5.852   0.854
 8918SOL    HW127653   6.741   5.823   0.869
 8918SOL    HW227654   6.888   5.775   0.818
 8919SOL     OW27655   4.269   3.415   0.688
 8919SOL    HW127656   4.171   3.406   0.669
 8919SOL    HW227657   4.318   3.435   0.603
 8920SOL     OW27658   6.925   6.503   6.513
 8920SOL    HW127659   6.988   6.546   6.448
 8920SOL    HW227660   6.835   6.544   6.503
 8921SOL     OW27661   2.324   1.804   3.223
 8921SOL    HW127662   2.277   1.879   3.177
 8921SOL    HW227663   2.394   1.766   3.163
 8922SOL     OW27664   2.648   4.721   1.555
 8922SOL    HW127665   2.623   4.739   1.650
 8922SOL    HW227666   2.584   4.654   1.516
 8923SOL     OW27667   1.586   3.417   6.188
 8923SOL    HW127668   1.680   3.451   6.191
 8923SOL    HW227669   1.547   3.433   6.097
 8924SOL     OW27670   3.159   5.467   6.010
 8924SOL    HW127671   3.198   5.528   5.942
 8924SOL    HW227672   3.063   5.491   6.025
 8925SOL     OW27673   1.038   0.480   1.929
 8925SOL    HW127674   1.094   0.482   2.011
 8925SOL    HW227675   1.075   0.544   1.861
 8926SOL     OW27676   5.971   3.338   0.431
 8926SOL    HW127677   6.005   3.367   0.341
 8926SOL    HW227678   5.876   3.309   0.423
 8927SOL     OW27679   1.525   2.018   4.935
 8927SOL    HW127680   1.512   2.020   5.034
 8927SOL    HW227681   1.593   2.087   4.909
 8928SOL     OW27682   6.827   0.922   5.211
 8928SOL    HW127683   6.755   0.983   5.180
 8928SOL    HW227684   6.907   0.932   5.153
 8929SOL     OW27685   0.535   3.794   3.527
 8929SOL    HW127686   0.503   3.768   3.436
 8929SOL    HW227687   0.459   3.791   3.592
 8930SOL     OW27688   1.905   4.821   4.874
 8930SOL    HW127689   1.909   4.775   4.963
 8930SOL    HW227690   1.997   4.838   4.840
 8931SOL     OW27691   3.552   2.778   0.425
 8931SOL    HW127692   3.615   2.722   0.371
 8931SOL    HW227693   3.575   2.875   0.412
 8932SOL     OW27694   5.470   0.266   6.699
 8932SOL    HW127695   5.554   0.214   6.712
 8932SOL    HW227696   5.445   0.265   6.602
 8933SOL     OW27697   1.043   2.128   5.469
 8933SOL    HW127698   0.960   2.075   5.453
 8933SOL    HW227699   1.121   2.080   5.428
 8934SOL     OW27700   2.491   5.634   4.148
 8934SOL    HW127701   2.557   5.707   4.164
 8934SOL    HW227702   2.533   5.563   4.090
 8935SOL     OW27703   5.103   3.978   1.841
 8935SOL    HW127704   5.051   4.041   1.898
 8935SOL    HW227705   5.046   3.898   1.819
 8936SOL     OW27706   0.567   3.680   0.756
 8936SOL    HW127707   0.522   3.728   0.831
 8936SOL    HW227708   0.549   3.582   0.764
 8937SOL     OW27709   0.303   0.832   4.174
 8937SOL    HW127710   0.374   0.840   4.244
 8937SOL    HW227711   0.213   0.839   4.217
 8938SOL     OW27712   6.974   1.401   0.485
 8938SOL    HW127713   0.046   1.427   0.511
 8938SOL    HW227714   6.955   1.308   0.515
 8939SOL     OW27715   6.390   2.843   4.907
 8939SOL    HW127716   6.414   2.859   4.811
 8939SOL    HW227717   6.322   2.909   4.936
 8940SOL     OW27718   5.559   2.047   0.411
 8940SOL    HW127719   5.559   1.973   0.478
 8940SOL    HW227720   5.554   2.135   0.457
 8941SOL     OW27721   4.867   2.173   1.843
 8941SOL    HW127722   4.780   2.220   1.857
 8941SOL    HW227723   4.869   2.133   1.751
 8942SOL     OW27724   0.697   5.210   4.142
 8942SOL    HW127725   0.747   5.146   4.083
 8942SOL    HW227726   0.668   5.289   4.088
 8943SOL     OW27727   4.559   4.679   0.082
 8943SOL    HW127728   4.573   4.745   0.008
 8943SOL    HW227729   4.486   4.616   0.057
 8944SOL     OW27730   4.836   4.917   4.714
 8944SOL    HW127731   4.748   4.886   4.750
 8944SOL    HW227732   4.906   4.907   4.785
 8945SOL     OW27733   0.039   2.348   4.581
 8945SOL    HW127734   0.039   2.288   4.662
 8945SOL    HW227735   0.132   2.381   4.565
 8946SOL     OW27736   3.465   0.183   4.286
 8946SOL    HW127737   3.540   0.239   4.320
 8946SOL    HW227738   3.486   0.151   4.194
 8947SOL     OW27739   1.818   3.581   6.205
 8947SOL    HW127740   1.861   3.605   6.117
 8947SOL    HW227741   1.790   3.664   6.252
 8948SOL     OW27742   6.533   5.827   3.438
 8948SOL    HW127743   6.474   5.762   3.391
 8948SOL    HW227744   6.569   5.893   3.372
 8949SOL     OW27745   3.689   5.920   0.058
 8949SOL    HW127746   3.590   5.906   0.065
 8949SOL    HW227747   3.726   5.856   7.011
 8950SOL     OW27748   4.433   3.635   1.307
 8950SOL    HW127749   4.386   3.679   1.384
 8950SOL    HW227750   4.411   3.537   1.307
 8951SOL     OW27751   2.364   1.497   4.260
 8951SOL    HW127752   2.374   1.399   4.277
 8951SOL    HW227753   2.277   1.515   4.214
 8952SOL     OW27754   2.309   5.339   3.075
 8952SOL    HW127755   2.311   5.346   2.975
 8952SOL    HW227756   2.312   5.243   3.102
 8953SOL     OW27757   2.069   4.792   1.328
 8953SOL    HW127758   2.121   4.838   1.256
 8953SOL    HW227759   2.130   4.770   1.404
 8954SOL     OW27760   0.304   6.236   3.738
 8954SOL    HW127761   0.245   6.316   3.740
 8954SOL    HW227762   0.400   6.265   3.744
 8955SOL     OW27763   6.984   2.978   2.319
 8955SOL    HW127764   7.012   2.888   2.286
 8955SOL    HW227765   6.898   2.971   2.368
 8956SOL     OW27766   0.488   0.432   6.413
 8956SOL    HW127767   0.530   0.342   6.404
 8956SOL    HW227768   0.391   0.421   6.438
 8957SOL     OW27769   1.649   4.905   1.648
 8957SOL    HW127770   1.636   4.851   1.565
 8957SOL    HW227771   1.707   4.984   1.628
 8958SOL     OW27772   1.326   2.631   5.061
 8958SOL    HW127773   1.416   2.661   5.028
 8958SOL    HW227774   1.321   2.531   5.056
 8959SOL     OW27775   1.070   3.421   2.421
 8959SOL    HW127776   1.021   3.335   2.437
 8959SOL    HW227777   1.062   3.479   2.503
 8960SOL     OW27778   6.837   4.847   4.128
 8960SOL    HW127779   6.886   4.832   4.042
 8960SOL    HW227780   6.890   4.810   4.204
 8961SOL     OW27781   4.031   0.915   3.963
 8961SOL    HW127782   4.091   0.995   3.957
 8961SOL    HW227783   4.076   0.837   3.917
 8962SOL     OW27784   6.916   6.139   1.743
 8962SOL    HW127785   6.914   6.239   1.746
 8962SOL    HW227786   6.984   6.109   1.675
 8963SOL     OW27787   3.708   6.223   4.781
 8963SOL    HW127788   3.732   6.283   4.857
 8963SOL    HW227789   3.709   6.274   4.695
 8964SOL     OW27790   4.797   4.154   3.215
 8964SOL    HW127791   4.730   4.187   3.282
 8964SOL    HW227792   4.762   4.169   3.123
 8965SOL     OW27793   3.700   5.003   0.435
 8965SOL    HW127794   3.644   4.940   0.381
 8965SOL    HW227795   3.792   5.008   0.396
 8966SOL     OW27796   6.481   4.822   6.409
 8966SOL    HW127797   6.519   4.817   6.502
 8966SOL    HW227798   6.539   4.880   6.352
 8967SOL     OW27799   4.247   0.790   2.834
 8967SOL    HW127800   4.181   0.723   2.868
 8967SOL    HW227801   4.336   0.747   2.823
 8968SOL     OW27802   2.855   4.817   1.338
 8968SOL    HW127803   2.794   4.788   1.411
 8968SOL    HW227804   2.935   4.862   1.377
 8969SOL     OW27805   0.535   0.609   3.239
 8969SOL    HW127806   0.568   0.698   3.270
 8969SOL    HW227807   0.447   0.589   3.283
 8970SOL     OW27808   1.222   2.464   6.929
 8970SOL    HW127809   1.311   2.478   6.886
 8970SOL    HW227810   1.221   2.376   6.976
 8971SOL     OW27811   4.470   6.613   1.617
 8971SOL    HW127812   4.446   6.553   1.693
 8971SOL    HW227813   4.485   6.706   1.651
 8972SOL     OW27814   5.171   4.617   0.489
 8972SOL    HW127815   5.240   4.545   0.485
 8972SOL    HW227816   5.156   4.643   0.584
 8973SOL     OW27817   0.220   2.730   2.663
 8973SOL    HW127818   0.290   2.685   2.718
 8973SOL    HW227819   0.197   2.671   2.585
 8974SOL     OW27820   2.211   3.845   3.815
 8974SOL    HW127821   2.246   3.894   3.895
 8974SOL    HW227822   2.210   3.905   3.736
 8975SOL     OW27823   0.173   6.965   0.176
 8975SOL    HW127824   0.223   0.025   0.145
 8975SOL    HW227825   0.075   6.985   0.177
 8976SOL     OW27826   6.651   6.343   0.750
 8976SOL    HW127827   6.692   6.264   0.705
 8976SOL    HW227828   6.723   6.405   0.782
 8977SOL     OW27829   6.998   4.792   6.340
 8977SOL    HW127830   6.946   4.743   6.410
 8977SOL    HW227831   0.046   4.731   6.301
 8978SOL     OW27832   5.516   6.248   4.697
 8978SOL    HW127833   5.483   6.227   4.605
 8978SOL    HW227834   5.577   6.327   4.694
 8979SOL     OW27835   1.104   5.505   6.322
 8979SOL    HW127836   1.029   5.440   6.311
 8979SOL    HW227837   1.068   5.590   6.362
 8980SOL     OW27838   4.976   1.891   5.670
 8980SOL    HW127839   5.036   1.965   5.703
 8980SOL    HW227840   5.030   1.807   5.659
 8981SOL     OW27841   4.887   2.394   5.718
 8981SOL    HW127842   4.955   2.417   5.649
 8981SOL    HW227843   4.932   2.346   5.794
 8982SOL     OW27844   6.780   1.944   1.861
 8982SOL    HW127845   6.730   1.991   1.788
 8982SOL    HW227846   6.729   1.954   1.947
 8983SOL     OW27847   1.351   5.297   1.160
 8983SOL    HW127848   1.334   5.384   1.207
 8983SOL    HW227849   1.440   5.261   1.187
 8984SOL     OW27850   6.148   0.194   4.453
 8984SOL    HW127851   6.213   0.265   4.480
 8984SOL    HW227852   6.129   0.135   4.531
 8985SOL     OW27853   4.134   2.327   1.120
 8985SOL    HW127854   4.214   2.276   1.089
 8985SOL    HW227855   4.097   2.284   1.202
 8986SOL     OW27856   5.524   4.224   2.266
 8986SOL    HW127857   5.485   4.132   2.270
 8986SOL    HW227858   5.491   4.277   2.344
 8987SOL     OW27859   3.091   0.627   1.228
 8987SOL    HW127860   3.002   0.634   1.183
 8987SOL    HW227861   3.079   0.614   1.326
 8988SOL     OW27862   1.922   5.106   0.258
 8988SOL    HW127863   1.926   5.143   0.165
 8988SOL    HW227864   1.924   5.006   0.255
 8989SOL     OW27865   4.892   3.133   2.920
 8989SOL    HW127866   4.944   3.047   2.926
 8989SOL    HW227867   4.838   3.145   3.003
 8990SOL     OW27868   2.379   6.341   1.145
 8990SOL    HW127869   2.469   6.359   1.106
 8990SOL    HW227870   2.339   6.261   1.100
 8991SOL     OW27871   2.470   2.276   1.574
 8991SOL    HW127872   2.561   2.316   1.586
 8991SOL    HW227873   2.421   2.328   1.504
 8992SOL     OW27874   0.411   3.448   0.741
 8992SOL    HW127875   0.371   3.387   0.810
 8992SOL    HW227876   0.343   3.515   0.712
 8993SOL     OW27877   5.003   2.312   3.263
 8993SOL    HW127878   4.910   2.294   3.231
 8993SOL    HW227879   5.041   2.389   3.213
 8994SOL     OW27880   2.007   5.039   4.374
 8994SOL    HW127881   2.036   5.099   4.448
 8994SOL    HW227882   2.057   5.062   4.290
 8995SOL     OW27883   1.366   2.294   5.329
 8995SOL    HW127884   1.402   2.360   5.394
 8995SOL    HW227885   1.346   2.208   5.376
 8996SOL     OW27886   0.805   3.710   1.726
 8996SOL    HW127887   0.859   3.657   1.791
 8996SOL    HW227888   0.789   3.802   1.762
 8997SOL     OW27889   5.445   1.038   6.451
 8997SOL    HW127890   5.438   0.953   6.397
 8997SOL    HW227891   5.508   1.100   6.405
 8998SOL     OW27892   0.256   1.892   5.184
 8998SOL    HW127893   0.348   1.898   5.145
 8998SOL    HW227894   0.246   1.962   5.256
 8999SOL     OW27895   5.023   0.974   6.062
 8999SOL    HW127896   5.024   1.000   5.965
 8999SOL    HW227897   4.946   1.018   6.107
 9000SOL     OW27898   2.402   4.377   6.398
 9000SOL    HW127899   2.363   4.319   6.326
 9000SOL    HW227900   2.332   4.394   6.467
 9001SOL     OW27901   1.005   4.437   2.664
 9001SOL    HW127902   1.041   4.525   2.696
 9001SOL    HW227903   0.907   4.445   2.647
 9002SOL     OW27904   6.959   5.460   5.750
 9002SOL    HW127905   6.920   5.440   5.840
 9002SOL    HW227906   0.011   5.528   5.760
 9003SOL     OW27907   6.163   2.319   0.875
 9003SOL    HW127908   6.109   2.250   0.923
 9003SOL    HW227909   6.261   2.299   0.888
 9004SOL     OW27910   5.056   6.794   1.861
 9004SOL    HW127911   5.095   6.742   1.937
 9004SOL    HW227912   5.084   6.890   1.870
 9005SOL     OW27913   5.201   2.488   3.569
 9005SOL    HW127914   5.134   2.416   3.548
 9005SOL    HW227915   5.189   2.519   3.663
 9006SOL     OW27916   0.878   5.679   1.191
 9006SOL    HW127917   0.934   5.756   1.221
 9006SOL    HW227918   0.935   5.599   1.177
 9007SOL     OW27919   3.279   5.433   3.541
 9007SOL    HW127920   3.373   5.464   3.527
 9007SOL    HW227921   3.216   5.499   3.499
 9008SOL     OW27922   6.162   5.026   2.364
 9008SOL    HW127923   6.120   5.020   2.455
 9008SOL    HW227924   6.237   4.961   2.358
 9009SOL     OW27925   2.894   6.676   1.020
 9009SOL    HW127926   2.860   6.685   1.114
 9009SOL    HW227927   2.987   6.640   1.022
 9010SOL     OW27928   1.140   6.554   5.044
 9010SOL    HW127929   1.053   6.509   5.024
 9010SOL    HW227930   1.134   6.650   5.019
 9011SOL     OW27931   3.682   2.378   1.448
 9011SOL    HW127932   3.753   2.353   1.514
 9011SOL    HW227933   3.595   2.338   1.477
 9012SOL     OW27934   1.762   5.523   0.724
 9012SOL    HW127935   1.729   5.580   0.649
 9012SOL    HW227936   1.853   5.488   0.703
 9013SOL     OW27937   6.278   5.446   4.534
 9013SOL    HW127938   6.362   5.395   4.518
 9013SOL    HW227939   6.270   5.520   4.467
 9014SOL     OW27940   1.263   1.473   0.428
 9014SOL    HW127941   1.265   1.490   0.527
 9014SOL    HW227942   1.320   1.394   0.407
 9015SOL     OW27943   6.779   1.514   6.993
 9015SOL    HW127944   6.778   1.529   6.894
 9015SOL    HW227945   6.753   1.419   7.013
 9016SOL     OW27946   6.595   6.258   5.757
 9016SOL    HW127947   6.531   6.189   5.724
 9016SOL    HW227948   6.547   6.321   5.819
 9017SOL     OW27949   5.924   2.287   3.479
 9017SOL    HW127950   5.921   2.365   3.542
 9017SOL    HW227951   6.012   2.287   3.431
 9018SOL     OW27952   3.684   1.536   5.314
 9018SOL    HW127953   3.589   1.540   5.284
 9018SOL    HW227954   3.724   1.627   5.313
 9019SOL     OW27955   1.802   0.033   0.067
 9019SOL    HW127956   1.767   6.972   0.114
 9019SOL    HW227957   1.784   0.025   6.990
 9020SOL     OW27958   1.834   3.930   2.185
 9020SOL    HW127959   1.804   4.025   2.179
 9020SOL    HW227960   1.817   3.895   2.277
 9021SOL     OW27961   6.777   6.297   3.994
 9021SOL    HW127962   6.793   6.312   3.897
 9021SOL    HW227963   6.706   6.359   4.027
 9022SOL     OW27964   2.680   0.598   0.484
 9022SOL    HW127965   2.595   0.547   0.498
 9022SOL    HW227966   2.685   0.674   0.548
 9023SOL     OW27967   4.077   3.268   3.567
 9023SOL    HW127968   4.170   3.244   3.541
 9023SOL    HW227969   4.068   3.368   3.569
 9024SOL     OW27970   1.741   6.049   6.136
 9024SOL    HW127971   1.654   6.077   6.176
 9024SOL    HW227972   1.725   5.973   6.072
 9025SOL     OW27973   6.268   5.930   1.837
 9025SOL    HW127974   6.180   5.964   1.803
 9025SOL    HW227975   6.284   5.838   1.800
 9026SOL     OW27976   3.565   3.237   3.973
 9026SOL    HW127977   3.543   3.151   4.020
 9026SOL    HW227978   3.631   3.219   3.900
 9027SOL     OW27979   2.385   1.597   3.635
 9027SOL    HW127980   2.300   1.598   3.689
 9027SOL    HW227981   2.369   1.546   3.551
 9028SOL     OW27982   2.031   4.310   6.473
 9028SOL    HW127983   2.023   4.370   6.553
 9028SOL    HW227984   1.949   4.318   6.417
 9029SOL     OW27985   3.877   5.288   4.690
 9029SOL    HW127986   3.954   5.238   4.651
 9029SOL    HW227987   3.836   5.347   4.620
 9030SOL     OW27988   1.598   0.460   2.509
 9030SOL    HW127989   1.598   0.547   2.459
 9030SOL    HW227990   1.514   0.452   2.561
 9031SOL     OW27991   2.839   5.167   5.760
 9031SOL    HW127992   2.917   5.207   5.807
 9031SOL    HW227993   2.857   5.071   5.740
 9032SOL     OW27994   3.557   3.055   0.831
 9032SOL    HW127995   3.552   2.956   0.815
 9032SOL    HW227996   3.603   3.072   0.919
 9033SOL     OW27997   1.964   3.228   4.120
 9033SOL    HW127998   2.001   3.316   4.150
 9033SOL    HW227999   2.005   3.203   4.032
 9034SOL     OW28000   2.507   6.519   5.125
 9034SOL    HW128001   2.582   6.580   5.148
 9034SOL    HW228002   2.527   6.427   5.159
 9035SOL     OW28003   0.608   6.873   5.622
 9035SOL    HW128004   0.598   6.858   5.720
 9035SOL    HW228005   0.527   6.921   5.587
 9036SOL     OW28006   2.460   2.258   5.502
 9036SOL    HW128007   2.374   2.287   5.460
 9036SOL    HW228008   2.505   2.336   5.545
 9037SOL     OW28009   1.868   3.715   6.622
 9037SOL    HW128010   1.957   3.720   6.576
 9037SOL    HW228011   1.867   3.777   6.700
 9038SOL     OW28012   5.707   0.977   6.202
 9038SOL    HW128013   5.635   1.032   6.159
 9038SOL    HW228014   5.780   1.037   6.235
 9039SOL     OW28015   2.093   4.472   5.220
 9039SOL    HW128016   2.189   4.453   5.198
 9039SOL    HW228017   2.083   4.482   5.319
 9040SOL     OW28018   2.793   0.914   3.421
 9040SOL    HW128019   2.803   0.905   3.520
 9040SOL    HW228020   2.855   0.986   3.388
 9041SOL     OW28021   0.749   1.526   2.124
 9041SOL    HW128022   0.837   1.503   2.165
 9041SOL    HW228023   0.693   1.443   2.114
 9042SOL     OW28024   2.624   6.485   3.773
 9042SOL    HW128025   2.648   6.452   3.864
 9042SOL    HW228026   2.691   6.554   3.745
 9043SOL     OW28027   2.166   1.812   5.874
 9043SOL    HW128028   2.111   1.761   5.809
 9043SOL    HW228029   2.256   1.769   5.884
 9044SOL     OW28030   6.338   0.956   0.575
 9044SOL    HW128031   6.267   1.017   0.539
 9044SOL    HW228032   6.354   0.979   0.671
 9045SOL     OW28033   3.733   1.078   2.488
 9045SOL    HW128034   3.643   1.048   2.521
 9045SOL    HW228035   3.728   1.174   2.461
 9046SOL     OW28036   3.596   3.928   5.256
 9046SOL    HW128037   3.529   3.978   5.200
 9046SOL    HW228038   3.664   3.886   5.196
 9047SOL     OW28039   1.791   4.273   5.400
 9047SOL    HW128040   1.861   4.248   5.333
 9047SOL    HW228041   1.798   4.213   5.480
 9048SOL     OW28042   0.922   3.599   5.942
 9048SOL    HW128043   0.835   3.550   5.946
 9048SOL    HW228044   0.994   3.540   5.978
 9049SOL     OW28045   4.882   6.268   6.818
 9049SOL    HW128046   4.841   6.193   6.870
 9049SOL    HW228047   4.809   6.326   6.782
 9050SOL     OW28048   1.362   5.279   6.664
 9050SOL    HW128049   1.397   5.359   6.714
 9050SOL    HW228050   1.335   5.307   6.572
 9051SOL     OW28051   4.556   6.039   1.107
 9051SOL    HW128052   4.517   6.042   1.199
 9051SOL    HW228053   4.564   5.944   1.077
 9052SOL     OW28054   2.932   4.973   4.668
 9052SOL    HW128055   2.869   5.047   4.691
 9052SOL    HW228056   2.928   4.956   4.569
 9053SOL     OW28057   2.641   2.083   3.868
 9053SOL    HW128058   2.666   2.178   3.889
 9053SOL    HW228059   2.664   2.063   3.773
 9054SOL     OW28060   1.889   0.691   2.120
 9054SOL    HW128061   1.953   0.763   2.094
 9054SOL    HW228062   1.915   0.653   2.209
 9055SOL     OW28063   0.660   4.306   3.184
 9055SOL    HW128064   0.561   4.292   3.183
 9055SOL    HW228065   0.683   4.387   3.131
 9056SOL     OW28066   4.896   0.579   1.395
 9056SOL    HW128067   4.951   0.662   1.406
 9056SOL    HW228068   4.928   0.529   1.313
 9057SOL     OW28069   6.434   4.736   5.882
 9057SOL    HW128070   6.342   4.767   5.858
 9057SOL    HW228071   6.492   4.737   5.801
 9058SOL     OW28072   2.103   1.904   4.462
 9058SOL    HW128073   2.008   1.890   4.493
 9058SOL    HW228074   2.155   1.820   4.476
 9059SOL     OW28075   6.796   0.640   2.923
 9059SOL    HW128076   6.756   0.566   2.977
 9059SOL    HW228077   6.827   0.713   2.983
 9060SOL     OW28078   6.382   3.607   2.853
 9060SOL    HW128079   6.375   3.542   2.777
 9060SOL    HW228080   6.478   3.633   2.865
 9061SOL     OW28081   4.335   5.443   3.106
 9061SOL    HW128082   4.418   5.387   3.097
 9061SOL    HW228083   4.360   5.539   3.100
 9062SOL     OW28084   1.013   5.078   1.631
 9062SOL    HW128085   0.953   5.102   1.708
 9062SOL    HW228086   1.005   4.980   1.613
 9063SOL     OW28087   3.408   0.866   2.057
 9063SOL    HW128088   3.425   0.902   1.966
 9063SOL    HW228089   3.347   0.927   2.107
 9064SOL     OW28090   6.123   4.363   4.271
 9064SOL    HW128091   6.217   4.373   4.240
 9064SOL    HW228092   6.091   4.450   4.309
 9065SOL     OW28093   2.915   6.096   5.699
 9065SOL    HW128094   2.867   6.023   5.650
 9065SOL    HW228095   2.951   6.162   5.633
 9066SOL     OW28096   6.554   0.280   6.161
 9066SOL    HW128097   6.584   0.192   6.124
 9066SOL    HW228098   6.615   0.352   6.129
 9067SOL     OW28099   6.570   6.135   4.333
 9067SOL    HW128100   6.669   6.141   4.351
 9067SOL    HW228101   6.551   6.050   4.284
 9068SOL     OW28102   3.631   6.706   5.181
 9068SOL    HW128103   3.584   6.755   5.108
 9068SOL    HW228104   3.721   6.748   5.196
 9069SOL     OW28105   4.549   2.019   2.825
 9069SOL    HW128106   4.467   1.984   2.779
 9069SOL    HW228107   4.542   2.003   2.923
 9070SOL     OW28108   1.728   2.282   6.412
 9070SOL    HW128109   1.700   2.378   6.407
 9070SOL    HW228110   1.781   2.268   6.496
 9071SOL     OW28111   4.968   0.336   6.451
 9071SOL    HW128112   4.974   0.397   6.372
 9071SOL    HW228113   5.050   0.347   6.508
 9072SOL     OW28114   5.258   6.634   1.365
 9072SOL    HW128115   5.171   6.629   1.415
 9072SOL    HW228116   5.271   6.726   1.329
 9073SOL     OW28117   3.817   6.227   1.539
 9073SOL    HW128118   3.727   6.223   1.583
 9073SOL    HW228119   3.809   6.272   1.450
 9074SOL     OW28120   1.562   0.671   1.537
 9074SOL    HW128121   1.516   0.593   1.494
 9074SOL    HW228122   1.607   0.726   1.466
 9075SOL     OW28123   0.479   0.110   2.070
 9075SOL    HW128124   0.410   0.170   2.029
 9075SOL    HW228125   0.455   0.014   2.052
 9076SOL     OW28126   4.620   1.600   3.945
 9076SOL    HW128127   4.533   1.585   3.991
 9076SOL    HW228128   4.688   1.632   4.011
 9077SOL     OW28129   4.660   1.539   6.365
 9077SOL    HW128130   4.607   1.472   6.417
 9077SOL    HW228131   4.608   1.625   6.360
 9078SOL     OW28132   5.454   5.150   6.618
 9078SOL    HW128133   5.535   5.101   6.649
 9078SOL    HW228134   5.478   5.245   6.597
 9079SOL     OW28135   1.660   6.936   4.543
 9079SOL    HW128136   1.564   6.964   4.541
 9079SOL    HW228137   1.672   6.854   4.486
 9080SOL     OW28138   6.268   3.005   0.124
 9080SOL    HW128139   6.301   2.911   0.126
 9080SOL    HW228140   6.272   3.044   0.216
 9081SOL     OW28141   3.517   1.598   1.825
 9081SOL    HW128142   3.504   1.653   1.908
 9081SOL    HW228143   3.607   1.556   1.826
 9082SOL     OW28144   2.349   6.589   4.899
 9082SOL    HW128145   2.265   6.597   4.953
 9082SOL    HW228146   2.420   6.546   4.955
 9083SOL     OW28147   4.226   3.837   6.546
 9083SOL    HW128148   4.165   3.892   6.604
 9083SOL    HW228149   4.244   3.885   6.460
 9084SOL     OW28150   1.058   2.257   6.478
 9084SOL    HW128151   1.079   2.167   6.515
 9084SOL    HW228152   1.141   2.299   6.443
 9085SOL     OW28153   2.383   5.782   1.438
 9085SOL    HW128154   2.458   5.720   1.463
 9085SOL    HW228155   2.402   5.873   1.474
 9086SOL     OW28156   5.779   4.184   1.201
 9086SOL    HW128157   5.840   4.105   1.209
 9086SOL    HW228158   5.688   4.159   1.235
 9087SOL     OW28159   5.304   2.942   2.376
 9087SOL    HW128160   5.396   2.969   2.345
 9087SOL    HW228161   5.259   3.020   2.419
 9088SOL     OW28162   5.998   6.858   1.294
 9088SOL    HW128163   5.959   6.930   1.352
 9088SOL    HW228164   5.942   6.846   1.213
 9089SOL     OW28165   3.833   5.624   5.269
 9089SOL    HW128166   3.748   5.619   5.217
 9089SOL    HW228167   3.893   5.549   5.243
 9090SOL     OW28168   5.328   0.451   4.113
 9090SOL    HW128169   5.370   0.360   4.117
 9090SOL    HW228170   5.338   0.489   4.021
 9091SOL     OW28171   2.926   3.596   0.582
 9091SOL    HW128172   2.832   3.562   0.585
 9091SOL    HW228173   2.975   3.564   0.663
 9092SOL     OW28174   0.837   1.428   0.039
 9092SOL    HW128175   0.854   1.361   6.988
 9092SOL    HW228176   0.805   1.381   0.121
 9093SOL     OW28177   0.937   6.365   6.765
 9093SOL    HW128178   1.030   6.333   6.780
 9093SOL    HW228179   0.933   6.417   6.680
 9094SOL     OW28180   0.881   5.473   2.728
 9094SOL    HW128181   0.805   5.492   2.790
 9094SOL    HW228182   0.966   5.509   2.767
 9095SOL     OW28183   5.132   3.973   6.208
 9095SOL    HW128184   5.074   4.015   6.138
 9095SOL    HW228185   5.172   3.889   6.172
 9096SOL     OW28186   5.582   3.819   2.866
 9096SOL    HW128187   5.499   3.793   2.815
 9096SOL    HW228188   5.623   3.738   2.906
 9097SOL     OW28189   0.621   3.277   6.902
 9097SOL    HW128190   0.522   3.267   6.888
 9097SOL    HW228191   0.639   3.363   6.950
 9098SOL     OW28192   3.695   2.818   6.948
 9098SOL    HW128193   3.695   2.916   6.928
 9098SOL    HW228194   3.739   2.768   6.873
 9099SOL     OW28195   3.670   3.609   0.358
 9099SOL    HW128196   3.610   3.549   0.307
 9099SOL    HW228197   3.765   3.578   0.348
 9100SOL     OW28198   0.931   3.123   2.839
 9100SOL    HW128199   0.968   3.092   2.926
 9100SOL    HW228200   0.926   3.047   2.774
 9101SOL     OW28201   2.048   2.829   3.017
 9101SOL    HW128202   2.026   2.825   2.920
 9101SOL    HW228203   2.109   2.753   3.041
 9102SOL     OW28204   3.446   6.958   1.846
 9102SOL    HW128205   3.520   7.017   1.879
 9102SOL    HW228206   3.485   6.875   1.806
 9103SOL     OW28207   6.761   3.864   6.833
 9103SOL    HW128208   6.775   3.887   6.737
 9103SOL    HW228209   6.715   3.776   6.840
 9104SOL     OW28210   4.249   6.186   3.083
 9104SOL    HW128211   4.303   6.221   3.159
 9104SOL    HW228212   4.283   6.095   3.057
 9105SOL     OW28213   1.639   1.019   0.718
 9105SOL    HW128214   1.566   0.951   0.716
 9105SOL    HW228215   1.704   1.000   0.644
 9106SOL     OW28216   5.991   4.104   6.760
 9106SOL    HW128217   5.982   4.030   6.694
 9106SOL    HW228218   6.085   4.138   6.760
 9107SOL     OW28219   3.445   0.689   5.590
 9107SOL    HW128220   3.538   0.704   5.554
 9107SOL    HW228221   3.425   0.591   5.589
 9108SOL     OW28222   5.213   3.395   5.917
 9108SOL    HW128223   5.174   3.395   6.009
 9108SOL    HW228224   5.149   3.438   5.854
 9109SOL     OW28225   1.534   2.621   2.920
 9109SOL    HW128226   1.467   2.638   2.993
 9109SOL    HW228227   1.485   2.596   2.836
 9110SOL     OW28228   2.133   4.323   4.334
 9110SOL    HW128229   2.067   4.397   4.318
 9110SOL    HW228230   2.219   4.347   4.290
 9111SOL     OW28231   4.120   3.270   0.042
 9111SOL    HW128232   4.070   3.342   0.089
 9111SOL    HW228233   4.118   3.285   6.965
 9112SOL     OW28234   0.587   4.251   4.861
 9112SOL    HW128235   0.676   4.213   4.887
 9112SOL    HW228236   0.569   4.230   4.764
 9113SOL     OW28237   4.512   6.673   0.804
 9113SOL    HW128238   4.446   6.668   0.729
 9113SOL    HW228239   4.466   6.703   0.888
 9114SOL     OW28240   1.559   4.967   1.368
 9114SOL    HW128241   1.654   4.964   1.339
 9114SOL    HW228242   1.539   5.056   1.409
 9115SOL     OW28243   0.918   5.596   6.068
 9115SOL    HW128244   0.880   5.518   6.119
 9115SOL    HW228245   0.862   5.677   6.085
 9116SOL     OW28246   6.662   1.624   0.393
 9116SOL    HW128247   6.595   1.684   0.349
 9116SOL    HW228248   6.751   1.638   0.349
 9117SOL     OW28249   5.747   2.969   0.450
 9117SOL    HW128250   5.800   2.953   0.533
 9117SOL    HW228251   5.808   2.997   0.376
 9118SOL     OW28252   6.330   5.721   0.348
 9118SOL    HW128253   6.311   5.664   0.268
 9118SOL    HW228254   6.386   5.799   0.321
 9119SOL     OW28255   5.439   1.180   1.663
 9119SOL    HW128256   5.366   1.148   1.602
 9119SOL    HW228257   5.450   1.279   1.654
 9120SOL     OW28258   5.921   2.660   5.525
 9120SOL    HW128259   6.010   2.706   5.524
 9120SOL    HW228260   5.861   2.705   5.592
 9121SOL     OW28261   2.868   2.401   6.164
 9121SOL    HW128262   2.894   2.336   6.092
 9121SOL    HW228263   2.776   2.378   6.197
 9122SOL     OW28264   1.965   4.179   1.869
 9122SOL    HW128265   2.033   4.205   1.801
 9122SOL    HW228266   2.009   4.125   1.941
 9123SOL     OW28267   3.247   6.866   4.515
 9123SOL    HW128268   3.191   6.827   4.442
 9123SOL    HW228269   3.341   6.878   4.483
 9124SOL     OW28270   5.510   6.742   6.119
 9124SOL    HW128271   5.445   6.676   6.080
 9124SOL    HW228272   5.594   6.742   6.064
 9125SOL     OW28273   5.056   4.184   2.033
 9125SOL    HW128274   5.010   4.238   1.963
 9125SOL    HW228275   5.140   4.231   2.062
 9126SOL     OW28276   5.851   2.446   1.323
 9126SOL    HW128277   5.831   2.488   1.411
 9126SOL    HW228278   5.778   2.383   1.298
 9127SOL     OW28279   6.740   1.246   5.958
 9127SOL    HW128280   6.790   1.327   5.989
 9127SOL    HW228281   6.775   1.217   5.869
 9128SOL     OW28282   4.800   1.689   4.856
 9128SOL    HW128283   4.826   1.653   4.767
 9128SOL    HW228284   4.822   1.787   4.860
 9129SOL     OW28285   0.131   3.150   0.831
 9129SOL    HW128286   0.082   3.195   0.906
 9129SOL    HW228287   0.228   3.139   0.857
 9130SOL     OW28288   0.078   3.503   0.503
 9130SOL    HW128289   0.121   3.593   0.508
 9130SOL    HW228290   0.148   3.432   0.499
 9131SOL     OW28291   0.127   2.947   5.610
 9131SOL    HW128292   0.171   2.909   5.691
 9131SOL    HW228293   0.196   2.989   5.551
 9132SOL     OW28294   0.494   4.714   4.364
 9132SOL    HW128295   0.451   4.698   4.453
 9132SOL    HW228296   0.425   4.738   4.296
 9133SOL     OW28297   4.042   6.082   1.626
 9133SOL    HW128298   3.985   6.158   1.596
 9133SOL    HW228299   4.039   6.008   1.559
 9134SOL     OW28300   4.739   5.912   0.177
 9134SOL    HW128301   4.710   5.879   0.267
 9134SOL    HW228302   4.744   5.835   0.113
 9135SOL     OW28303   6.263   6.573   1.608
 9135SOL    HW128304   6.342   6.522   1.644
 9135SOL    HW228305   6.242   6.649   1.668
 9136SOL     OW28306   5.263   5.599   6.104
 9136SOL    HW128307   5.266   5.509   6.059
 9136SOL    HW228308   5.168   5.623   6.124
 9137SOL     OW28309   5.168   2.012   1.349
 9137SOL    HW128310   5.170   1.976   1.255
 9137SOL    HW228311   5.075   2.040   1.371
 9138SOL     OW28312   0.214   6.091   5.541
 9138SOL    HW128313   0.115   6.086   5.530
 9138SOL    HW228314   0.237   6.089   5.638
 9139SOL     OW28315   2.284   1.673   4.761
 9139SOL    HW128316   2.367   1.728   4.767
 9139SOL    HW228317   2.263   1.657   4.664
 9140SOL     OW28318   6.177   3.274   3.214
 9140SOL    HW128319   6.210   3.193   3.163
 9140SOL    HW228320   6.102   3.316   3.164
 9141SOL     OW28321   5.811   0.608   6.905
 9141SOL    HW128322   5.865   0.666   6.844
 9141SOL    HW228323   5.852   0.607   6.996
 9142SOL     OW28324   0.417   2.229   1.497
 9142SOL    HW128325   0.414   2.328   1.493
 9142SOL    HW228326   0.348   2.195   1.561
 9143SOL     OW28327   6.013   3.406   1.008
 9143SOL    HW128328   5.953   3.330   1.032
 9143SOL    HW228329   6.108   3.380   1.027
 9144SOL     OW28330   2.305   5.181   5.623
 9144SOL    HW128331   2.398   5.163   5.592
 9144SOL    HW228332   2.259   5.242   5.557
 9145SOL     OW28333   0.044   5.626   0.408
 9145SOL    HW128334   0.125   5.663   0.453
 9145SOL    HW228335   0.062   5.533   0.377
 9146SOL     OW28336   5.094   2.908   2.948
 9146SOL    HW128337   5.122   2.925   3.042
 9146SOL    HW228338   5.013   2.849   2.947
 9147SOL     OW28339   6.095   0.526   4.491
 9147SOL    HW128340   6.184   0.516   4.447
 9147SOL    HW228341   6.103   0.498   4.587
 9148SOL     OW28342   5.041   6.407   0.751
 9148SOL    HW128343   5.087   6.477   0.806
 9148SOL    HW228344   5.058   6.317   0.791
 9149SOL     OW28345   6.003   3.327   3.526
 9149SOL    HW128346   6.058   3.252   3.489
 9149SOL    HW228347   6.039   3.354   3.615
 9150SOL     OW28348   2.838   4.952   1.711
 9150SOL    HW128349   2.904   4.885   1.678
 9150SOL    HW228350   2.767   4.906   1.763
 9151SOL     OW28351   1.823   4.415   3.630
 9151SOL    HW128352   1.800   4.401   3.533
 9151SOL    HW228353   1.862   4.506   3.642
 9152SOL     OW28354   2.416   4.452   4.681
 9152SOL    HW128355   2.365   4.367   4.690
 9152SOL    HW228356   2.444   4.483   4.772
 9153SOL     OW28357   0.938   3.785   0.496
 9153SOL    HW128358   0.843   3.810   0.518
 9153SOL    HW228359   0.971   3.718   0.563
 9154SOL     OW28360   4.568   4.356   6.059
 9154SOL    HW128361   4.606   4.391   6.144
 9154SOL    HW228362   4.609   4.405   5.982
 9155SOL     OW28363   1.799   3.791   1.950
 9155SOL    HW128364   1.786   3.844   1.866
 9155SOL    HW228365   1.853   3.845   2.014
 9156SOL     OW28366   1.130   2.226   1.086
 9156SOL    HW128367   1.162   2.208   1.179
 9156SOL    HW228368   1.053   2.167   1.064
 9157SOL     OW28369   6.772   4.452   5.348
 9157SOL    HW128370   6.781   4.444   5.249
 9157SOL    HW228371   6.765   4.549   5.373
 9158SOL     OW28372   5.605   3.351   4.745
 9158SOL    HW128373   5.705   3.354   4.741
 9158SOL    HW228374   5.572   3.426   4.802
 9159SOL     OW28375   1.982   0.490   2.305
 9159SOL    HW128376   2.051   0.448   2.364
 9159SOL    HW228377   1.963   0.428   2.228
 9160SOL     OW28378   5.933   0.151   5.246
 9160SOL    HW128379   5.961   0.130   5.153
 9160SOL    HW228380   5.911   0.249   5.253
 9161SOL     OW28381   4.805   4.020   4.835
 9161SOL    HW128382   4.797   4.074   4.751
 9161SOL    HW228383   4.767   3.929   4.819
 9162SOL     OW28384   4.736   0.883   4.261
 9162SOL    HW128385   4.791   0.964   4.281
 9162SOL    HW228386   4.670   0.867   4.335
 9163SOL     OW28387   1.637   2.790   4.329
 9163SOL    HW128388   1.643   2.747   4.239
 9163SOL    HW228389   1.728   2.822   4.357
 9164SOL     OW28390   2.818   0.685   6.087
 9164SOL    HW128391   2.803   0.769   6.138
 9164SOL    HW228392   2.734   0.630   6.087
 9165SOL     OW28393   6.167   2.087   5.797
 9165SOL    HW128394   6.225   2.119   5.872
 9165SOL    HW228395   6.111   2.162   5.763
 9166SOL     OW28396   4.199   5.945   1.303
 9166SOL    HW128397   4.143   5.873   1.344
 9166SOL    HW228398   4.141   6.021   1.274
 9167SOL     OW28399   2.497   2.299   6.613
 9167SOL    HW128400   2.459   2.269   6.700
 9167SOL    HW228401   2.537   2.390   6.624
 9168SOL     OW28402   0.234   0.201   6.638
 9168SOL    HW128403   0.329   0.221   6.614
 9168SOL    HW228404   0.180   0.284   6.634
 9169SOL     OW28405   5.977   0.678   5.260
 9169SOL    HW128406   5.910   0.752   5.257
 9169SOL    HW228407   6.067   0.712   5.233
 9170SOL     OW28408   1.400   6.208   0.020
 9170SOL    HW128409   1.370   6.113   0.012
 9170SOL    HW228410   1.403   6.235   0.116
 9171SOL     OW28411   4.471   4.999   1.048
 9171SOL    HW128412   4.404   5.022   1.117
 9171SOL    HW228413   4.435   5.021   0.957
 9172SOL     OW28414   4.147   1.035   2.827
 9172SOL    HW128415   4.208   0.957   2.811
 9172SOL    HW228416   4.054   1.001   2.842
 9173SOL     OW28417   6.812   3.362   5.267
 9173SOL    HW128418   6.735   3.299   5.261
 9173SOL    HW228419   6.881   3.336   5.199
 9174SOL     OW28420   5.495   3.991   1.921
 9174SOL    HW128421   5.452   3.980   1.832
 9174SOL    HW228422   5.565   3.920   1.933
 9175SOL     OW28423   0.553   0.213   5.116
 9175SOL    HW128424   0.557   0.307   5.081
 9175SOL    HW228425   0.628   0.199   5.181
 9176SOL     OW28426   2.670   1.220   4.460
 9176SOL    HW128427   2.760   1.255   4.433
 9176SOL    HW228428   2.608   1.297   4.476
 9177SOL     OW28429   0.427   4.695   4.986
 9177SOL    HW128430   0.475   4.616   4.948
 9177SOL    HW228431   0.351   4.720   4.926
 9178SOL     OW28432   1.621   4.708   0.476
 9178SOL    HW128433   1.560   4.776   0.517
 9178SOL    HW228434   1.590   4.616   0.501
 9179SOL     OW28435   2.915   4.908   4.407
 9179SOL    HW128436   2.886   4.855   4.327
 9179SOL    HW228437   2.912   5.006   4.385
 9180SOL     OW28438   6.477   2.668   3.451
 9180SOL    HW128439   6.496   2.705   3.542
 9180SOL    HW228440   6.563   2.641   3.407
 9181SOL     OW28441   4.370   2.147   5.199
 9181SOL    HW128442   4.318   2.075   5.155
 9181SOL    HW228443   4.466   2.143   5.169
 9182SOL     OW28444   3.029   6.626   1.531
 9182SOL    HW128445   2.970   6.697   1.492
 9182SOL    HW228446   3.081   6.664   1.607
 9183SOL     OW28447   4.920   5.648   0.311
 9183SOL    HW128448   4.967   5.560   0.321
 9183SOL    HW228449   4.869   5.649   0.225
 9184SOL     OW28450   4.541   1.882   0.423
 9184SOL    HW128451   4.551   1.846   0.330
 9184SOL    HW228452   4.622   1.859   0.476
 9185SOL     OW28453   4.578   6.666   4.556
 9185SOL    HW128454   4.577   6.749   4.613
 9185SOL    HW228455   4.662   6.614   4.574
 9186SOL     OW28456   5.452   5.994   4.829
 9186SOL    HW128457   5.512   5.980   4.908
 9186SOL    HW228458   5.439   6.092   4.814
 9187SOL     OW28459   2.466   2.059   0.565
 9187SOL    HW128460   2.444   2.128   0.634
 9187SOL    HW228461   2.519   1.986   0.607
 9188SOL     OW28462   1.230   6.432   0.355
 9188SOL    HW128463   1.250   6.520   0.311
 9188SOL    HW228464   1.132   6.413   0.348
 9189SOL     OW28465   3.075   5.873   1.843
 9189SOL    HW128466   3.151   5.845   1.902
 9189SOL    HW228467   3.068   5.973   1.843
 9190SOL     OW28468   2.746   4.567   5.783
 9190SOL    HW128469   2.676   4.519   5.836
 9190SOL    HW228470   2.802   4.622   5.844
 9191SOL     OW28471   6.393   2.085   6.488
 9191SOL    HW128472   6.468   2.113   6.548
 9191SOL    HW228473   6.306   2.115   6.527
 9192SOL     OW28474   1.280   3.108   5.597
 9192SOL    HW128475   1.275   3.146   5.689
 9192SOL    HW228476   1.306   3.011   5.602
 9193SOL     OW28477   3.606   4.088   6.460
 9193SOL    HW128478   3.565   4.179   6.459
 9193SOL    HW228479   3.534   4.019   6.469
 9194SOL     OW28480   3.310   0.843   3.488
 9194SOL    HW128481   3.385   0.909   3.490
 9194SOL    HW228482   3.342   0.757   3.449
 9195SOL     OW28483   1.228   1.606   3.262
 9195SOL    HW128484   1.224   1.511   3.230
 9195SOL    HW228485   1.153   1.621   3.327
 9196SOL     OW28486   5.227   0.352   2.584
 9196SOL    HW128487   5.177   0.427   2.627
 9196SOL    HW228488   5.323   0.378   2.573
 9197SOL     OW28489   1.830   4.939   1.353
 9197SOL    HW128490   1.851   5.026   1.308
 9197SOL    HW228491   1.909   4.879   1.348
 9198SOL     OW28492   6.196   4.661   6.608
 9198SOL    HW128493   6.135   4.710   6.670
 9198SOL    HW228494   6.242   4.726   6.548
 9199SOL     OW28495   0.935   3.520   5.673
 9199SOL    HW128496   0.891   3.603   5.639
 9199SOL    HW228497   0.963   3.534   5.768
 9200SOL     OW28498   2.900   6.570   7.009
 9200SOL    HW128499   2.953   6.647   0.021
 9200SOL    HW228500   2.911   6.562   6.910
 9201SOL     OW28501   6.915   2.890   0.138
 9201SOL    HW128502   7.005   2.853   0.161
 9201SOL    HW228503   6.927   2.969   0.078
 9202SOL     OW28504   0.916   6.446   2.648
 9202SOL    HW128505   0.840   6.430   2.712
 9202SOL    HW228506   0.974   6.365   2.645
 9203SOL     OW28507   0.287   3.915   5.555
 9203SOL    HW128508   0.316   3.997   5.506
 9203SOL    HW228509   0.289   3.931   5.653
 9204SOL     OW28510   5.352   3.195   6.178
 9204SOL    HW128511   5.426   3.176   6.113
 9204SOL    HW228512   5.366   3.286   6.218
 9205SOL     OW28513   5.550   5.696   3.429
 9205SOL    HW128514   5.455   5.726   3.435
 9205SOL    HW228515   5.552   5.598   3.405
 9206SOL     OW28516   3.720   5.204   3.472
 9206SOL    HW128517   3.699   5.131   3.408
 9206SOL    HW228518   3.717   5.169   3.565
 9207SOL     OW28519   4.820   3.999   5.746
 9207SOL    HW128520   4.902   3.993   5.689
 9207SOL    HW228521   4.825   3.930   5.819
 9208SOL     OW28522   5.727   4.848   3.724
 9208SOL    HW128523   5.706   4.928   3.780
 9208SOL    HW228524   5.647   4.788   3.721
 9209SOL     OW28525   4.103   0.384   0.182
 9209SOL    HW128526   4.144   0.430   0.104
 9209SOL    HW228527   4.162   0.309   0.212
 9210SOL     OW28528   0.096   0.721   2.328
 9210SOL    HW128529   0.009   0.767   2.309
 9210SOL    HW228530   0.137   0.690   2.242
 9211SOL     OW28531   0.618   2.981   5.697
 9211SOL    HW128532   0.599   2.890   5.663
 9211SOL    HW228533   0.536   3.037   5.691
 9212SOL     OW28534   4.279   6.124   4.558
 9212SOL    HW128535   4.344   6.191   4.523
 9212SOL    HW228536   4.287   6.117   4.657
 9213SOL     OW28537   5.597   2.885   5.124
 9213SOL    HW128538   5.677   2.917   5.075
 9213SOL    HW228539   5.531   2.960   5.134
 9214SOL     OW28540   0.145   3.829   6.190
 9214SOL    HW128541   0.228   3.776   6.172
 9214SOL    HW228542   0.113   3.810   6.282
 9215SOL     OW28543   0.615   2.738   1.529
 9215SOL    HW128544   0.642   2.832   1.510
 9215SOL    HW228545   0.682   2.675   1.490
 9216SOL     OW28546   3.497   0.150   2.226
 9216SOL    HW128547   3.418   0.097   2.196
 9216SOL    HW228548   3.555   0.095   2.286
 9217SOL     OW28549   0.096   2.830   6.501
 9217SOL    HW128550   0.019   2.771   6.525
 9217SOL    HW228551   0.136   2.869   6.584
 9218SOL     OW28552   1.938   0.674   6.814
 9218SOL    HW128553   1.990   0.606   6.762
 9218SOL    HW228554   1.894   0.630   6.892
 9219SOL     OW28555   5.721   3.544   0.741
 9219SOL    HW128556   5.714   3.522   0.839
 9219SOL    HW228557   5.706   3.462   0.687
 9220SOL     OW28558   1.544   6.313   1.514
 9220SOL    HW128559   1.478   6.240   1.531
 9220SOL    HW228560   1.517   6.395   1.565
 9221SOL     OW28561   3.149   0.542   3.331
 9221SOL    HW128562   3.239   0.538   3.373
 9221SOL    HW228563   3.116   0.449   3.313
 9222SOL     OW28564   2.384   6.405   6.077
 9222SOL    HW128565   2.330   6.469   6.133
 9222SOL    HW228566   2.430   6.340   6.137
 9223SOL     OW28567   0.592   2.082   3.804
 9223SOL    HW128568   0.533   2.014   3.849
 9223SOL    HW228569   0.590   2.068   3.705
 9224SOL     OW28570   1.270   5.373   4.201
 9224SOL    HW128571   1.362   5.345   4.228
 9224SOL    HW228572   1.202   5.322   4.254
 9225SOL     OW28573   2.971   6.759   6.451
 9225SOL    HW128574   2.941   6.745   6.357
 9225SOL    HW228575   2.965   6.856   6.474
 9226SOL     OW28576   6.193   0.066   1.670
 9226SOL    HW128577   6.287   0.031   1.675
 9226SOL    HW228578   6.185   0.146   1.728
 9227SOL     OW28579   1.596   5.932   0.528
 9227SOL    HW128580   1.677   5.899   0.481
 9227SOL    HW228581   1.588   5.887   0.617
 9228SOL     OW28582   1.795   2.067   6.022
 9228SOL    HW128583   1.830   1.987   5.975
 9228SOL    HW228584   1.852   2.087   6.102
 9229SOL     OW28585   1.134   5.202   5.477
 9229SOL    HW128586   1.217   5.181   5.426
 9229SOL    HW228587   1.145   5.291   5.523
 9230SOL     OW28588   4.710   2.275   3.653
 9230SOL    HW128589   4.779   2.331   3.607
 9230SOL    HW228590   4.638   2.250   3.587
 9231SOL     OW28591   0.598   3.890   4.633
 9231SOL    HW128592   0.656   3.809   4.626
 9231SOL    HW228593   0.516   3.867   4.685
 9232SOL     OW28594   3.918   5.325   0.486
 9232SOL    HW128595   3.865   5.376   0.418
 9232SOL    HW228596   3.923   5.378   0.570
 9233SOL     OW28597   5.377   5.515   1.835
 9233SOL    HW128598   5.292   5.546   1.792
 9233SOL    HW228599   5.372   5.531   1.934
 9234SOL     OW28600   3.389   6.414   6.153
 9234SOL    HW128601   3.337   6.498   6.174
 9234SOL    HW228602   3.476   6.416   6.202
 9235SOL     OW28603   1.315   3.512   2.974
 9235SOL    HW128604   1.236   3.489   2.918
 9235SOL    HW228605   1.285   3.562   3.056
 9236SOL     OW28606   1.740   4.562   5.921
 9236SOL    HW128607   1.716   4.619   5.842
 9236SOL    HW228608   1.837   4.538   5.917
 9237SOL     OW28609   1.974   5.483   4.723
 9237SOL    HW128610   2.031   5.516   4.647
 9237SOL    HW228611   1.983   5.384   4.730
 9238SOL     OW28612   3.313   1.390   0.150
 9238SOL    HW128613   3.242   1.442   0.103
 9238SOL    HW228614   3.401   1.436   0.137
 9239SOL     OW28615   6.394   4.077   0.384
 9239SOL    HW128616   6.327   4.151   0.377
 9239SOL    HW228617   6.404   4.034   0.294
 9240SOL     OW28618   5.092   1.337   1.268
 9240SOL    HW128619   5.013   1.355   1.327
 9240SOL    HW228620   5.065   1.346   1.172
 9241SOL     OW28621   0.699   5.324   5.846
 9241SOL    HW128622   0.685   5.255   5.776
 9241SOL    HW228623   0.611   5.363   5.873
 9242SOL     OW28624   1.180   5.063   6.763
 9242SOL    HW128625   1.182   5.037   6.666
 9242SOL    HW228626   1.239   5.142   6.778
 9243SOL     OW28627   6.237   6.807   1.407
 9243SOL    HW128628   6.150   6.849   1.382
 9243SOL    HW228629   6.230   6.708   1.397
 9244SOL     OW28630   4.590   5.505   6.224
 9244SOL    HW128631   4.546   5.473   6.307
 9244SOL    HW228632   4.525   5.561   6.172
 9245SOL     OW28633   1.663   5.214   3.116
 9245SOL    HW128634   1.745   5.192   3.063
 9245SOL    HW228635   1.662   5.159   3.200
 9246SOL     OW28636   6.914   5.744   2.586
 9246SOL    HW128637   6.966   5.805   2.645
 9246SOL    HW228638   6.843   5.698   2.639
 9247SOL     OW28639   1.102   6.819   2.763
 9247SOL    HW128640   1.158   6.887   2.810
 9247SOL    HW228641   1.161   6.750   2.721
 9248SOL     OW28642   2.229   1.996   4.263
 9248SOL    HW128643   2.183   1.960   4.344
 9248SOL    HW228644   2.201   1.944   4.183
 9249SOL     OW28645   4.171   3.918   0.005
 9249SOL    HW128646   4.171   4.014   6.997
 9249SOL    HW228647   4.147   3.912   0.102
 9250SOL     OW28648   5.484   3.438   3.886
 9250SOL    HW128649   5.407   3.396   3.935
 9250SOL    HW228650   5.570   3.408   3.928
 9251SOL     OW28651   4.266   1.777   2.425
 9251SOL    HW128652   4.294   1.707   2.360
 9251SOL    HW228653   4.237   1.859   2.376
 9252SOL     OW28654   5.641   0.240   4.594
 9252SOL    HW128655   5.626   0.235   4.496
 9252SOL    HW228656   5.686   0.326   4.617
 9253SOL     OW28657   5.627   6.506   5.491
 9253SOL    HW128658   5.632   6.596   5.534
 9253SOL    HW228659   5.609   6.517   5.393
 9254SOL     OW28660   6.087   4.641   2.805
 9254SOL    HW128661   6.034   4.711   2.854
 9254SOL    HW228662   6.166   4.685   2.762
 9255SOL     OW28663   4.552   4.010   0.008
 9255SOL    HW128664   4.466   3.990   6.983
 9255SOL    HW228665   4.572   3.938   0.074
 9256SOL     OW28666   4.353   6.969   2.809
 9256SOL    HW128667   4.348   7.011   2.900
 9256SOL    HW228668   4.425   6.899   2.809
 9257SOL     OW28669   6.861   3.790   2.906
 9257SOL    HW128670   6.914   3.855   2.852
 9257SOL    HW228671   6.923   3.732   2.958
 9258SOL     OW28672   3.182   3.381   3.048
 9258SOL    HW128673   3.085   3.396   3.030
 9258SOL    HW228674   3.197   3.284   3.071
 9259SOL     OW28675   1.453   2.502   6.794
 9259SOL    HW128676   1.523   2.572   6.778
 9259SOL    HW228677   1.497   2.413   6.807
 9260SOL     OW28678   4.845   1.964   4.734
 9260SOL    HW128679   4.779   2.027   4.695
 9260SOL    HW228680   4.930   2.012   4.754
 9261SOL     OW28681   4.622   0.752   6.973
 9261SOL    HW128682   4.673   0.797   6.900
 9261SOL    HW228683   4.642   0.797   0.039
 9262SOL     OW28684   0.218   3.586   5.813
 9262SOL    HW128685   0.250   3.576   5.908
 9262SOL    HW228686   0.123   3.618   5.814
 9263SOL     OW28687   5.290   6.176   1.831
 9263SOL    HW128688   5.374   6.211   1.791
 9263SOL    HW228689   5.306   6.085   1.869
 9264SOL     OW28690   5.441   4.649   0.649
 9264SOL    HW128691   5.522   4.683   0.698
 9264SOL    HW228692   5.405   4.722   0.591
 9265SOL     OW28693   3.599   2.082   6.790
 9265SOL    HW128694   3.653   2.164   6.811
 9265SOL    HW228695   3.653   2.000   6.808
 9266SOL     OW28696   2.593   0.113   1.718
 9266SOL    HW128697   2.602   0.101   1.817
 9266SOL    HW228698   2.508   0.073   1.687
 9267SOL     OW28699   0.265   3.029   5.094
 9267SOL    HW128700   0.247   3.120   5.132
 9267SOL    HW228701   0.210   2.961   5.142
 9268SOL     OW28702   0.949   5.555   1.764
 9268SOL    HW128703   1.000   5.546   1.849
 9268SOL    HW228704   0.888   5.477   1.753
 9269SOL     OW28705   2.738   1.476   6.016
 9269SOL    HW128706   2.640   1.490   6.032
 9269SOL    HW228707   2.753   1.386   5.974
 9270SOL     OW28708   4.432   6.436   6.050
 9270SOL    HW128709   4.419   6.339   6.029
 9270SOL    HW228710   4.392   6.456   6.139
 9271SOL     OW28711   0.514   0.295   6.794
 9271SOL    HW128712   0.444   0.366   6.785
 9271SOL    HW228713   0.597   0.326   6.747
 9272SOL     OW28714   1.595   5.529   4.076
 9272SOL    HW128715   1.694   5.544   4.068
 9272SOL    HW228716   1.556   5.598   4.137
 9273SOL     OW28717   6.196   6.366   3.610
 9273SOL    HW128718   6.254   6.289   3.637
 9273SOL    HW228719   6.101   6.348   3.637
 9274SOL     OW28720   6.280   2.724   0.442
 9274SOL    HW128721   6.354   2.791   0.453
 9274SOL    HW228722   6.193   2.764   0.471
 9275SOL     OW28723   0.163   1.304   6.686
 9275SOL    HW128724   0.095   1.310   6.759
 9275SOL    HW228725   0.246   1.354   6.714
 9276SOL     OW28726   2.197   4.034   2.465
 9276SOL    HW128727   2.282   3.994   2.499
 9276SOL    HW228728   2.161   3.980   2.389
 9277SOL     OW28729   5.344   3.376   0.087
 9277SOL    HW128730   5.318   3.416   7.020
 9277SOL    HW228731   5.287   3.415   0.160
 9278SOL     OW28732   1.639   0.420   5.727
 9278SOL    HW128733   1.540   0.433   5.731
 9278SOL    HW228734   1.659   0.324   5.705
 9279SOL     OW28735   5.131   0.968   1.616
 9279SOL    HW128736   5.113   1.058   1.657
 9279SOL    HW228737   5.177   0.910   1.683
 9280SOL     OW28738   1.705   2.028   3.482
 9280SOL    HW128739   1.630   2.070   3.430
 9280SOL    HW228740   1.787   2.085   3.472
 9281SOL     OW28741   2.747   4.879   0.690
 9281SOL    HW128742   2.725   4.790   0.651
 9281SOL    HW228743   2.790   4.867   0.780
 9282SOL     OW28744   4.883   1.120   4.233
 9282SOL    HW128745   4.976   1.153   4.246
 9282SOL    HW228746   4.830   1.190   4.184
 9283SOL     OW28747   5.628   0.638   3.671
 9283SOL    HW128748   5.630   0.633   3.771
 9283SOL    HW228749   5.700   0.700   3.640
 9284SOL     OW28750   3.563   3.597   6.058
 9284SOL    HW128751   3.486   3.614   5.996
 9284SOL    HW228752   3.528   3.564   6.145
 9285SOL     OW28753   4.727   2.895   1.250
 9285SOL    HW128754   4.804   2.870   1.190
 9285SOL    HW228755   4.650   2.925   1.194
 9286SOL     OW28756   5.303   6.114   0.295
 9286SOL    HW128757   5.388   6.151   0.333
 9286SOL    HW228758   5.270   6.175   0.223
 9287SOL     OW28759   3.312   5.301   6.349
 9287SOL    HW128760   3.354   5.296   6.440
 9287SOL    HW228761   3.280   5.394   6.332
 9288SOL     OW28762   4.343   1.320   3.533
 9288SOL    HW128763   4.284   1.372   3.471
 9288SOL    HW228764   4.438   1.330   3.505
 9289SOL     OW28765   4.048   1.373   2.462
 9289SOL    HW128766   3.994   1.318   2.398
 9289SOL    HW228767   4.145   1.354   2.449
 9290SOL     OW28768   5.430   1.197   3.152
 9290SOL    HW128769   5.403   1.157   3.240
 9290SOL    HW228770   5.366   1.168   3.081
 9291SOL     OW28771   1.648   6.765   4.225
 9291SOL    HW128772   1.601   6.721   4.301
 9291SOL    HW228773   1.584   6.825   4.176
 9292SOL     OW28774   0.881   3.700   0.242
 9292SOL    HW128775   0.905   3.728   0.335
 9292SOL    HW228776   0.938   3.623   0.215
 9293SOL     OW28777   5.572   4.060   7.018
 9293SOL    HW128778   5.648   4.018   0.046
 9293SOL    HW228779   5.605   4.098   6.932
 9294SOL     OW28780   3.307   1.058   5.191
 9294SOL    HW128781   3.219   1.013   5.208
 9294SOL    HW228782   3.358   1.065   5.277
 9295SOL     OW28783   5.285   2.468   4.099
 9295SOL    HW128784   5.204   2.517   4.130
 9295SOL    HW228785   5.258   2.393   4.038
 9296SOL     OW28786   0.036   6.527   6.806
 9296SOL    HW128787   6.988   6.479   6.751
 9296SOL    HW228788   0.088   6.589   6.748
 9297SOL     OW28789   6.573   0.498   0.198
 9297SOL    HW128790   6.521   0.423   0.240
 9297SOL    HW228791   6.517   0.540   0.127
 9298SOL     OW28792   1.036   0.393   5.056
 9298SOL    HW128793   1.072   0.344   5.135
 9298SOL    HW228794   0.967   0.459   5.085
 9299SOL     OW28795   0.593   2.694   4.733
 9299SOL    HW128796   0.637   2.761   4.794
 9299SOL    HW228797   0.524   2.643   4.783
 9300SOL     OW28798   0.619   4.727   5.431
 9300SOL    HW128799   0.588   4.646   5.482
 9300SOL    HW228800   0.622   4.707   5.334
 9301SOL     OW28801   4.853   4.481   3.919
 9301SOL    HW128802   4.805   4.553   3.869
 9301SOL    HW228803   4.884   4.411   3.854
 9302SOL     OW28804   2.178   2.919   4.010
 9302SOL    HW128805   2.173   2.986   3.936
 9302SOL    HW228806   2.093   2.920   4.063
 9303SOL     OW28807   3.118   4.955   0.852
 9303SOL    HW128808   3.074   5.045   0.844
 9303SOL    HW228809   3.203   4.955   0.800
 9304SOL     OW28810   4.522   4.458   2.241
 9304SOL    HW128811   4.520   4.392   2.166
 9304SOL    HW228812   4.595   4.435   2.305
 9305SOL     OW28813   3.141   1.009   1.383
 9305SOL    HW128814   3.222   0.957   1.358
 9305SOL    HW228815   3.161   1.107   1.377
 9306SOL     OW28816   0.018   4.507   4.487
 9306SOL    HW128817   0.059   4.583   4.439
 9306SOL    HW228818   0.085   4.433   4.497
 9307SOL     OW28819   1.908   3.466   2.031
 9307SOL    HW128820   2.002   3.443   2.056
 9307SOL    HW228821   1.904   3.560   1.997
 9308SOL     OW28822   1.810   3.812   0.372
 9308SOL    HW128823   1.811   3.770   0.281
 9308SOL    HW228824   1.813   3.740   0.441
 9309SOL     OW28825   3.655   4.825   5.804
 9309SOL    HW128826   3.687   4.917   5.826
 9309SOL    HW228827   3.574   4.831   5.746
 9310SOL     OW28828   4.560   4.896   6.546
 9310SOL    HW128829   4.471   4.912   6.590
 9310SOL    HW228830   4.625   4.966   6.575
 9311SOL     OW28831   4.022   4.940   2.319
 9311SOL    HW128832   4.036   4.859   2.375
 9311SOL    HW228833   3.938   4.931   2.266
 9312SOL     OW28834   1.296   3.435   1.436
 9312SOL    HW128835   1.234   3.508   1.410
 9312SOL    HW228836   1.253   3.346   1.416
 9313SOL     OW28837   0.624   0.454   1.110
 9313SOL    HW128838   0.724   0.454   1.106
 9313SOL    HW228839   0.595   0.480   1.202
 9314SOL     OW28840   4.983   5.343   6.375
 9314SOL    HW128841   4.950   5.257   6.413
 9314SOL    HW228842   4.936   5.363   6.289
 9315SOL     OW28843   6.088   0.565   4.770
 9315SOL    HW128844   6.001   0.613   4.762
 9315SOL    HW228845   6.159   0.628   4.799
 9316SOL     OW28846   4.211   5.753   5.372
 9316SOL    HW128847   4.153   5.676   5.345
 9316SOL    HW228848   4.176   5.792   5.458
 9317SOL     OW28849   5.996   5.118   3.360
 9317SOL    HW128850   5.915   5.170   3.332
 9317SOL    HW228851   5.988   5.095   3.457
 9318SOL     OW28852   6.314   0.384   5.790
 9318SOL    HW128853   6.311   0.338   5.701
 9318SOL    HW228854   6.230   0.437   5.802
 9319SOL     OW28855   1.846   3.021   7.007
 9319SOL    HW128856   1.799   3.064   0.063
 9319SOL    HW228857   1.936   3.063   6.995
 9320SOL     OW28858   3.970   0.159   5.024
 9320SOL    HW128859   4.064   0.131   5.009
 9320SOL    HW228860   3.964   0.215   5.108
 9321SOL     OW28861   6.823   0.127   3.673
 9321SOL    HW128862   6.912   0.091   3.701
 9321SOL    HW228863   6.826   0.227   3.674
 9322SOL     OW28864   0.589   4.470   6.971
 9322SOL    HW128865   0.647   4.393   6.998
 9322SOL    HW228866   0.617   4.552   7.019
 9323SOL     OW28867   1.197   0.665   5.483
 9323SOL    HW128868   1.246   0.684   5.568
 9323SOL    HW228869   1.099   0.681   5.496
 9324SOL     OW28870   1.515   4.486   0.579
 9324SOL    HW128871   1.480   4.408   0.529
 9324SOL    HW228872   1.516   4.465   0.677
 9325SOL     OW28873   4.839   0.590   6.969
 9325SOL    HW128874   4.755   0.643   6.960
 9325SOL    HW228875   4.905   0.619   6.899
 9326SOL     OW28876   2.257   5.422   0.160
 9326SOL    HW128877   2.159   5.440   0.163
 9326SOL    HW228878   2.288   5.392   0.251
 9327SOL     OW28879   5.535   0.562   3.067
 9327SOL    HW128880   5.551   0.517   3.154
 9327SOL    HW228881   5.528   0.661   3.081
 9328SOL     OW28882   2.703   0.508   5.747
 9328SOL    HW128883   2.719   0.600   5.783
 9328SOL    HW228884   2.698   0.443   5.822
 9329SOL     OW28885   6.067   3.846   1.552
 9329SOL    HW128886   6.039   3.938   1.528
 9329SOL    HW228887   5.986   3.788   1.562
 9330SOL     OW28888   5.987   6.592   6.356
 9330SOL    HW128889   6.050   6.555   6.424
 9330SOL    HW228890   5.903   6.621   6.402
 9331SOL     OW28891   2.434   1.032   0.130
 9331SOL    HW128892   2.467   0.941   0.153
 9331SOL    HW228893   2.337   1.028   0.109
 9332SOL     OW28894   4.034   3.997   1.848
 9332SOL    HW128895   4.037   4.059   1.770
 9332SOL    HW228896   3.979   4.038   1.921
 9333SOL     OW28897   4.140   3.663   0.758
 9333SOL    HW128898   4.177   3.712   0.679
 9333SOL    HW228899   4.193   3.580   0.774
 9334SOL     OW28900   6.158   5.977   3.808
 9334SOL    HW128901   6.180   5.965   3.905
 9334SOL    HW228902   6.217   5.918   3.754
 9335SOL     OW28903   0.752   1.372   6.429
 9335SOL    HW128904   0.742   1.307   6.353
 9335SOL    HW228905   0.681   1.442   6.423
 9336SOL     OW28906   3.166   5.847   5.874
 9336SOL    HW128907   3.241   5.782   5.870
 9336SOL    HW228908   3.085   5.807   5.832
 9337SOL     OW28909   4.435   1.892   4.634
 9337SOL    HW128910   4.433   1.796   4.661
 9337SOL    HW228911   4.439   1.949   4.716
 9338SOL     OW28912   5.374   0.372   2.238
 9338SOL    HW128913   5.411   0.436   2.305
 9338SOL    HW228914   5.448   0.339   2.179
 9339SOL     OW28915   5.830   7.008   1.683
 9339SOL    HW128916   5.861   0.044   1.607
 9339SOL    HW228917   5.840   6.911   1.659
 9340SOL     OW28918   5.547   4.164   4.560
 9340SOL    HW128919   5.471   4.172   4.496
 9340SOL    HW228920   5.626   4.214   4.525
 9341SOL     OW28921   6.624   5.928   0.687
 9341SOL    HW128922   6.636   5.840   0.641
 9341SOL    HW228923   6.625   5.914   0.786
 9342SOL     OW28924   2.228   6.738   4.070
 9342SOL    HW128925   2.200   6.694   4.156
 9342SOL    HW228926   2.271   6.671   4.010
 9343SOL     OW28927   5.793   3.979   2.818
 9343SOL    HW128928   5.707   3.930   2.832
 9343SOL    HW228929   5.870   3.920   2.844
 9344SOL     OW28930   4.774   6.486   2.862
 9344SOL    HW128931   4.782   6.539   2.778
 9344SOL    HW228932   4.842   6.518   2.928
 9345SOL     OW28933   5.950   5.105   2.577
 9345SOL    HW128934   6.010   5.185   2.583
 9345SOL    HW228935   5.911   5.099   2.485
 9346SOL     OW28936   6.263   1.222   1.147
 9346SOL    HW128937   6.286   1.219   1.244
 9346SOL    HW228938   6.286   1.312   1.110
 9347SOL     OW28939   2.546   3.503   0.968
 9347SOL    HW128940   2.456   3.517   0.928
 9347SOL    HW228941   2.546   3.420   1.023
 9348SOL     OW28942   3.442   6.367   2.104
 9348SOL    HW128943   3.454   6.425   2.185
 9348SOL    HW228944   3.531   6.344   2.065
 9349SOL     OW28945   6.509   5.678   3.885
 9349SOL    HW128946   6.488   5.735   3.805
 9349SOL    HW228947   6.587   5.620   3.865
 9350SOL     OW28948   0.579   2.815   4.998
 9350SOL    HW128949   0.573   2.915   4.987
 9350SOL    HW228950   0.675   2.790   5.015
 9351SOL     OW28951   2.891   0.236   6.815
 9351SOL    HW128952   2.971   0.296   6.808
 9351SOL    HW228953   2.818   0.272   6.757
 9352SOL     OW28954   3.808   1.642   6.410
 9352SOL    HW128955   3.751   1.697   6.470
 9352SOL    HW228956   3.886   1.697   6.378
 9353SOL     OW28957   0.354   4.580   0.287
 9353SOL    HW128958   0.339   4.544   0.195
 9353SOL    HW228959   0.439   4.634   0.288
 9354SOL     OW28960   6.873   2.175   6.337
 9354SOL    HW128961   6.879   2.246   6.407
 9354SOL    HW228962   6.951   2.183   6.275
 9355SOL     OW28963   0.285   2.080   4.499
 9355SOL    HW128964   0.255   1.992   4.464
 9355SOL    HW228965   0.377   2.072   4.538
 9356SOL     OW28966   4.678   0.420   2.032
 9356SOL    HW128967   4.768   0.457   2.007
 9356SOL    HW228968   4.678   0.397   2.130
 9357SOL     OW28969   1.835   2.805   5.935
 9357SOL    HW128970   1.919   2.765   5.897
 9357SOL    HW228971   1.764   2.735   5.940
 9358SOL     OW28972   6.353   3.129   2.119
 9358SOL    HW128973   6.409   3.137   2.037
 9358SOL    HW228974   6.411   3.103   2.197
 9359SOL     OW28975   1.650   4.305   6.036
 9359SOL    HW128976   1.685   4.389   5.995
 9359SOL    HW228977   1.553   4.315   6.056
 9360SOL     OW28978   0.950   4.638   6.228
 9360SOL    HW128979   0.966   4.582   6.308
 9360SOL    HW228980   1.036   4.679   6.198
 9361SOL     OW28981   2.039   5.272   3.150
 9361SOL    HW128982   2.136   5.289   3.167
 9361SOL    HW228983   1.988   5.283   3.235
 9362SOL     OW28984   1.642   0.936   2.568
 9362SOL    HW128985   1.544   0.946   2.549
 9362SOL    HW228986   1.654   0.889   2.655
 9363SOL     OW28987   2.905   5.420   1.787
 9363SOL    HW128988   2.832   5.369   1.833
 9363SOL    HW228989   2.900   5.516   1.814
 9364SOL     OW28990   2.656   1.982   0.022
 9364SOL    HW128991   2.701   2.050   0.081
 9364SOL    HW228992   2.607   1.916   0.079
 9365SOL     OW28993   3.346   1.865   3.441
 9365SOL    HW128994   3.385   1.955   3.421
 9365SOL    HW228995   3.333   1.856   3.540
 9366SOL     OW28996   2.874   5.772   6.488
 9366SOL    HW128997   2.825   5.698   6.534
 9366SOL    HW228998   2.809   5.844   6.463
 9367SOL     OW28999   6.495   6.528   2.199
 9367SOL    HW129000   6.449   6.471   2.130
 9367SOL    HW229001   6.591   6.540   2.173
 9368SOL     OW29002   3.142   0.402   2.585
 9368SOL    HW129003   3.083   0.474   2.548
 9368SOL    HW229004   3.197   0.363   2.512
 9369SOL     OW29005   6.584   6.594   3.819
 9369SOL    HW129006   6.531   6.673   3.789
 9369SOL    HW229007   6.559   6.571   3.913
 9370SOL     OW29008   5.461   0.519   4.962
 9370SOL    HW129009   5.435   0.526   4.866
 9370SOL    HW229010   5.558   0.495   4.968
 9371SOL     OW29011   2.256   5.980   0.464
 9371SOL    HW129012   2.207   6.035   0.396
 9371SOL    HW229013   2.283   5.893   0.424
 9372SOL     OW29014   5.392   6.813   1.647
 9372SOL    HW129015   5.354   6.881   1.585
 9372SOL    HW229016   5.458   6.756   1.599
 9373SOL     OW29017   4.686   2.700   1.472
 9373SOL    HW129018   4.607   2.695   1.533
 9373SOL    HW229019   4.679   2.782   1.414
 9374SOL     OW29020   0.482   2.819   6.629
 9374SOL    HW129021   0.472   2.721   6.645
 9374SOL    HW229022   0.555   2.855   6.688
 9375SOL     OW29023   0.447   2.273   1.009
 9375SOL    HW129024   0.485   2.359   0.975
 9375SOL    HW229025   0.358   2.290   1.051
 9376SOL     OW29026   2.256   3.740   1.542
 9376SOL    HW129027   2.201   3.661   1.569
 9376SOL    HW229028   2.290   3.727   1.449
 9377SOL     OW29029   1.971   5.284   2.903
 9377SOL    HW129030   1.997   5.323   2.992
 9377SOL    HW229031   2.007   5.191   2.896
 9378SOL     OW29032   3.369   1.122   3.151
 9378SOL    HW129033   3.343   1.143   3.245
 9378SOL    HW229034   3.374   1.206   3.097
 9379SOL     OW29035   5.000   0.254   5.047
 9379SOL    HW129036   4.988   0.230   5.143
 9379SOL    HW229037   5.082   0.311   5.037
 9380SOL     OW29038   3.656   5.628   5.042
 9380SOL    HW129039   3.640   5.549   4.984
 9380SOL    HW229040   3.570   5.673   5.063
 9381SOL     OW29041   5.401   2.972   5.460
 9381SOL    HW129042   5.389   2.997   5.364
 9381SOL    HW229043   5.330   3.016   5.515
 9382SOL     OW29044   4.235   0.960   3.572
 9382SOL    HW129045   4.245   1.027   3.499
 9382SOL    HW229046   4.153   0.979   3.625
 9383SOL     OW29047   5.717   4.674   3.968
 9383SOL    HW129048   5.729   4.683   3.869
 9383SOL    HW229049   5.643   4.734   3.998
 9384SOL     OW29050   3.606   0.290   1.988
 9384SOL    HW129051   3.537   0.279   2.060
 9384SOL    HW229052   3.568   0.345   1.914
 9385SOL     OW29053   4.430   1.334   4.194
 9385SOL    HW129054   4.409   1.270   4.119
 9385SOL    HW229055   4.409   1.427   4.164
 9386SOL     OW29056   3.491   5.653   5.340
 9386SOL    HW129057   3.501   5.735   5.284
 9386SOL    HW229058   3.394   5.634   5.355
 9387SOL     OW29059   3.019   2.466   0.543
 9387SOL    HW129060   3.080   2.440   0.618
 9387SOL    HW229061   3.069   2.522   0.477
 9388SOL     OW29062   1.950   6.062   3.606
 9388SOL    HW129063   2.001   6.008   3.672
 9388SOL    HW229064   1.994   6.057   3.517
 9389SOL     OW29065   2.918   6.925   2.591
 9389SOL    HW129066   3.012   6.955   2.609
 9389SOL    HW229067   2.916   6.868   2.509
 9390SOL     OW29068   5.778   5.288   5.956
 9390SOL    HW129069   5.714   5.345   6.007
 9390SOL    HW229070   5.727   5.226   5.895
 9391SOL     OW29071   0.326   6.995   6.006
 9391SOL    HW129072   0.238   6.964   6.041
 9391SOL    HW229073   0.383   0.005   6.082
 9392SOL     OW29074   5.053   4.464   5.190
 9392SOL    HW129075   4.991   4.484   5.115
 9392SOL    HW229076   5.006   4.477   5.277
 9393SOL     OW29077   2.721   6.980   5.396
 9393SOL    HW129078   2.626   6.990   5.423
 9393SOL    HW229079   2.780   7.019   5.467
 9394SOL     OW29080   6.224   0.317   0.803
 9394SOL    HW129081   6.157   0.299   0.875
 9394SOL    HW229082   6.208   0.255   0.726
 9395SOL     OW29083   2.105   1.054   0.984
 9395SOL    HW129084   2.192   1.043   1.032
 9395SOL    HW229085   2.105   1.142   0.936
 9396SOL     OW29086   1.479   4.503   4.517
 9396SOL    HW129087   1.440   4.557   4.592
 9396SOL    HW229088   1.578   4.516   4.515
 9397SOL     OW29089   2.602   6.509   5.924
 9397SOL    HW129090   2.512   6.479   5.956
 9397SOL    HW229091   2.673   6.455   5.970
 9398SOL     OW29092   5.937   1.129   6.216
 9398SOL    HW129093   5.884   1.174   6.143
 9398SOL    HW229094   6.009   1.191   6.247
 9399SOL     OW29095   0.927   3.369   4.047
 9399SOL    HW129096   0.857   3.324   3.992
 9399SOL    HW229097   0.899   3.463   4.066
 9400SOL     OW29098   4.262   0.363   1.005
 9400SOL    HW129099   4.162   0.374   1.010
 9400SOL    HW229100   4.300   0.430   0.942
 9401SOL     OW29101   0.086   1.775   2.964
 9401SOL    HW129102   0.077   1.692   2.910
 9401SOL    HW229103   0.183   1.799   2.973
 9402SOL     OW29104   1.363   3.881   2.698
 9402SOL    HW129105   1.396   3.866   2.791
 9402SOL    HW229106   1.403   3.813   2.637
 9403SOL     OW29107   6.427   1.342   2.110
 9403SOL    HW129108   6.417   1.440   2.094
 9403SOL    HW229109   6.385   1.291   2.035
 9404SOL     OW29110   0.377   1.872   1.282
 9404SOL    HW129111   0.308   1.894   1.352
 9404SOL    HW229112   0.468   1.896   1.316
 9405SOL     OW29113   1.459   4.085   3.957
 9405SOL    HW129114   1.513   4.054   3.878
 9405SOL    HW229115   1.430   4.179   3.942
 9406SOL     OW29116   1.030   3.189   6.816
 9406SOL    HW129117   1.083   3.213   6.898
 9406SOL    HW229118   1.086   3.130   6.757
 9407SOL     OW29119   2.512   5.411   4.558
 9407SOL    HW129120   2.520   5.425   4.657
 9407SOL    HW229121   2.585   5.458   4.511
 9408SOL     OW29122   0.620   2.166   6.182
 9408SOL    HW129123   0.705   2.178   6.233
 9408SOL    HW229124   0.612   2.071   6.151
 9409SOL     OW29125   6.275   5.637   1.780
 9409SOL    HW129126   6.349   5.633   1.847
 9409SOL    HW229127   6.286   5.563   1.713
 9410SOL     OW29128   3.723   1.101   1.825
 9410SOL    HW129129   3.666   1.176   1.790
 9410SOL    HW229130   3.665   1.025   1.852
 9411SOL     OW29131   3.939   3.186   3.098
 9411SOL    HW129132   4.004   3.234   3.156
 9411SOL    HW229133   3.974   3.182   3.004
 9412SOL     OW29134   1.593   0.061   2.145
 9412SOL    HW129135   1.594   0.139   2.208
 9412SOL    HW229136   1.512   0.005   2.162
 9413SOL     OW29137   4.566   5.325   4.171
 9413SOL    HW129138   4.562   5.369   4.081
 9413SOL    HW229139   4.650   5.354   4.218
 9414SOL     OW29140   3.340   1.564   3.869
 9414SOL    HW129141   3.327   1.485   3.808
 9414SOL    HW229142   3.435   1.568   3.898
 9415SOL     OW29143   2.364   0.051   1.620
 9415SOL    HW129144   2.317   0.013   1.540
 9415SOL    HW229145   2.327   0.141   1.641
 9416SOL     OW29146   0.240   0.586   5.663
 9416SOL    HW129147   0.149   0.621   5.639
 9416SOL    HW229148   0.259   0.503   5.610
 9417SOL     OW29149   3.551   6.624   1.165
 9417SOL    HW129150   3.512   6.608   1.256
 9417SOL    HW229151   3.636   6.676   1.174
 9418SOL     OW29152   2.396   1.278   2.286
 9418SOL    HW129153   2.438   1.197   2.245
 9418SOL    HW229154   2.350   1.331   2.214
 9419SOL     OW29155   1.392   3.333   6.789
 9419SOL    HW129156   1.488   3.345   6.766
 9419SOL    HW229157   1.343   3.419   6.775
 9420SOL     OW29158   5.167   4.175   0.330
 9420SOL    HW129159   5.115   4.188   0.245
 9420SOL    HW229160   5.104   4.152   0.404
 9421SOL     OW29161   2.952   5.295   4.012
 9421SOL    HW129162   2.865   5.305   4.060
 9421SOL    HW229163   2.996   5.210   4.041
 9422SOL     OW29164   2.696   6.144   3.888
 9422SOL    HW129165   2.747   6.089   3.955
 9422SOL    HW229166   2.636   6.208   3.936
 9423SOL     OW29167   3.978   6.297   3.066
 9423SOL    HW129168   4.073   6.284   3.040
 9423SOL    HW229169   3.968   6.286   3.165
 9424SOL     OW29170   5.419   2.120   4.141
 9424SOL    HW129171   5.418   2.217   4.115
 9424SOL    HW229172   5.432   2.112   4.240
 9425SOL     OW29173   5.679   5.253   1.200
 9425SOL    HW129174   5.720   5.162   1.211
 9425SOL    HW229175   5.750   5.318   1.173
 9426SOL     OW29176   2.451   1.870   5.902
 9426SOL    HW129177   2.502   1.924   5.835
 9426SOL    HW229178   2.486   1.888   5.994
 9427SOL     OW29179   2.520   6.081   3.224
 9427SOL    HW129180   2.580   6.120   3.294
 9427SOL    HW229181   2.570   6.072   3.138
 9428SOL     OW29182   6.627   0.003   0.726
 9428SOL    HW129183   6.701   0.003   0.793
 9428SOL    HW229184   6.570   0.084   0.739
 9429SOL     OW29185   2.381   2.407   3.865
 9429SOL    HW129186   2.352   2.465   3.788
 9429SOL    HW229187   2.357   2.452   3.951
 9430SOL     OW29188   0.352   2.355   4.578
 9430SOL    HW129189   0.370   2.263   4.544
 9430SOL    HW229190   0.389   2.365   4.670
 9431SOL     OW29191   6.924   4.825   1.256
 9431SOL    HW129192   6.919   4.908   1.201
 9431SOL    HW229193   7.005   4.829   1.315
 9432SOL     OW29194   5.741   1.441   4.515
 9432SOL    HW129195   5.671   1.438   4.443
 9432SOL    HW229196   5.814   1.376   4.493
 9433SOL     OW29197   3.801   6.672   3.157
 9433SOL    HW129198   3.810   6.576   3.133
 9433SOL    HW229199   3.768   6.681   3.251
 9434SOL     OW29200   6.325   5.811   3.672
 9434SOL    HW129201   6.268   5.732   3.648
 9434SOL    HW229202   6.383   5.835   3.594
 9435SOL     OW29203   0.323   1.878   2.871
 9435SOL    HW129204   0.407   1.894   2.922
 9435SOL    HW229205   0.335   1.906   2.777
 9436SOL     OW29206   1.584   1.380   2.620
 9436SOL    HW129207   1.486   1.383   2.602
 9436SOL    HW229208   1.623   1.471   2.609
 9437SOL     OW29209   0.661   5.089   3.410
 9437SOL    HW129210   0.655   5.083   3.311
 9437SOL    HW229211   0.755   5.073   3.439
 9438SOL     OW29212   1.632   6.835   2.028
 9438SOL    HW129213   1.724   6.810   2.000
 9438SOL    HW229214   1.627   6.935   2.039
 9439SOL     OW29215   0.669   3.384   1.565
 9439SOL    HW129216   0.594   3.450   1.575
 9439SOL    HW229217   0.654   3.329   1.482
 9440SOL     OW29218   3.783   4.865   3.820
 9440SOL    HW129219   3.731   4.839   3.738
 9440SOL    HW229220   3.873   4.821   3.818
 9441SOL     OW29221   6.520   6.197   5.435
 9441SOL    HW129222   6.471   6.155   5.511
 9441SOL    HW229223   6.609   6.154   5.424
 9442SOL     OW29224   4.789   3.476   1.809
 9442SOL    HW129225   4.746   3.424   1.735
 9442SOL    HW229226   4.846   3.415   1.864
 9443SOL     OW29227   2.480   5.359   0.632
 9443SOL    HW129228   2.462   5.457   0.637
 9443SOL    HW229229   2.576   5.342   0.657
 9444SOL     OW29230   1.765   4.536   0.745
 9444SOL    HW129231   1.813   4.618   0.715
 9444SOL    HW229232   1.708   4.501   0.671
 9445SOL     OW29233   0.000   2.617   2.995
 9445SOL    HW129234   6.950   2.551   2.972
 9445SOL    HW229235   7.021   2.691   2.928
 9446SOL     OW29236   0.571   5.263   4.383
 9446SOL    HW129237   0.581   5.181   4.439
 9446SOL    HW229238   0.597   5.243   4.289
 9447SOL     OW29239   5.362   4.788   3.605
 9447SOL    HW129240   5.424   4.714   3.581
 9447SOL    HW229241   5.391   4.829   3.692
 9448SOL     OW29242   6.865   0.025   6.543
 9448SOL    HW129243   6.788   0.089   6.544
 9448SOL    HW229244   6.889   7.021   6.637
 9449SOL     OW29245   5.797   6.569   0.139
 9449SOL    HW129246   5.892   6.582   0.111
 9449SOL    HW229247   5.736   6.614   0.073
 9450SOL     OW29248   2.183   5.285   3.527
 9450SOL    HW129249   2.178   5.310   3.623
 9450SOL    HW229250   2.090   5.286   3.488
 9451SOL     OW29251   4.042   6.136   5.876
 9451SOL    HW129252   4.011   6.212   5.933
 9451SOL    HW229253   3.969   6.067   5.870
 9452SOL     OW29254   0.963   4.258   6.782
 9452SOL    HW129255   0.989   4.163   6.801
 9452SOL    HW229256   0.975   4.313   6.864
 9453SOL     OW29257   2.839   4.947   2.486
 9453SOL    HW129258   2.794   4.951   2.575
 9453SOL    HW229259   2.795   4.878   2.429
 9454SOL     OW29260   3.800   3.032   6.398
 9454SOL    HW129261   3.854   3.034   6.314
 9454SOL    HW229262   3.829   2.955   6.455
 9455SOL     OW29263   2.450   2.205   2.609
 9455SOL    HW129264   2.524   2.174   2.549
 9455SOL    HW229265   2.485   2.220   2.701
 9456SOL     OW29266   5.959   4.098   1.475
 9456SOL    HW129267   5.955   4.072   1.378
 9456SOL    HW229268   5.883   4.159   1.496
 9457SOL     OW29269   0.324   4.765   4.140
 9457SOL    HW129270   0.329   4.864   4.140
 9457SOL    HW229271   0.355   4.730   4.052
 9458SOL     OW29272   6.826   4.052   0.350
 9458SOL    HW129273   6.803   4.031   0.255
 9458SOL    HW229274   6.746   4.088   0.397
 9459SOL     OW29275   5.460   4.848   3.858
 9459SOL    HW129276   5.471   4.925   3.921
 9459SOL    HW229277   5.432   4.766   3.908
 9460SOL     OW29278   2.189   3.166   4.611
 9460SOL    HW129279   2.243   3.117   4.543
 9460SOL    HW229280   2.155   3.252   4.571
 9461SOL     OW29281   0.717   1.731   1.913
 9461SOL    HW129282   0.698   1.663   1.984
 9461SOL    HW229283   0.641   1.795   1.907
 9462SOL     OW29284   1.847   2.902   3.883
 9462SOL    HW129285   1.866   2.828   3.948
 9462SOL    HW229286   1.922   2.909   3.817
 9463SOL     OW29287   5.505   6.625   1.509
 9463SOL    HW129288   5.415   6.620   1.467
 9463SOL    HW229289   5.536   6.533   1.535
 9464SOL     OW29290   5.684   6.744   0.459
 9464SOL    HW129291   5.592   6.752   0.420
 9464SOL    HW229292   5.685   6.669   0.526
 9465SOL     OW29293   6.932   4.264   1.527
 9465SOL    HW129294   6.924   4.356   1.488
 9465SOL    HW229295   6.939   4.270   1.626
 9466SOL     OW29296   3.487   3.972   5.769
 9466SOL    HW129297   3.488   3.961   5.669
 9466SOL    HW229298   3.515   4.065   5.793
 9467SOL     OW29299   0.926   2.653   1.242
 9467SOL    HW129300   0.834   2.622   1.267
 9467SOL    HW229301   0.975   2.578   1.198
 9468SOL     OW29302   6.825   3.613   6.285
 9468SOL    HW129303   6.762   3.688   6.264
 9468SOL    HW229304   6.790   3.528   6.245
 9469SOL     OW29305   6.950   5.730   1.299
 9469SOL    HW129306   0.001   5.787   1.339
 9469SOL    HW229307   6.971   5.712   1.203
 9470SOL     OW29308   4.493   3.521   6.901
 9470SOL    HW129309   4.448   3.515   6.990
 9470SOL    HW229310   4.441   3.582   6.841
 9471SOL     OW29311   6.398   1.728   5.427
 9471SOL    HW129312   6.331   1.658   5.402
 9471SOL    HW229313   6.358   1.789   5.496
 9472SOL     OW29314   0.861   3.750   5.540
 9472SOL    HW129315   0.875   3.815   5.466
 9472SOL    HW229316   0.873   3.797   5.628
 9473SOL     OW29317   2.911   4.464   6.222
 9473SOL    HW129318   2.959   4.551   6.206
 9473SOL    HW229319   2.955   4.417   6.298
 9474SOL     OW29320   6.184   3.361   2.076
 9474SOL    HW129321   6.251   3.289   2.057
 9474SOL    HW229322   6.160   3.407   1.991
 9475SOL     OW29323   4.794   3.719   0.196
 9475SOL    HW129324   4.748   3.694   0.280
 9475SOL    HW229325   4.803   3.819   0.190
 9476SOL     OW29326   3.938   3.714   5.007
 9476SOL    HW129327   3.997   3.642   4.970
 9476SOL    HW229328   3.976   3.746   5.094
 9477SOL     OW29329   0.753   2.803   1.045
 9477SOL    HW129330   0.822   2.842   0.983
 9477SOL    HW229331   0.799   2.756   1.120
 9478SOL     OW29332   5.088   3.009   1.269
 9478SOL    HW129333   5.175   2.994   1.221
 9478SOL    HW229334   5.015   2.958   1.222
 9479SOL     OW29335   4.018   6.555   0.786
 9479SOL    HW129336   4.096   6.562   0.848
 9479SOL    HW229337   4.045   6.584   0.694
 9480SOL     OW29338   5.841   5.202   0.437
 9480SOL    HW129339   5.864   5.267   0.365
 9480SOL    HW229340   5.780   5.132   0.401
 9481SOL     OW29341   5.576   2.035   2.688
 9481SOL    HW129342   5.537   2.079   2.769
 9481SOL    HW229343   5.665   2.074   2.668
 9482SOL     OW29344   6.584   0.423   2.613
 9482SOL    HW129345   6.515   0.495   2.623
 9482SOL    HW229346   6.675   0.460   2.633
 9483SOL     OW29347   1.313   1.132   0.580
 9483SOL    HW129348   1.273   1.136   0.671
 9483SOL    HW229349   1.353   1.221   0.557
 9484SOL     OW29350   2.992   0.040   4.856
 9484SOL    HW129351   2.898   0.044   4.823
 9484SOL    HW229352   3.051   0.001   4.784
 9485SOL     OW29353   0.076   1.821   0.948
 9485SOL    HW129354   0.174   1.804   0.940
 9485SOL    HW229355   0.059   1.919   0.952
 9486SOL     OW29356   4.517   6.080   1.676
 9486SOL    HW129357   4.584   6.061   1.605
 9486SOL    HW229358   4.430   6.039   1.652
 9487SOL     OW29359   3.252   4.108   4.211
 9487SOL    HW129360   3.322   4.141   4.275
 9487SOL    HW229361   3.166   4.095   4.260
 9488SOL     OW29362   2.566   0.389   1.154
 9488SOL    HW129363   2.499   0.421   1.088
 9488SOL    HW229364   2.524   0.320   1.213
 9489SOL     OW29365   5.104   4.628   1.280
 9489SOL    HW129366   5.145   4.541   1.251
 9489SOL    HW229367   5.010   4.612   1.307
 9490SOL     OW29368   6.803   6.255   3.710
 9490SOL    HW129369   6.858   6.224   3.633
 9490SOL    HW229370   6.708   6.269   3.681
 9491SOL     OW29371   6.033   5.369   4.280
 9491SOL    HW129372   5.940   5.359   4.315
 9491SOL    HW229373   6.048   5.301   4.208
 9492SOL     OW29374   3.413   3.357   5.109
 9492SOL    HW129375   3.423   3.455   5.125
 9492SOL    HW229376   3.468   3.330   5.030
 9493SOL     OW29377   3.393   5.596   4.592
 9493SOL    HW129378   3.485   5.634   4.593
 9493SOL    HW229379   3.329   5.663   4.631
 9494SOL     OW29380   5.880   3.057   2.105
 9494SOL    HW129381   5.892   3.148   2.065
 9494SOL    HW229382   5.838   3.066   2.195
 9495SOL     OW29383   7.015   1.718   2.370
 9495SOL    HW129384   0.093   1.712   2.378
 9495SOL    HW229385   6.976   1.755   2.454
 9496SOL     OW29386   5.023   2.470   1.753
 9496SOL    HW129387   5.013   2.568   1.736
 9496SOL    HW229388   4.990   2.448   1.845
 9497SOL     OW29389   4.741   6.206   5.187
 9497SOL    HW129390   4.653   6.204   5.141
 9497SOL    HW229391   4.806   6.147   5.139
 9498SOL     OW29392   6.526   4.492   4.998
 9498SOL    HW129393   6.461   4.417   5.012
 9498SOL    HW229394   6.609   4.457   4.955
 9499SOL     OW29395   0.451   6.347   4.986
 9499SOL    HW129396   0.461   6.398   4.900
 9499SOL    HW229397   0.494   6.257   4.977
 9500SOL     OW29398   4.103   6.573   0.519
 9500SOL    HW129399   4.136   6.480   0.536
 9500SOL    HW229400   4.055   6.576   0.431
 9501SOL     OW29401   1.797   1.364   4.040
 9501SOL    HW129402   1.712   1.405   4.073
 9501SOL    HW229403   1.851   1.332   4.117
 9502SOL     OW29404   6.074   3.873   4.877
 9502SOL    HW129405   6.126   3.816   4.941
 9502SOL    HW229406   6.130   3.950   4.847
 9503SOL     OW29407   6.933   2.727   0.475
 9503SOL    HW129408   0.004   2.694   0.499
 9503SOL    HW229409   6.928   2.825   0.492
 9504SOL     OW29410   6.622   4.114   2.062
 9504SOL    HW129411   6.657   4.102   1.969
 9504SOL    HW229412   6.522   4.114   2.060
 9505SOL     OW29413   5.171   4.281   5.589
 9505SOL    HW129414   5.111   4.302   5.511
 9505SOL    HW229415   5.199   4.366   5.633
 9506SOL     OW29416   1.608   2.602   0.865
 9506SOL    HW129417   1.581   2.558   0.780
 9506SOL    HW229418   1.666   2.540   0.918
 9507SOL     OW29419   6.926   0.847   1.372
 9507SOL    HW129420   6.958   0.902   1.295
 9507SOL    HW229421   6.872   0.769   1.338
 9508SOL     OW29422   5.902   1.609   2.723
 9508SOL    HW129423   5.831   1.576   2.785
 9508SOL    HW229424   5.870   1.691   2.676
 9509SOL     OW29425   0.317   0.796   3.484
 9509SOL    HW129426   0.297   0.703   3.452
 9509SOL    HW229427   0.259   0.817   3.563
 9510SOL     OW29428   1.250   3.585   3.234
 9510SOL    HW129429   1.289   3.622   3.318
 9510SOL    HW229430   1.155   3.615   3.225
 9511SOL     OW29431   1.874   0.911   1.686
 9511SOL    HW129432   1.830   0.910   1.596
 9511SOL    HW229433   1.805   0.916   1.757
 9512SOL     OW29434   6.614   2.502   0.761
 9512SOL    HW129435   6.527   2.550   0.751
 9512SOL    HW229436   6.602   2.425   0.823
 9513SOL     OW29437   3.067   4.812   6.106
 9513SOL    HW129438   3.033   4.897   6.145
 9513SOL    HW229439   3.099   4.752   6.179
 9514SOL     OW29440   2.932   4.760   6.718
 9514SOL    HW129441   2.941   4.813   6.634
 9514SOL    HW229442   3.017   4.709   6.734
 9515SOL     OW29443   2.188   6.152   2.595
 9515SOL    HW129444   2.169   6.155   2.693
 9515SOL    HW229445   2.133   6.079   2.552
 9516SOL     OW29446   5.715   4.804   0.164
 9516SOL    HW129447   5.728   4.864   0.243
 9516SOL    HW229448   5.755   4.715   0.183
 9517SOL     OW29449   1.808   3.859   1.283
 9517SOL    HW129450   1.781   3.802   1.361
 9517SOL    HW229451   1.730   3.916   1.256
 9518SOL     OW29452   2.157   1.744   0.682
 9518SOL    HW129453   2.090   1.702   0.620
 9518SOL    HW229454   2.135   1.841   0.692
 9519SOL     OW29455   2.934   3.223   5.135
 9519SOL    HW129456   3.012   3.163   5.158
 9519SOL    HW229457   2.941   3.252   5.040
 9520SOL     OW29458   2.878   0.424   2.873
 9520SOL    HW129459   2.939   0.500   2.893
 9520SOL    HW229460   2.908   0.343   2.923
 9521SOL     OW29461   5.835   5.525   2.607
 9521SOL    HW129462   5.926   5.492   2.632
 9521SOL    HW229463   5.784   5.452   2.561
 9522SOL     OW29464   3.416   5.352   1.133
 9522SOL    HW129465   3.500   5.342   1.079
 9522SOL    HW229466   3.346   5.289   1.098
 9523SOL     OW29467   3.231   5.402   5.067
 9523SOL    HW129468   3.163   5.347   5.018
 9523SOL    HW229469   3.275   5.465   5.003
 9524SOL     OW29470   4.164   2.690   1.739
 9524SOL    HW129471   4.065   2.688   1.751
 9524SOL    HW229472   4.193   2.781   1.709
 9525SOL     OW29473   2.853   2.680   6.202
 9525SOL    HW129474   2.869   2.581   6.194
 9525SOL    HW229475   2.800   2.711   6.123
 9526SOL     OW29476   5.207   5.897   1.949
 9526SOL    HW129477   5.157   5.812   1.934
 9526SOL    HW229478   5.164   5.949   2.022
 9527SOL     OW29479   0.950   0.291   1.405
 9527SOL    HW129480   0.877   0.230   1.375
 9527SOL    HW229481   1.038   0.247   1.393
 9528SOL     OW29482   6.817   0.642   7.010
 9528SOL    HW129483   6.873   0.559   7.005
 9528SOL    HW229484   6.748   0.640   6.937
 9529SOL     OW29485   0.029   2.866   5.057
 9529SOL    HW129486   7.011   2.883   5.148
 9529SOL    HW229487   0.033   2.767   5.041
 9530SOL     OW29488   1.596   3.286   3.616
 9530SOL    HW129489   1.555   3.376   3.629
 9530SOL    HW229490   1.525   3.215   3.620
 9531SOL     OW29491   3.365   5.192   3.339
 9531SOL    HW129492   3.331   5.246   3.415
 9531SOL    HW229493   3.406   5.107   3.374
 9532SOL     OW29494   0.171   5.965   2.203
 9532SOL    HW129495   0.183   6.016   2.288
 9532SOL    HW229496   0.096   6.006   2.150
 9533SOL     OW29497   6.971   0.659   5.291
 9533SOL    HW129498   6.905   0.611   5.349
 9533SOL    HW229499   6.938   0.752   5.273
 9534SOL     OW29500   5.992   2.867   5.252
 9534SOL    HW129501   6.049   2.790   5.280
 9534SOL    HW229502   5.972   2.924   5.331
 9535SOL     OW29503   2.271   1.373   5.981
 9535SOL    HW129504   2.349   1.436   5.989
 9535SOL    HW229505   2.215   1.400   5.902
 9536SOL     OW29506   2.529   5.036   5.278
 9536SOL    HW129507   2.439   5.053   5.238
 9536SOL    HW229508   2.574   4.961   5.229
 9537SOL     OW29509   2.625   0.165   2.303
 9537SOL    HW129510   2.527   0.154   2.319
 9537SOL    HW229511   2.675   0.148   2.388
 9538SOL     OW29512   6.231   1.697   4.558
 9538SOL    HW129513   6.241   1.772   4.493
 9538SOL    HW229514   6.171   1.726   4.633
 9539SOL     OW29515   2.313   4.198   6.216
 9539SOL    HW129516   2.317   4.098   6.225
 9539SOL    HW229517   2.218   4.227   6.206
 9540SOL     OW29518   4.629   4.305   5.068
 9540SOL    HW129519   4.565   4.260   5.006
 9540SOL    HW229520   4.722   4.272   5.051
 9541SOL     OW29521   2.266   2.243   5.746
 9541SOL    HW129522   2.221   2.196   5.822
 9541SOL    HW229523   2.365   2.232   5.752
 9542SOL     OW29524   4.799   3.797   5.354
 9542SOL    HW129525   4.754   3.737   5.288
 9542SOL    HW229526   4.875   3.748   5.397
 9543SOL     OW29527   4.516   0.595   4.325
 9543SOL    HW129528   4.490   0.498   4.326
 9543SOL    HW229529   4.595   0.608   4.385
 9544SOL     OW29530   5.448   0.795   2.126
 9544SOL    HW129531   5.488   0.724   2.068
 9544SOL    HW229532   5.511   0.872   2.132
 9545SOL     OW29533   6.398   5.229   3.012
 9545SOL    HW129534   6.464   5.240   3.086
 9545SOL    HW229535   6.382   5.132   2.996
 9546SOL     OW29536   2.306   3.915   6.932
 9546SOL    HW129537   2.383   3.906   6.869
 9546SOL    HW229538   2.335   3.965   7.014
 9547SOL     OW29539   2.615   6.078   4.326
 9547SOL    HW129540   2.575   6.114   4.410
 9547SOL    HW229541   2.685   6.141   4.293
 9548SOL     OW29542   0.002   5.512   5.218
 9548SOL    HW129543   7.008   5.582   5.288
 9548SOL    HW229544   0.020   5.556   5.130
 9549SOL     OW29545   3.261   5.138   1.040
 9549SOL    HW129546   3.299   5.098   1.123
 9549SOL    HW229547   3.286   5.081   0.961
 9550SOL     OW29548   6.985   1.052   6.126
 9550SOL    HW129549   0.002   1.066   6.035
 9550SOL    HW229550   0.038   1.035   6.191
 9551SOL     OW29551   0.163   6.750   4.093
 9551SOL    HW129552   0.261   6.749   4.111
 9551SOL    HW229553   0.128   6.656   4.088
 9552SOL     OW29554   1.625   6.429   2.513
 9552SOL    HW129555   1.708   6.480   2.537
 9552SOL    HW229556   1.545   6.482   2.540
 9553SOL     OW29557   5.718   4.388   6.577
 9553SOL    HW129558   5.803   4.378   6.524
 9553SOL    HW229559   5.640   4.360   6.520
 9554SOL     OW29560   2.833   1.304   1.608
 9554SOL    HW129561   2.857   1.223   1.554
 9554SOL    HW229562   2.901   1.376   1.592
 9555SOL     OW29563   6.353   2.706   1.095
 9555SOL    HW129564   6.279   2.675   1.035
 9555SOL    HW229565   6.333   2.678   1.189
 9556SOL     OW29566   2.392   1.965   1.320
 9556SOL    HW129567   2.394   1.952   1.221
 9556SOL    HW229568   2.483   1.953   1.358
 9557SOL     OW29569   6.024   0.521   2.561
 9557SOL    HW129570   5.961   0.448   2.535
 9557SOL    HW229571   6.095   0.485   2.620
 9558SOL     OW29572   6.815   5.270   3.638
 9558SOL    HW129573   6.716   5.263   3.627
 9558SOL    HW229574   6.842   5.366   3.639
 9559SOL     OW29575   6.712   4.393   2.615
 9559SOL    HW129576   6.665   4.333   2.679
 9559SOL    HW229577   6.810   4.372   2.615
 9560SOL     OW29578   2.123   1.493   2.478
 9560SOL    HW129579   2.214   1.503   2.436
 9560SOL    HW229580   2.082   1.583   2.489
 9561SOL     OW29581   3.046   0.047   0.467
 9561SOL    HW129582   3.058   0.135   0.512
 9561SOL    HW229583   3.136   0.009   0.444
 9562SOL     OW29584   3.304   5.913   4.385
 9562SOL    HW129585   3.318   5.845   4.457
 9562SOL    HW229586   3.316   6.005   4.423
 9563SOL     OW29587   6.207   6.265   6.916
 9563SOL    HW129588   6.123   6.210   6.916
 9563SOL    HW229589   6.208   6.323   6.998
 9564SOL     OW29590   2.608   0.279   6.700
 9564SOL    HW129591   2.643   0.294   6.608
 9564SOL    HW229592   2.572   0.365   6.736
 9565SOL     OW29593   4.379   5.928   5.277
 9565SOL    HW129594   4.339   6.019   5.269
 9565SOL    HW229595   4.313   5.866   5.320
 9566SOL     OW29596   3.398   4.602   6.667
 9566SOL    HW129597   3.307   4.570   6.642
 9566SOL    HW229598   3.416   4.689   6.621
 9567SOL     OW29599   6.134   5.210   6.429
 9567SOL    HW129600   6.137   5.169   6.338
 9567SOL    HW229601   6.109   5.307   6.422
 9568SOL     OW29602   4.437   3.299   6.520
 9568SOL    HW129603   4.388   3.361   6.581
 9568SOL    HW229604   4.465   3.217   6.571
 9569SOL     OW29605   5.996   0.709   0.568
 9569SOL    HW129606   5.955   0.627   0.528
 9569SOL    HW229607   6.045   0.760   0.497
 9570SOL     OW29608   0.715   1.603   1.678
 9570SOL    HW129609   0.704   1.513   1.720
 9570SOL    HW229610   0.708   1.674   1.749
 9571SOL     OW29611   2.859   3.045   0.494
 9571SOL    HW129612   2.918   3.033   0.573
 9571SOL    HW229613   2.796   3.121   0.510
 9572SOL     OW29614   1.348   4.699   0.893
 9572SOL    HW129615   1.282   4.768   0.923
 9572SOL    HW229616   1.301   4.613   0.874
 9573SOL     OW29617   0.469   1.102   6.791
 9573SOL    HW129618   0.529   1.023   6.791
 9573SOL    HW229619   0.499   1.167   6.721
 9574SOL     OW29620   3.150   3.543   5.093
 9574SOL    HW129621   3.177   3.593   5.176
 9574SOL    HW229622   3.226   3.484   5.065
 9575SOL     OW29623   6.120   0.973   1.114
 9575SOL    HW129624   6.164   1.063   1.109
 9575SOL    HW229625   6.168   0.909   1.054
 9576SOL     OW29626   3.887   0.978   3.167
 9576SOL    HW129627   3.902   0.882   3.193
 9576SOL    HW229628   3.863   0.982   3.070
 9577SOL     OW29629   0.921   0.665   2.245
 9577SOL    HW129630   0.937   0.584   2.188
 9577SOL    HW229631   0.866   0.639   2.325
 9578SOL     OW29632   5.774   2.809   2.664
 9578SOL    HW129633   5.869   2.834   2.680
 9578SOL    HW229634   5.746   2.740   2.731
 9579SOL     OW29635   0.800   6.749   2.649
 9579SOL    HW129636   0.893   6.772   2.677
 9579SOL    HW229637   0.778   6.656   2.680
 9580SOL     OW29638   5.365   3.489   6.839
 9580SOL    HW129639   5.431   3.560   6.862
 9580SOL    HW229640   5.387   3.450   6.749
 9581SOL     OW29641   2.270   4.750   6.193
 9581SOL    HW129642   2.204   4.723   6.263
 9581SOL    HW229643   2.265   4.687   6.116
 9582SOL     OW29644   4.461   4.691   4.010
 9582SOL    HW129645   4.554   4.655   4.010
 9582SOL    HW229646   4.409   4.654   4.087
 9583SOL     OW29647   2.067   3.246   1.869
 9583SOL    HW129648   1.982   3.299   1.878
 9583SOL    HW229649   2.145   3.306   1.888
 9584SOL     OW29650   5.891   5.844   6.863
 9584SOL    HW129651   5.982   5.876   6.890
 9584SOL    HW229652   5.899   5.774   6.792
 9585SOL     OW29653   5.788   0.351   2.570
 9585SOL    HW129654   5.694   0.363   2.536
 9585SOL    HW229655   5.787   0.348   2.670
 9586SOL     OW29656   5.438   3.406   3.625
 9586SOL    HW129657   5.435   3.407   3.725
 9586SOL    HW229658   5.372   3.472   3.589
 9587SOL     OW29659   6.038   0.334   1.398
 9587SOL    HW129660   5.978   0.414   1.409
 9587SOL    HW229661   6.104   0.352   1.326
 9588SOL     OW29662   0.237   0.968   1.371
 9588SOL    HW129663   0.246   0.913   1.454
 9588SOL    HW229664   0.142   0.966   1.339
 9589SOL     OW29665   2.281   6.515   6.322
 9589SOL    HW129666   2.244   6.570   6.398
 9589SOL    HW229667   2.301   6.423   6.355
 9590SOL     OW29668   0.359   3.665   2.400
 9590SOL    HW129669   0.435   3.723   2.373
 9590SOL    HW229670   0.284   3.676   2.335
 9591SOL     OW29671   2.183   6.780   0.659
 9591SOL    HW129672   2.276   6.756   0.689
 9591SOL    HW229673   2.116   6.738   0.720
 9592SOL     OW29674   4.078   5.187   3.133
 9592SOL    HW129675   4.161   5.131   3.141
 9592SOL    HW229676   4.054   5.223   3.223
 9593SOL     OW29677   5.423   2.368   4.338
 9593SOL    HW129678   5.376   2.442   4.291
 9593SOL    HW229679   5.511   2.351   4.294
 9594SOL     OW29680   6.720   6.796   2.843
 9594SOL    HW129681   6.693   6.781   2.939
 9594SOL    HW229682   6.746   6.709   2.802
 9595SOL     OW29683   2.234   5.479   4.872
 9595SOL    HW129684   2.202   5.552   4.812
 9595SOL    HW229685   2.284   5.520   4.949
 9596SOL     OW29686   0.088   5.202   5.723
 9596SOL    HW129687   0.022   5.277   5.714
 9596SOL    HW229688   0.096   5.155   5.635
 9597SOL     OW29689   0.150   4.349   2.027
 9597SOL    HW129690   0.154   4.285   1.951
 9597SOL    HW229691   0.214   4.320   2.098
 9598SOL     OW29692   0.115   4.190   5.530
 9598SOL    HW129693   0.091   4.271   5.478
 9598SOL    HW229694   0.033   4.148   5.568
 9599SOL     OW29695   3.516   6.973   5.328
 9599SOL    HW129696   3.612   6.951   5.310
 9599SOL    HW229697   3.479   0.005   5.251
 9600SOL     OW29698   1.588   0.643   5.560
 9600SOL    HW129699   1.577   0.738   5.588
 9600SOL    HW229700   1.588   0.584   5.641
 9601SOL     OW29701   0.021   4.066   6.218
 9601SOL    HW129702   0.051   3.975   6.192
 9601SOL    HW229703   0.001   4.119   6.136
 9602SOL     OW29704   6.662   4.768   6.034
 9602SOL    HW129705   6.586   4.773   5.968
 9602SOL    HW229706   6.742   4.727   5.990
 9603SOL     OW29707   2.632   6.466   4.602
 9603SOL    HW129708   2.721   6.491   4.565
 9603SOL    HW229709   2.642   6.384   4.659
 9604SOL     OW29710   4.851   1.090   0.675
 9604SOL    HW129711   4.819   1.144   0.598
 9604SOL    HW229712   4.826   0.994   0.662
 9605SOL     OW29713   1.273   4.743   5.696
 9605SOL    HW129714   1.270   4.812   5.624
 9605SOL    HW229715   1.340   4.673   5.673
 9606SOL     OW29716   1.155   6.800   3.252
 9606SOL    HW129717   1.074   6.851   3.224
 9606SOL    HW229718   1.236   6.857   3.241
 9607SOL     OW29719   0.816   1.075   1.927
 9607SOL    HW129720   0.764   1.138   1.869
 9607SOL    HW229721   0.906   1.060   1.887
 9608SOL     OW29722   6.610   6.936   2.296
 9608SOL    HW129723   6.620   6.855   2.353
 9608SOL    HW229724   6.622   6.910   2.200
 9609SOL     OW29725   1.716   4.324   4.742
 9609SOL    HW129726   1.804   4.284   4.715
 9609SOL    HW229727   1.642   4.268   4.705
 9610SOL     OW29728   1.637   2.599   5.967
 9610SOL    HW129729   1.582   2.570   6.045
 9610SOL    HW229730   1.578   2.605   5.886
 9611SOL     OW29731   6.553   0.221   0.884
 9611SOL    HW129732   6.483   0.264   0.942
 9611SOL    HW229733   6.641   0.222   0.932
 9612SOL     OW29734   6.767   3.191   1.155
 9612SOL    HW129735   6.775   3.178   1.057
 9612SOL    HW229736   6.700   3.125   1.192
 9613SOL     OW29737   5.447   6.797   4.173
 9613SOL    HW129738   5.400   6.883   4.193
 9613SOL    HW229739   5.536   6.796   4.219
 9614SOL     OW29740   3.756   4.008   2.525
 9614SOL    HW129741   3.773   4.068   2.447
 9614SOL    HW229742   3.676   4.040   2.575
 9615SOL     OW29743   2.436   5.694   2.981
 9615SOL    HW129744   2.458   5.710   3.077
 9615SOL    HW229745   2.369   5.619   2.974
 9616SOL     OW29746   3.830   3.173   1.270
 9616SOL    HW129747   3.779   3.189   1.185
 9616SOL    HW229748   3.904   3.239   1.277
 9617SOL     OW29749   1.313   3.664   3.496
 9617SOL    HW129750   1.382   3.628   3.559
 9617SOL    HW229751   1.225   3.669   3.542
 9618SOL     OW29752   3.890   6.730   6.552
 9618SOL    HW129753   3.833   6.769   6.624
 9618SOL    HW229754   3.914   6.802   6.486
 9619SOL     OW29755   1.775   5.810   0.231
 9619SOL    HW129756   1.702   5.878   0.232
 9619SOL    HW229757   1.803   5.792   0.137
 9620SOL     OW29758   4.178   0.313   6.286
 9620SOL    HW129759   4.116   0.240   6.315
 9620SOL    HW229760   4.227   0.348   6.365
 9621SOL     OW29761   1.143   0.163   2.150
 9621SOL    HW129762   1.239   0.187   2.164
 9621SOL    HW229763   1.088   0.246   2.140
 9622SOL     OW29764   0.025   1.394   6.922
 9622SOL    HW129765   0.036   1.493   6.931
 9622SOL    HW229766   6.995   1.358   7.000
 9623SOL     OW29767   4.474   5.725   6.433
 9623SOL    HW129768   4.565   5.691   6.408
 9623SOL    HW229769   4.415   5.649   6.458
 9624SOL     OW29770   5.307   5.290   5.028
 9624SOL    HW129771   5.348   5.254   5.111
 9624SOL    HW229772   5.380   5.320   4.965
 9625SOL     OW29773   5.436   4.314   6.670
 9625SOL    HW129774   5.383   4.329   6.754
 9625SOL    HW229775   5.448   4.216   6.656
 9626SOL     OW29776   1.746   4.560   4.522
 9626SOL    HW129777   1.739   4.483   4.586
 9626SOL    HW229778   1.835   4.557   4.478
 9627SOL     OW29779   1.890   4.200   5.658
 9627SOL    HW129780   1.891   4.190   5.758
 9627SOL    HW229781   1.960   4.141   5.618
 9628SOL     OW29782   5.741   4.194   0.282
 9628SOL    HW129783   5.793   4.154   0.358
 9628SOL    HW229784   5.801   4.254   0.228
 9629SOL     OW29785   6.810   6.244   3.104
 9629SOL    HW129786   6.884   6.295   3.061
 9629SOL    HW229787   6.723   6.289   3.084
 9630SOL     OW29788   6.141   6.234   5.709
 9630SOL    HW129789   6.179   6.325   5.723
 9630SOL    HW229790   6.129   6.190   5.798
 9631SOL     OW29791   4.786   0.961   1.246
 9631SOL    HW129792   4.861   0.956   1.180
 9631SOL    HW229793   4.704   0.919   1.206
 9632SOL     OW29794   2.081   5.562   1.597
 9632SOL    HW129795   2.142   5.634   1.631
 9632SOL    HW229796   2.074   5.490   1.666
 9633SOL     OW29797   3.965   3.036   2.314
 9633SOL    HW129798   3.947   3.043   2.216
 9633SOL    HW229799   3.889   2.988   2.359
 9634SOL     OW29800   5.616   4.303   2.677
 9634SOL    HW129801   5.560   4.235   2.724
 9634SOL    HW229802   5.562   4.345   2.603
 9635SOL     OW29803   0.304   4.021   3.734
 9635SOL    HW129804   0.327   4.055   3.826
 9635SOL    HW229805   0.220   3.967   3.738
 9636SOL     OW29806   4.195   1.378   5.572
 9636SOL    HW129807   4.247   1.437   5.635
 9636SOL    HW229808   4.098   1.386   5.593
 9637SOL     OW29809   2.734   2.713   1.463
 9637SOL    HW129810   2.711   2.709   1.560
 9637SOL    HW229811   2.821   2.666   1.447
 9638SOL     OW29812   6.966   4.202   5.977
 9638SOL    HW129813   6.975   4.290   5.931
 9638SOL    HW229814   6.883   4.156   5.944
 9639SOL     OW29815   4.492   2.507   1.942
 9639SOL    HW129816   4.410   2.486   1.890
 9639SOL    HW229817   4.517   2.603   1.927
 9640SOL     OW29818   4.062   1.374   2.063
 9640SOL    HW129819   4.046   1.470   2.042
 9640SOL    HW229820   3.994   1.342   2.129
 9641SOL     OW29821   5.606   5.404   2.984
 9641SOL    HW129822   5.577   5.498   2.965
 9641SOL    HW229823   5.604   5.388   3.083
 9642SOL     OW29824   1.701   0.180   4.127
 9642SOL    HW129825   1.722   0.119   4.203
 9642SOL    HW229826   1.769   0.253   4.123
 9643SOL     OW29827   4.857   4.183   3.856
 9643SOL    HW129828   4.825   4.136   3.938
 9643SOL    HW229829   4.948   4.150   3.832
 9644SOL     OW29830   2.338   5.981   4.758
 9644SOL    HW129831   2.277   6.057   4.781
 9644SOL    HW229832   2.384   6.000   4.672
 9645SOL     OW29833   1.535   4.389   5.246
 9645SOL    HW129834   1.579   4.469   5.286
 9645SOL    HW229835   1.603   4.316   5.235
 9646SOL     OW29836   2.869   6.524   4.170
 9646SOL    HW129837   2.792   6.586   4.158
 9646SOL    HW229838   2.940   6.546   4.103
 9647SOL     OW29839   6.595   5.975   3.213
 9647SOL    HW129840   6.634   6.060   3.177
 9647SOL    HW229841   6.522   5.944   3.152
 9648SOL     OW29842   5.202   2.855   1.634
 9648SOL    HW129843   5.278   2.856   1.569
 9648SOL    HW229844   5.126   2.908   1.596
 9649SOL     OW29845   2.040   3.731   6.368
 9649SOL    HW129846   2.136   3.713   6.390
 9649SOL    HW229847   2.011   3.672   6.293
 9650SOL     OW29848   6.415   4.994   3.637
 9650SOL    HW129849   6.350   4.951   3.574
 9650SOL    HW229850   6.416   4.944   3.724
 9651SOL     OW29851   3.040   1.185   0.818
 9651SOL    HW129852   3.043   1.121   0.740
 9651SOL    HW229853   3.034   1.133   0.903
 9652SOL     OW29854   0.672   4.576   1.188
 9652SOL    HW129855   0.772   4.574   1.187
 9652SOL    HW229856   0.637   4.483   1.195
 9653SOL     OW29857   4.256   4.480   5.706
 9653SOL    HW129858   4.332   4.416   5.690
 9653SOL    HW229859   4.182   4.432   5.753
 9654SOL     OW29860   3.464   2.901   2.830
 9654SOL    HW129861   3.550   2.915   2.780
 9654SOL    HW229862   3.482   2.847   2.912
 9655SOL     OW29863   0.008   1.549   0.867
 9655SOL    HW129864   0.014   1.643   0.902
 9655SOL    HW229865   0.063   1.488   0.925
 9656SOL     OW29866   4.855   2.662   0.482
 9656SOL    HW129867   4.760   2.682   0.505
 9656SOL    HW229868   4.861   2.631   0.388
 9657SOL     OW29869   4.982   4.059   3.544
 9657SOL    HW129870   5.022   4.049   3.635
 9657SOL    HW229871   5.054   4.073   3.477
 9658SOL     OW29872   5.476   1.945   2.455
 9658SOL    HW129873   5.516   1.992   2.533
 9658SOL    HW229874   5.396   1.893   2.486
 9659SOL     OW29875   3.009   1.342   0.130
 9659SOL    HW129876   2.953   1.302   0.056
 9659SOL    HW229877   3.089   1.285   0.145
 9660SOL     OW29878   0.311   6.428   1.123
 9660SOL    HW129879   0.305   6.528   1.126
 9660SOL    HW229880   0.391   6.398   1.174
 9661SOL     OW29881   4.358   5.683   1.115
 9661SOL    HW129882   4.288   5.725   1.057
 9661SOL    HW229883   4.323   5.596   1.151
 9662SOL     OW29884   5.348   4.166   0.112
 9662SOL    HW129885   5.303   4.123   0.190
 9662SOL    HW229886   5.436   4.122   0.096
 9663SOL     OW29887   0.480   4.573   2.601
 9663SOL    HW129888   0.403   4.585   2.663
 9663SOL    HW229889   0.482   4.478   2.569
 9664SOL     OW29890   5.116   4.168   3.763
 9664SOL    HW129891   5.215   4.175   3.774
 9664SOL    HW229892   5.081   4.252   3.721
 9665SOL     OW29893   6.540   6.476   5.485
 9665SOL    HW129894   6.554   6.378   5.468
 9665SOL    HW229895   6.547   6.493   5.584
 9666SOL     OW29896   6.492   4.636   1.194
 9666SOL    HW129897   6.473   4.665   1.288
 9666SOL    HW229898   6.489   4.536   1.189
 9667SOL     OW29899   4.595   4.250   1.105
 9667SOL    HW129900   4.683   4.205   1.118
 9667SOL    HW229901   4.582   4.319   1.176
 9668SOL     OW29902   1.154   0.653   6.106
 9668SOL    HW129903   1.118   0.653   6.013
 9668SOL    HW229904   1.082   0.682   6.169
 9669SOL     OW29905   2.824   0.381   0.620
 9669SOL    HW129906   2.781   0.453   0.566
 9669SOL    HW229907   2.753   0.318   0.653
 9670SOL     OW29908   0.449   6.161   5.372
 9670SOL    HW129909   0.368   6.160   5.431
 9670SOL    HW229910   0.428   6.112   5.287
 9671SOL     OW29911   0.743   4.351   0.342
 9671SOL    HW129912   0.718   4.444   0.317
 9671SOL    HW229913   0.724   4.337   0.439
 9672SOL     OW29914   1.528   4.988   2.685
 9672SOL    HW129915   1.611   5.035   2.715
 9672SOL    HW229916   1.449   5.045   2.703
 9673SOL     OW29917   3.704   3.784   1.437
 9673SOL    HW129918   3.792   3.796   1.484
 9673SOL    HW229919   3.641   3.856   1.465
 9674SOL     OW29920   3.646   6.554   2.816
 9674SOL    HW129921   3.557   6.510   2.804
 9674SOL    HW229922   3.711   6.487   2.852
 9675SOL     OW29923   5.374   3.886   0.254
 9675SOL    HW129924   5.433   3.964   0.277
 9675SOL    HW229925   5.287   3.919   0.218
 9676SOL     OW29926   1.270   3.115   6.641
 9676SOL    HW129927   1.314   3.180   6.703
 9676SOL    HW229928   1.340   3.060   6.595
 9677SOL     OW29929   6.399   5.277   6.548
 9677SOL    HW129930   6.402   5.366   6.501
 9677SOL    HW229931   6.309   5.235   6.535
 9678SOL     OW29932   3.247   3.786   4.420
 9678SOL    HW129933   3.188   3.748   4.349
 9678SOL    HW229934   3.242   3.886   4.418
 9679SOL     OW29935   2.686   2.025   4.284
 9679SOL    HW129936   2.660   2.120   4.299
 9679SOL    HW229937   2.784   2.014   4.302
 9680SOL     OW29938   5.292   0.095   5.216
 9680SOL    HW129939   5.330   0.152   5.289
 9680SOL    HW229940   5.305   0.141   5.128
 9681SOL     OW29941   2.850   1.693   1.727
 9681SOL    HW129942   2.852   1.614   1.789
 9681SOL    HW229943   2.848   1.660   1.632
 9682SOL     OW29944   4.979   4.446   3.682
 9682SOL    HW129945   4.996   4.522   3.620
 9682SOL    HW229946   4.901   4.392   3.648
 9683SOL     OW29947   2.646   6.757   0.723
 9683SOL    HW129948   2.585   6.746   0.644
 9683SOL    HW229949   2.718   6.688   0.719
 9684SOL     OW29950   0.912   3.598   4.712
 9684SOL    HW129951   0.972   3.624   4.788
 9684SOL    HW229952   0.880   3.504   4.726
 9685SOL     OW29953   4.475   3.423   0.468
 9685SOL    HW129954   4.440   3.365   0.394
 9685SOL    HW229955   4.517   3.504   0.429
 9686SOL     OW29956   0.792   2.902   0.504
 9686SOL    HW129957   0.862   2.874   0.438
 9686SOL    HW229958   0.701   2.879   0.468
 9687SOL     OW29959   6.321   0.143   2.056
 9687SOL    HW129960   6.347   0.047   2.065
 9687SOL    HW229961   6.286   0.177   2.144
 9688SOL     OW29962   0.844   3.915   0.883
 9688SOL    HW129963   0.874   3.846   0.818
 9688SOL    HW229964   0.815   3.871   0.968
 9689SOL     OW29965   0.855   4.481   6.014
 9689SOL    HW129966   0.902   4.441   5.935
 9689SOL    HW229967   0.915   4.548   6.057
 9690SOL     OW29968   4.225   5.946   5.840
 9690SOL    HW129969   4.217   5.878   5.912
 9690SOL    HW229970   4.146   6.008   5.844
 9691SOL     OW29971   3.290   4.031   2.587
 9691SOL    HW129972   3.281   3.956   2.521
 9691SOL    HW229973   3.208   4.036   2.644
 9692SOL     OW29974   4.692   5.336   0.962
 9692SOL    HW129975   4.726   5.244   0.982
 9692SOL    HW229976   4.616   5.330   0.898
 9693SOL     OW29977   5.549   4.456   4.113
 9693SOL    HW129978   5.639   4.470   4.072
 9693SOL    HW229979   5.489   4.532   4.089
 9694SOL     OW29980   4.029   0.748   1.322
 9694SOL    HW129981   3.977   0.793   1.250
 9694SOL    HW229982   3.971   0.734   1.402
 9695SOL     OW29983   0.153   3.256   2.631
 9695SOL    HW129984   0.187   3.165   2.604
 9695SOL    HW229985   0.077   3.282   2.572
 9696SOL     OW29986   6.045   1.891   2.401
 9696SOL    HW129987   6.057   1.800   2.362
 9696SOL    HW229988   6.131   1.941   2.395
 9697SOL     OW29989   0.295   6.644   0.839
 9697SOL    HW129990   0.260   6.551   0.854
 9697SOL    HW229991   0.389   6.639   0.806
 9698SOL     OW29992   6.007   2.957   6.324
 9698SOL    HW129993   5.977   2.970   6.230
 9698SOL    HW229994   6.100   2.919   6.324
 9699SOL     OW29995   0.964   6.176   0.082
 9699SOL    HW129996   0.874   6.133   0.089
 9699SOL    HW229997   1.028   6.113   0.039
 9700SOL     OW29998   6.349   5.291   3.860
 9700SOL    HW129999   6.312   5.371   3.908
 9700SOL    HW230000   6.424   5.252   3.914
 9701SOL     OW30001   4.319   3.602   5.846
 9701SOL    HW130002   4.237   3.614   5.790
 9701SOL    HW230003   4.292   3.578   5.939
 9702SOL     OW30004   3.985   2.669   6.977
 9702SOL    HW130005   3.960   2.649   0.051
 9702SOL    HW230006   4.049   2.746   6.975
 9703SOL     OW30007   5.541   3.625   4.495
 9703SOL    HW130008   5.608   3.643   4.567
 9703SOL    HW230009   5.558   3.536   4.454
 9704SOL     OW30010   3.264   5.327   2.325
 9704SOL    HW130011   3.249   5.271   2.407
 9704SOL    HW230012   3.349   5.300   2.281
 9705SOL     OW30013   6.179   4.269   5.651
 9705SOL    HW130014   6.254   4.258   5.716
 9705SOL    HW230015   6.212   4.254   5.558
 9706SOL     OW30016   2.241   2.108   1.478
 9706SOL    HW130017   2.305   2.149   1.542
 9706SOL    HW230018   2.289   2.043   1.419
 9707SOL     OW30019   5.453   5.287   2.367
 9707SOL    HW130020   5.390   5.223   2.410
 9707SOL    HW230021   5.417   5.380   2.378
 9708SOL     OW30022   1.557   1.635   2.355
 9708SOL    HW130023   1.647   1.595   2.375
 9708SOL    HW230024   1.491   1.563   2.337
 9709SOL     OW30025   4.874   4.518   2.159
 9709SOL    HW130026   4.851   4.422   2.142
 9709SOL    HW230027   4.824   4.550   2.240
 9710SOL     OW30028   6.447   0.257   0.476
 9710SOL    HW130029   6.392   0.340   0.484
 9710SOL    HW230030   6.538   0.273   0.514
 9711SOL     OW30031   3.600   5.680   6.381
 9711SOL    HW130032   3.547   5.743   6.325
 9711SOL    HW230033   3.546   5.651   6.460
 9712SOL     OW30034   6.444   3.306   0.360
 9712SOL    HW130035   6.540   3.321   0.337
 9712SOL    HW230036   6.397   3.394   0.368
 9713SOL     OW30037   2.985   5.870   3.402
 9713SOL    HW130038   2.909   5.932   3.421
 9713SOL    HW230039   3.037   5.903   3.324
 9714SOL     OW30040   4.100   6.254   5.622
 9714SOL    HW130041   4.068   6.199   5.544
 9714SOL    HW230042   4.076   6.207   5.707
 9715SOL     OW30043   5.923   5.032   6.750
 9715SOL    HW130044   5.938   5.034   6.651
 9715SOL    HW230045   5.970   4.953   6.789
 9716SOL     OW30046   3.767   4.235   6.885
 9716SOL    HW130047   3.811   4.166   6.828
 9716SOL    HW230048   3.811   4.237   6.975
 9717SOL     OW30049   4.611   6.391   0.070
 9717SOL    HW130050   4.626   6.311   0.129
 9717SOL    HW230051   4.540   6.370   0.003
 9718SOL     OW30052   4.085   2.684   0.735
 9718SOL    HW130053   4.004   2.680   0.793
 9718SOL    HW230054   4.152   2.618   0.767
 9719SOL     OW30055   5.633   6.755   5.571
 9719SOL    HW130056   5.732   6.768   5.577
 9719SOL    HW230057   5.588   6.843   5.557
 9720SOL     OW30058   0.711   3.439   2.314
 9720SOL    HW130059   0.778   3.394   2.255
 9720SOL    HW230060   0.711   3.395   2.404
 9721SOL     OW30061   0.387   1.500   6.755
 9721SOL    HW130062   0.478   1.525   6.720
 9721SOL    HW230063   0.325   1.577   6.743
 9722SOL     OW30064   3.470   1.490   5.039
 9722SOL    HW130065   3.510   1.509   4.950
 9722SOL    HW230066   3.447   1.393   5.046
 9723SOL     OW30067   5.714   5.284   4.096
 9723SOL    HW130068   5.704   5.365   4.154
 9723SOL    HW230069   5.674   5.302   4.006
 9724SOL     OW30070   2.273   4.827   6.839
 9724SOL    HW130071   2.315   4.746   6.798
 9724SOL    HW230072   2.293   4.829   6.937
 9725SOL     OW30073   4.451   5.991   5.648
 9725SOL    HW130074   4.518   6.040   5.704
 9725SOL    HW230075   4.370   5.971   5.704
 9726SOL     OW30076   4.675   1.732   4.471
 9726SOL    HW130077   4.738   1.805   4.498
 9726SOL    HW230078   4.591   1.772   4.434
 9727SOL     OW30079   0.774   2.443   0.536
 9727SOL    HW130080   0.769   2.491   0.449
 9727SOL    HW230081   0.811   2.504   0.606
 9728SOL     OW30082   6.937   2.044   5.969
 9728SOL    HW130083   6.991   2.057   6.052
 9728SOL    HW230084   6.857   2.104   5.971
 9729SOL     OW30085   1.390   3.933   3.684
 9729SOL    HW130086   1.375   3.938   3.586
 9729SOL    HW230087   1.304   3.908   3.730
 9730SOL     OW30088   0.957   4.203   2.893
 9730SOL    HW130089   0.868   4.247   2.887
 9730SOL    HW230090   1.013   4.228   2.814
 9731SOL     OW30091   4.656   5.397   2.013
 9731SOL    HW130092   4.661   5.323   1.946
 9731SOL    HW230093   4.562   5.430   2.020
 9732SOL     OW30094   0.244   3.064   1.950
 9732SOL    HW130095   0.240   2.979   2.003
 9732SOL    HW230096   0.338   3.097   1.946
 9733SOL     OW30097   5.636   5.811   1.014
 9733SOL    HW130098   5.695   5.805   1.095
 9733SOL    HW230099   5.603   5.905   1.003
 9734SOL     OW30100   6.473   0.026   0.265
 9734SOL    HW130101   6.469   0.110   0.319
 9734SOL    HW230102   6.538   6.983   0.307
 9735SOL     OW30103   1.530   2.680   3.477
 9735SOL    HW130104   1.558   2.721   3.564
 9735SOL    HW230105   1.545   2.746   3.403
 9736SOL     OW30106   5.355   1.796   6.115
 9736SOL    HW130107   5.318   1.706   6.136
 9736SOL    HW230108   5.314   1.864   6.176
 9737SOL     OW30109   5.722   2.151   2.970
 9737SOL    HW130110   5.714   2.220   3.042
 9737SOL    HW230111   5.635   2.103   2.961
 9738SOL     OW30112   1.484   6.801   0.532
 9738SOL    HW130113   1.583   6.787   0.531
 9738SOL    HW230114   1.456   6.835   0.622
 9739SOL     OW30115   4.991   6.046   0.197
 9739SOL    HW130116   5.055   6.015   0.126
 9739SOL    HW230117   4.925   5.973   0.215
 9740SOL     OW30118   6.017   1.178   2.919
 9740SOL    HW130119   6.072   1.152   2.840
 9740SOL    HW230120   5.928   1.134   2.915
 9741SOL     OW30121   2.513   0.665   3.678
 9741SOL    HW130122   2.571   0.584   3.675
 9741SOL    HW230123   2.505   0.696   3.773
 9742SOL     OW30124   3.902   1.107   0.346
 9742SOL    HW130125   3.937   1.160   0.424
 9742SOL    HW230126   3.928   1.011   0.358
 9743SOL     OW30127   0.039   4.723   3.075
 9743SOL    HW130128   0.019   4.743   2.979
 9743SOL    HW230129   0.136   4.740   3.093
 9744SOL     OW30130   2.624   6.904   3.227
 9744SOL    HW130131   2.622   7.000   3.256
 9744SOL    HW230132   2.565   6.893   3.147
 9745SOL     OW30133   5.270   3.049   6.729
 9745SOL    HW130134   5.274   3.104   6.645
 9745SOL    HW230135   5.359   3.050   6.774
 9746SOL     OW30136   5.538   6.274   6.047
 9746SOL    HW130137   5.460   6.253   5.988
 9746SOL    HW230138   5.506   6.316   6.131
 9747SOL     OW30139   3.053   2.302   1.730
 9747SOL    HW130140   3.147   2.283   1.759
 9747SOL    HW230141   2.995   2.316   1.810
 9748SOL     OW30142   0.144   6.832   2.894
 9748SOL    HW130143   0.149   6.746   2.843
 9748SOL    HW230144   0.236   6.867   2.910
 9749SOL     OW30145   1.182   1.232   2.742
 9749SOL    HW130146   1.222   1.216   2.832
 9749SOL    HW230147   1.143   1.146   2.708
 9750SOL     OW30148   6.280   5.788   4.051
 9750SOL    HW130149   6.353   5.794   4.118
 9750SOL    HW230150   6.318   5.757   3.963
 9751SOL     OW30151   1.736   7.001   0.653
 9751SOL    HW130152   1.773   0.069   0.624
 9751SOL    HW230153   1.636   7.007   0.657
 9752SOL     OW30154   3.671   1.733   5.753
 9752SOL    HW130155   3.744   1.718   5.686
 9752SOL    HW230156   3.621   1.647   5.767
 9753SOL     OW30157   1.327   5.895   6.613
 9753SOL    HW130158   1.349   5.906   6.516
 9753SOL    HW230159   1.231   5.869   6.623
 9754SOL     OW30160   2.663   0.191   0.742
 9754SOL    HW130161   2.650   0.206   0.840
 9754SOL    HW230162   2.726   0.114   0.728
 9755SOL     OW30163   3.520   3.915   4.864
 9755SOL    HW130164   3.444   3.879   4.811
 9755SOL    HW230165   3.590   3.844   4.875
 9756SOL     OW30166   6.133   2.124   6.564
 9756SOL    HW130167   6.132   2.222   6.542
 9756SOL    HW230168   6.043   2.084   6.545
 9757SOL     OW30169   5.675   4.377   5.179
 9757SOL    HW130170   5.637   4.394   5.088
 9757SOL    HW230171   5.727   4.291   5.178
 9758SOL     OW30172   2.159   1.050   0.423
 9758SOL    HW130173   2.116   1.104   0.351
 9758SOL    HW230174   2.189   0.962   0.387
 9759SOL     OW30175   0.897   1.842   0.704
 9759SOL    HW130176   0.817   1.813   0.757
 9759SOL    HW230177   0.915   1.938   0.722
 9760SOL     OW30178   4.880   3.286   6.255
 9760SOL    HW130179   4.806   3.308   6.318
 9760SOL    HW230180   4.846   3.222   6.186
 9761SOL     OW30181   1.229   2.491   2.489
 9761SOL    HW130182   1.183   2.543   2.561
 9761SOL    HW230183   1.216   2.536   2.401
 9762SOL     OW30184   3.339   1.427   4.550
 9762SOL    HW130185   3.378   1.518   4.539
 9762SOL    HW230186   3.309   1.415   4.645
 9763SOL     OW30187   5.877   0.804   3.340
 9763SOL    HW130188   5.836   0.773   3.426
 9763SOL    HW230189   5.844   0.896   3.319
 9764SOL     OW30190   6.734   2.417   2.259
 9764SOL    HW130191   6.638   2.404   2.283
 9764SOL    HW230192   6.783   2.331   2.272
 9765SOL     OW30193   6.639   0.060   2.870
 9765SOL    HW130194   6.623   0.102   2.781
 9765SOL    HW230195   6.680   6.991   2.857
 9766SOL     OW30196   1.944   6.708   2.855
 9766SOL    HW130197   1.871   6.735   2.792
 9766SOL    HW230198   2.020   6.670   2.802
 9767SOL     OW30199   2.343   2.837   5.260
 9767SOL    HW130200   2.290   2.809   5.181
 9767SOL    HW230201   2.389   2.924   5.241
 9768SOL     OW30202   4.425   1.363   1.229
 9768SOL    HW130203   4.508   1.350   1.175
 9768SOL    HW230204   4.448   1.381   1.324
 9769SOL     OW30205   3.808   0.711   4.789
 9769SOL    HW130206   3.738   0.640   4.801
 9769SOL    HW230207   3.886   0.692   4.849
 9770SOL     OW30208   3.940   1.465   5.267
 9770SOL    HW130209   3.952   1.448   5.169
 9770SOL    HW230210   3.844   1.478   5.288
 9771SOL     OW30211   2.278   6.121   1.009
 9771SOL    HW130212   2.303   6.032   1.045
 9771SOL    HW230213   2.281   6.118   0.909
 9772SOL     OW30214   2.237   6.337   1.369
 9772SOL    HW130215   2.146   6.296   1.374
 9772SOL    HW230216   2.271   6.332   1.275
 9773SOL     OW30217   5.278   5.739   3.427
 9773SOL    HW130218   5.245   5.649   3.454
 9773SOL    HW230219   5.229   5.770   3.346
 9774SOL     OW30220   0.684   5.521   2.937
 9774SOL    HW130221   0.629   5.601   2.960
 9774SOL    HW230222   0.689   5.460   3.017
 9775SOL     OW30223   2.905   0.006   3.705
 9775SOL    HW130224   2.893   0.083   3.767
 9775SOL    HW230225   2.879   0.032   3.612
 9776SOL     OW30226   1.271   3.859   5.870
 9776SOL    HW130227   1.280   3.790   5.798
 9776SOL    HW230228   1.303   3.947   5.836
 9777SOL     OW30229   5.116   5.973   0.893
 9777SOL    HW130230   5.189   5.911   0.923
 9777SOL    HW230231   5.032   5.922   0.881
 9778SOL     OW30232   6.888   1.606   5.092
 9778SOL    HW130233   6.877   1.587   5.190
 9778SOL    HW230234   6.869   1.524   5.039
 9779SOL     OW30235   0.287   2.390   3.851
 9779SOL    HW130236   0.234   2.404   3.767
 9779SOL    HW230237   0.267   2.299   3.888
 9780SOL     OW30238   2.295   2.018   0.948
 9780SOL    HW130239   2.225   1.957   0.987
 9780SOL    HW230240   2.263   2.053   0.860
 9781SOL     OW30241   2.125   3.377   4.451
 9781SOL    HW130242   2.104   3.411   4.359
 9781SOL    HW230243   2.093   3.443   4.519
 9782SOL     OW30244   0.553   1.668   0.314
 9782SOL    HW130245   0.614   1.747   0.330
 9782SOL    HW230246   0.587   1.616   0.236
 9783SOL     OW30247   4.568   2.531   3.557
 9783SOL    HW130248   4.487   2.490   3.514
 9783SOL    HW230249   4.648   2.517   3.498
 9784SOL     OW30250   3.839   0.683   5.826
 9784SOL    HW130251   3.914   0.683   5.892
 9784SOL    HW230252   3.787   0.598   5.835
 9785SOL     OW30253   6.481   2.318   5.526
 9785SOL    HW130254   6.394   2.358   5.556
 9785SOL    HW230255   6.489   2.225   5.563
 9786SOL     OW30256   2.737   3.301   0.557
 9786SOL    HW130257   2.712   3.375   0.619
 9786SOL    HW230258   2.767   3.339   0.470
 9787SOL     OW30259   3.341   3.588   3.218
 9787SOL    HW130260   3.375   3.527   3.146
 9787SOL    HW230261   3.323   3.536   3.301
 9788SOL     OW30262   0.724   0.218   1.709
 9788SOL    HW130263   0.723   0.133   1.657
 9788SOL    HW230264   0.632   0.257   1.711
 9789SOL     OW30265   2.001   6.378   0.037
 9789SOL    HW130266   2.012   6.279   0.025
 9789SOL    HW230267   2.088   6.418   0.066
 9790SOL     OW30268   6.494   4.471   5.967
 9790SOL    HW130269   6.461   4.564   5.983
 9790SOL    HW230270   6.558   4.471   5.890
 9791SOL     OW30271   0.333   0.488   6.781
 9791SOL    HW130272   0.293   0.540   6.857
 9791SOL    HW230273   0.262   0.467   6.714
 9792SOL     OW30274   3.362   5.023   0.760
 9792SOL    HW130275   3.330   5.088   0.691
 9792SOL    HW230276   3.434   4.966   0.723
 9793SOL     OW30277   4.339   0.107   2.604
 9793SOL    HW130278   4.345   0.043   2.681
 9793SOL    HW230279   4.332   0.200   2.639
 9794SOL     OW30280   6.245   4.373   5.380
 9794SOL    HW130281   6.326   4.320   5.353
 9794SOL    HW230282   6.247   4.462   5.335
 9795SOL     OW30283   1.252   3.217   4.399
 9795SOL    HW130284   1.162   3.177   4.414
 9795SOL    HW230285   1.265   3.236   4.302
 9796SOL     OW30286   4.074   3.815   3.083
 9796SOL    HW130287   3.978   3.841   3.075
 9796SOL    HW230288   4.113   3.857   3.165
 9797SOL     OW30289   1.914   5.248   7.017
 9797SOL    HW130290   1.997   5.192   7.018
 9797SOL    HW230291   1.923   5.319   6.947
 9798SOL     OW30292   2.474   0.812   1.970
 9798SOL    HW130293   2.541   0.785   2.039
 9798SOL    HW230294   2.514   0.801   1.879
 9799SOL     OW30295   2.658   3.848   5.958
 9799SOL    HW130296   2.736   3.852   5.896
 9799SOL    HW230297   2.626   3.941   5.977
 9800SOL     OW30298   5.261   4.672   4.238
 9800SOL    HW130299   5.196   4.747   4.247
 9800SOL    HW230300   5.213   4.585   4.246
 9801SOL     OW30301   4.809   4.437   0.266
 9801SOL    HW130302   4.729   4.481   0.225
 9801SOL    HW230303   4.810   4.456   0.364
 9802SOL     OW30304   4.793   5.181   0.410
 9802SOL    HW130305   4.743   5.111   0.360
 9802SOL    HW230306   4.809   5.150   0.504
 9803SOL     OW30307   1.631   3.170   6.290
 9803SOL    HW130308   1.583   3.245   6.246
 9803SOL    HW230309   1.646   3.096   6.224
 9804SOL     OW30310   0.621   6.088   2.907
 9804SOL    HW130311   0.579   6.143   2.835
 9804SOL    HW230312   0.650   6.000   2.869
 9805SOL     OW30313   0.390   6.946   3.468
 9805SOL    HW130314   0.400   6.874   3.399
 9805SOL    HW230315   0.318   7.010   3.438
 9806SOL     OW30316   1.391   1.428   6.917
 9806SOL    HW130317   1.426   1.430   6.823
 9806SOL    HW230318   1.468   1.429   6.981
 9807SOL     OW30319   3.383   3.695   1.472
 9807SOL    HW130320   3.462   3.652   1.429
 9807SOL    HW230321   3.312   3.710   1.403
 9808SOL     OW30322   3.645   5.707   4.548
 9808SOL    HW130323   3.620   5.737   4.641
 9808SOL    HW230324   3.695   5.780   4.502
 9809SOL     OW30325   0.379   3.635   0.214
 9809SOL    HW130326   0.419   3.545   0.228
 9809SOL    HW230327   0.333   3.665   0.297
 9810SOL     OW30328   3.208   2.125   4.349
 9810SOL    HW130329   3.151   2.062   4.402
 9810SOL    HW230330   3.188   2.114   4.252
 9811SOL     OW30331   5.952   4.708   3.666
 9811SOL    HW130332   6.022   4.715   3.737
 9811SOL    HW230333   5.877   4.771   3.687
 9812SOL     OW30334   3.219   1.776   5.343
 9812SOL    HW130335   3.168   1.834   5.280
 9812SOL    HW230336   3.265   1.834   5.411
 9813SOL     OW30337   5.211   1.815   1.011
 9813SOL    HW130338   5.264   1.894   0.978
 9813SOL    HW230339   5.133   1.848   1.065
 9814SOL     OW30340   6.129   1.103   0.184
 9814SOL    HW130341   6.189   1.074   0.111
 9814SOL    HW230342   6.034   1.086   0.158
 9815SOL     OW30343   4.582   2.644   4.412
 9815SOL    HW130344   4.511   2.573   4.415
 9815SOL    HW230345   4.658   2.612   4.355
 9816SOL     OW30346   0.565   1.487   6.048
 9816SOL    HW130347   0.482   1.493   6.103
 9816SOL    HW230348   0.583   1.576   6.006
 9817SOL     OW30349   1.351   0.175   3.421
 9817SOL    HW130350   1.380   0.271   3.416
 9817SOL    HW230351   1.381   0.136   3.508
 9818SOL     OW30352   6.305   1.915   4.426
 9818SOL    HW130353   6.330   1.981   4.497
 9818SOL    HW230354   6.326   1.954   4.336
 9819SOL     OW30355   4.985   3.142   3.525
 9819SOL    HW130356   4.954   3.182   3.611
 9819SOL    HW230357   5.018   3.049   3.541
 9820SOL     OW30358   3.839   3.186   6.735
 9820SOL    HW130359   3.874   3.100   6.699
 9820SOL    HW230360   3.915   3.243   6.767
 9821SOL     OW30361   6.010   1.221   6.716
 9821SOL    HW130362   5.965   1.286   6.777
 9821SOL    HW230363   6.027   1.135   6.764
 9822SOL     OW30364   1.647   6.979   3.679
 9822SOL    HW130365   1.672   0.052   3.656
 9822SOL    HW230366   1.660   6.964   3.777
 9823SOL     OW30367   3.693   0.049   0.960
 9823SOL    HW130368   3.610   0.017   1.005
 9823SOL    HW230369   3.770   0.042   1.023
 9824SOL     OW30370   1.917   4.632   5.115
 9824SOL    HW130371   1.885   4.708   5.171
 9824SOL    HW230372   1.979   4.574   5.168
 9825SOL     OW30373   3.866   5.090   5.946
 9825SOL    HW130374   3.824   5.141   5.871
 9825SOL    HW230375   3.800   5.084   6.022
 9826SOL     OW30376   5.045   4.937   6.155
 9826SOL    HW130377   5.106   4.895   6.223
 9826SOL    HW230378   5.099   4.982   6.085
 9827SOL     OW30379   2.132   3.172   3.885
 9827SOL    HW130380   2.196   3.246   3.867
 9827SOL    HW230381   2.085   3.147   3.800
 9828SOL     OW30382   2.317   3.148   6.177
 9828SOL    HW130383   2.381   3.085   6.221
 9828SOL    HW230384   2.362   3.236   6.163
 9829SOL     OW30385   2.620   5.957   0.314
 9829SOL    HW130386   2.624   6.045   0.267
 9829SOL    HW230387   2.528   5.943   0.352
 9830SOL     OW30388   5.446   2.541   1.827
 9830SOL    HW130389   5.390   2.622   1.840
 9830SOL    HW230390   5.397   2.474   1.771
 9831SOL     OW30391   1.841   5.983   0.716
 9831SOL    HW130392   1.872   5.962   0.809
 9831SOL    HW230393   1.828   5.899   0.665
 9832SOL     OW30394   4.981   5.980   2.610
 9832SOL    HW130395   5.011   6.002   2.517
 9832SOL    HW230396   5.040   6.027   2.676
 9833SOL     OW30397   3.785   2.895   4.886
 9833SOL    HW130398   3.721   2.969   4.906
 9833SOL    HW230399   3.742   2.807   4.905
 9834SOL     OW30400   3.151   4.293   5.611
 9834SOL    HW130401   3.176   4.223   5.544
 9834SOL    HW230402   3.152   4.383   5.567
 9835SOL     OW30403   3.748   2.567   5.876
 9835SOL    HW130404   3.834   2.515   5.875
 9835SOL    HW230405   3.684   2.527   5.810
 9836SOL     OW30406   6.102   4.597   3.894
 9836SOL    HW130407   6.053   4.513   3.872
 9836SOL    HW230408   6.198   4.588   3.866
 9837SOL     OW30409   3.064   0.166   2.689
 9837SOL    HW130410   3.090   0.189   2.783
 9837SOL    HW230411   3.073   0.247   2.631
 9838SOL     OW30412   0.748   6.432   5.888
 9838SOL    HW130413   0.804   6.499   5.839
 9838SOL    HW230414   0.672   6.478   5.933
 9839SOL     OW30415   5.762   1.269   3.411
 9839SOL    HW130416   5.665   1.255   3.432
 9839SOL    HW230417   5.788   1.214   3.332
 9840SOL     OW30418   0.725   1.257   1.726
 9840SOL    HW130419   0.787   1.278   1.651
 9840SOL    HW230420   0.644   1.211   1.690
 9841SOL     OW30421   1.698   3.894   4.541
 9841SOL    HW130422   1.781   3.843   4.521
 9841SOL    HW230423   1.625   3.864   4.480
 9842SOL     OW30424   4.037   3.696   2.823
 9842SOL    HW130425   4.057   3.754   2.902
 9842SOL    HW230426   4.095   3.615   2.826
 9843SOL     OW30427   5.883   0.892   0.978
 9843SOL    HW130428   5.910   0.814   0.922
 9843SOL    HW230429   5.963   0.952   0.992
 9844SOL     OW30430   5.839   0.722   2.121
 9844SOL    HW130431   5.896   0.797   2.156
 9844SOL    HW230432   5.814   0.740   2.026
 9845SOL     OW30433   2.946   1.514   3.211
 9845SOL    HW130434   2.851   1.535   3.188
 9845SOL    HW230435   3.001   1.509   3.127
 9846SOL     OW30436   4.214   3.551   1.918
 9846SOL    HW130437   4.185   3.636   1.874
 9846SOL    HW230438   4.205   3.475   1.853
 9847SOL     OW30439   3.141   3.063   4.751
 9847SOL    HW130440   3.153   3.032   4.656
 9847SOL    HW230441   3.188   3.000   4.813
 9848SOL     OW30442   3.502   2.864   6.008
 9848SOL    HW130443   3.534   2.791   6.069
 9848SOL    HW230444   3.404   2.878   6.022
 9849SOL     OW30445   0.165   0.226   0.461
 9849SOL    HW130446   0.115   0.183   0.536
 9849SOL    HW230447   0.106   0.291   0.414
 9850SOL     OW30448   6.012   6.998   3.692
 9850SOL    HW130449   6.035   0.031   3.610
 9850SOL    HW230450   5.926   6.949   3.678
 9851SOL     OW30451   4.814   1.853   5.346
 9851SOL    HW130452   4.873   1.934   5.350
 9851SOL    HW230453   4.741   1.868   5.279
 9852SOL     OW30454   4.130   2.227   2.711
 9852SOL    HW130455   4.167   2.243   2.620
 9852SOL    HW230456   4.047   2.171   2.705
 9853SOL     OW30457   4.903   4.884   3.984
 9853SOL    HW130458   4.897   4.969   4.035
 9853SOL    HW230459   4.981   4.889   3.920
 9854SOL     OW30460   0.761   5.886   4.631
 9854SOL    HW130461   0.685   5.826   4.658
 9854SOL    HW230462   0.846   5.834   4.632
 9855SOL     OW30463   2.155   3.761   1.045
 9855SOL    HW130464   2.196   3.699   1.112
 9855SOL    HW230465   2.133   3.848   1.089
 9856SOL     OW30466   4.921   3.637   6.153
 9856SOL    HW130467   4.941   3.540   6.167
 9856SOL    HW230468   4.846   3.664   6.213
 9857SOL     OW30469   4.531   2.224   3.917
 9857SOL    HW130470   4.481   2.259   3.837
 9857SOL    HW230471   4.498   2.270   3.999
 9858SOL     OW30472   0.205   1.101   0.941
 9858SOL    HW130473   0.304   1.119   0.946
 9858SOL    HW230474   0.188   1.006   0.967
 9859SOL     OW30475   5.685   6.799   2.163
 9859SOL    HW130476   5.653   6.882   2.209
 9859SOL    HW230477   5.695   6.725   2.229
 9860SOL     OW30478   0.294   1.579   3.443
 9860SOL    HW130479   0.234   1.553   3.367
 9860SOL    HW230480   0.386   1.543   3.426
 9861SOL     OW30481   3.419   6.971   3.070
 9861SOL    HW130482   3.382   0.006   2.996
 9861SOL    HW230483   3.514   6.948   3.050
 9862SOL     OW30484   3.285   4.201   0.326
 9862SOL    HW130485   3.264   4.299   0.328
 9862SOL    HW230486   3.383   4.188   0.310
 9863SOL     OW30487   3.717   0.251   3.266
 9863SOL    HW130488   3.732   0.204   3.179
 9863SOL    HW230489   3.781   0.215   3.335
 9864SOL     OW30490   3.766   6.117   3.945
 9864SOL    HW130491   3.692   6.174   3.911
 9864SOL    HW230492   3.787   6.142   4.039
 9865SOL     OW30493   1.530   0.751   3.656
 9865SOL    HW130494   1.518   0.750   3.755
 9865SOL    HW230495   1.557   0.843   3.627
 9866SOL     OW30496   5.145   4.646   5.915
 9866SOL    HW130497   5.114   4.719   5.854
 9866SOL    HW230498   5.101   4.657   6.004
 9867SOL     OW30499   5.523   0.859   0.682
 9867SOL    HW130500   5.568   0.776   0.648
 9867SOL    HW230501   5.544   0.872   0.778
 9868SOL     OW30502   0.732   3.935   5.192
 9868SOL    HW130503   0.810   3.942   5.253
 9868SOL    HW230504   0.658   3.995   5.224
 9869SOL     OW30505   1.526   2.986   2.633
 9869SOL    HW130506   1.561   3.077   2.611
 9869SOL    HW230507   1.548   2.963   2.727
 9870SOL     OW30508   3.972   5.939   2.789
 9870SOL    HW130509   4.024   5.857   2.814
 9870SOL    HW230510   3.920   5.970   2.869
 9871SOL     OW30511   0.161   6.122   6.297
 9871SOL    HW130512   0.110   6.186   6.355
 9871SOL    HW230513   0.258   6.143   6.301
 9872SOL     OW30514   2.369   4.795   4.305
 9872SOL    HW130515   2.429   4.743   4.366
 9872SOL    HW230516   2.274   4.773   4.325
 9873SOL     OW30517   2.857   2.255   0.591
 9873SOL    HW130518   2.938   2.199   0.611
 9873SOL    HW230519   2.884   2.333   0.534
 9874SOL     OW30520   0.722   3.471   4.310
 9874SOL    HW130521   0.789   3.528   4.261
 9874SOL    HW230522   0.705   3.509   4.401
 9875SOL     OW30523   6.385   6.908   2.036
 9875SOL    HW130524   6.349   6.920   1.943
 9875SOL    HW230525   6.482   6.884   2.031
 9876SOL     OW30526   6.832   0.909   3.032
 9876SOL    HW130527   6.865   0.934   3.123
 9876SOL    HW230528   6.851   0.984   2.969
 9877SOL     OW30529   0.273   6.203   3.416
 9877SOL    HW130530   0.263   6.290   3.463
 9877SOL    HW230531   0.366   6.168   3.430
 9878SOL     OW30532   2.736   4.844   5.196
 9878SOL    HW130533   2.740   4.805   5.288
 9878SOL    HW230534   2.792   4.790   5.134
 9879SOL     OW30535   5.321   5.673   4.759
 9879SOL    HW130536   5.381   5.649   4.835
 9879SOL    HW230537   5.375   5.692   4.678
 9880SOL     OW30538   2.738   1.055   5.464
 9880SOL    HW130539   2.795   1.099   5.396
 9880SOL    HW230540   2.744   1.105   5.551
 9881SOL     OW30541   1.048   1.347   4.636
 9881SOL    HW130542   1.099   1.374   4.718
 9881SOL    HW230543   1.052   1.420   4.569
 9882SOL     OW30544   1.157   3.215   3.615
 9882SOL    HW130545   1.159   3.116   3.596
 9882SOL    HW230546   1.139   3.230   3.712
 9883SOL     OW30547   1.060   6.447   0.107
 9883SOL    HW130548   1.148   6.462   0.061
 9883SOL    HW230549   1.028   6.354   0.086
 9884SOL     OW30550   4.893   2.214   2.498
 9884SOL    HW130551   4.901   2.155   2.579
 9884SOL    HW230552   4.962   2.188   2.431
 9885SOL     OW30553   6.552   2.382   4.894
 9885SOL    HW130554   6.632   2.427   4.854
 9885SOL    HW230555   6.576   2.289   4.921
 9886SOL     OW30556   1.253   4.149   2.330
 9886SOL    HW130557   1.208   4.234   2.304
 9886SOL    HW230558   1.236   4.080   2.259
 9887SOL     OW30559   3.415   0.408   5.578
 9887SOL    HW130560   3.348   0.414   5.503
 9887SOL    HW230561   3.465   0.322   5.572
 9888SOL     OW30562   5.972   4.408   2.708
 9888SOL    HW130563   5.919   4.344   2.764
 9888SOL    HW230564   6.022   4.471   2.768
 9889SOL     OW30565   0.104   4.805   1.422
 9889SOL    HW130566   0.198   4.840   1.428
 9889SOL    HW230567   0.080   4.762   1.510
 9890SOL     OW30568   1.756   2.072   0.737
 9890SOL    HW130569   1.829   2.118   0.787
 9890SOL    HW230570   1.788   2.050   0.644
 9891SOL     OW30571   4.945   3.746   2.078
 9891SOL    HW130572   4.981   3.690   2.003
 9891SOL    HW230573   4.908   3.686   2.149
 9892SOL     OW30574   6.947   4.882   0.846
 9892SOL    HW130575   6.989   4.791   0.841
 9892SOL    HW230576   6.872   4.881   0.912
 9893SOL     OW30577   0.895   0.461   1.071
 9893SOL    HW130578   0.945   0.509   0.998
 9893SOL    HW230579   0.945   0.472   1.157
 9894SOL     OW30580   2.971   2.284   1.298
 9894SOL    HW130581   2.891   2.319   1.249
 9894SOL    HW230582   2.946   2.258   1.391
 9895SOL     OW30583   6.357   4.803   4.708
 9895SOL    HW130584   6.407   4.887   4.684
 9895SOL    HW230585   6.357   4.793   4.808
 9896SOL     OW30586   6.827   0.701   6.345
 9896SOL    HW130587   6.815   0.761   6.424
 9896SOL    HW230588   6.921   0.708   6.312
 9897SOL     OW30589   5.655   6.083   2.915
 9897SOL    HW130590   5.658   6.183   2.920
 9897SOL    HW230591   5.594   6.048   2.985
 9898SOL     OW30592   1.772   5.789   4.474
 9898SOL    HW130593   1.762   5.745   4.563
 9898SOL    HW230594   1.860   5.835   4.469
 9899SOL     OW30595   1.085   5.733   0.619
 9899SOL    HW130596   1.023   5.784   0.678
 9899SOL    HW230597   1.163   5.700   0.673
 9900SOL     OW30598   1.873   2.900   3.213
 9900SOL    HW130599   1.822   2.826   3.257
 9900SOL    HW230600   1.935   2.861   3.145
 9901SOL     OW30601   2.592   0.550   6.730
 9901SOL    HW130602   2.612   0.619   6.661
 9901SOL    HW230603   2.671   0.537   6.789
 9902SOL     OW30604   3.523   4.895   1.275
 9902SOL    HW130605   3.446   4.958   1.273
 9902SOL    HW230606   3.553   4.876   1.181
 9903SOL     OW30607   5.443   2.457   1.325
 9903SOL    HW130608   5.345   2.442   1.341
 9903SOL    HW230609   5.486   2.490   1.409
 9904SOL     OW30610   0.968   3.674   6.493
 9904SOL    HW130611   0.937   3.701   6.584
 9904SOL    HW230612   0.946   3.578   6.477
 9905SOL     OW30613   1.880   0.289   6.156
 9905SOL    HW130614   1.830   0.304   6.241
 9905SOL    HW230615   1.973   0.324   6.166
 9906SOL     OW30616   2.141   3.519   1.651
 9906SOL    HW130617   2.207   3.516   1.726
 9906SOL    HW230618   2.165   3.451   1.583
 9907SOL     OW30619   0.511   6.839   1.316
 9907SOL    HW130620   0.512   6.880   1.225
 9907SOL    HW230621   0.594   6.784   1.328
 9908SOL     OW30622   6.019   1.591   4.923
 9908SOL    HW130623   5.940   1.571   4.866
 9908SOL    HW230624   6.076   1.509   4.931
 9909SOL     OW30625   4.604   1.435   2.896
 9909SOL    HW130626   4.609   1.476   2.805
 9909SOL    HW230627   4.511   1.405   2.914
 9910SOL     OW30628   1.539   5.137   1.944
 9910SOL    HW130629   1.490   5.075   1.883
 9910SOL    HW230630   1.551   5.093   2.033
 9911SOL     OW30631   2.343   6.193   1.711
 9911SOL    HW130632   2.267   6.256   1.697
 9911SOL    HW230633   2.429   6.240   1.694
 9912SOL     OW30634   3.841   0.312   1.443
 9912SOL    HW130635   3.918   0.281   1.387
 9912SOL    HW230636   3.755   0.296   1.393
 9913SOL     OW30637   6.508   3.995   1.125
 9913SOL    HW130638   6.569   3.962   1.197
 9913SOL    HW230639   6.548   3.976   1.036
 9914SOL     OW30640   5.982   1.143   5.308
 9914SOL    HW130641   6.007   1.238   5.289
 9914SOL    HW230642   5.883   1.134   5.309
 9915SOL     OW30643   5.774   1.079   3.635
 9915SOL    HW130644   5.828   1.121   3.563
 9915SOL    HW230645   5.737   1.150   3.695
 9916SOL     OW30646   2.183   1.846   2.583
 9916SOL    HW130647   2.139   1.799   2.506
 9916SOL    HW230648   2.281   1.853   2.566
 9917SOL     OW30649   5.025   4.450   6.547
 9917SOL    HW130650   5.049   4.355   6.530
 9917SOL    HW230651   5.106   4.501   6.575
 9918SOL     OW30652   2.858   1.901   3.174
 9918SOL    HW130653   2.954   1.887   3.199
 9918SOL    HW230654   2.799   1.875   3.251
 9919SOL     OW30655   0.820   5.231   0.683
 9919SOL    HW130656   0.808   5.133   0.665
 9919SOL    HW230657   0.739   5.267   0.729
 9920SOL     OW30658   5.482   1.844   2.195
 9920SOL    HW130659   5.485   1.898   2.279
 9920SOL    HW230660   5.389   1.842   2.159
 9921SOL     OW30661   4.032   6.654   5.104
 9921SOL    HW130662   4.026   6.577   5.040
 9921SOL    HW230663   4.117   6.704   5.088
 9922SOL     OW30664   2.044   4.205   1.045
 9922SOL    HW130665   2.043   4.270   0.969
 9922SOL    HW230666   1.989   4.242   1.120
 9923SOL     OW30667   5.637   5.005   6.728
 9923SOL    HW130668   5.630   4.928   6.791
 9923SOL    HW230669   5.733   5.020   6.704
 9924SOL     OW30670   6.550   1.568   3.600
 9924SOL    HW130671   6.487   1.493   3.624
 9924SOL    HW230672   6.500   1.638   3.549
 9925SOL     OW30673   0.238   4.072   4.013
 9925SOL    HW130674   0.185   4.148   4.052
 9925SOL    HW230675   0.223   3.989   4.067
 9926SOL     OW30676   4.409   3.087   1.441
 9926SOL    HW130677   4.323   3.123   1.477
 9926SOL    HW230678   4.392   3.002   1.392
 9927SOL     OW30679   0.689   0.090   0.833
 9927SOL    HW130680   0.669   0.070   0.737
 9927SOL    HW230681   0.740   0.176   0.840
 9928SOL     OW30682   5.032   4.882   3.345
 9928SOL    HW130683   5.078   4.970   3.355
 9928SOL    HW230684   5.098   4.808   3.360
 9929SOL     OW30685   3.524   4.270   5.113
 9929SOL    HW130686   3.590   4.286   5.040
 9929SOL    HW230687   3.484   4.179   5.102
 9930SOL     OW30688   6.400   6.325   5.024
 9930SOL    HW130689   6.350   6.303   5.107
 9930SOL    HW230690   6.499   6.316   5.041
 9931SOL     OW30691   0.431   5.768   4.346
 9931SOL    HW130692   0.514   5.725   4.311
 9931SOL    HW230693   0.366   5.780   4.271
 9932SOL     OW30694   3.203   3.117   6.158
 9932SOL    HW130695   3.279   3.166   6.115
 9932SOL    HW230696   3.121   3.173   6.154
 9933SOL     OW30697   0.733   5.632   3.456
 9933SOL    HW130698   0.658   5.613   3.393
 9933SOL    HW230699   0.697   5.661   3.544
 9934SOL     OW30700   6.512   2.079   5.620
 9934SOL    HW130701   6.485   2.036   5.706
 9934SOL    HW230702   6.591   2.030   5.582
 9935SOL     OW30703   3.121   6.556   0.243
 9935SOL    HW130704   3.061   6.636   0.233
 9935SOL    HW230705   3.088   6.482   0.185
 9936SOL     OW30706   6.944   4.694   0.010
 9936SOL    HW130707   6.858   4.731   6.995
 9936SOL    HW230708   6.996   4.654   6.956
 9937SOL     OW30709   0.193   1.358   1.665
 9937SOL    HW130710   0.093   1.351   1.670
 9937SOL    HW230711   0.218   1.446   1.626
 9938SOL     OW30712   6.774   5.118   3.407
 9938SOL    HW130713   6.810   5.186   3.471
 9938SOL    HW230714   6.793   5.026   3.442
 9939SOL     OW30715   4.385   2.396   1.516
 9939SOL    HW130716   4.343   2.324   1.462
 9939SOL    HW230717   4.484   2.382   1.518
 9940SOL     OW30718   1.033   0.570   1.341
 9940SOL    HW130719   1.115   0.543   1.290
 9940SOL    HW230720   0.985   0.489   1.372
 9941SOL     OW30721   3.519   3.250   4.875
 9941SOL    HW130722   3.590   3.242   4.805
 9941SOL    HW230723   3.489   3.159   4.903
 9942SOL     OW30724   2.441   5.759   2.629
 9942SOL    HW130725   2.424   5.846   2.583
 9942SOL    HW230726   2.494   5.774   2.712
 9943SOL     OW30727   0.331   4.242   5.687
 9943SOL    HW130728   0.264   4.228   5.614
 9943SOL    HW230729   0.283   4.256   5.773
 9944SOL     OW30730   0.802   4.280   6.569
 9944SOL    HW130731   0.854   4.273   6.654
 9944SOL    HW230732   0.826   4.205   6.509
 9945SOL     OW30733   4.600   5.284   6.624
 9945SOL    HW130734   4.504   5.271   6.597
 9945SOL    HW230735   4.658   5.219   6.575
 9946SOL     OW30736   6.313   0.470   3.373
 9946SOL    HW130737   6.248   0.431   3.309
 9946SOL    HW230738   6.337   0.563   3.344
 9947SOL     OW30739   2.151   2.332   4.765
 9947SOL    HW130740   2.121   2.425   4.784
 9947SOL    HW230741   2.207   2.331   4.682
 9948SOL     OW30742   5.981   4.351   5.814
 9948SOL    HW130743   5.897   4.298   5.797
 9948SOL    HW230744   6.046   4.334   5.740
 9949SOL     OW30745   6.981   5.530   4.268
 9949SOL    HW130746   0.020   5.590   4.321
 9949SOL    HW230747   0.015   5.468   4.212
 9950SOL     OW30748   5.569   5.904   5.777
 9950SOL    HW130749   5.480   5.879   5.816
 9950SOL    HW230750   5.634   5.922   5.851
 9951SOL     OW30751   0.254   1.227   3.963
 9951SOL    HW130752   0.279   1.294   3.894
 9951SOL    HW230753   0.240   1.273   4.051
 9952SOL     OW30754   1.167   4.544   0.580
 9952SOL    HW130755   1.202   4.484   0.508
 9952SOL    HW230756   1.201   4.637   0.565
 9953SOL     OW30757   5.530   2.734   4.495
 9953SOL    HW130758   5.451   2.795   4.509
 9953SOL    HW230759   5.506   2.642   4.526
 9954SOL     OW30760   0.492   0.446   6.006
 9954SOL    HW130761   0.477   0.412   5.914
 9954SOL    HW230762   0.585   0.484   6.012
 9955SOL     OW30763   5.965   2.998   5.511
 9955SOL    HW130764   5.867   2.985   5.525
 9955SOL    HW230765   6.014   2.972   5.594
 9956SOL     OW30766   1.289   6.464   1.917
 9956SOL    HW130767   1.268   6.492   1.823
 9956SOL    HW230768   1.380   6.499   1.942
 9957SOL     OW30769   5.541   6.220   2.610
 9957SOL    HW130770   5.481   6.180   2.540
 9957SOL    HW230771   5.484   6.263   2.681
 9958SOL     OW30772   2.680   5.433   6.882
 9958SOL    HW130773   2.614   5.474   6.945
 9958SOL    HW230774   2.632   5.374   6.817
 9959SOL     OW30775   4.067   3.784   4.670
 9959SOL    HW130776   4.158   3.777   4.629
 9959SOL    HW230777   4.060   3.870   4.721
 9960SOL     OW30778   0.266   0.260   1.937
 9960SOL    HW130779   0.242   0.293   2.028
 9960SOL    HW230780   0.287   0.338   1.878
 9961SOL     OW30781   1.604   5.421   4.437
 9961SOL    HW130782   1.575   5.354   4.369
 9961SOL    HW230783   1.561   5.400   4.525
 9962SOL     OW30784   5.538   5.964   1.529
 9962SOL    HW130785   5.542   6.015   1.615
 9962SOL    HW230786   5.446   5.969   1.491
 9963SOL     OW30787   2.710   3.435   6.779
 9963SOL    HW130788   2.738   3.415   6.686
 9963SOL    HW230789   2.659   3.522   6.781
 9964SOL     OW30790   5.474   4.422   6.006
 9964SOL    HW130791   5.375   4.410   5.995
 9964SOL    HW230792   5.498   4.419   6.103
 9965SOL     OW30793   4.037   6.507   6.554
 9965SOL    HW130794   4.052   6.487   6.457
 9965SOL    HW230795   3.985   6.592   6.563
 9966SOL     OW30796   2.130   5.785   2.221
 9966SOL    HW130797   2.064   5.751   2.154
 9966SOL    HW230798   2.221   5.748   2.200
 9967SOL     OW30799   5.945   6.897   2.146
 9967SOL    HW130800   5.941   6.977   2.086
 9967SOL    HW230801   5.858   6.848   2.142
 9968SOL     OW30802   3.137   3.522   6.752
 9968SOL    HW130803   3.105   3.615   6.733
 9968SOL    HW230804   3.082   3.483   6.826
 9969SOL     OW30805   1.901   2.577   3.523
 9969SOL    HW130806   1.874   2.672   3.510
 9969SOL    HW230807   1.826   2.517   3.498
 9970SOL     OW30808   5.349   4.232   2.806
 9970SOL    HW130809   5.298   4.160   2.852
 9970SOL    HW230810   5.416   4.271   2.869
 9971SOL     OW30811   2.880   5.066   0.525
 9971SOL    HW130812   2.814   5.092   0.455
 9971SOL    HW230813   2.839   4.998   0.586
 9972SOL     OW30814   4.139   4.585   1.469
 9972SOL    HW130815   4.220   4.642   1.473
 9972SOL    HW230816   4.165   4.489   1.459
 9973SOL     OW30817   4.261   2.318   4.242
 9973SOL    HW130818   4.189   2.260   4.203
 9973SOL    HW230819   4.286   2.389   4.176
 9974SOL     OW30820   6.769   2.856   3.499
 9974SOL    HW130821   6.724   2.942   3.521
 9974SOL    HW230822   6.815   2.864   3.410
 9975SOL     OW30823   6.303   4.920   6.799
 9975SOL    HW130824   6.322   5.019   6.802
 9975SOL    HW230825   6.205   4.905   6.810
 9976SOL     OW30826   1.129   6.323   5.462
 9976SOL    HW130827   1.053   6.292   5.406
 9976SOL    HW230828   1.128   6.423   5.468
 9977SOL     OW30829   0.151   5.275   5.303
 9977SOL    HW130830   0.168   5.227   5.217
 9977SOL    HW230831   0.125   5.370   5.284
 9978SOL     OW30832   6.446   3.286   3.007
 9978SOL    HW130833   6.367   3.230   3.031
 9978SOL    HW230834   6.426   3.337   2.923
 9979SOL     OW30835   6.100   4.730   5.560
 9979SOL    HW130836   6.099   4.720   5.659
 9979SOL    HW230837   6.042   4.660   5.518
 9980SOL     OW30838   1.790   1.726   5.819
 9980SOL    HW130839   1.788   1.636   5.777
 9980SOL    HW230840   1.702   1.771   5.807
 9981SOL     OW30841   2.208   1.815   1.687
 9981SOL    HW130842   2.112   1.839   1.673
 9981SOL    HW230843   2.233   1.834   1.782
 9982SOL     OW30844   0.284   0.562   3.350
 9982SOL    HW130845   0.215   0.553   3.278
 9982SOL    HW230846   0.247   0.524   3.435
 9983SOL     OW30847   0.534   2.613   3.645
 9983SOL    HW130848   0.482   2.595   3.562
 9983SOL    HW230849   0.614   2.669   3.623
 9984SOL     OW30850   1.877   1.052   0.552
 9984SOL    HW130851   1.931   1.029   0.633
 9984SOL    HW230852   1.936   1.055   0.472
 9985SOL     OW30853   2.243   1.267   1.219
 9985SOL    HW130854   2.246   1.352   1.272
 9985SOL    HW230855   2.185   1.200   1.265
 9986SOL     OW30856   5.276   4.205   5.932
 9986SOL    HW130857   5.213   4.199   6.009
 9986SOL    HW230858   5.228   4.244   5.853
 9987SOL     OW30859   6.865   2.770   3.887
 9987SOL    HW130860   6.912   2.790   3.972
 9987SOL    HW230861   6.929   2.779   3.810
 9988SOL     OW30862   0.508   5.460   5.276
 9988SOL    HW130863   0.545   5.482   5.367
 9988SOL    HW230864   0.463   5.371   5.280
 9989SOL     OW30865   6.652   4.023   3.344
 9989SOL    HW130866   6.555   4.036   3.366
 9989SOL    HW230867   6.662   3.946   3.281
 9990SOL     OW30868   2.617   5.649   1.845
 9990SOL    HW130869   2.647   5.592   1.769
 9990SOL    HW230870   2.530   5.615   1.880
 9991SOL     OW30871   1.937   2.668   4.182
 9991SOL    HW130872   1.842   2.663   4.152
 9991SOL    HW230873   1.968   2.763   4.180
 9992SOL     OW30874   5.146   5.017   0.417
 9992SOL    HW130875   5.196   5.084   0.473
 9992SOL    HW230876   5.070   4.980   0.470
 9993SOL     OW30877   3.627   0.578   0.953
 9993SOL    HW130878   3.549   0.640   0.949
 9993SOL    HW230879   3.633   0.538   1.045
 9994SOL     OW30880   0.039   5.168   3.216
 9994SOL    HW130881   6.985   5.195   3.156
 9994SOL    HW230882   0.004   5.154   3.309
 9995SOL     OW30883   4.423   1.152   2.746
 9995SOL    HW130884   4.451   1.155   2.650
 9995SOL    HW230885   4.326   1.127   2.752
 9996SOL     OW30886   2.364   3.114   1.300
 9996SOL    HW130887   2.412   3.037   1.341
 9996SOL    HW230888   2.270   3.118   1.333
 9997SOL     OW30889   3.350   2.210   0.766
 9997SOL    HW130890   3.374   2.128   0.818
 9997SOL    HW230891   3.384   2.200   0.672
 9998SOL     OW30892   5.585   4.418   0.282
 9998SOL    HW130893   5.606   4.320   0.283
 9998SOL    HW230894   5.667   4.470   0.305
 9999SOL     OW30895   0.306   2.733   5.466
 9999SOL    HW130896   0.348   2.748   5.376
 9999SOL    HW230897   0.377   2.728   5.536
10000SOL     OW30898   0.005   3.911   6.866
10000SOL    HW130899   0.016   3.971   6.787
10000SOL    HW230900   6.930   3.882   6.874
10001SOL     OW30901   4.646   0.355   2.310
10001SOL    HW130902   4.740   0.345   2.342
10001SOL    HW230903   4.590   0.279   2.344
10002SOL     OW30904   1.973   6.924   2.327
10002SOL    HW130905   1.904   6.852   2.336
10002SOL    HW230906   1.978   6.976   2.412
10003SOL     OW30907   3.690   1.144   3.299
10003SOL    HW130908   3.648   1.213   3.239
10003SOL    HW230909   3.745   1.082   3.244
10004SOL     OW30910   5.560   2.387   3.906
10004SOL    HW130911   5.573   2.399   4.004
10004SOL    HW230912   5.530   2.474   3.866
10005SOL     OW30913   4.980   0.766   4.389
10005SOL    HW130914   4.991   0.669   4.412
10005SOL    HW230915   4.884   0.785   4.369
10006SOL     OW30916   5.583   6.185   4.209
10006SOL    HW130917   5.560   6.264   4.267
10006SOL    HW230918   5.509   6.119   4.211
10007SOL     OW30919   0.241   4.938   5.644
10007SOL    HW130920   0.180   4.977   5.576
10007SOL    HW230921   0.188   4.906   5.723
10008SOL     OW30922   4.173   1.167   4.460
10008SOL    HW130923   4.255   1.219   4.481
10008SOL    HW230924   4.096   1.202   4.513
10009SOL     OW30925   1.903   3.594   1.719
10009SOL    HW130926   1.892   3.597   1.818
10009SOL    HW230927   1.999   3.576   1.697
10010SOL     OW30928   1.928   0.843   5.441
10010SOL    HW130929   1.889   0.932   5.466
10010SOL    HW230930   2.025   0.854   5.421
10011SOL     OW30931   5.098   1.412   5.126
10011SOL    HW130932   5.164   1.433   5.198
10011SOL    HW230933   5.026   1.481   5.125
10012SOL     OW30934   6.132   1.101   3.202
10012SOL    HW130935   6.167   1.172   3.263
10012SOL    HW230936   6.112   1.141   3.113
10013SOL     OW30937   0.542   1.233   3.507
10013SOL    HW130938   0.494   1.317   3.481
10013SOL    HW230939   0.608   1.209   3.436
10014SOL     OW30940   6.647   3.948   0.891
10014SOL    HW130941   6.672   3.856   0.919
10014SOL    HW230942   6.722   3.989   0.838
10015SOL     OW30943   2.375   4.346   0.260
10015SOL    HW130944   2.432   4.408   0.313
10015SOL    HW230945   2.340   4.393   0.179
10016SOL     OW30946   1.243   0.845   6.425
10016SOL    HW130947   1.339   0.820   6.410
10016SOL    HW230948   1.216   0.822   6.519
10017SOL     OW30949   2.724   1.183   3.207
10017SOL    HW130950   2.684   1.234   3.283
10017SOL    HW230951   2.651   1.136   3.157
10018SOL     OW30952   4.515   0.230   5.606
10018SOL    HW130953   4.589   0.282   5.563
10018SOL    HW230954   4.427   0.272   5.584
10019SOL     OW30955   0.038   2.221   3.024
10019SOL    HW130956   0.113   2.264   3.075
10019SOL    HW230957   7.005   2.164   3.086
10020SOL     OW30958   1.318   2.305   1.647
10020SOL    HW130959   1.285   2.211   1.648
10020SOL    HW230960   1.242   2.367   1.671
10021SOL     OW30961   6.900   2.730   1.487
10021SOL    HW130962   6.948   2.817   1.479
10021SOL    HW230963   6.949   2.670   1.549
10022SOL     OW30964   2.861   0.946   5.942
10022SOL    HW130965   2.812   0.957   6.029
10022SOL    HW230966   2.960   0.950   5.959
10023SOL     OW30967   0.870   5.364   0.001
10023SOL    HW130968   0.905   5.433   0.065
10023SOL    HW230969   0.896   5.390   6.929
10024SOL     OW30970   2.544   6.239   2.243
10024SOL    HW130971   2.494   6.157   2.214
10024SOL    HW230972   2.482   6.317   2.242
10025SOL     OW30973   1.495   2.324   1.280
10025SOL    HW130974   1.457   2.323   1.188
10025SOL    HW230975   1.422   2.329   1.347
10026SOL     OW30976   5.607   6.629   3.756
10026SOL    HW130977   5.566   6.717   3.780
10026SOL    HW230978   5.683   6.610   3.818
10027SOL     OW30979   6.463   3.989   4.681
10027SOL    HW130980   6.454   3.945   4.770
10027SOL    HW230981   6.541   4.052   4.682
10028SOL     OW30982   1.565   0.876   2.165
10028SOL    HW130983   1.610   0.930   2.094
10028SOL    HW230984   1.473   0.851   2.134
10029SOL     OW30985   5.091   1.556   4.744
10029SOL    HW130986   5.114   1.593   4.834
10029SOL    HW230987   5.058   1.462   4.754
10030SOL     OW30988   2.264   6.800   3.684
10030SOL    HW130989   2.197   6.874   3.689
10030SOL    HW230990   2.237   6.737   3.611
10031SOL     OW30991   5.673   5.072   5.001
10031SOL    HW130992   5.672   4.999   4.933
10031SOL    HW230993   5.622   5.044   5.082
10032SOL     OW30994   2.505   1.828   4.739
10032SOL    HW130995   2.559   1.804   4.658
10032SOL    HW230996   2.561   1.884   4.801
10033SOL     OW30997   6.506   2.876   4.331
10033SOL    HW130998   6.500   2.876   4.431
10033SOL    HW230999   6.442   2.943   4.294
10034SOL     OW31000   3.603   0.304   4.058
10034SOL    HW131001   3.687   0.252   4.042
10034SOL    HW231002   3.616   0.368   4.133
10035SOL     OW31003   6.571   4.817   1.810
10035SOL    HW131004   6.554   4.885   1.739
10035SOL    HW231005   6.628   4.743   1.773
10036SOL     OW31006   6.040   2.274   1.215
10036SOL    HW131007   6.132   2.299   1.247
10036SOL    HW231008   5.974   2.340   1.251
10037SOL     OW31009   0.426   1.337   0.326
10037SOL    HW131010   0.401   1.380   0.239
10037SOL    HW231011   0.378   1.250   0.335
10038SOL     OW31012   5.547   0.591   7.004
10038SOL    HW131013   5.504   0.567   6.917
10038SOL    HW231014   5.646   0.600   6.991
10039SOL     OW31015   3.716   0.745   3.526
10039SOL    HW131016   3.656   0.674   3.562
10039SOL    HW231017   3.800   0.748   3.581
10040SOL     OW31018   5.366   5.065   6.366
10040SOL    HW131019   5.322   5.141   6.319
10040SOL    HW231020   5.396   5.095   6.457
10041SOL     OW31021   4.310   6.042   6.726
10041SOL    HW131022   4.382   5.978   6.700
10041SOL    HW231023   4.221   6.002   6.705
10042SOL     OW31024   0.737   1.802   3.941
10042SOL    HW131025   0.812   1.869   3.943
10042SOL    HW231026   0.666   1.830   4.005
10043SOL     OW31027   6.778   1.868   4.760
10043SOL    HW131028   6.805   1.790   4.704
10043SOL    HW231029   6.852   1.893   4.821
10044SOL     OW31030   2.397   2.527   4.990
10044SOL    HW131031   2.419   2.522   4.893
10044SOL    HW231032   2.344   2.446   5.017
10045SOL     OW31033   3.623   0.682   1.501
10045SOL    HW131034   3.714   0.641   1.499
10045SOL    HW231035   3.629   0.774   1.539
10046SOL     OW31036   1.655   3.251   0.771
10046SOL    HW131037   1.565   3.255   0.814
10046SOL    HW231038   1.691   3.158   0.777
10047SOL     OW31039   0.821   3.198   5.274
10047SOL    HW131040   0.921   3.201   5.278
10047SOL    HW231041   0.792   3.193   5.178
10048SOL     OW31042   0.228   6.754   2.440
10048SOL    HW131043   0.282   6.726   2.520
10048SOL    HW231044   0.279   6.822   2.388
10049SOL     OW31045   1.550   1.512   5.443
10049SOL    HW131046   1.587   1.600   5.471
10049SOL    HW231047   1.600   1.439   5.490
10050SOL     OW31048   5.460   3.564   4.849
10050SOL    HW131049   5.402   3.545   4.928
10050SOL    HW231050   5.402   3.593   4.773
10051SOL     OW31051   0.647   4.221   4.368
10051SOL    HW131052   0.637   4.312   4.326
10051SOL    HW231053   0.738   4.214   4.409
10052SOL     OW31054   2.094   1.048   2.985
10052SOL    HW131055   2.011   1.099   3.010
10052SOL    HW231056   2.113   0.978   3.054
10053SOL     OW31057   4.321   5.966   4.188
10053SOL    HW131058   4.323   5.901   4.264
10053SOL    HW231059   4.241   5.947   4.130
10054SOL     OW31060   5.420   4.415   5.257
10054SOL    HW131061   5.516   4.421   5.232
10054SOL    HW231062   5.412   4.406   5.357
10055SOL     OW31063   6.342   2.606   5.727
10055SOL    HW131064   6.386   2.534   5.779
10055SOL    HW231065   6.409   2.676   5.702
10056SOL     OW31066   4.836   4.450   3.129
10056SOL    HW131067   4.925   4.415   3.101
10056SOL    HW231068   4.849   4.529   3.189
10057SOL     OW31069   5.656   3.604   5.499
10057SOL    HW131070   5.682   3.616   5.595
10057SOL    HW231071   5.566   3.644   5.484
10058SOL     OW31072   6.582   3.768   4.487
10058SOL    HW131073   6.618   3.852   4.527
10058SOL    HW231074   6.490   3.785   4.452
10059SOL     OW31075   7.015   2.359   0.828
10059SOL    HW131076   6.980   2.434   0.884
10059SOL    HW231077   6.974   2.362   0.737
10060SOL     OW31078   2.229   2.238   2.411
10060SOL    HW131079   2.207   2.141   2.399
10060SOL    HW231080   2.322   2.247   2.447
10061SOL     OW31081   4.367   1.183   3.769
10061SOL    HW131082   4.461   1.151   3.761
10061SOL    HW231083   4.343   1.237   3.688
10062SOL     OW31084   6.170   0.048   4.229
10062SOL    HW131085   6.177   6.969   4.228
10062SOL    HW231086   6.183   0.082   4.323
10063SOL     OW31087   2.870   1.876   4.027
10063SOL    HW131088   2.780   1.919   4.019
10063SOL    HW231089   2.859   1.781   4.055
10064SOL     OW31090   4.143   5.725   5.978
10064SOL    HW131091   4.059   5.682   5.946
10064SOL    HW231092   4.154   5.709   6.076
10065SOL     OW31093   1.562   0.451   1.902
10065SOL    HW131094   1.522   0.526   1.850
10065SOL    HW231095   1.575   0.480   1.997
10066SOL     OW31096   0.537   3.081   5.023
10066SOL    HW131097   0.443   3.054   5.044
10066SOL    HW231098   0.537   3.144   4.946
10067SOL     OW31099   0.483   2.872   6.329
10067SOL    HW131100   0.449   2.847   6.419
10067SOL    HW231101   0.583   2.868   6.329
10068SOL     OW31102   1.401   3.859   2.990
10068SOL    HW131103   1.308   3.878   3.021
10068SOL    HW231104   1.467   3.892   3.059
10069SOL     OW31105   3.578   4.903   1.558
10069SOL    HW131106   3.673   4.902   1.590
10069SOL    HW231107   3.577   4.908   1.458
10070SOL     OW31108   1.080   5.376   5.055
10070SOL    HW131109   1.035   5.340   5.137
10070SOL    HW231110   1.053   5.323   4.975
10071SOL     OW31111   1.042   0.247   3.837
10071SOL    HW131112   1.127   0.266   3.886
10071SOL    HW231113   1.032   0.149   3.825
10072SOL     OW31114   0.661   1.378   2.881
10072SOL    HW131115   0.674   1.397   2.784
10072SOL    HW231116   0.587   1.435   2.916
10073SOL     OW31117   6.177   3.371   3.751
10073SOL    HW131118   6.222   3.295   3.797
10073SOL    HW231119   6.194   3.456   3.801
10074SOL     OW31120   1.314   5.631   0.818
10074SOL    HW131121   1.301   5.581   0.904
10074SOL    HW231122   1.318   5.729   0.837
10075SOL     OW31123   2.013   0.038   2.555
10075SOL    HW131124   1.985   0.122   2.602
10075SOL    HW231125   2.086   7.015   2.608
10076SOL     OW31126   4.873   5.134   3.235
10076SOL    HW131127   4.957   5.171   3.274
10076SOL    HW231128   4.892   5.098   3.144
10077SOL     OW31129   5.469   2.675   0.065
10077SOL    HW131130   5.379   2.699   0.103
10077SOL    HW231131   5.529   2.644   0.139
10078SOL     OW31132   0.156   6.372   5.065
10078SOL    HW131133   0.105   6.355   5.149
10078SOL    HW231134   0.229   6.305   5.056
10079SOL     OW31135   5.658   2.258   3.455
10079SOL    HW131136   5.756   2.266   3.472
10079SOL    HW231137   5.621   2.181   3.507
10080SOL     OW31138   5.570   1.235   6.306
10080SOL    HW131139   5.558   1.319   6.253
10080SOL    HW231140   5.640   1.249   6.375
10081SOL     OW31141   0.786   1.867   0.257
10081SOL    HW131142   0.851   1.864   0.181
10081SOL    HW231143   0.820   1.811   0.332
10082SOL     OW31144   1.555   5.319   3.465
10082SOL    HW131145   1.649   5.300   3.493
10082SOL    HW231146   1.502   5.234   3.467
10083SOL     OW31147   3.658   6.306   3.631
10083SOL    HW131148   3.631   6.272   3.541
10083SOL    HW231149   3.757   6.319   3.633
10084SOL     OW31150   6.859   6.826   5.113
10084SOL    HW131151   6.801   6.744   5.111
10084SOL    HW231152   6.836   6.885   5.036
10085SOL     OW31153   4.333   6.831   0.203
10085SOL    HW131154   4.349   6.930   0.206
10085SOL    HW231155   4.385   6.786   0.276
10086SOL     OW31156   6.031   6.318   2.567
10086SOL    HW131157   5.944   6.335   2.614
10086SOL    HW231158   6.046   6.388   2.498
10087SOL     OW31159   0.702   6.503   4.455
10087SOL    HW131160   0.609   6.484   4.487
10087SOL    HW231161   0.722   6.601   4.467
10088SOL     OW31162   6.889   1.600   0.234
10088SOL    HW131163   6.878   1.547   0.150
10088SOL    HW231164   6.880   1.539   0.313
10089SOL     OW31165   3.689   1.167   2.810
10089SOL    HW131166   3.741   1.224   2.746
10089SOL    HW231167   3.597   1.152   2.775
10090SOL     OW31168   0.719   4.787   2.024
10090SOL    HW131169   0.640   4.847   2.038
10090SOL    HW231170   0.756   4.760   2.113
10091SOL     OW31171   6.595   6.303   6.448
10091SOL    HW131172   6.553   6.364   6.515
10091SOL    HW231173   6.649   6.233   6.495
10092SOL     OW31174   1.553   3.529   5.358
10092SOL    HW131175   1.505   3.476   5.288
10092SOL    HW231176   1.518   3.504   5.448
10093SOL     OW31177   4.960   3.405   5.130
10093SOL    HW131178   4.933   3.323   5.080
10093SOL    HW231179   4.903   3.482   5.102
10094SOL     OW31180   2.750   6.648   1.246
10094SOL    HW131181   2.785   6.706   1.319
10094SOL    HW231182   2.650   6.647   1.249
10095SOL     OW31183   5.528   2.149   4.657
10095SOL    HW131184   5.451   2.167   4.718
10095SOL    HW231185   5.497   2.150   4.562
10096SOL     OW31186   4.963   0.766   2.342
10096SOL    HW131187   4.910   0.692   2.384
10096SOL    HW231188   4.901   0.827   2.292
10097SOL     OW31189   2.058   2.262   6.558
10097SOL    HW131190   2.088   2.293   6.648
10097SOL    HW231191   2.054   2.340   6.495
10098SOL     OW31192   3.207   5.780   4.676
10098SOL    HW131193   3.149   5.756   4.598
10098SOL    HW231194   3.169   5.861   4.722
10099SOL     OW31195   6.611   4.470   1.581
10099SOL    HW131196   6.512   4.483   1.589
10099SOL    HW231197   6.632   4.433   1.490
10100SOL     OW31198   5.412   4.740   5.576
10100SOL    HW131199   5.445   4.652   5.610
10100SOL    HW231200   5.437   4.813   5.639
10101SOL     OW31201   6.752   3.102   1.777
10101SOL    HW131202   6.828   3.074   1.834
10101SOL    HW231203   6.728   3.028   1.714
10102SOL     OW31204   5.275   0.262   0.580
10102SOL    HW131205   5.362   0.279   0.625
10102SOL    HW231206   5.201   0.262   0.648
10103SOL     OW31207   0.922   0.409   5.597
10103SOL    HW131208   0.903   0.422   5.695
10103SOL    HW231209   0.964   0.320   5.582
10104SOL     OW31210   2.126   1.248   6.168
10104SOL    HW131211   2.038   1.229   6.124
10104SOL    HW231212   2.192   1.279   6.099
10105SOL     OW31213   2.862   1.306   5.594
10105SOL    HW131214   2.903   1.394   5.570
10105SOL    HW231215   2.862   1.295   5.693
10106SOL     OW31216   4.977   6.266   1.529
10106SOL    HW131217   4.887   6.264   1.574
10106SOL    HW231218   5.042   6.314   1.588
10107SOL     OW31219   5.095   4.226   6.794
10107SOL    HW131220   5.008   4.270   6.817
10107SOL    HW231221   5.171   4.280   6.832
10108SOL     OW31222   1.311   2.798   0.574
10108SOL    HW131223   1.381   2.869   0.566
10108SOL    HW231224   1.303   2.769   0.669
10109SOL     OW31225   1.020   0.926   0.355
10109SOL    HW131226   1.070   1.007   0.323
10109SOL    HW231227   1.069   0.844   0.326
10110SOL     OW31228   4.631   5.132   2.454
10110SOL    HW131229   4.657   5.164   2.364
10110SOL    HW231230   4.707   5.143   2.518
10111SOL     OW31231   0.731   2.981   2.184
10111SOL    HW131232   0.831   2.973   2.190
10111SOL    HW231233   0.690   2.946   2.268
10112SOL     OW31234   6.629   3.152   3.234
10112SOL    HW131235   6.708   3.127   3.177
10112SOL    HW231236   6.551   3.171   3.176
10113SOL     OW31237   4.727   1.137   6.777
10113SOL    HW131238   4.638   1.182   6.778
10113SOL    HW231239   4.771   1.150   6.688
10114SOL     OW31240   3.892   2.157   3.175
10114SOL    HW131241   3.956   2.200   3.111
10114SOL    HW231242   3.938   2.141   3.262
10115SOL     OW31243   3.672   1.501   4.248
10115SOL    HW131244   3.754   1.489   4.192
10115SOL    HW231245   3.692   1.478   4.343
10116SOL     OW31246   5.933   0.329   5.645
10116SOL    HW131247   5.992   0.398   5.603
10116SOL    HW231248   5.839   0.361   5.645
10117SOL     OW31249   6.812   5.381   5.325
10117SOL    HW131250   6.816   5.281   5.320
10117SOL    HW231251   6.891   5.420   5.277
10118SOL     OW31252   2.730   5.141   4.722
10118SOL    HW131253   2.647   5.087   4.712
10118SOL    HW231254   2.744   5.164   4.819
10119SOL     OW31255   0.115   5.057   4.258
10119SOL    HW131256   0.049   5.041   4.183
10119SOL    HW231257   0.207   5.064   4.220
10120SOL     OW31258   1.170   2.850   2.838
10120SOL    HW131259   1.236   2.900   2.894
10120SOL    HW231260   1.163   2.893   2.748
10121SOL     OW31261   5.993   4.916   0.553
10121SOL    HW131262   6.072   4.956   0.599
10121SOL    HW231263   5.977   4.964   0.467
10122SOL     OW31264   6.371   1.705   3.412
10122SOL    HW131265   6.303   1.677   3.345
10122SOL    HW231266   6.362   1.803   3.431
10123SOL     OW31267   5.709   6.480   0.915
10123SOL    HW131268   5.714   6.515   1.009
10123SOL    HW231269   5.785   6.418   0.899
10124SOL     OW31270   1.010   5.133   2.376
10124SOL    HW131271   0.953   5.208   2.410
10124SOL    HW231272   0.960   5.084   2.305
10125SOL     OW31273   2.288   1.471   1.405
10125SOL    HW131274   2.294   1.386   1.457
10125SOL    HW231275   2.324   1.546   1.460
10126SOL     OW31276   6.400   0.327   6.476
10126SOL    HW131277   6.334   0.317   6.551
10126SOL    HW231278   6.359   0.382   6.403
10127SOL     OW31279   1.235   4.294   5.880
10127SOL    HW131280   1.174   4.242   5.940
10127SOL    HW231281   1.295   4.230   5.832
10128SOL     OW31282   2.950   0.799   6.931
10128SOL    HW131283   3.021   0.796   7.002
10128SOL    HW231284   2.987   0.839   6.848
10129SOL     OW31285   6.615   1.557   2.902
10129SOL    HW131286   6.631   1.612   2.984
10129SOL    HW231287   6.521   1.572   2.870
10130SOL     OW31288   1.025   2.551   2.006
10130SOL    HW131289   1.024   2.453   1.988
10130SOL    HW231290   1.054   2.567   2.100
10131SOL     OW31291   2.441   1.213   4.291
10131SOL    HW131292   2.391   1.145   4.237
10131SOL    HW231293   2.535   1.183   4.304
10132SOL     OW31294   6.854   6.703   2.269
10132SOL    HW131295   6.936   6.646   2.267
10132SOL    HW231296   6.838   6.734   2.363
10133SOL     OW31297   4.440   5.520   0.656
10133SOL    HW131298   4.523   5.526   0.599
10133SOL    HW231299   4.445   5.588   0.729
10134SOL     OW31300   6.088   0.879   2.571
10134SOL    HW131301   6.162   0.837   2.518
10134SOL    HW231302   6.067   0.821   2.650
10135SOL     OW31303   5.685   0.820   4.112
10135SOL    HW131304   5.636   0.873   4.181
10135SOL    HW231305   5.718   0.881   4.040
10136SOL     OW31306   5.022   2.306   2.763
10136SOL    HW131307   4.969   2.339   2.685
10136SOL    HW231308   5.108   2.267   2.731
10137SOL     OW31309   0.440   5.457   5.826
10137SOL    HW131310   0.416   5.360   5.833
10137SOL    HW231311   0.374   5.504   5.767
10138SOL     OW31312   5.858   1.490   0.093
10138SOL    HW131313   5.841   1.560   0.163
10138SOL    HW231314   5.932   1.430   0.124
10139SOL     OW31315   3.143   3.502   5.782
10139SOL    HW131316   3.230   3.456   5.763
10139SOL    HW231317   3.143   3.592   5.738
10140SOL     OW31318   6.756   5.962   6.037
10140SOL    HW131319   6.698   5.882   6.023
10140SOL    HW231320   6.821   5.970   5.961
10141SOL     OW31321   3.994   1.290   3.942
10141SOL    HW131322   3.917   1.304   3.880
10141SOL    HW231323   3.971   1.328   4.032
10142SOL     OW31324   5.744   6.385   5.129
10142SOL    HW131325   5.796   6.299   5.139
10142SOL    HW231326   5.803   6.454   5.088
10143SOL     OW31327   5.382   3.216   0.421
10143SOL    HW131328   5.478   3.224   0.449
10143SOL    HW231329   5.344   3.130   0.455
10144SOL     OW31330   3.968   6.669   5.374
10144SOL    HW131331   4.030   6.728   5.425
10144SOL    HW231332   3.988   6.676   5.276
10145SOL     OW31333   4.996   6.070   1.312
10145SOL    HW131334   4.919   6.058   1.249
10145SOL    HW231335   4.984   6.155   1.363
10146SOL     OW31336   0.303   3.721   3.680
10146SOL    HW131337   0.270   3.815   3.673
10146SOL    HW231338   0.290   3.689   3.774
10147SOL     OW31339   4.454   5.117   6.323
10147SOL    HW131340   4.435   5.089   6.417
10147SOL    HW231341   4.421   5.045   6.261
10148SOL     OW31342   0.607   4.757   0.325
10148SOL    HW131343   0.658   4.840   0.302
10148SOL    HW231344   0.655   4.707   0.397
10149SOL     OW31345   4.525   5.086   1.904
10149SOL    HW131346   4.595   5.038   1.851
10149SOL    HW231347   4.444   5.028   1.914
10150SOL     OW31348   5.108   3.602   0.896
10150SOL    HW131349   5.157   3.613   0.982
10150SOL    HW231350   5.133   3.515   0.854
10151SOL     OW31351   0.009   0.057   5.910
10151SOL    HW131352   6.943   0.083   5.869
10151SOL    HW231353   0.082   0.114   5.872
10152SOL     OW31354   5.923   6.323   3.042
10152SOL    HW131355   5.978   6.335   2.959
10152SOL    HW231356   5.930   6.405   3.099
10153SOL     OW31357   4.623   5.658   4.093
10153SOL    HW131358   4.528   5.633   4.110
10153SOL    HW231359   4.653   5.725   4.160
10154SOL     OW31360   4.093   5.230   5.584
10154SOL    HW131361   4.013   5.175   5.558
10154SOL    HW231362   4.157   5.174   5.636
10155SOL     OW31363   4.930   2.241   5.943
10155SOL    HW131364   4.857   2.193   5.894
10155SOL    HW231365   4.892   2.287   6.022
10156SOL     OW31366   4.931   0.181   1.346
10156SOL    HW131367   4.877   0.191   1.430
10156SOL    HW231368   4.918   0.261   1.287
10157SOL     OW31369   6.948   2.675   0.824
10157SOL    HW131370   6.907   2.695   0.735
10157SOL    HW231371   6.889   2.711   0.897
10158SOL     OW31372   4.840   6.829   2.447
10158SOL    HW131373   4.863   6.793   2.537
10158SOL    HW231374   4.741   6.840   2.439
10159SOL     OW31375   3.655   3.222   3.100
10159SOL    HW131376   3.648   3.302   3.160
10159SOL    HW231377   3.750   3.208   3.075
10160SOL     OW31378   1.810   4.376   2.770
10160SOL    HW131379   1.866   4.404   2.693
10160SOL    HW231380   1.718   4.353   2.737
10161SOL     OW31381   3.546   4.796   6.196
10161SOL    HW131382   3.574   4.890   6.214
10161SOL    HW231383   3.471   4.796   6.130
10162SOL     OW31384   1.711   4.456   1.765
10162SOL    HW131385   1.780   4.406   1.713
10162SOL    HW231386   1.747   4.546   1.791
10163SOL     OW31387   1.767   6.023   5.208
10163SOL    HW131388   1.866   6.014   5.217
10163SOL    HW231389   1.738   5.987   5.119
10164SOL     OW31390   6.514   3.283   3.630
10164SOL    HW131391   6.587   3.233   3.584
10164SOL    HW231392   6.488   3.233   3.713
10165SOL     OW31393   5.481   2.612   3.803
10165SOL    HW131394   5.428   2.697   3.799
10165SOL    HW231395   5.467   2.560   3.718
10166SOL     OW31396   0.716   2.506   1.060
10166SOL    HW131397   0.718   2.601   1.028
10166SOL    HW231398   0.641   2.494   1.125
10167SOL     OW31399   6.958   5.268   6.526
10167SOL    HW131400   6.948   5.169   6.528
10167SOL    HW231401   6.977   5.298   6.432
10168SOL     OW31402   6.010   1.688   6.768
10168SOL    HW131403   5.937   1.753   6.791
10168SOL    HW231404   6.095   1.715   6.814
10169SOL     OW31405   6.983   4.113   2.968
10169SOL    HW131406   0.002   4.095   3.058
10169SOL    HW231407   0.009   4.058   2.899
10170SOL     OW31408   6.342   6.071   0.014
10170SOL    HW131409   6.311   6.164   7.018
10170SOL    HW231410   6.441   6.070   0.023
10171SOL     OW31411   1.740   2.601   5.574
10171SOL    HW131412   1.733   2.697   5.549
10171SOL    HW231413   1.832   2.583   5.611
10172SOL     OW31414   6.829   6.963   3.238
10172SOL    HW131415   6.877   6.935   3.155
10172SOL    HW231416   6.731   6.970   3.219
10173SOL     OW31417   3.674   4.648   6.760
10173SOL    HW131418   3.580   4.618   6.746
10173SOL    HW231419   3.689   4.735   6.714
10174SOL     OW31420   5.033   6.975   3.323
10174SOL    HW131421   5.001   0.048   3.312
10174SOL    HW231422   4.955   6.912   3.315
10175SOL     OW31423   0.046   2.021   2.804
10175SOL    HW131424   0.089   1.934   2.829
10175SOL    HW231425   0.058   2.086   2.879
10176SOL     OW31426   6.530   3.225   5.788
10176SOL    HW131427   6.529   3.307   5.731
10176SOL    HW231428   6.512   3.250   5.883
10177SOL     OW31429   2.495   0.185   1.328
10177SOL    HW131430   2.496   0.130   1.412
10177SOL    HW231431   2.453   0.132   1.254
10178SOL     OW31432   1.559   1.711   0.613
10178SOL    HW131433   1.560   1.712   0.513
10178SOL    HW231434   1.549   1.617   0.645
10179SOL     OW31435   6.876   4.360   0.184
10179SOL    HW131436   6.964   4.369   0.137
10179SOL    HW231437   6.808   4.323   0.121
10180SOL     OW31438   4.451   6.778   6.981
10180SOL    HW131439   4.386   6.794   0.034
10180SOL    HW231440   4.517   6.852   6.978
10181SOL     OW31441   6.355   3.829   1.541
10181SOL    HW131442   6.256   3.820   1.536
10181SOL    HW231443   6.381   3.925   1.535
10182SOL     OW31444   5.401   1.478   0.284
10182SOL    HW131445   5.370   1.390   0.319
10182SOL    HW231446   5.460   1.463   0.204
10183SOL     OW31447   6.485   2.702   6.309
10183SOL    HW131448   6.543   2.676   6.386
10183SOL    HW231449   6.532   2.682   6.223
10184SOL     OW31450   6.106   3.531   6.709
10184SOL    HW131451   6.122   3.601   6.779
10184SOL    HW231452   6.051   3.457   6.748
10185SOL     OW31453   4.166   6.066   2.237
10185SOL    HW131454   4.172   5.968   2.256
10185SOL    HW231455   4.072   6.096   2.249
10186SOL     OW31456   4.761   3.635   5.703
10186SOL    HW131457   4.722   3.704   5.643
10186SOL    HW231458   4.799   3.679   5.785
10187SOL     OW31459   2.444   4.377   5.799
10187SOL    HW131460   2.496   4.293   5.807
10187SOL    HW231461   2.467   4.438   5.875
10188SOL     OW31462   2.636   6.589   0.065
10188SOL    HW131463   2.731   6.590   0.034
10188SOL    HW231464   2.609   6.681   0.091
10189SOL     OW31465   1.176   1.304   0.022
10189SOL    HW131466   1.113   1.377   0.046
10189SOL    HW231467   1.248   1.340   6.983
10190SOL     OW31468   2.757   3.747   1.241
10190SOL    HW131469   2.814   3.823   1.272
10190SOL    HW231470   2.733   3.761   1.145
10191SOL     OW31471   5.968   5.572   0.920
10191SOL    HW131472   5.901   5.614   0.858
10191SOL    HW231473   6.010   5.493   0.875
10192SOL     OW31474   2.417   1.765   5.230
10192SOL    HW131475   2.324   1.759   5.264
10192SOL    HW231476   2.470   1.686   5.264
10193SOL     OW31477   3.313   3.189   2.719
10193SOL    HW131478   3.257   3.109   2.744
10193SOL    HW231479   3.318   3.252   2.796
10194SOL     OW31480   3.885   0.187   4.274
10194SOL    HW131481   3.959   0.210   4.210
10194SOL    HW231482   3.834   0.270   4.296
10195SOL     OW31483   5.840   0.509   1.475
10195SOL    HW131484   5.907   0.578   1.503
10195SOL    HW231485   5.807   0.460   1.556
10196SOL     OW31486   5.510   1.984   3.461
10196SOL    HW131487   5.606   1.989   3.488
10196SOL    HW231488   5.500   1.923   3.383
10197SOL     OW31489   5.510   0.241   2.981
10197SOL    HW131490   5.531   0.333   3.016
10197SOL    HW231491   5.465   0.188   3.053
10198SOL     OW31492   3.409   6.400   0.870
10198SOL    HW131493   3.372   6.309   0.890
10198SOL    HW231494   3.347   6.470   0.906
10199SOL     OW31495   0.922   1.971   0.010
10199SOL    HW131496   0.924   2.051   6.972
10199SOL    HW231497   0.954   1.891   6.979
10200SOL     OW31498   5.894   3.534   6.174
10200SOL    HW131499   5.949   3.606   6.133
10200SOL    HW231500   5.855   3.567   6.260
10201SOL     OW31501   0.434   5.840   2.213
10201SOL    HW131502   0.343   5.867   2.183
10201SOL    HW231503   0.464   5.760   2.162
10202SOL     OW31504   0.258   3.921   1.132
10202SOL    HW131505   0.197   3.948   1.057
10202SOL    HW231506   0.288   4.002   1.182
10203SOL     OW31507   1.878   2.845   2.776
10203SOL    HW131508   1.851   2.845   2.680
10203SOL    HW231509   1.800   2.815   2.832
10204SOL     OW31510   2.785   4.277   5.991
10204SOL    HW131511   2.856   4.324   6.044
10204SOL    HW231512   2.719   4.235   6.054
10205SOL     OW31513   4.960   1.284   3.566
10205SOL    HW131514   4.901   1.317   3.639
10205SOL    HW231515   4.958   1.348   3.490
10206SOL     OW31516   5.357   6.599   5.962
10206SOL    HW131517   5.342   6.667   5.891
10206SOL    HW231518   5.365   6.508   5.921
10207SOL     OW31519   2.140   0.958   1.689
10207SOL    HW131520   2.044   0.938   1.706
10207SOL    HW231521   2.186   0.979   1.775
10208SOL     OW31522   6.424   5.472   5.357
10208SOL    HW131523   6.332   5.492   5.325
10208SOL    HW231524   6.419   5.418   5.441
10209SOL     OW31525   0.275   1.088   6.072
10209SOL    HW131526   0.262   0.994   6.106
10209SOL    HW231527   0.370   1.115   6.082
10210SOL     OW31528   5.225   0.378   1.799
10210SOL    HW131529   5.126   0.367   1.788
10210SOL    HW231530   5.272   0.297   1.766
10211SOL     OW31531   3.691   6.445   5.576
10211SOL    HW131532   3.788   6.461   5.596
10211SOL    HW231533   3.635   6.489   5.646
10212SOL     OW31534   0.597   1.323   4.246
10212SOL    HW131535   0.567   1.228   4.234
10212SOL    HW231536   0.556   1.380   4.175
10213SOL     OW31537   5.239   1.469   2.586
10213SOL    HW131538   5.285   1.507   2.666
10213SOL    HW231539   5.300   1.407   2.538
10214SOL     OW31540   6.525   0.544   1.932
10214SOL    HW131541   6.607   0.570   1.982
10214SOL    HW231542   6.445   0.584   1.977
10215SOL     OW31543   2.933   3.334   5.803
10215SOL    HW131544   3.009   3.400   5.802
10215SOL    HW231545   2.921   3.296   5.712
10216SOL     OW31546   6.452   6.857   0.593
10216SOL    HW131547   6.363   6.887   0.628
10216SOL    HW231548   6.525   6.897   0.649
10217SOL     OW31549   2.853   1.233   4.147
10217SOL    HW131550   2.769   1.282   4.171
10217SOL    HW231551   2.911   1.292   4.090
10218SOL     OW31552   1.340   1.690   1.638
10218SOL    HW131553   1.363   1.762   1.704
10218SOL    HW231554   1.378   1.714   1.548
10219SOL     OW31555   0.502   2.252   2.411
10219SOL    HW131556   0.480   2.199   2.329
10219SOL    HW231557   0.418   2.287   2.452
10220SOL     OW31558   4.102   1.317   1.609
10220SOL    HW131559   4.047   1.299   1.691
10220SOL    HW231560   4.196   1.336   1.636
10221SOL     OW31561   2.168   1.370   4.854
10221SOL    HW131562   2.208   1.284   4.823
10221SOL    HW231563   2.134   1.421   4.775
10222SOL     OW31564   1.311   3.710   5.006
10222SOL    HW131565   1.332   3.710   4.908
10222SOL    HW231566   1.333   3.800   5.044
10223SOL     OW31567   1.380   5.155   6.328
10223SOL    HW131568   1.411   5.174   6.235
10223SOL    HW231569   1.440   5.087   6.370
10224SOL     OW31570   1.547   1.445   4.125
10224SOL    HW131571   1.529   1.519   4.190
10224SOL    HW231572   1.463   1.421   4.077
10225SOL     OW31573   1.217   6.238   5.090
10225SOL    HW131574   1.164   6.312   5.130
10225SOL    HW231575   1.156   6.179   5.037
10226SOL     OW31576   3.033   0.927   6.722
10226SOL    HW131577   3.117   0.881   6.693
10226SOL    HW231578   3.056   1.018   6.757
10227SOL     OW31579   4.553   4.568   0.958
10227SOL    HW131580   4.559   4.556   1.057
10227SOL    HW231581   4.510   4.488   0.917
10228SOL     OW31582   0.739   5.375   2.174
10228SOL    HW131583   0.835   5.350   2.164
10228SOL    HW231584   0.709   5.353   2.267
10229SOL     OW31585   1.130   1.123   3.314
10229SOL    HW131586   1.214   1.118   3.369
10229SOL    HW231587   1.060   1.066   3.357
10230SOL     OW31588   0.074   0.488   3.162
10230SOL    HW131589   0.062   0.580   3.125
10230SOL    HW231590   0.073   0.422   3.087
10231SOL     OW31591   0.030   6.789   5.308
10231SOL    HW131592   6.976   6.807   5.245
10231SOL    HW231593   0.108   6.752   5.258
10232SOL     OW31594   4.352   0.803   4.443
10232SOL    HW131595   4.409   0.736   4.395
10232SOL    HW231596   4.273   0.827   4.386
10233SOL     OW31597   4.715   2.876   5.117
10233SOL    HW131598   4.640   2.824   5.158
10233SOL    HW231599   4.716   2.969   5.154
10234SOL     OW31600   5.103   0.214   0.788
10234SOL    HW131601   5.179   0.232   0.850
10234SOL    HW231602   5.018   0.249   0.827
10235SOL     OW31603   4.291   1.191   0.336
10235SOL    HW131604   4.293   1.245   0.421
10235SOL    HW231605   4.278   1.252   0.258
10236SOL     OW31606   1.803   6.835   1.659
10236SOL    HW131607   1.783   6.752   1.607
10236SOL    HW231608   1.830   6.908   1.597
10237SOL     OW31609   6.252   4.022   1.177
10237SOL    HW131610   6.352   4.028   1.170
10237SOL    HW231611   6.228   3.939   1.229
10238SOL     OW31612   3.683   3.719   4.928
10238SOL    HW131613   3.670   3.641   4.866
10238SOL    HW231614   3.777   3.718   4.963
10239SOL     OW31615   1.183   4.436   5.490
10239SOL    HW131616   1.098   4.476   5.524
10239SOL    HW231617   1.186   4.339   5.515
10240SOL     OW31618   1.136   4.389   2.369
10240SOL    HW131619   1.193   4.436   2.302
10240SOL    HW231620   1.153   4.427   2.459
10241SOL     OW31621   0.183   0.765   1.573
10241SOL    HW131622   0.138   0.691   1.524
10241SOL    HW231623   0.275   0.735   1.601
10242SOL     OW31624   0.858   2.297   6.263
10242SOL    HW131625   0.906   2.302   6.175
10242SOL    HW231626   0.920   2.263   6.333
10243SOL     OW31627   6.963   5.325   1.407
10243SOL    HW131628   7.002   5.233   1.398
10243SOL    HW231629   7.020   5.379   1.469
10244SOL     OW31630   1.774   4.386   0.029
10244SOL    HW131631   1.754   4.304   6.997
10244SOL    HW231632   1.752   4.370   0.125
10245SOL     OW31633   2.425   3.496   6.972
10245SOL    HW131634   2.427   3.439   6.889
10245SOL    HW231635   2.509   3.550   6.977
10246SOL     OW31636   3.125   4.022   4.638
10246SOL    HW131637   3.208   4.057   4.681
10246SOL    HW231638   3.060   3.994   4.709
10247SOL     OW31639   0.719   5.304   5.416
10247SOL    HW131640   0.647   5.242   5.384
10247SOL    HW231641   0.677   5.384   5.460
10248SOL     OW31642   3.126   0.226   2.281
10248SOL    HW131643   3.057   0.296   2.296
10248SOL    HW231644   3.135   0.209   2.183
10249SOL     OW31645   2.955   0.788   5.628
10249SOL    HW131646   2.866   0.790   5.674
10249SOL    HW231647   3.027   0.771   5.695
10250SOL     OW31648   0.060   2.119   1.165
10250SOL    HW131649   0.018   2.055   1.230
10250SOL    HW231650   0.014   2.112   1.077
10251SOL     OW31651   2.227   3.123   5.842
10251SOL    HW131652   2.130   3.117   5.817
10251SOL    HW231653   2.235   3.162   5.934
10252SOL     OW31654   6.347   6.684   0.202
10252SOL    HW131655   6.381   6.672   0.295
10252SOL    HW231656   6.282   6.760   0.200
10253SOL     OW31657   4.603   5.480   6.979
10253SOL    HW131658   4.689   5.484   6.929
10253SOL    HW231659   4.536   5.540   6.935
10254SOL     OW31660   3.456   2.041   4.480
10254SOL    HW131661   3.384   2.098   4.441
10254SOL    HW231662   3.442   2.031   4.578
10255SOL     OW31663   1.942   6.264   1.297
10255SOL    HW131664   1.933   6.295   1.203
10255SOL    HW231665   1.911   6.169   1.304
10256SOL     OW31666   5.449   0.215   1.258
10256SOL    HW131667   5.457   0.126   1.212
10256SOL    HW231668   5.521   0.224   1.326
10257SOL     OW31669   0.885   4.285   5.071
10257SOL    HW131670   0.935   4.371   5.061
10257SOL    HW231671   0.826   4.291   5.152
10258SOL     OW31672   5.198   0.210   3.667
10258SOL    HW131673   5.150   0.155   3.735
10258SOL    HW231674   5.297   0.201   3.679
10259SOL     OW31675   1.110   4.784   3.195
10259SOL    HW131676   1.141   4.849   3.265
10259SOL    HW231677   1.188   4.730   3.164
10260SOL     OW31678   6.998   0.004   2.674
10260SOL    HW131679   0.037   6.989   2.745
10260SOL    HW231680   6.978   0.100   2.692
10261SOL     OW31681   6.729   6.121   2.171
10261SOL    HW131682   6.824   6.145   2.149
10261SOL    HW231683   6.699   6.171   2.252
10262SOL     OW31684   2.960   5.671   4.635
10262SOL    HW131685   2.903   5.680   4.716
10262SOL    HW231686   2.994   5.578   4.628
10263SOL     OW31687   5.129   1.549   6.601
10263SOL    HW131688   5.094   1.487   6.531
10263SOL    HW231689   5.154   1.497   6.682
10264SOL     OW31690   6.243   1.762   6.909
10264SOL    HW131691   6.211   1.709   6.987
10264SOL    HW231692   6.337   1.735   6.886
10265SOL     OW31693   3.302   1.845   2.784
10265SOL    HW131694   3.301   1.934   2.830
10265SOL    HW231695   3.386   1.796   2.809
10266SOL     OW31696   3.678   3.490   5.506
10266SOL    HW131697   3.597   3.532   5.547
10266SOL    HW231698   3.746   3.560   5.488
10267SOL     OW31699   6.541   1.849   0.033
10267SOL    HW131700   6.597   1.816   6.978
10267SOL    HW231701   6.506   1.940   0.012
10268SOL     OW31702   5.001   6.620   1.479
10268SOL    HW131703   4.902   6.615   1.468
10268SOL    HW231704   5.027   6.578   1.566
10269SOL     OW31705   1.922   1.368   5.452
10269SOL    HW131706   1.936   1.458   5.412
10269SOL    HW231707   1.848   1.373   5.520
10270SOL     OW31708   1.943   6.023   1.503
10270SOL    HW131709   2.008   5.950   1.481
10270SOL    HW231710   1.951   6.047   1.599
10271SOL     OW31711   3.125   3.341   0.404
10271SOL    HW131712   3.062   3.396   0.349
10271SOL    HW231713   3.159   3.396   0.480
10272SOL     OW31714   1.228   0.727   3.929
10272SOL    HW131715   1.188   0.785   3.858
10272SOL    HW231716   1.311   0.771   3.966
10273SOL     OW31717   4.079   5.918   4.039
10273SOL    HW131718   4.016   5.893   4.113
10273SOL    HW231719   4.038   5.894   3.951
10274SOL     OW31720   1.426   4.521   5.665
10274SOL    HW131721   1.511   4.473   5.685
10274SOL    HW231722   1.350   4.456   5.665
10275SOL     OW31723   1.359   6.980   2.246
10275SOL    HW131724   1.320   0.023   2.312
10275SOL    HW231725   1.326   6.887   2.266
10276SOL     OW31726   6.735   5.505   6.585
10276SOL    HW131727   6.822   5.553   6.598
10276SOL    HW231728   6.731   5.425   6.646
10277SOL     OW31729   2.598   6.347   4.045
10277SOL    HW131730   2.663   6.303   4.107
10277SOL    HW231731   2.539   6.408   4.098
10278SOL     OW31732   6.095   1.216   5.670
10278SOL    HW131733   6.128   1.220   5.576
10278SOL    HW231734   6.011   1.270   5.678
10279SOL     OW31735   3.644   0.455   3.543
10279SOL    HW131736   3.712   0.401   3.495
10279SOL    HW231737   3.625   0.413   3.632
10280SOL     OW31738   2.194   4.476   1.055
10280SOL    HW131739   2.221   4.395   1.108
10280SOL    HW231740   2.110   4.514   1.094
10281SOL     OW31741   5.289   2.222   2.672
10281SOL    HW131742   5.346   2.163   2.613
10281SOL    HW231743   5.315   2.208   2.767
10282SOL     OW31744   6.480   3.298   4.198
10282SOL    HW131745   6.577   3.286   4.219
10282SOL    HW231746   6.451   3.389   4.226
10283SOL     OW31747   1.197   2.817   1.190
10283SOL    HW131748   1.216   2.720   1.206
10283SOL    HW231749   1.125   2.827   1.122
10284SOL     OW31750   5.387   4.117   5.653
10284SOL    HW131751   5.408   4.063   5.572
10284SOL    HW231752   5.294   4.155   5.645
10285SOL     OW31753   4.904   0.430   1.661
10285SOL    HW131754   4.897   0.472   1.570
10285SOL    HW231755   4.881   0.498   1.731
10286SOL     OW31756   3.142   1.878   3.223
10286SOL    HW131757   3.162   1.839   3.133
10286SOL    HW231758   3.215   1.855   3.287
10287SOL     OW31759   1.896   6.797   1.903
10287SOL    HW131760   1.858   6.832   1.817
10287SOL    HW231761   1.964   6.860   1.938
10288SOL     OW31762   5.356   5.864   2.396
10288SOL    HW131763   5.411   5.947   2.403
10288SOL    HW231764   5.345   5.823   2.487
10289SOL     OW31765   3.576   0.714   1.250
10289SOL    HW131766   3.558   0.620   1.221
10289SOL    HW231767   3.593   0.717   1.348
10290SOL     OW31768   3.567   4.072   2.740
10290SOL    HW131769   3.519   4.097   2.824
10290SOL    HW231770   3.532   4.128   2.664
10291SOL     OW31771   4.127   0.226   3.846
10291SOL    HW131772   4.088   0.241   3.755
10291SOL    HW231773   4.146   0.129   3.858
10292SOL     OW31774   0.570   2.048   4.621
10292SOL    HW131775   0.638   2.116   4.596
10292SOL    HW231776   0.574   2.031   4.720
10293SOL     OW31777   1.632   6.229   3.058
10293SOL    HW131778   1.576   6.279   2.992
10293SOL    HW231779   1.579   6.154   3.097
10294SOL     OW31780   4.879   3.213   3.288
10294SOL    HW131781   4.928   3.197   3.374
10294SOL    HW231782   4.885   3.309   3.263
10295SOL     OW31783   5.524   4.484   5.704
10295SOL    HW131784   5.568   4.404   5.662
10295SOL    HW231785   5.535   4.481   5.803
10296SOL     OW31786   5.497   4.377   6.306
10296SOL    HW131787   5.522   4.282   6.322
10296SOL    HW231788   5.412   4.398   6.354
10297SOL     OW31789   2.441   6.521   4.186
10297SOL    HW131790   2.399   6.511   4.276
10297SOL    HW231791   2.490   6.608   4.181
10298SOL     OW31792   4.216   4.656   3.518
10298SOL    HW131793   4.281   4.651   3.594
10298SOL    HW231794   4.253   4.606   3.440
10299SOL     OW31795   4.492   4.659   3.109
10299SOL    HW131796   4.502   4.580   3.049
10299SOL    HW231797   4.403   4.702   3.092
10300SOL     OW31798   1.523   4.072   2.121
10300SOL    HW131799   1.600   4.083   2.058
10300SOL    HW231800   1.466   4.154   2.118
10301SOL     OW31801   5.877   1.902   3.054
10301SOL    HW131802   5.835   1.984   3.015
10301SOL    HW231803   5.976   1.915   3.059
10302SOL     OW31804   1.279   6.109   2.827
10302SOL    HW131805   1.324   6.198   2.823
10302SOL    HW231806   1.295   6.068   2.917
10303SOL     OW31807   4.157   4.315   0.945
10303SOL    HW131808   4.232   4.252   0.966
10303SOL    HW231809   4.174   4.359   0.857
10304SOL     OW31810   6.151   0.418   3.911
10304SOL    HW131811   6.111   0.377   3.993
10304SOL    HW231812   6.236   0.466   3.936
10305SOL     OW31813   1.185   6.306   6.819
10305SOL    HW131814   1.227   6.365   6.888
10305SOL    HW231815   1.164   6.217   6.860
10306SOL     OW31816   4.308   5.505   6.516
10306SOL    HW131817   4.322   5.496   6.615
10306SOL    HW231818   4.211   5.489   6.495
10307SOL     OW31819   1.616   1.392   5.203
10307SOL    HW131820   1.572   1.424   5.287
10307SOL    HW231821   1.704   1.437   5.192
10308SOL     OW31822   3.239   5.211   3.901
10308SOL    HW131823   3.155   5.262   3.919
10308SOL    HW231824   3.279   5.181   3.987
10309SOL     OW31825   6.466   6.832   3.731
10309SOL    HW131826   6.490   6.897   3.659
10309SOL    HW231827   6.511   6.857   3.816
10310SOL     OW31828   3.149   3.926   1.672
10310SOL    HW131829   3.197   3.839   1.688
10310SOL    HW231830   3.104   3.955   1.757
10311SOL     OW31831   0.622   5.566   1.209
10311SOL    HW131832   0.704   5.607   1.249
10311SOL    HW231833   0.541   5.597   1.259
10312SOL     OW31834   3.744   5.143   1.103
10312SOL    HW131835   3.672   5.209   1.081
10312SOL    HW231836   3.735   5.063   1.045
10313SOL     OW31837   4.476   6.952   2.212
10313SOL    HW131838   4.398   6.970   2.151
10313SOL    HW231839   4.461   6.866   2.261
10314SOL     OW31840   6.421   0.565   0.854
10314SOL    HW131841   6.459   0.612   0.774
10314SOL    HW231842   6.366   0.487   0.824
10315SOL     OW31843   6.508   5.784   5.166
10315SOL    HW131844   6.468   5.703   5.124
10315SOL    HW231845   6.500   5.862   5.104
10316SOL     OW31846   7.021   3.240   4.454
10316SOL    HW131847   0.023   3.145   4.475
10316SOL    HW231848   6.921   3.250   4.456
10317SOL     OW31849   3.724   4.544   5.806
10317SOL    HW131850   3.741   4.550   5.707
10317SOL    HW231851   3.691   4.632   5.840
10318SOL     OW31852   6.027   5.476   1.814
10318SOL    HW131853   6.120   5.501   1.787
10318SOL    HW231854   6.031   5.406   1.885
10319SOL     OW31855   0.606   5.002   4.452
10319SOL    HW131856   0.697   4.998   4.493
10319SOL    HW231857   0.550   4.926   4.485
10320SOL     OW31858   0.827   0.623   0.595
10320SOL    HW131859   0.739   0.581   0.574
10320SOL    HW231860   0.824   0.721   0.577
10321SOL     OW31861   3.789   6.346   4.535
10321SOL    HW131862   3.845   6.264   4.549
10321SOL    HW231863   3.848   6.426   4.528
10322SOL     OW31864   6.798   6.186   0.590
10322SOL    HW131865   6.796   6.095   0.633
10322SOL    HW231866   6.869   6.188   0.519
10323SOL     OW31867   6.877   3.464   6.487
10323SOL    HW131868   6.810   3.389   6.485
10323SOL    HW231869   6.854   3.531   6.417
10324SOL     OW31870   3.160   2.990   3.306
10324SOL    HW131871   3.189   2.906   3.262
10324SOL    HW231872   3.185   3.068   3.249
10325SOL     OW31873   6.645   4.390   3.905
10325SOL    HW131874   6.665   4.463   3.840
10325SOL    HW231875   6.632   4.430   3.996
10326SOL     OW31876   4.893   2.547   6.751
10326SOL    HW131877   4.926   2.635   6.783
10326SOL    HW231878   4.964   2.478   6.766
10327SOL     OW31879   2.496   1.279   2.780
10327SOL    HW131880   2.475   1.372   2.747
10327SOL    HW231881   2.422   1.248   2.840
10328SOL     OW31882   5.801   3.709   2.253
10328SOL    HW131883   5.893   3.674   2.233
10328SOL    HW231884   5.776   3.682   2.346
10329SOL     OW31885   2.788   0.712   4.026
10329SOL    HW131886   2.814   0.805   4.000
10329SOL    HW231887   2.853   0.647   3.987
10330SOL     OW31888   3.488   4.925   3.205
10330SOL    HW131889   3.463   4.902   3.111
10330SOL    HW231890   3.459   5.018   3.225
10331SOL     OW31891   5.538   0.838   3.124
10331SOL    HW131892   5.602   0.915   3.131
10331SOL    HW231893   5.455   0.858   3.175
10332SOL     OW31894   6.964   2.090   0.932
10332SOL    HW131895   6.968   2.184   0.898
10332SOL    HW231896   6.873   2.052   0.914
10333SOL     OW31897   5.605   4.952   4.127
10333SOL    HW131898   5.593   4.873   4.188
10333SOL    HW231899   5.569   5.034   4.171
10334SOL     OW31900   1.910   5.181   3.893
10334SOL    HW131901   2.007   5.203   3.889
10334SOL    HW231902   1.870   5.217   3.978
10335SOL     OW31903   2.034   4.905   6.740
10335SOL    HW131904   2.118   4.863   6.775
10335SOL    HW231905   2.052   4.944   6.649
10336SOL     OW31906   4.497   6.504   2.385
10336SOL    HW131907   4.521   6.420   2.435
10336SOL    HW231908   4.528   6.496   2.291
10337SOL     OW31909   0.155   5.223   5.000
10337SOL    HW131910   0.220   5.298   4.999
10337SOL    HW231911   0.073   5.248   4.948
10338SOL     OW31912   3.509   6.771   0.946
10338SOL    HW131913   3.603   6.771   0.913
10338SOL    HW231914   3.497   6.696   1.012
10339SOL     OW31915   4.018   5.570   1.090
10339SOL    HW131916   3.926   5.548   1.123
10339SOL    HW231917   4.086   5.532   1.153
10340SOL     OW31918   2.101   5.613   6.956
10340SOL    HW131919   2.176   5.549   6.939
10340SOL    HW231920   2.015   5.574   6.922
10341SOL     OW31921   2.451   2.579   2.245
10341SOL    HW131922   2.541   2.615   2.266
10341SOL    HW231923   2.442   2.566   2.146
10342SOL     OW31924   1.951   6.514   6.331
10342SOL    HW131925   1.881   6.496   6.262
10342SOL    HW231926   2.006   6.432   6.345
10343SOL     OW31927   2.082   4.547   6.654
10343SOL    HW131928   2.040   4.608   6.721
10343SOL    HW231929   2.151   4.490   6.700
10344SOL     OW31930   4.165   3.583   4.284
10344SOL    HW131931   4.180   3.545   4.192
10344SOL    HW231932   4.247   3.632   4.314
10345SOL     OW31933   2.126   1.322   7.019
10345SOL    HW131934   2.166   1.319   6.928
10345SOL    HW231935   2.108   1.417   0.024
10346SOL     OW31936   5.406   0.037   0.531
10346SOL    HW131937   5.332   0.105   0.540
10346SOL    HW231938   5.423   0.020   0.434
10347SOL     OW31939   5.224   1.645   0.785
10347SOL    HW131940   5.185   1.679   0.871
10347SOL    HW231941   5.276   1.562   0.802
10348SOL     OW31942   6.281   1.025   6.420
10348SOL    HW131943   6.278   1.067   6.329
10348SOL    HW231944   6.319   0.933   6.413
10349SOL     OW31945   5.982   0.682   0.848
10349SOL    HW131946   5.974   0.709   0.752
10349SOL    HW231947   5.926   0.600   0.864
10350SOL     OW31948   3.767   5.860   4.342
10350SOL    HW131949   3.861   5.884   4.317
10350SOL    HW231950   3.717   5.834   4.259
10351SOL     OW31951   6.135   4.829   5.286
10351SOL    HW131952   6.234   4.833   5.291
10351SOL    HW231953   6.095   4.858   5.372
10352SOL     OW31954   5.743   2.111   6.874
10352SOL    HW131955   5.803   2.189   6.856
10352SOL    HW231956   5.655   2.126   6.830
10353SOL     OW31957   0.108   3.055   3.384
10353SOL    HW131958   0.039   3.015   3.324
10353SOL    HW231959   0.063   3.103   3.459
10354SOL     OW31960   0.660   4.155   0.877
10354SOL    HW131961   0.566   4.145   0.844
10354SOL    HW231962   0.688   4.072   0.925
10355SOL     OW31963   1.325   1.767   1.328
10355SOL    HW131964   1.422   1.766   1.304
10355SOL    HW231965   1.271   1.795   1.249
10356SOL     OW31966   0.728   2.931   6.734
10356SOL    HW131967   0.700   2.966   6.824
10356SOL    HW231968   0.815   2.883   6.743
10357SOL     OW31969   2.294   2.451   6.552
10357SOL    HW131970   2.287   2.503   6.637
10357SOL    HW231971   2.360   2.376   6.564
10358SOL     OW31972   1.599   2.719   2.577
10358SOL    HW131973   1.566   2.806   2.613
10358SOL    HW231974   1.698   2.722   2.565
10359SOL     OW31975   4.783   2.536   2.224
10359SOL    HW131976   4.748   2.629   2.227
10359SOL    HW231977   4.707   2.471   2.224
10360SOL     OW31978   5.474   5.072   3.259
10360SOL    HW131979   5.503   4.995   3.203
10360SOL    HW231980   5.488   5.050   3.356
10361SOL     OW31981   1.876   1.576   1.693
10361SOL    HW131982   1.811   1.553   1.765
10361SOL    HW231983   1.969   1.559   1.725
10362SOL     OW31984   0.178   5.309   2.000
10362SOL    HW131985   0.245   5.266   2.060
10362SOL    HW231986   0.174   5.258   1.914
10363SOL     OW31987   4.282   3.071   0.455
10363SOL    HW131988   4.310   3.136   0.384
10363SOL    HW231989   4.327   3.095   0.541
10364SOL     OW31990   5.214   5.303   1.071
10364SOL    HW131991   5.193   5.263   1.160
10364SOL    HW231992   5.313   5.301   1.057
10365SOL     OW31993   5.900   5.360   0.213
10365SOL    HW131994   5.905   5.454   0.181
10365SOL    HW231995   5.904   5.298   0.134
10366SOL     OW31996   4.531   6.729   3.163
10366SOL    HW131997   4.516   6.822   3.196
10366SOL    HW231998   4.552   6.732   3.065
10367SOL     OW31999   6.544   2.015   2.110
10367SOL    HW132000   6.614   1.981   2.173
10367SOL    HW232001   6.480   1.942   2.089
10368SOL     OW32002   2.715   1.060   2.032
10368SOL    HW132003   2.664   0.984   1.993
10368SOL    HW232004   2.722   1.134   1.964
10369SOL     OW32005   2.933   6.668   5.820
10369SOL    HW132006   2.911   6.766   5.817
10369SOL    HW232007   2.946   6.634   5.727
10370SOL     OW32008   6.548   1.441   4.302
10370SOL    HW132009   6.631   1.471   4.255
10370SOL    HW232010   6.552   1.342   4.316
10371SOL     OW32011   3.627   6.397   3.119
10371SOL    HW132012   3.668   6.348   3.042
10371SOL    HW232013   3.548   6.449   3.087
10372SOL     OW32014   3.093   0.587   1.500
10372SOL    HW132015   3.014   0.558   1.554
10372SOL    HW232016   3.176   0.577   1.556
10373SOL     OW32017   0.328   0.211   4.430
10373SOL    HW132018   0.363   0.179   4.519
10373SOL    HW232019   0.312   0.132   4.371
10374SOL     OW32020   2.638   6.799   3.975
10374SOL    HW132021   2.610   6.786   4.070
10374SOL    HW232022   2.573   6.858   3.929
10375SOL     OW32023   2.963   2.213   6.001
10375SOL    HW132024   2.948   2.129   6.052
10375SOL    HW232025   2.900   2.216   5.923
10376SOL     OW32026   1.717   6.192   3.569
10376SOL    HW132027   1.807   6.149   3.580
10376SOL    HW232028   1.718   6.249   3.487
10377SOL     OW32029   0.186   2.014   2.008
10377SOL    HW132030   0.193   1.916   2.025
10377SOL    HW232031   0.265   2.044   1.954
10378SOL     OW32032   0.296   5.660   5.679
10378SOL    HW132033   0.339   5.674   5.589
10378SOL    HW232034   0.197   5.673   5.671
10379SOL     OW32035   2.797   6.249   4.209
10379SOL    HW132036   2.823   6.338   4.171
10379SOL    HW232037   2.866   6.181   4.186
10380SOL     OW32038   1.428   1.929   4.702
10380SOL    HW132039   1.472   1.967   4.784
10380SOL    HW232040   1.460   1.979   4.621
10381SOL     OW32041   4.042   4.345   1.218
10381SOL    HW132042   4.053   4.279   1.293
10381SOL    HW232043   4.120   4.338   1.156
10382SOL     OW32044   2.883   5.700   1.906
10382SOL    HW132045   2.935   5.764   1.850
10382SOL    HW232046   2.787   5.701   1.878
10383SOL     OW32047   1.851   4.093   0.387
10383SOL    HW132048   1.891   4.116   0.298
10383SOL    HW232049   1.839   3.994   0.393
10384SOL     OW32050   6.317   6.520   1.001
10384SOL    HW132051   6.365   6.588   0.946
10384SOL    HW232052   6.376   6.440   1.014
10385SOL     OW32053   3.776   5.334   6.209
10385SOL    HW132054   3.694   5.374   6.167
10385SOL    HW232055   3.748   5.273   6.283
10386SOL     OW32056   0.336   0.875   5.764
10386SOL    HW132057   0.348   0.786   5.722
10386SOL    HW232058   0.334   0.946   5.693
10387SOL     OW32059   5.216   3.218   3.390
10387SOL    HW132060   5.198   3.255   3.299
10387SOL    HW232061   5.130   3.197   3.435
10388SOL     OW32062   2.780   0.339   0.210
10388SOL    HW132063   2.826   0.426   0.226
10388SOL    HW232064   2.826   0.291   0.135
10389SOL     OW32065   6.090   3.994   0.143
10389SOL    HW132066   5.995   3.972   0.120
10389SOL    HW232067   6.146   3.987   0.060
10390SOL     OW32068   1.983   2.475   0.215
10390SOL    HW132069   2.003   2.554   0.274
10390SOL    HW232070   1.886   2.476   0.190
10391SOL     OW32071   1.578   6.423   3.745
10391SOL    HW132072   1.626   6.360   3.683
10391SOL    HW232073   1.638   6.500   3.766
10392SOL     OW32074   5.782   4.791   5.710
10392SOL    HW132075   5.745   4.755   5.796
10392SOL    HW232076   5.850   4.862   5.730
10393SOL     OW32077   1.917   3.810   3.755
10393SOL    HW132078   2.016   3.805   3.755
10393SOL    HW232079   1.888   3.898   3.792
10394SOL     OW32080   2.835   5.886   4.496
10394SOL    HW132081   2.881   5.797   4.502
10394SOL    HW232082   2.763   5.881   4.428
10395SOL     OW32083   0.125   6.577   1.635
10395SOL    HW132084   0.082   6.625   1.557
10395SOL    HW232085   0.222   6.603   1.639
10396SOL     OW32086   4.228   1.491   3.819
10396SOL    HW132087   4.252   1.414   3.759
10396SOL    HW232088   4.128   1.501   3.821
10397SOL     OW32089   3.160   2.156   3.144
10397SOL    HW132090   3.124   2.076   3.192
10397SOL    HW232091   3.091   2.228   3.143
10398SOL     OW32092   5.590   2.191   0.706
10398SOL    HW132093   5.690   2.190   0.717
10398SOL    HW232094   5.556   2.284   0.717
10399SOL     OW32095   5.054   2.241   3.512
10399SOL    HW132096   5.130   2.176   3.505
10399SOL    HW232097   5.028   2.273   3.421
10400SOL     OW32098   4.425   6.387   0.356
10400SOL    HW132099   4.462   6.474   0.324
10400SOL    HW232100   4.492   6.314   0.341
10401SOL     OW32101   6.330   0.006   3.211
10401SOL    HW132102   6.250   0.007   3.152
10401SOL    HW232103   6.304   6.997   3.303
10402SOL     OW32104   6.504   2.728   5.402
10402SOL    HW132105   6.558   2.760   5.324
10402SOL    HW232106   6.420   2.684   5.369
10403SOL     OW32107   4.705   1.494   3.713
10403SOL    HW132108   4.675   1.512   3.807
10403SOL    HW232109   4.705   1.396   3.695
10404SOL     OW32110   6.040   6.594   5.203
10404SOL    HW132111   6.005   6.686   5.217
10404SOL    HW232112   6.011   6.535   5.279
10405SOL     OW32113   0.981   0.624   5.230
10405SOL    HW132114   0.941   0.682   5.159
10405SOL    HW232115   1.077   0.608   5.209
10406SOL     OW32116   2.753   4.764   3.089
10406SOL    HW132117   2.830   4.798   3.034
10406SOL    HW232118   2.786   4.735   3.179
10407SOL     OW32119   2.644   6.776   6.017
10407SOL    HW132120   2.633   6.689   5.968
10407SOL    HW232121   2.711   6.764   6.090
10408SOL     OW32122   4.617   0.228   1.837
10408SOL    HW132123   4.646   0.288   1.912
10408SOL    HW232124   4.598   0.283   1.756
10409SOL     OW32125   0.076   4.656   0.805
10409SOL    HW132126   0.149   4.707   0.760
10409SOL    HW232127   0.053   4.575   0.752
10410SOL     OW32128   5.487   1.781   1.266
10410SOL    HW132129   5.480   1.698   1.210
10410SOL    HW232130   5.567   1.773   1.326
10411SOL     OW32131   3.280   6.717   3.523
10411SOL    HW132132   3.262   6.680   3.432
10411SOL    HW232133   3.213   6.787   3.545
10412SOL     OW32134   0.379   1.081   0.333
10412SOL    HW132135   0.391   1.094   0.234
10412SOL    HW232136   0.350   0.987   0.350
10413SOL     OW32137   6.469   2.964   0.644
10413SOL    HW132138   6.468   2.950   0.744
10413SOL    HW232139   6.508   2.883   0.600
10414SOL     OW32140   4.035   4.366   5.786
10414SOL    HW132141   3.964   4.297   5.771
10414SOL    HW232142   4.000   4.435   5.850
10415SOL     OW32143   1.523   3.531   4.290
10415SOL    HW132144   1.509   3.491   4.381
10415SOL    HW232145   1.617   3.516   4.261
10416SOL     OW32146   6.081   0.147   4.732
10416SOL    HW132147   6.124   0.172   4.819
10416SOL    HW232148   5.991   0.108   4.750
10417SOL     OW32149   3.002   5.291   4.610
10417SOL    HW132150   2.915   5.266   4.653
10417SOL    HW232151   3.077   5.254   4.664
10418SOL     OW32152   7.001   4.325   6.607
10418SOL    HW132153   7.011   4.226   6.621
10418SOL    HW232154   0.036   4.353   6.529
10419SOL     OW32155   1.792   0.105   5.953
10419SOL    HW132156   1.822   0.014   5.983
10419SOL    HW232157   1.809   0.171   6.027
10420SOL     OW32158   6.822   3.724   3.333
10420SOL    HW132159   6.835   3.625   3.341
10420SOL    HW232160   6.762   3.744   3.256
10421SOL     OW32161   0.599   1.952   3.552
10421SOL    HW132162   0.630   1.872   3.603
10421SOL    HW232163   0.625   1.943   3.456
10422SOL     OW32164   6.863   3.111   5.567
10422SOL    HW132165   6.818   3.196   5.593
10422SOL    HW232166   6.962   3.123   5.568
10423SOL     OW32167   6.247   5.315   4.790
10423SOL    HW132168   6.201   5.345   4.873
10423SOL    HW232169   6.259   5.394   4.729
10424SOL     OW32170   5.217   2.816   0.744
10424SOL    HW132171   5.158   2.871   0.804
10424SOL    HW232172   5.169   2.799   0.658
10425SOL     OW32173   0.971   0.246   1.802
10425SOL    HW132174   0.996   0.329   1.852
10425SOL    HW232175   0.872   0.244   1.789
10426SOL     OW32176   6.310   4.921   0.577
10426SOL    HW132177   6.325   4.891   0.671
10426SOL    HW232178   6.295   4.840   0.519
10427SOL     OW32179   3.814   0.507   6.308
10427SOL    HW132180   3.895   0.526   6.364
10427SOL    HW232181   3.744   0.575   6.326
10428SOL     OW32182   3.558   1.008   3.773
10428SOL    HW132183   3.578   0.910   3.782
10428SOL    HW232184   3.541   1.030   3.677
10429SOL     OW32185   0.049   5.176   0.765
10429SOL    HW132186   0.038   5.130   0.853
10429SOL    HW232187   0.127   5.136   0.716
10430SOL     OW32188   5.184   6.743   4.447
10430SOL    HW132189   5.260   6.787   4.398
10430SOL    HW232190   5.213   6.653   4.479
10431SOL     OW32191   3.407   6.004   4.130
10431SOL    HW132192   3.497   5.961   4.118
10431SOL    HW232193   3.363   5.967   4.212
10432SOL     OW32194   5.912   6.543   4.913
10432SOL    HW132195   5.977   6.549   4.989
10432SOL    HW232196   5.958   6.568   4.828
10433SOL     OW32197   1.831   6.328   1.043
10433SOL    HW132198   1.782   6.267   0.982
10433SOL    HW232199   1.778   6.412   1.056
10434SOL     OW32200   4.266   6.627   3.593
10434SOL    HW132201   4.293   6.650   3.687
10434SOL    HW232202   4.231   6.533   3.591
10435SOL     OW32203   0.182   0.457   4.521
10435SOL    HW132204   0.108   0.490   4.579
10435SOL    HW232205   0.215   0.369   4.556
10436SOL     OW32206   0.713   5.176   6.176
10436SOL    HW132207   0.614   5.185   6.183
10436SOL    HW232208   0.746   5.229   6.098
10437SOL     OW32209   5.419   5.075   6.037
10437SOL    HW132210   5.350   5.034   5.977
10437SOL    HW232211   5.461   5.003   6.093
10438SOL     OW32212   5.967   6.399   0.743
10438SOL    HW132213   5.973   6.438   0.652
10438SOL    HW232214   6.001   6.465   0.810
10439SOL     OW32215   4.091   1.338   5.974
10439SOL    HW132216   4.033   1.407   6.015
10439SOL    HW232217   4.101   1.261   6.037
10440SOL     OW32218   0.958   6.603   0.548
10440SOL    HW132219   0.958   6.679   0.484
10440SOL    HW232220   0.907   6.526   0.510
10441SOL     OW32221   3.854   0.564   0.442
10441SOL    HW132222   3.839   0.656   0.480
10441SOL    HW232223   3.896   0.506   0.512
10442SOL     OW32224   3.271   6.205   6.293
10442SOL    HW132225   3.317   6.289   6.265
10442SOL    HW232226   3.206   6.177   6.222
10443SOL     OW32227   5.190   3.981   4.724
10443SOL    HW132228   5.283   4.012   4.744
10443SOL    HW232229   5.158   4.026   4.640
10444SOL     OW32230   3.980   6.150   4.553
10444SOL    HW132231   3.949   6.069   4.603
10444SOL    HW232232   4.079   6.147   4.541
10445SOL     OW32233   0.987   5.469   4.462
10445SOL    HW132234   1.009   5.540   4.395
10445SOL    HW232235   1.037   5.385   4.439
10446SOL     OW32236   1.085   2.923   5.230
10446SOL    HW132237   1.041   2.915   5.140
10446SOL    HW232238   1.092   3.020   5.255
10447SOL     OW32239   6.893   0.810   2.149
10447SOL    HW132240   6.973   0.822   2.089
10447SOL    HW232241   6.893   0.881   2.219
10448SOL     OW32242   3.759   1.480   1.790
10448SOL    HW132243   3.813   1.563   1.783
10448SOL    HW232244   3.818   1.405   1.821
10449SOL     OW32245   2.135   5.257   4.751
10449SOL    HW132246   2.138   5.232   4.654
10449SOL    HW232247   2.185   5.342   4.765
10450SOL     OW32248   0.332   1.793   0.896
10450SOL    HW132249   0.377   1.857   0.957
10450SOL    HW232250   0.348   1.820   0.801
10451SOL     OW32251   1.717   5.255   2.440
10451SOL    HW132252   1.758   5.181   2.493
10451SOL    HW232253   1.698   5.333   2.500
10452SOL     OW32254   5.767   3.547   3.257
10452SOL    HW132255   5.860   3.549   3.221
10452SOL    HW232256   5.759   3.612   3.332
10453SOL     OW32257   4.386   5.326   1.671
10453SOL    HW132258   4.427   5.236   1.659
10453SOL    HW232259   4.458   5.394   1.680
10454SOL     OW32260   4.570   3.104   1.017
10454SOL    HW132261   4.552   3.011   0.982
10454SOL    HW232262   4.514   3.120   1.098
10455SOL     OW32263   6.771   5.263   2.152
10455SOL    HW132264   6.822   5.349   2.156
10455SOL    HW232265   6.831   5.190   2.120
10456SOL     OW32266   2.916   6.200   0.957
10456SOL    HW132267   2.825   6.219   0.920
10456SOL    HW232268   2.908   6.161   1.048
10457SOL     OW32269   3.505   3.524   2.445
10457SOL    HW132270   3.588   3.469   2.441
10457SOL    HW232271   3.425   3.464   2.445
10458SOL     OW32272   0.320   1.229   6.325
10458SOL    HW132273   0.307   1.219   6.424
10458SOL    HW232274   0.249   1.178   6.277
10459SOL     OW32275   4.885   5.148   2.590
10459SOL    HW132276   4.868   5.242   2.621
10459SOL    HW232277   4.965   5.147   2.531
10460SOL     OW32278   1.593   5.258   1.296
10460SOL    HW132279   1.690   5.238   1.281
10460SOL    HW232280   1.581   5.301   1.385
10461SOL     OW32281   1.126   5.477   5.462
10461SOL    HW132282   1.160   5.515   5.377
10461SOL    HW232283   1.026   5.481   5.463
10462SOL     OW32284   6.139   1.402   3.065
10462SOL    HW132285   6.223   1.348   3.072
10462SOL    HW232286   6.068   1.348   3.019
10463SOL     OW32287   4.101   2.921   5.810
10463SOL    HW132288   4.164   2.988   5.851
10463SOL    HW232289   4.012   2.964   5.796
10464SOL     OW32290   5.977   6.401   1.304
10464SOL    HW132291   6.049   6.352   1.254
10464SOL    HW232292   5.949   6.347   1.383
10465SOL     OW32293   5.853   6.593   1.132
10465SOL    HW132294   5.891   6.512   1.176
10465SOL    HW232295   5.904   6.613   1.048
10466SOL     OW32296   4.678   5.175   5.607
10466SOL    HW132297   4.587   5.202   5.574
10466SOL    HW232298   4.748   5.210   5.546
10467SOL     OW32299   1.014   1.879   5.667
10467SOL    HW132300   1.106   1.908   5.641
10467SOL    HW232301   0.975   1.820   5.596
10468SOL     OW32302   3.767   4.922   3.253
10468SOL    HW132303   3.670   4.922   3.233
10468SOL    HW232304   3.819   4.903   3.170
10469SOL     OW32305   3.694   2.446   6.392
10469SOL    HW132306   3.639   2.514   6.345
10469SOL    HW232307   3.640   2.402   6.463
10470SOL     OW32308   2.585   1.960   3.044
10470SOL    HW132309   2.553   1.868   3.022
10470SOL    HW232310   2.634   1.958   3.131
10471SOL     OW32311   2.127   3.183   1.098
10471SOL    HW132312   2.147   3.188   1.000
10471SOL    HW232313   2.198   3.130   1.144
10472SOL     OW32314   3.108   5.660   1.011
10472SOL    HW132315   3.198   5.616   1.003
10472SOL    HW232316   3.046   5.600   1.060
10473SOL     OW32317   5.790   0.385   0.288
10473SOL    HW132318   5.703   0.364   0.243
10473SOL    HW232319   5.829   0.300   0.325
10474SOL     OW32320   4.249   1.402   4.767
10474SOL    HW132321   4.309   1.336   4.722
10474SOL    HW232322   4.283   1.420   4.860
10475SOL     OW32323   4.225   6.504   2.447
10475SOL    HW132324   4.152   6.438   2.459
10475SOL    HW232325   4.314   6.457   2.453
10476SOL     OW32326   6.821   5.920   6.652
10476SOL    HW132327   6.876   5.977   6.714
10476SOL    HW232328   6.879   5.850   6.612
10477SOL     OW32329   6.218   2.326   4.665
10477SOL    HW132330   6.180   2.273   4.741
10477SOL    HW232331   6.270   2.404   4.701
10478SOL     OW32332   0.202   0.225   1.096
10478SOL    HW132333   0.290   0.231   1.048
10478SOL    HW232334   0.213   0.167   1.177
10479SOL     OW32335   0.006   2.678   1.721
10479SOL    HW132336   0.024   2.626   1.805
10479SOL    HW232337   0.026   2.775   1.737
10480SOL     OW32338   5.987   0.682   1.241
10480SOL    HW132339   5.981   0.729   1.153
10480SOL    HW232340   5.895   0.654   1.270
10481SOL     OW32341   2.363   0.807   5.195
10481SOL    HW132342   2.328   0.891   5.154
10481SOL    HW232343   2.384   0.741   5.123
10482SOL     OW32344   0.842   6.097   4.812
10482SOL    HW132345   0.889   6.156   4.747
10482SOL    HW232346   0.819   6.010   4.768
10483SOL     OW32347   0.086   5.346   0.264
10483SOL    HW132348   0.025   5.319   0.189
10483SOL    HW232349   0.046   5.317   0.351
10484SOL     OW32350   6.707   0.966   1.122
10484SOL    HW132351   6.801   0.935   1.110
10484SOL    HW232352   6.650   0.932   1.047
10485SOL     OW32353   3.285   3.347   2.472
10485SOL    HW132354   3.271   3.256   2.433
10485SOL    HW232355   3.306   3.339   2.570
10486SOL     OW32356   6.584   0.480   5.747
10486SOL    HW132357   6.584   0.567   5.796
10486SOL    HW232358   6.501   0.428   5.769
10487SOL     OW32359   4.619   2.081   1.377
10487SOL    HW132360   4.692   2.054   1.315
10487SOL    HW232361   4.565   2.000   1.403
10488SOL     OW32362   1.908   1.902   6.286
10488SOL    HW132363   1.925   2.000   6.288
10488SOL    HW232364   1.920   1.868   6.192
10489SOL     OW32365   6.152   6.102   4.498
10489SOL    HW132366   6.164   6.037   4.424
10489SOL    HW232367   6.222   6.087   4.568
10490SOL     OW32368   5.709   1.006   0.526
10490SOL    HW132369   5.763   1.088   0.546
10490SOL    HW232370   5.666   0.974   0.611
10491SOL     OW32371   2.351   2.866   6.597
10491SOL    HW132372   2.252   2.863   6.596
10491SOL    HW232373   2.382   2.954   6.633
10492SOL     OW32374   4.157   5.582   0.671
10492SOL    HW132375   4.130   5.629   0.587
10492SOL    HW232376   4.250   5.547   0.662
10493SOL     OW32377   2.765   5.695   1.145
10493SOL    HW132378   2.835   5.623   1.150
10493SOL    HW232379   2.809   5.783   1.126
10494SOL     OW32380   6.684   4.357   5.765
10494SOL    HW132381   6.783   4.361   5.779
10494SOL    HW232382   6.666   4.346   5.667
10495SOL     OW32383   6.054   6.558   0.516
10495SOL    HW132384   6.037   6.609   0.431
10495SOL    HW232385   6.152   6.560   0.536
10496SOL     OW32386   6.266   4.335   4.842
10496SOL    HW132387   6.301   4.328   4.748
10496SOL    HW232388   6.218   4.422   4.853
10497SOL     OW32389   1.330   6.539   2.426
10497SOL    HW132390   1.344   6.441   2.413
10497SOL    HW232391   1.232   6.558   2.427
10498SOL     OW32392   5.636   6.230   1.237
10498SOL    HW132393   5.699   6.225   1.159
10498SOL    HW232394   5.577   6.150   1.237
10499SOL     OW32395   4.871   6.414   1.284
10499SOL    HW132396   4.923   6.369   1.357
10499SOL    HW232397   4.863   6.511   1.304
10500SOL     OW32398   5.812   2.400   5.627
10500SOL    HW132399   5.831   2.497   5.614
10500SOL    HW232400   5.767   2.363   5.545
10501SOL     OW32401   2.405   6.032   2.864
10501SOL    HW132402   2.318   6.053   2.907
10501SOL    HW232403   2.426   5.935   2.875
10502SOL     OW32404   2.442   3.896   1.210
10502SOL    HW132405   2.395   3.813   1.239
10502SOL    HW232406   2.515   3.872   1.146
10503SOL     OW32407   5.998   4.463   0.166
10503SOL    HW132408   6.074   4.424   0.218
10503SOL    HW232409   5.957   4.392   0.109
10504SOL     OW32410   0.286   2.463   5.709
10504SOL    HW132411   0.312   2.543   5.764
10504SOL    HW232412   0.362   2.397   5.709
10505SOL     OW32413   5.327   6.566   1.808
10505SOL    HW132414   5.321   6.587   1.906
10505SOL    HW232415   5.353   6.649   1.759
10506SOL     OW32416   0.684   3.445   0.549
10506SOL    HW132417   0.673   3.532   0.596
10506SOL    HW232418   0.609   3.432   0.485
10507SOL     OW32419   1.896   5.489   6.800
10507SOL    HW132420   1.816   5.547   6.784
10507SOL    HW232421   1.968   5.512   6.735
10508SOL     OW32422   1.179   6.103   4.305
10508SOL    HW132423   1.156   6.013   4.343
10508SOL    HW232424   1.256   6.095   4.242
10509SOL     OW32425   5.937   4.408   4.631
10509SOL    HW132426   5.890   4.320   4.628
10509SOL    HW232427   5.960   4.437   4.538
10510SOL     OW32428   4.761   6.546   0.249
10510SOL    HW132429   4.719   6.492   0.176
10510SOL    HW232430   4.848   6.504   0.276
10511SOL     OW32431   2.849   1.521   1.935
10511SOL    HW132432   2.773   1.545   1.995
10511SOL    HW232433   2.934   1.515   1.989
10512SOL     OW32434   3.780   6.560   6.002
10512SOL    HW132435   3.742   6.618   6.075
10512SOL    HW232436   3.829   6.618   5.936
10513SOL     OW32437   6.704   2.785   3.141
10513SOL    HW132438   6.710   2.776   3.041
10513SOL    HW232439   6.628   2.845   3.165
10514SOL     OW32440   1.421   1.891   1.805
10514SOL    HW132441   1.353   1.940   1.751
10514SOL    HW232442   1.481   1.957   1.851
10515SOL     OW32443   2.388   2.531   4.126
10515SOL    HW132444   2.359   2.616   4.170
10515SOL    HW232445   2.468   2.495   4.173
10516SOL     OW32446   2.737   1.849   0.368
10516SOL    HW132447   2.681   1.793   0.306
10516SOL    HW232448   2.794   1.910   0.315
10517SOL     OW32449   1.479   4.247   1.181
10517SOL    HW132450   1.396   4.200   1.151
10517SOL    HW232451   1.497   4.325   1.120
10518SOL     OW32452   0.248   5.696   1.867
10518SOL    HW132453   0.208   5.618   1.818
10518SOL    HW232454   0.240   5.679   1.966
10519SOL     OW32455   2.966   4.735   0.874
10519SOL    HW132456   3.010   4.825   0.874
10519SOL    HW232457   2.968   4.696   0.966
10520SOL     OW32458   6.627   2.234   6.246
10520SOL    HW132459   6.587   2.158   6.296
10520SOL    HW232460   6.725   2.221   6.238
10521SOL     OW32461   6.525   4.993   1.539
10521SOL    HW132462   6.625   4.990   1.550
10521SOL    HW232463   6.501   5.076   1.487
10522SOL     OW32464   0.473   2.862   3.053
10522SOL    HW132465   0.548   2.799   3.034
10522SOL    HW232466   0.386   2.814   3.044
10523SOL     OW32467   0.301   4.437   2.858
10523SOL    HW132468   0.211   4.410   2.891
10523SOL    HW232469   0.300   4.533   2.831
10524SOL     OW32470   0.582   5.386   3.988
10524SOL    HW132471   0.673   5.401   3.947
10524SOL    HW232472   0.526   5.468   3.975
10525SOL     OW32473   3.804   6.917   5.289
10525SOL    HW132474   3.801   6.942   5.193
10525SOL    HW232475   3.898   6.919   5.322
10526SOL     OW32476   0.594   6.559   1.703
10526SOL    HW132477   0.652   6.485   1.738
10526SOL    HW232478   0.652   6.630   1.663
10527SOL     OW32479   0.918   0.188   6.094
10527SOL    HW132480   0.931   0.269   6.152
10527SOL    HW232481   0.821   0.165   6.089
10528SOL     OW32482   0.677   4.424   6.231
10528SOL    HW132483   0.684   4.325   6.239
10528SOL    HW232484   0.744   4.457   6.165
10529SOL     OW32485   1.713   5.503   5.106
10529SOL    HW132486   1.664   5.476   5.023
10529SOL    HW232487   1.657   5.480   5.186
10530SOL     OW32488   1.114   6.169   6.056
10530SOL    HW132489   1.025   6.125   6.069
10530SOL    HW232490   1.166   6.119   5.988
10531SOL     OW32491   2.863   2.227   4.077
10531SOL    HW132492   2.932   2.259   4.012
10531SOL    HW232493   2.772   2.251   4.043
10532SOL     OW32494   6.726   6.759   6.586
10532SOL    HW132495   6.789   6.765   6.508
10532SOL    HW232496   6.764   6.809   6.664
10533SOL     OW32497   3.224   6.274   4.550
10533SOL    HW132498   3.284   6.241   4.477
10533SOL    HW232499   3.224   6.374   4.551
10534SOL     OW32500   6.901   5.545   2.239
10534SOL    HW132501   6.817   5.598   2.244
10534SOL    HW232502   6.960   5.568   2.316
10535SOL     OW32503   1.548   1.295   1.986
10535SOL    HW132504   1.577   1.375   1.933
10535SOL    HW232505   1.448   1.289   1.984
10536SOL     OW32506   4.368   0.014   4.188
10536SOL    HW132507   4.344   0.033   4.283
10536SOL    HW232508   4.467   7.018   4.181
10537SOL     OW32509   4.980   6.358   3.996
10537SOL    HW132510   5.026   6.351   3.908
10537SOL    HW232511   4.898   6.302   3.996
10538SOL     OW32512   5.830   4.108   2.582
10538SOL    HW132513   5.824   4.056   2.666
10538SOL    HW232514   5.811   4.205   2.601
10539SOL     OW32515   5.995   5.713   1.486
10539SOL    HW132516   5.985   5.812   1.477
10539SOL    HW232517   6.089   5.688   1.463
10540SOL     OW32518   2.316   3.954   6.034
10540SOL    HW132519   2.308   3.917   6.127
10540SOL    HW232520   2.277   3.889   5.969
10541SOL     OW32521   3.685   2.886   3.790
10541SOL    HW132522   3.747   2.932   3.727
10541SOL    HW232523   3.593   2.881   3.750
10542SOL     OW32524   6.841   0.027   4.929
10542SOL    HW132525   6.744   0.023   4.955
10542SOL    HW232526   6.892   0.078   4.998
10543SOL     OW32527   0.597   1.807   4.466
10543SOL    HW132528   0.592   1.890   4.521
10543SOL    HW232529   0.622   1.729   4.524
10544SOL     OW32530   2.067   6.468   3.145
10544SOL    HW132531   1.992   6.409   3.173
10544SOL    HW232532   2.037   6.563   3.145
10545SOL     OW32533   1.274   2.551   1.408
10545SOL    HW132534   1.176   2.558   1.429
10545SOL    HW232535   1.323   2.523   1.491
10546SOL     OW32536   4.029   6.213   1.284
10546SOL    HW132537   3.941   6.198   1.239
10546SOL    HW232538   4.041   6.310   1.304
10547SOL     OW32539   4.713   1.299   4.120
10547SOL    HW132540   4.743   1.392   4.139
10547SOL    HW232541   4.616   1.289   4.141
10548SOL     OW32542   0.742   4.075   3.871
10548SOL    HW132543   0.730   4.022   3.787
10548SOL    HW232544   0.654   4.084   3.918
10549SOL     OW32545   0.457   1.147   0.978
10549SOL    HW132546   0.475   1.233   1.027
10549SOL    HW232547   0.524   1.079   1.005
10550SOL     OW32548   4.330   6.868   3.434
10550SOL    HW132549   4.417   6.875   3.482
10550SOL    HW232550   4.272   6.800   3.480
10551SOL     OW32551   2.229   2.072   6.014
10551SOL    HW132552   2.190   1.994   5.965
10551SOL    HW232553   2.328   2.064   6.018
10552SOL     OW32554   2.346   1.029   5.018
10552SOL    HW132555   2.367   1.066   4.927
10552SOL    HW232556   2.329   1.105   5.081
10553SOL     OW32557   7.020   4.422   0.699
10553SOL    HW132558   6.980   4.394   0.612
10553SOL    HW232559   6.974   4.373   0.773
10554SOL     OW32560   5.371   5.483   2.558
10554SOL    HW132561   5.423   5.442   2.633
10554SOL    HW232562   5.376   5.583   2.565
10555SOL     OW32563   2.655   2.425   0.651
10555SOL    HW132564   2.709   2.489   0.707
10555SOL    HW232565   2.706   2.340   0.639
10556SOL     OW32566   3.246   1.089   3.668
10556SOL    HW132567   3.184   1.105   3.745
10556SOL    HW232568   3.228   0.999   3.629
10557SOL     OW32569   1.714   3.167   4.215
10557SOL    HW132570   1.697   3.077   4.175
10557SOL    HW232571   1.789   3.211   4.166
10558SOL     OW32572   3.535   5.705   6.011
10558SOL    HW132573   3.626   5.722   5.973
10558SOL    HW232574   3.526   5.753   6.099
10559SOL     OW32575   3.878   0.672   0.973
10559SOL    HW132576   3.794   0.617   0.970
10559SOL    HW232577   3.859   0.759   1.020
10560SOL     OW32578   4.322   6.284   2.198
10560SOL    HW132579   4.404   6.263   2.251
10560SOL    HW232580   4.259   6.206   2.202
10561SOL     OW32581   3.485   4.369   1.734
10561SOL    HW132582   3.517   4.435   1.803
10561SOL    HW232583   3.451   4.287   1.781
10562SOL     OW32584   4.025   5.907   0.161
10562SOL    HW132585   3.934   5.872   0.182
10562SOL    HW232586   4.027   5.939   0.066
10563SOL     OW32587   0.812   0.728   1.277
10563SOL    HW132588   0.887   0.664   1.288
10563SOL    HW232589   0.845   0.821   1.294
10564SOL     OW32590   6.101   6.274   3.959
10564SOL    HW132591   6.130   6.194   4.012
10564SOL    HW232592   6.181   6.328   3.933
10565SOL     OW32593   6.646   6.663   5.725
10565SOL    HW132594   6.578   6.717   5.676
10565SOL    HW232595   6.713   6.724   5.768
10566SOL     OW32596   2.790   2.339   6.970
10566SOL    HW132597   2.737   2.284   0.013
10566SOL    HW232598   2.809   2.286   6.887
10567SOL     OW32599   2.106   2.757   5.863
10567SOL    HW132600   2.160   2.831   5.824
10567SOL    HW232601   2.135   2.670   5.824
10568SOL     OW32602   5.979   2.602   0.243
10568SOL    HW132603   5.974   2.638   0.336
10568SOL    HW232604   6.040   2.522   0.242
10569SOL     OW32605   5.439   0.667   1.361
10569SOL    HW132606   5.376   0.684   1.286
10569SOL    HW232607   5.408   0.589   1.414
10570SOL     OW32608   1.903   4.690   3.716
10570SOL    HW132609   1.954   4.695   3.630
10570SOL    HW232610   1.950   4.744   3.786
10571SOL     OW32611   0.144   3.886   5.084
10571SOL    HW132612   0.075   3.942   5.131
10571SOL    HW232613   0.221   3.943   5.057
10572SOL     OW32614   0.092   4.955   2.209
10572SOL    HW132615   0.123   4.925   2.300
10572SOL    HW232616   0.022   4.892   2.176
10573SOL     OW32617   4.978   0.917   5.056
10573SOL    HW132618   5.018   0.969   5.131
10573SOL    HW232619   4.978   0.820   5.078
10574SOL     OW32620   6.647   1.155   3.968
10574SOL    HW132621   6.574   1.222   3.982
10574SOL    HW232622   6.734   1.204   3.959
10575SOL     OW32623   6.124   1.151   3.801
10575SOL    HW132624   6.106   1.053   3.812
10575SOL    HW232625   6.085   1.182   3.715
10576SOL     OW32626   1.536   5.213   2.869
10576SOL    HW132627   1.544   5.211   2.969
10576SOL    HW232628   1.446   5.177   2.843
10577SOL     OW32629   2.350   4.892   0.514
10577SOL    HW132630   2.376   4.923   0.605
10577SOL    HW232631   2.427   4.903   0.451
10578SOL     OW32632   5.112   1.232   3.223
10578SOL    HW132633   5.064   1.275   3.147
10578SOL    HW232634   5.072   1.142   3.242
10579SOL     OW32635   3.315   3.019   1.540
10579SOL    HW132636   3.326   2.921   1.526
10579SOL    HW232637   3.238   3.052   1.485
10580SOL     OW32638   6.700   6.532   6.306
10580SOL    HW132639   6.620   6.576   6.266
10580SOL    HW232640   6.677   6.495   6.396
10581SOL     OW32641   5.214   0.022   2.894
10581SOL    HW132642   5.215   0.114   2.932
10581SOL    HW232643   5.237   0.025   2.797
10582SOL     OW32644   5.298   4.453   6.443
10582SOL    HW132645   5.248   4.537   6.461
10582SOL    HW232646   5.363   4.436   6.517
10583SOL     OW32647   4.493   0.310   4.488
10583SOL    HW132648   4.399   0.303   4.456
10583SOL    HW232649   4.553   0.257   4.427
10584SOL     OW32650   6.559   0.040   6.666
10584SOL    HW132651   6.615   0.087   6.734
10584SOL    HW232652   6.603   6.975   6.639
10585SOL     OW32653   2.253   1.957   5.617
10585SOL    HW132654   2.221   1.909   5.700
10585SOL    HW232655   2.286   2.048   5.642
10586SOL     OW32656   4.959   4.766   5.348
10586SOL    HW132657   5.030   4.755   5.417
10586SOL    HW232658   4.869   4.763   5.393
10587SOL     OW32659   6.962   5.495   7.006
10587SOL    HW132660   0.033   5.455   7.003
10587SOL    HW232661   6.897   5.432   6.965
10588SOL     OW32662   1.926   1.916   5.160
10588SOL    HW132663   1.901   2.011   5.141
10588SOL    HW232664   1.867   1.855   5.106
10589SOL     OW32665   5.245   0.168   4.471
10589SOL    HW132666   5.278   0.108   4.398
10589SOL    HW232667   5.214   0.113   4.548
10590SOL     OW32668   0.239   6.245   1.845
10590SOL    HW132669   0.337   6.252   1.824
10590SOL    HW232670   0.203   6.161   1.806
10591SOL     OW32671   2.507   1.702   1.125
10591SOL    HW132672   2.421   1.696   1.177
10591SOL    HW232673   2.520   1.796   1.092
10592SOL     OW32674   5.766   2.736   4.339
10592SOL    HW132675   5.697   2.708   4.406
10592SOL    HW232676   5.727   2.733   4.247
10593SOL     OW32677   1.691   6.492   0.676
10593SOL    HW132678   1.736   6.581   0.671
10593SOL    HW232679   1.698   6.446   0.587
10594SOL     OW32680   4.354   1.769   3.008
10594SOL    HW132681   4.304   1.717   2.939
10594SOL    HW232682   4.322   1.742   3.099
10595SOL     OW32683   6.138   7.012   6.956
10595SOL    HW132684   6.223   0.027   6.917
10595SOL    HW232685   6.088   6.963   6.886
10596SOL     OW32686   5.122   0.680   6.870
10596SOL    HW132687   5.196   0.614   6.885
10596SOL    HW232688   5.085   0.709   6.958
10597SOL     OW32689   2.169   0.397   5.236
10597SOL    HW132690   2.198   0.475   5.291
10597SOL    HW232691   2.171   0.422   5.139
10598SOL     OW32692   2.897   2.292   6.601
10598SOL    HW132693   2.973   2.341   6.558
10598SOL    HW232694   2.829   2.270   6.531
10599SOL     OW32695   6.389   4.022   6.490
10599SOL    HW132696   6.409   3.925   6.477
10599SOL    HW232697   6.297   4.042   6.455
10600SOL     OW32698   3.700   2.050   1.241
10600SOL    HW132699   3.626   2.115   1.225
10600SOL    HW232700   3.702   1.982   1.168
10601SOL     OW32701   1.263   5.110   5.216
10601SOL    HW132702   1.321   5.029   5.227
10601SOL    HW232703   1.192   5.091   5.148
10602SOL     OW32704   1.002   1.398   1.072
10602SOL    HW132705   1.068   1.326   1.090
10602SOL    HW232706   0.996   1.415   0.974
10603SOL     OW32707   4.799   6.809   3.295
10603SOL    HW132708   4.839   6.721   3.321
10603SOL    HW232709   4.753   6.801   3.207
10604SOL     OW32710   0.034   6.155   4.918
10604SOL    HW132711   0.034   6.213   5.000
10604SOL    HW232712   6.974   6.176   4.863
10605SOL     OW32713   1.955   0.095   6.640
10605SOL    HW132714   1.886   0.109   6.711
10605SOL    HW232715   1.919   0.128   6.553
10606SOL     OW32716   6.732   1.124   1.759
10606SOL    HW132717   6.789   1.069   1.697
10606SOL    HW232718   6.724   1.077   1.847
10607SOL     OW32719   3.996   4.755   0.531
10607SOL    HW132720   3.923   4.700   0.572
10607SOL    HW232721   3.957   4.838   0.492
10608SOL     OW32722   6.915   3.309   3.374
10608SOL    HW132723   6.824   3.343   3.397
10608SOL    HW232724   6.955   3.366   3.302
10609SOL     OW32725   2.228   0.011   6.654
10609SOL    HW132726   2.300   0.050   6.597
10609SOL    HW232727   2.140   0.048   6.627
10610SOL     OW32728   0.172   1.858   4.434
10610SOL    HW132729   0.082   1.867   4.477
10610SOL    HW232730   0.182   1.766   4.397
10611SOL     OW32731   2.671   5.317   5.929
10611SOL    HW132732   2.632   5.226   5.946
10611SOL    HW232733   2.722   5.316   5.843
10612SOL     OW32734   5.027   2.258   4.284
10612SOL    HW132735   5.065   2.193   4.219
10612SOL    HW232736   4.927   2.248   4.287
10613SOL     OW32737   6.379   5.593   5.000
10613SOL    HW132738   6.467   5.551   4.979
10613SOL    HW232739   6.325   5.601   4.917
10614SOL     OW32740   5.333   1.358   4.639
10614SOL    HW132741   5.344   1.405   4.726
10614SOL    HW232742   5.401   1.285   4.631
10615SOL     OW32743   3.469   1.105   5.420
10615SOL    HW132744   3.440   1.190   5.464
10615SOL    HW232745   3.564   1.113   5.391
10616SOL     OW32746   3.210   6.391   6.644
10616SOL    HW132747   3.154   6.308   6.646
10616SOL    HW232748   3.294   6.375   6.696
10617SOL     OW32749   2.408   4.399   1.242
10617SOL    HW132750   2.491   4.387   1.295
10617SOL    HW232751   2.330   4.361   1.292
10618SOL     OW32752   0.701   5.143   5.639
10618SOL    HW132753   0.650   5.062   5.611
10618SOL    HW232754   0.714   5.203   5.560
10619SOL     OW32755   0.699   2.717   3.308
10619SOL    HW132756   0.670   2.699   3.214
10619SOL    HW232757   0.667   2.807   3.336
10620SOL     OW32758   1.355   6.852   5.172
10620SOL    HW132759   1.311   6.763   5.187
10620SOL    HW232760   1.453   6.838   5.153
10621SOL     OW32761   0.224   4.561   1.879
10621SOL    HW132762   0.178   4.486   1.927
10621SOL    HW232763   0.217   4.545   1.780
10622SOL     OW32764   4.647   2.287   1.559
10622SOL    HW132765   4.720   2.338   1.513
10622SOL    HW232766   4.620   2.209   1.503
10623SOL     OW32767   6.492   5.749   5.448
10623SOL    HW132768   6.484   5.654   5.479
10623SOL    HW232769   6.526   5.750   5.354
10624SOL     OW32770   0.430   2.427   5.224
10624SOL    HW132771   0.398   2.522   5.221
10624SOL    HW232772   0.422   2.392   5.318
10625SOL     OW32773   0.449   4.293   1.651
10625SOL    HW132774   0.412   4.383   1.630
10625SOL    HW232775   0.544   4.287   1.618
10626SOL     OW32776   2.954   2.637   1.166
10626SOL    HW132777   3.029   2.573   1.182
10626SOL    HW232778   2.909   2.657   1.253
10627SOL     OW32779   6.320   1.022   6.696
10627SOL    HW132780   6.233   0.982   6.726
10627SOL    HW232781   6.321   1.028   6.596
10628SOL     OW32782   4.624   6.957   1.156
10628SOL    HW132783   4.703   6.975   1.096
10628SOL    HW232784   4.650   6.976   1.251
10629SOL     OW32785   3.216   4.905   4.714
10629SOL    HW132786   3.219   4.840   4.790
10629SOL    HW232787   3.121   4.928   4.694
10630SOL     OW32788   5.723   1.325   2.394
10630SOL    HW132789   5.733   1.396   2.324
10630SOL    HW232790   5.737   1.235   2.353
10631SOL     OW32791   3.783   4.340   5.502
10631SOL    HW132792   3.743   4.431   5.515
10631SOL    HW232793   3.784   4.292   5.590
10632SOL     OW32794   5.135   6.276   3.776
10632SOL    HW132795   5.224   6.234   3.756
10632SOL    HW232796   5.062   6.210   3.756
10633SOL     OW32797   2.298   2.450   1.326
10633SOL    HW132798   2.297   2.372   1.264
10633SOL    HW232799   2.386   2.497   1.320
10634SOL     OW32800   1.682   5.193   0.325
10634SOL    HW132801   1.771   5.160   0.293
10634SOL    HW232802   1.666   5.161   0.419
10635SOL     OW32803   2.096   3.388   6.637
10635SOL    HW132804   2.022   3.396   6.704
10635SOL    HW232805   2.059   3.395   6.545
10636SOL     OW32806   0.057   2.402   1.496
10636SOL    HW132807   0.015   2.403   1.587
10636SOL    HW232808   7.008   2.379   1.428
10637SOL     OW32809   1.372   5.422   6.440
10637SOL    HW132810   1.409   5.344   6.390
10637SOL    HW232811   1.279   5.442   6.406
10638SOL     OW32812   5.473   6.315   3.066
10638SOL    HW132813   5.381   6.345   3.041
10638SOL    HW232814   5.479   6.216   3.057
10639SOL     OW32815   1.853   3.534   2.352
10639SOL    HW132816   1.801   3.613   2.319
10639SOL    HW232817   1.947   3.540   2.319
10640SOL     OW32818   4.794   0.436   3.580
10640SOL    HW132819   4.880   0.429   3.630
10640SOL    HW232820   4.744   0.517   3.610
10641SOL     OW32821   1.946   1.589   2.949
10641SOL    HW132822   1.999   1.542   3.020
10641SOL    HW232823   2.007   1.625   2.879
10642SOL     OW32824   6.174   1.667   0.509
10642SOL    HW132825   6.227   1.632   0.432
10642SOL    HW232826   6.228   1.661   0.593
10643SOL     OW32827   2.317   6.297   5.480
10643SOL    HW132828   2.321   6.388   5.438
10643SOL    HW232829   2.276   6.232   5.416
10644SOL     OW32830   5.732   3.422   1.283
10644SOL    HW132831   5.662   3.364   1.324
10644SOL    HW232832   5.822   3.384   1.304
10645SOL     OW32833   2.079   2.551   4.379
10645SOL    HW132834   2.174   2.528   4.358
10645SOL    HW232835   2.036   2.592   4.299
10646SOL     OW32836   6.778   0.452   6.151
10646SOL    HW132837   6.748   0.524   6.214
10646SOL    HW232838   6.842   0.391   6.199
10647SOL     OW32839   3.639   5.327   5.032
10647SOL    HW132840   3.594   5.373   4.955
10647SOL    HW232841   3.591   5.241   5.052
10648SOL     OW32842   6.072   5.055   6.179
10648SOL    HW132843   6.146   4.988   6.181
10648SOL    HW232844   5.985   5.010   6.202
10649SOL     OW32845   0.715   3.486   2.960
10649SOL    HW132846   0.718   3.402   2.906
10649SOL    HW232847   0.678   3.560   2.904
10650SOL     OW32848   0.676   0.721   4.154
10650SOL    HW132849   0.587   0.749   4.191
10650SOL    HW232850   0.715   0.796   4.101
10651SOL     OW32851   6.306   5.552   5.730
10651SOL    HW132852   6.394   5.525   5.769
10651SOL    HW232853   6.234   5.538   5.798
10652SOL     OW32854   2.189   0.138   6.387
10652SOL    HW132855   2.161   0.047   6.358
10652SOL    HW232856   2.289   0.141   6.396
10653SOL     OW32857   3.852   5.903   5.325
10653SOL    HW132858   3.847   5.803   5.335
10653SOL    HW232859   3.926   5.927   5.263
10654SOL     OW32860   5.144   0.723   6.104
10654SOL    HW132861   5.081   0.800   6.095
10654SOL    HW232862   5.234   0.756   6.132
10655SOL     OW32863   1.535   4.787   0.226
10655SOL    HW132864   1.570   4.755   0.314
10655SOL    HW232865   1.572   4.730   0.153
10656SOL     OW32866   6.833   1.017   2.380
10656SOL    HW132867   6.844   1.112   2.350
10656SOL    HW232868   6.735   0.993   2.380
10657SOL     OW32869   5.848   0.678   4.736
10657SOL    HW132870   5.780   0.719   4.797
10657SOL    HW232871   5.805   0.649   4.651
10658SOL     OW32872   6.088   4.146   4.764
10658SOL    HW132873   6.023   4.193   4.704
10658SOL    HW232874   6.141   4.213   4.816
10659SOL     OW32875   0.943   4.921   0.695
10659SOL    HW132876   0.871   4.885   0.636
10659SOL    HW232877   1.009   4.972   0.641
10660SOL     OW32878   6.035   3.718   6.026
10660SOL    HW132879   6.008   3.676   5.940
10660SOL    HW232880   6.099   3.793   6.009
10661SOL     OW32881   1.496   6.494   1.112
10661SOL    HW132882   1.481   6.503   1.013
10661SOL    HW232883   1.586   6.531   1.136
10662SOL     OW32884   4.476   0.593   2.295
10662SOL    HW132885   4.523   0.637   2.371
10662SOL    HW232886   4.523   0.508   2.272
10663SOL     OW32887   0.883   1.250   3.042
10663SOL    HW132888   0.811   1.303   2.997
10663SOL    HW232889   0.875   1.154   3.017
10664SOL     OW32890   6.294   4.068   5.314
10664SOL    HW132891   6.351   4.098   5.237
10664SOL    HW232892   6.198   4.072   5.288
10665SOL     OW32893   1.384   1.879   0.136
10665SOL    HW132894   1.305   1.918   0.184
10665SOL    HW232895   1.353   1.822   0.060
10666SOL     OW32896   3.015   4.006   1.909
10666SOL    HW132897   3.053   4.049   1.991
10666SOL    HW232898   2.958   4.072   1.861
10667SOL     OW32899   4.951   2.665   3.561
10667SOL    HW132900   5.003   2.618   3.633
10667SOL    HW232901   4.901   2.597   3.507
10668SOL     OW32902   2.879   1.359   4.705
10668SOL    HW132903   2.846   1.397   4.618
10668SOL    HW232904   2.827   1.277   4.727
10669SOL     OW32905   6.393   0.678   1.216
10669SOL    HW132906   6.328   0.739   1.261
10669SOL    HW232907   6.451   0.732   1.155
10670SOL     OW32908   5.417   4.543   4.742
10670SOL    HW132909   5.366   4.457   4.753
10670SOL    HW232910   5.499   4.526   4.687
10671SOL     OW32911   1.768   1.855   4.293
10671SOL    HW132912   1.807   1.846   4.385
10671SOL    HW232913   1.796   1.942   4.253
10672SOL     OW32914   6.747   4.390   2.085
10672SOL    HW132915   6.714   4.325   2.016
10672SOL    HW232916   6.707   4.368   2.174
10673SOL     OW32917   0.401   1.138   0.038
10673SOL    HW132918   0.393   1.237   0.022
10673SOL    HW232919   0.444   1.095   6.980
10674SOL     OW32920   4.131   3.425   4.052
10674SOL    HW132921   4.065   3.397   4.121
10674SOL    HW232922   4.126   3.362   3.974
10675SOL     OW32923   2.193   0.388   6.519
10675SOL    HW132924   2.174   0.429   6.430
10675SOL    HW232925   2.193   0.288   6.510
10676SOL     OW32926   0.336   6.034   5.152
10676SOL    HW132927   0.243   6.042   5.187
10676SOL    HW232928   0.336   6.054   5.054
10677SOL     OW32929   1.379   0.484   1.489
10677SOL    HW132930   1.352   0.427   1.411
10677SOL    HW232931   1.394   0.425   1.569
10678SOL     OW32932   4.668   5.215   4.508
10678SOL    HW132933   4.591   5.151   4.501
10678SOL    HW232934   4.666   5.278   4.430
10679SOL     OW32935   4.039   5.696   6.490
10679SOL    HW132936   3.948   5.661   6.469
10679SOL    HW232937   4.070   5.659   6.577
10680SOL     OW32938   3.820   2.118   4.046
10680SOL    HW132939   3.798   2.098   3.950
10680SOL    HW232940   3.755   2.070   4.105
10681SOL     OW32941   6.903   3.792   0.516
10681SOL    HW132942   6.809   3.758   0.514
10681SOL    HW232943   6.917   3.857   0.442
10682SOL     OW32944   0.023   2.075   5.551
10682SOL    HW132945   0.098   2.085   5.486
10682SOL    HW232946   0.055   2.098   5.643
10683SOL     OW32947   4.869   0.926   3.684
10683SOL    HW132948   4.798   0.992   3.707
10683SOL    HW232949   4.948   0.973   3.647
10684SOL     OW32950   4.729   4.858   2.526
10684SOL    HW132951   4.681   4.791   2.470
10684SOL    HW232952   4.696   4.854   2.620
10685SOL     OW32953   0.787   5.655   1.472
10685SOL    HW132954   0.783   5.561   1.439
10685SOL    HW232955   0.882   5.686   1.473
10686SOL     OW32956   0.995   3.830   5.832
10686SOL    HW132957   0.979   3.739   5.872
10686SOL    HW232958   1.091   3.855   5.842
10687SOL     OW32959   6.464   5.300   4.303
10687SOL    HW132960   6.434   5.206   4.290
10687SOL    HW232961   6.490   5.314   4.399
10688SOL     OW32962   5.755   3.177   2.833
10688SOL    HW132963   5.805   3.092   2.823
10688SOL    HW232964   5.772   3.236   2.754
10689SOL     OW32965   6.706   0.373   3.034
10689SOL    HW132966   6.613   0.335   3.027
10689SOL    HW232967   6.772   0.299   3.035
10690SOL     OW32968   0.409   5.621   3.902
10690SOL    HW132969   0.313   5.611   3.875
10690SOL    HW232970   0.467   5.586   3.828
10691SOL     OW32971   1.538   1.906   2.265
10691SOL    HW132972   1.526   1.807   2.266
10691SOL    HW232973   1.611   1.931   2.329
10692SOL     OW32974   2.419   6.940   4.139
10692SOL    HW132975   2.405   6.929   4.237
10692SOL    HW232976   2.380   6.863   4.090
10693SOL     OW32977   1.296   5.813   1.202
10693SOL    HW132978   1.349   5.879   1.256
10693SOL    HW232979   1.285   5.848   1.109
10694SOL     OW32980   5.232   6.293   0.063
10694SOL    HW132981   5.224   6.376   0.117
10694SOL    HW232982   5.193   6.308   6.993
10695SOL     OW32983   0.996   2.143   2.569
10695SOL    HW132984   1.053   2.170   2.491
10695SOL    HW232985   0.921   2.084   2.538
10696SOL     OW32986   6.550   4.350   3.454
10696SOL    HW132987   6.538   4.390   3.364
10696SOL    HW232988   6.470   4.370   3.511
10697SOL     OW32989   0.653   6.442   5.155
10697SOL    HW132990   0.585   6.383   5.112
10697SOL    HW232991   0.654   6.425   5.254
10698SOL     OW32992   5.609   4.439   7.010
10698SOL    HW132993   5.548   4.385   6.952
10698SOL    HW232994   5.597   4.411   0.085
10699SOL     OW32995   3.966   4.543   1.678
10699SOL    HW132996   4.020   4.579   1.754
10699SOL    HW232997   4.018   4.551   1.593
10700SOL     OW32998   5.676   6.470   0.595
10700SOL    HW132999   5.702   6.444   0.688
10700SOL    HW233000   5.583   6.438   0.576
10701SOL     OW33001   2.370   6.833   6.804
10701SOL    HW133002   2.448   6.803   6.749
10701SOL    HW233003   2.325   6.911   6.760
10702SOL     OW33004   5.393   3.277   1.674
10702SOL    HW133005   5.302   3.235   1.676
10702SOL    HW233006   5.451   3.235   1.743
10703SOL     OW33007   2.734   3.060   5.277
10703SOL    HW133008   2.641   3.055   5.241
10703SOL    HW233009   2.787   3.127   5.225
10704SOL     OW33010   5.823   5.777   2.363
10704SOL    HW133011   5.867   5.729   2.438
10704SOL    HW233012   5.739   5.728   2.337
10705SOL     OW33013   6.221   4.995   1.886
10705SOL    HW133014   6.131   5.005   1.928
10705SOL    HW233015   6.231   4.902   1.851
10706SOL     OW33016   4.604   0.777   2.505
10706SOL    HW133017   4.571   0.759   2.598
10706SOL    HW233018   4.698   0.747   2.497
10707SOL     OW33019   0.039   0.228   4.389
10707SOL    HW133020   0.090   0.142   4.398
10707SOL    HW233021   0.101   0.305   4.403
10708SOL     OW33022   3.879   1.298   1.430
10708SOL    HW133023   3.961   1.313   1.486
10708SOL    HW233024   3.798   1.331   1.480
10709SOL     OW33025   5.266   5.002   5.548
10709SOL    HW133026   5.289   4.940   5.473
10709SOL    HW233027   5.345   5.012   5.609
10710SOL     OW33028   6.908   0.537   4.363
10710SOL    HW133029   6.897   0.485   4.279
10710SOL    HW233030   6.969   0.488   4.425
10711SOL     OW33031   2.027   6.939   4.688
10711SOL    HW133032   1.956   6.999   4.650
10711SOL    HW233033   2.000   6.911   4.781
10712SOL     OW33034   3.055   0.496   1.828
10712SOL    HW133035   3.067   0.561   1.904
10712SOL    HW233036   2.967   0.513   1.783
10713SOL     OW33037   0.476   3.369   2.167
10713SOL    HW133038   0.396   3.389   2.223
10713SOL    HW233039   0.558   3.405   2.213
10714SOL     OW33040   5.720   3.274   5.054
10714SOL    HW133041   5.635   3.311   5.093
10714SOL    HW233042   5.703   3.183   5.018
10715SOL     OW33043   5.165   0.584   2.706
10715SOL    HW133044   5.227   0.663   2.700
10715SOL    HW233045   5.081   0.611   2.752
10716SOL     OW33046   6.075   1.809   3.560
10716SOL    HW133047   6.003   1.848   3.617
10716SOL    HW233048   6.035   1.746   3.494
10717SOL     OW33049   0.656   2.079   1.587
10717SOL    HW133050   0.620   1.989   1.561
10717SOL    HW233051   0.588   2.149   1.568
10718SOL     OW33052   1.441   2.838   6.879
10718SOL    HW133053   1.467   2.933   6.894
10718SOL    HW233054   1.475   2.782   6.955
10719SOL     OW33055   6.433   5.613   2.706
10719SOL    HW133056   6.342   5.640   2.674
10719SOL    HW233057   6.499   5.624   2.632
10720SOL     OW33058   0.373   4.035   4.964
10720SOL    HW133059   0.300   4.059   4.899
10720SOL    HW233060   0.459   4.077   4.935
10721SOL     OW33061   5.668   3.830   5.229
10721SOL    HW133062   5.724   3.881   5.164
10721SOL    HW233063   5.715   3.745   5.254
10722SOL     OW33064   0.730   5.192   6.666
10722SOL    HW133065   0.799   5.131   6.627
10722SOL    HW233066   0.696   5.153   6.752
10723SOL     OW33067   0.440   3.170   5.786
10723SOL    HW133068   0.528   3.208   5.813
10723SOL    HW233069   0.384   3.242   5.745
10724SOL     OW33070   6.218   1.333   6.529
10724SOL    HW133071   6.317   1.332   6.535
10724SOL    HW233072   6.179   1.280   6.605
10725SOL     OW33073   1.343   5.648   4.197
10725SOL    HW133074   1.315   5.561   4.238
10725SOL    HW233075   1.419   5.687   4.249
10726SOL     OW33076   5.375   0.251   5.424
10726SOL    HW133077   5.311   0.327   5.417
10726SOL    HW233078   5.382   0.222   5.519
10727SOL     OW33079   0.373   5.095   5.111
10727SOL    HW133080   0.281   5.119   5.079
10727SOL    HW233081   0.439   5.115   5.038
10728SOL     OW33082   6.989   6.090   6.783
10728SOL    HW133083   0.067   6.078   6.793
10728SOL    HW233084   6.971   6.168   6.722
10729SOL     OW33085   5.496   1.487   1.632
10729SOL    HW133086   5.443   1.496   1.547
10729SOL    HW233087   5.512   1.578   1.670
10730SOL     OW33088   1.985   1.324   1.510
10730SOL    HW133089   1.970   1.408   1.458
10730SOL    HW233090   2.078   1.322   1.545
10731SOL     OW33091   2.912   6.116   0.546
10731SOL    HW133092   2.834   6.179   0.541
10731SOL    HW233093   2.980   6.141   0.478
10732SOL     OW33094   6.118   5.005   4.260
10732SOL    HW133095   6.150   5.082   4.205
10732SOL    HW233096   6.040   5.033   4.315
10733SOL     OW33097   6.736   1.727   1.101
10733SOL    HW133098   6.795   1.780   1.040
10733SOL    HW233099   6.651   1.706   1.054
10734SOL     OW33100   1.172   0.686   0.271
10734SOL    HW133101   1.235   0.734   0.211
10734SOL    HW233102   1.095   0.650   0.218
10735SOL     OW33103   0.963   2.770   3.002
10735SOL    HW133104   0.989   2.844   3.065
10735SOL    HW233105   1.009   2.785   2.914
10736SOL     OW33106   1.638   0.430   3.055
10736SOL    HW133107   1.693   0.376   2.991
10736SOL    HW233108   1.659   0.403   3.149
10737SOL     OW33109   2.090   1.887   1.056
10737SOL    HW133110   2.078   1.908   1.153
10737SOL    HW233111   2.024   1.818   1.028
10738SOL     OW33112   2.769   0.327   3.376
10738SOL    HW133113   2.746   0.423   3.366
10738SOL    HW233114   2.868   0.315   3.377
10739SOL     OW33115   1.153   1.841   1.069
10739SOL    HW133116   1.167   1.843   0.970
10739SOL    HW233117   1.062   1.879   1.090
10740SOL     OW33118   0.002   4.249   4.819
10740SOL    HW133119   6.943   4.233   4.875
10740SOL    HW233120   0.020   4.348   4.814
10741SOL     OW33121   5.700   0.097   0.935
10741SOL    HW133122   5.680   0.064   0.843
10741SOL    HW233123   5.646   0.180   0.953
10742SOL     OW33124   5.220   0.555   0.743
10742SOL    HW133125   5.186   0.598   0.827
10742SOL    HW233126   5.303   0.600   0.713
10743SOL     OW33127   2.563   1.378   5.089
10743SOL    HW133128   2.571   1.441   5.166
10743SOL    HW233129   2.558   1.284   5.123
10744SOL     OW33130   3.443   1.649   1.183
10744SOL    HW133131   3.526   1.596   1.165
10744SOL    HW233132   3.377   1.632   1.110
10745SOL     OW33133   0.084   5.453   6.659
10745SOL    HW133134   0.021   5.408   6.596
10745SOL    HW233135   0.087   5.403   6.745
10746SOL     OW33136   1.935   4.274   1.285
10746SOL    HW133137   1.925   4.372   1.266
10746SOL    HW233138   1.847   4.237   1.315
10747SOL     OW33139   4.649   0.894   3.982
10747SOL    HW133140   4.693   0.902   4.071
10747SOL    HW233141   4.610   0.802   3.972
10748SOL     OW33142   4.850   1.170   0.940
10748SOL    HW133143   4.923   1.238   0.950
10748SOL    HW233144   4.839   1.147   0.843
10749SOL     OW33145   0.705   5.818   2.800
10749SOL    HW133146   0.798   5.787   2.780
10749SOL    HW233147   0.648   5.810   2.718
10750SOL     OW33148   4.530   5.864   5.040
10750SOL    HW133149   4.493   5.877   5.132
10750SOL    HW233150   4.566   5.951   5.006
10751SOL     OW33151   1.814   4.243   4.283
10751SOL    HW133152   1.725   4.201   4.268
10751SOL    HW233153   1.875   4.222   4.206
10752SOL     OW33154   5.949   3.921   6.562
10752SOL    HW133155   5.978   3.829   6.536
10752SOL    HW233156   5.850   3.929   6.550
10753SOL     OW33157   4.957   5.756   4.254
10753SOL    HW133158   4.950   5.678   4.191
10753SOL    HW233159   4.868   5.803   4.258
10754SOL     OW33160   1.039   1.559   2.999
10754SOL    HW133161   0.998   1.476   3.037
10754SOL    HW233162   1.139   1.554   3.009
10755SOL     OW33163   6.732   0.939   6.522
10755SOL    HW133164   6.786   0.982   6.594
10755SOL    HW233165   6.640   0.919   6.556
10756SOL     OW33166   6.873   4.950   0.217
10756SOL    HW133167   6.943   4.880   0.199
10756SOL    HW233168   6.897   5.034   0.168
10757SOL     OW33169   1.827   2.902   0.377
10757SOL    HW133170   1.787   2.980   0.329
10757SOL    HW233171   1.759   2.830   0.388
10758SOL     OW33172   0.465   6.996   3.912
10758SOL    HW133173   0.437   6.942   3.832
10758SOL    HW233174   0.544   0.032   3.888
10759SOL     OW33175   1.675   3.301   1.119
10759SOL    HW133176   1.733   3.379   1.100
10759SOL    HW233177   1.587   3.332   1.155
10760SOL     OW33178   6.403   1.624   2.095
10760SOL    HW133179   6.476   1.668   2.147
10760SOL    HW233180   6.351   1.694   2.045
10761SOL     OW33181   0.908   0.438   6.298
10761SOL    HW133182   0.977   0.501   6.334
10761SOL    HW233183   0.897   0.362   6.362
10762SOL     OW33184   4.024   1.676   4.433
10762SOL    HW133185   3.943   1.721   4.396
10762SOL    HW233186   4.066   1.734   4.502
10763SOL     OW33187   5.298   6.276   2.780
10763SOL    HW133188   5.276   6.328   2.863
10763SOL    HW233189   5.223   6.284   2.715
10764SOL     OW33190   5.427   2.759   5.667
10764SOL    HW133191   5.430   2.831   5.597
10764SOL    HW233192   5.440   2.800   5.757
10765SOL     OW33193   5.294   1.999   0.053
10765SOL    HW133194   5.355   1.925   0.082
10765SOL    HW233195   5.246   1.972   6.991
10766SOL     OW33196   4.599   3.696   0.495
10766SOL    HW133197   4.618   3.794   0.491
10766SOL    HW233198   4.672   3.650   0.545
10767SOL     OW33199   1.341   0.873   0.127
10767SOL    HW133200   1.398   0.911   0.200
10767SOL    HW233201   1.399   0.842   0.052
10768SOL     OW33202   4.648   4.127   1.701
10768SOL    HW133203   4.585   4.185   1.753
10768SOL    HW233204   4.713   4.083   1.763
10769SOL     OW33205   2.526   4.556   4.984
10769SOL    HW133206   2.626   4.551   4.985
10769SOL    HW233207   2.489   4.511   5.065
10770SOL     OW33208   5.806   0.934   5.058
10770SOL    HW133209   5.737   0.985   5.108
10770SOL    HW233210   5.764   0.891   4.978
10771SOL     OW33211   6.487   0.615   3.578
10771SOL    HW133212   6.576   0.574   3.560
10771SOL    HW233213   6.415   0.550   3.551
10772SOL     OW33214   6.417   6.349   4.417
10772SOL    HW133215   6.428   6.254   4.386
10772SOL    HW233216   6.494   6.375   4.475
10773SOL     OW33217   6.319   5.585   0.110
10773SOL    HW133218   6.243   5.520   0.108
10773SOL    HW233219   6.328   5.627   0.019
10774SOL     OW33220   2.121   1.500   0.292
10774SOL    HW133221   2.200   1.541   0.337
10774SOL    HW233222   2.072   1.442   0.357
10775SOL     OW33223   0.154   4.955   1.143
10775SOL    HW133224   0.187   4.994   1.229
10775SOL    HW233225   0.066   4.997   1.119
10776SOL     OW33226   0.147   1.068   6.567
10776SOL    HW133227   0.145   1.164   6.595
10776SOL    HW233228   0.163   1.011   6.647
10777SOL     OW33229   3.324   5.387   3.083
10777SOL    HW133230   3.369   5.400   2.994
10777SOL    HW233231   3.338   5.293   3.114
10778SOL     OW33232   5.893   0.348   4.425
10778SOL    HW133233   5.948   0.267   4.443
10778SOL    HW233234   5.954   0.427   4.412
10779SOL     OW33235   6.722   3.597   3.940
10779SOL    HW133236   6.641   3.584   3.883
10779SOL    HW233237   6.694   3.612   4.035
10780SOL     OW33238   2.219   0.667   4.146
10780SOL    HW133239   2.251   0.688   4.054
10780SOL    HW233240   2.229   0.748   4.204
10781SOL     OW33241   4.589   1.022   3.762
10781SOL    HW133242   4.606   0.973   3.847
10781SOL    HW233243   4.568   0.957   3.689
10782SOL     OW33244   5.777   1.790   1.910
10782SOL    HW133245   5.791   1.700   1.952
10782SOL    HW233246   5.769   1.780   1.811
10783SOL     OW33247   0.506   3.483   3.144
10783SOL    HW133248   0.464   3.393   3.132
10783SOL    HW233249   0.596   3.484   3.101
10784SOL     OW33250   3.647   6.434   4.184
10784SOL    HW133251   3.634   6.531   4.202
10784SOL    HW233252   3.621   6.413   4.090
10785SOL     OW33253   0.232   4.417   1.093
10785SOL    HW133254   0.256   4.389   1.186
10785SOL    HW233255   0.225   4.517   1.089
10786SOL     OW33256   5.850   4.368   3.614
10786SOL    HW133257   5.910   4.305   3.565
10786SOL    HW233258   5.804   4.428   3.548
10787SOL     OW33259   2.272   1.271   4.511
10787SOL    HW133260   2.306   1.233   4.425
10787SOL    HW233261   2.265   1.371   4.502
10788SOL     OW33262   1.832   4.258   6.246
10788SOL    HW133263   1.782   4.223   6.167
10788SOL    HW233264   1.925   4.281   6.218
10789SOL     OW33265   0.268   2.989   6.779
10789SOL    HW133266   0.339   2.939   6.730
10789SOL    HW233267   0.279   3.087   6.763
10790SOL     OW33268   1.586   0.049   1.753
10790SOL    HW133269   1.675   0.083   1.783
10790SOL    HW233270   1.515   0.080   1.816
10791SOL     OW33271   6.870   0.017   1.246
10791SOL    HW133272   6.947   6.993   1.201
10791SOL    HW233273   6.892   0.113   1.262
10792SOL     OW33274   2.983   3.898   3.990
10792SOL    HW133275   2.935   3.984   3.973
10792SOL    HW233276   2.956   3.863   4.080
10793SOL     OW33277   5.333   3.261   4.430
10793SOL    HW133278   5.309   3.351   4.393
10793SOL    HW233279   5.251   3.205   4.438
10794SOL     OW33280   3.053   3.800   3.393
10794SOL    HW133281   3.052   3.739   3.314
10794SOL    HW233282   3.072   3.894   3.364
10795SOL     OW33283   6.565   4.990   2.039
10795SOL    HW133284   6.496   5.047   2.084
10795SOL    HW233285   6.522   4.939   1.964
10796SOL     OW33286   5.803   0.255   6.118
10796SOL    HW133287   5.899   0.231   6.102
10796SOL    HW233288   5.784   0.344   6.077
10797SOL     OW33289   4.056   2.883   1.510
10797SOL    HW133290   3.963   2.909   1.536
10797SOL    HW233291   4.063   2.879   1.410
10798SOL     OW33292   3.084   0.285   0.658
10798SOL    HW133293   2.996   0.332   0.647
10798SOL    HW233294   3.117   0.296   0.751
10799SOL     OW33295   3.852   0.905   1.682
10799SOL    HW133296   3.816   0.989   1.723
10799SOL    HW233297   3.811   0.826   1.727
10800SOL     OW33298   0.643   6.734   6.463
10800SOL    HW133299   0.586   6.813   6.441
10800SOL    HW233300   0.672   6.689   6.378
10801SOL     OW33301   0.446   6.146   6.255
10801SOL    HW133302   0.534   6.182   6.286
10801SOL    HW233303   0.460   6.059   6.208
10802SOL     OW33304   1.262   0.640   2.840
10802SOL    HW133305   1.235   0.722   2.790
10802SOL    HW233306   1.277   0.662   2.936
10803SOL     OW33307   2.245   4.526   6.028
10803SOL    HW133308   2.342   4.505   6.044
10803SOL    HW233309   2.234   4.564   5.937
10804SOL     OW33310   5.500   3.048   2.188
10804SOL    HW133311   5.499   3.022   2.091
10804SOL    HW233312   5.479   3.146   2.197
10805SOL     OW33313   4.331   6.636   6.674
10805SOL    HW133314   4.293   6.583   6.599
10805SOL    HW233315   4.259   6.693   6.714
10806SOL     OW33316   4.093   3.966   5.992
10806SOL    HW133317   4.120   4.055   6.029
10806SOL    HW233318   4.145   3.894   6.037
10807SOL     OW33319   1.270   0.038   2.522
10807SOL    HW133320   1.323   0.047   2.606
10807SOL    HW233321   1.173   0.044   2.543
10808SOL     OW33322   0.541   2.717   5.614
10808SOL    HW133323   0.596   2.704   5.532
10808SOL    HW233324   0.565   2.648   5.682
10809SOL     OW33325   3.016   5.014   3.334
10809SOL    HW133326   3.085   5.023   3.406
10809SOL    HW233327   3.044   4.945   3.268
10810SOL     OW33328   1.479   0.093   3.952
10810SOL    HW133329   1.467   7.015   3.951
10810SOL    HW233330   1.560   0.116   4.006
10811SOL     OW33331   4.191   3.992   6.337
10811SOL    HW133332   4.233   3.972   6.248
10811SOL    HW233333   4.185   4.091   6.349
10812SOL     OW33334   0.654   4.034   6.930
10812SOL    HW133335   0.565   4.011   6.970
10812SOL    HW233336   0.688   4.119   6.971
10813SOL     OW33337   1.628   4.246   6.478
10813SOL    HW133338   1.687   4.260   6.399
10813SOL    HW233339   1.597   4.151   6.479
10814SOL     OW33340   1.189   7.018   6.241
10814SOL    HW133341   1.248   0.002   6.161
10814SOL    HW233342   1.119   6.948   6.227
10815SOL     OW33343   4.434   4.505   3.389
10815SOL    HW133344   4.420   4.529   3.293
10815SOL    HW233345   4.488   4.422   3.396
10816SOL     OW33346   3.162   3.447   2.243
10816SOL    HW133347   3.188   3.410   2.154
10816SOL    HW233348   3.216   3.403   2.315
10817SOL     OW33349   4.458   0.632   3.282
10817SOL    HW133350   4.465   0.714   3.225
10817SOL    HW233351   4.418   0.657   3.370
10818SOL     OW33352   4.452   4.435   5.397
10818SOL    HW133353   4.434   4.513   5.457
10818SOL    HW233354   4.520   4.375   5.439
10819SOL     OW33355   6.619   4.968   6.241
10819SOL    HW133356   6.634   5.067   6.244
10819SOL    HW233357   6.630   4.936   6.147
10820SOL     OW33358   0.097   5.361   4.106
10820SOL    HW133359   0.036   5.284   4.090
10820SOL    HW233360   0.189   5.339   4.073
10821SOL     OW33361   4.753   0.621   2.928
10821SOL    HW133362   4.731   0.524   2.931
10821SOL    HW233363   4.766   0.655   3.021
10822SOL     OW33364   6.727   2.768   2.886
10822SOL    HW133365   6.786   2.715   2.826
10822SOL    HW233366   6.632   2.758   2.855
10823SOL     OW33367   1.383   0.345   1.733
10823SOL    HW133368   1.322   0.276   1.773
10823SOL    HW233369   1.470   0.345   1.782
10824SOL     OW33370   6.906   1.129   2.869
10824SOL    HW133371   7.000   1.099   2.879
10824SOL    HW233372   6.902   1.229   2.868
10825SOL     OW33373   2.429   1.880   6.346
10825SOL    HW133374   2.420   1.964   6.399
10825SOL    HW233375   2.338   1.849   6.317
10826SOL     OW33376   1.049   2.951   3.563
10826SOL    HW133377   0.953   2.971   3.586
10826SOL    HW233378   1.054   2.862   3.519
10827SOL     OW33379   0.062   2.965   4.412
10827SOL    HW133380   0.152   2.943   4.376
10827SOL    HW233381   7.016   2.898   4.378
10828SOL     OW33382   1.400   4.242   0.870
10828SOL    HW133383   1.354   4.153   0.870
10828SOL    HW233384   1.498   4.229   0.880
10829SOL     OW33385   4.692   2.835   0.142
10829SOL    HW133386   4.658   2.910   0.084
10829SOL    HW233387   4.792   2.834   0.138
10830SOL     OW33388   5.149   1.826   2.814
10830SOL    HW133389   5.224   1.838   2.879
10830SOL    HW233390   5.102   1.740   2.833
10831SOL     OW33391   2.939   6.202   3.167
10831SOL    HW133392   3.017   6.184   3.106
10831SOL    HW233393   2.937   6.299   3.190
10832SOL     OW33394   1.038   2.898   6.219
10832SOL    HW133395   1.080   2.953   6.291
10832SOL    HW233396   1.001   2.958   6.149
10833SOL     OW33397   0.584   0.634   1.945
10833SOL    HW133398   0.636   0.708   1.903
10833SOL    HW233399   0.626   0.546   1.923
10834SOL     OW33400   0.356   1.525   0.895
10834SOL    HW133401   0.287   1.476   0.948
10834SOL    HW233402   0.347   1.623   0.913
10835SOL     OW33403   5.656   2.650   0.520
10835SOL    HW133404   5.726   2.583   0.546
10835SOL    HW233405   5.662   2.730   0.580
10836SOL     OW33406   6.150   1.349   4.848
10836SOL    HW133407   6.222   1.345   4.917
10836SOL    HW233408   6.176   1.294   4.768
10837SOL     OW33409   6.356   5.553   1.131
10837SOL    HW133410   6.355   5.493   1.051
10837SOL    HW233411   6.446   5.595   1.140
10838SOL     OW33412   6.822   5.789   3.947
10838SOL    HW133413   6.784   5.878   3.973
10838SOL    HW233414   6.910   5.802   3.901
10839SOL     OW33415   4.406   2.982   1.687
10839SOL    HW133416   4.421   3.022   1.597
10839SOL    HW233417   4.487   2.996   1.744
10840SOL     OW33418   2.769   5.868   2.596
10840SOL    HW133419   2.742   5.838   2.504
10840SOL    HW233420   2.698   5.843   2.661
10841SOL     OW33421   6.611   5.022   5.586
10841SOL    HW133422   6.564   5.109   5.598
10841SOL    HW233423   6.704   5.029   5.620
10842SOL     OW33424   4.855   2.462   1.525
10842SOL    HW133425   4.826   2.557   1.512
10842SOL    HW233426   4.915   2.456   1.605
10843SOL     OW33427   1.063   1.616   1.548
10843SOL    HW133428   1.143   1.670   1.574
10843SOL    HW233429   1.046   1.626   1.450
10844SOL     OW33430   0.253   6.555   3.405
10844SOL    HW133431   0.347   6.522   3.416
10844SOL    HW233432   0.208   6.557   3.495
10845SOL     OW33433   3.488   6.665   5.416
10845SOL    HW133434   3.507   6.570   5.395
10845SOL    HW233435   3.521   6.723   5.341
10846SOL     OW33436   5.361   0.841   0.478
10846SOL    HW133437   5.404   0.839   0.568
10846SOL    HW233438   5.421   0.799   0.410
10847SOL     OW33439   3.622   3.013   6.621
10847SOL    HW133440   3.629   3.107   6.656
10847SOL    HW233441   3.657   3.010   6.527
10848SOL     OW33442   2.412   3.861   0.330
10848SOL    HW133443   2.389   3.891   0.237
10848SOL    HW233444   2.403   3.939   0.393
10849SOL     OW33445   2.111   4.681   4.120
10849SOL    HW133446   2.079   4.587   4.117
10849SOL    HW233447   2.098   4.718   4.212
10850SOL     OW33448   2.342   6.417   6.580
10850SOL    HW133449   2.271   6.478   6.616
10850SOL    HW233450   2.324   6.323   6.609
10851SOL     OW33451   1.972   3.303   0.348
10851SOL    HW133452   1.939   3.310   0.442
10851SOL    HW233453   2.011   3.390   0.320
10852SOL     OW33454   1.110   0.186   6.973
10852SOL    HW133455   1.153   0.120   0.014
10852SOL    HW233456   1.138   0.166   6.879
10853SOL     OW33457   1.753   2.387   5.362
10853SOL    HW133458   1.796   2.316   5.418
10853SOL    HW233459   1.734   2.467   5.420
10854SOL     OW33460   4.404   4.686   5.527
10854SOL    HW133461   4.447   4.770   5.558
10854SOL    HW233462   4.381   4.630   5.607
10855SOL     OW33463   3.832   0.430   0.701
10855SOL    HW133464   3.903   0.374   0.743
10855SOL    HW233465   3.774   0.470   0.772
10856SOL     OW33466   5.119   0.901   0.362
10856SOL    HW133467   5.211   0.903   0.401
10856SOL    HW233468   5.060   0.844   0.419
10857SOL     OW33469   6.920   2.114   3.284
10857SOL    HW133470   6.943   2.099   3.380
10857SOL    HW233471   6.896   2.026   3.242
10858SOL     OW33472   0.660   1.583   6.726
10858SOL    HW133473   0.743   1.532   6.702
10858SOL    HW233474   0.680   1.681   6.726
10859SOL     OW33475   1.069   4.130   4.189
10859SOL    HW133476   1.011   4.048   4.185
10859SOL    HW233477   1.070   4.174   4.099
10860SOL     OW33478   0.126   2.205   5.760
10860SOL    HW133479   0.207   2.253   5.725
10860SOL    HW233480   0.090   2.255   5.839
10861SOL     OW33481   3.601   3.777   3.468
10861SOL    HW133482   3.596   3.860   3.413
10861SOL    HW233483   3.555   3.702   3.420
10862SOL     OW33484   2.214   1.601   6.477
10862SOL    HW133485   2.298   1.558   6.510
10862SOL    HW233486   2.210   1.595   6.378
10863SOL     OW33487   3.853   0.542   4.142
10863SOL    HW133488   3.946   0.552   4.176
10863SOL    HW233489   3.838   0.606   4.067
10864SOL     OW33490   2.272   6.373   0.740
10864SOL    HW133491   2.296   6.469   0.756
10864SOL    HW233492   2.191   6.349   0.794
10865SOL     OW33493   0.211   1.442   1.939
10865SOL    HW133494   0.145   1.393   1.996
10865SOL    HW233495   0.206   1.409   1.845
10866SOL     OW33496   5.242   4.551   0.810
10866SOL    HW133497   5.308   4.608   0.762
10866SOL    HW233498   5.182   4.608   0.866
10867SOL     OW33499   3.501   4.190   6.878
10867SOL    HW133500   3.521   4.101   6.836
10867SOL    HW233501   3.586   4.234   6.905
10868SOL     OW33502   4.676   1.833   4.190
10868SOL    HW133503   4.586   1.847   4.230
10868SOL    HW233504   4.746   1.853   4.258
10869NA      NA33505   6.703   2.350   5.452
10870NA      NA33506   4.514   4.513   5.166
10871NA      NA33507   1.954   3.069   2.248
10872NA      NA33508   5.031   3.890   4.865
10873NA      NA33509   4.267   2.384   5.296
10874NA      NA33510   3.443   4.741   1.646
10875NA      NA33511   6.800   4.792   0.423
10876NA      NA33512   3.435   3.725   3.960
10877NA      NA33513   5.099   6.035   0.424
10878NA      NA33514   3.292   6.749   5.539
10879NA      NA33515   5.544   5.480   1.646
10880NA      NA33516   2.304   0.340   4.333
10881NA      NA33517   3.628   5.394   2.787
10882NA      NA33518   3.792   3.800   2.459
   7.02093   7.02093   7.02093
