Generated by trjconv : CNT in water t= 305.00000
33518
    1C        C    1   2.842   2.768   4.747
    1C        C    2   2.897   2.715   4.866
    1C        C    3   2.846   2.772   4.984
    1C        C    4   2.850   2.772   4.259
    1C        C    5   2.903   2.725   4.382
    1C        C    6   2.854   2.778   4.503
    1C        C    7   3.018   2.647   4.626
    1C        C    8   2.900   2.725   4.626
    1C        C    9   3.077   2.603   4.746
    1C        C   10   3.011   2.632   4.867
    1C        C   11   3.183   2.498   4.977
    1C        C   12   3.059   2.562   4.979
    1C        C   13   2.849   2.772   3.773
    1C        C   14   2.897   2.719   3.895
    1C        C   15   2.845   2.772   4.015
    1C        C   16   3.012   2.637   4.137
    1C        C   17   2.900   2.723   4.136
    1C        C   18   3.079   2.608   4.258
    1C        C   19   3.020   2.646   4.381
    1C        C   20   3.210   2.556   4.505
    1C        C   21   3.081   2.613   4.504
    1C        C   22   3.277   2.525   4.625
    1C        C   23   3.208   2.547   4.747
    1C        C   24   3.414   2.481   4.866
    1C        C   25   3.273   2.504   4.865
    1C        C   26   3.494   2.480   4.982
    1C        C   27   2.851   2.768   3.283
    1C        C   28   2.905   2.726   3.407
    1C        C   29   2.854   2.774   3.530
    1C        C   30   3.017   2.640   3.650
    1C        C   31   2.905   2.725   3.652
    1C        C   32   3.076   2.602   3.773
    1C        C   33   3.013   2.638   3.895
    1C        C   34   3.208   2.551   4.016
    1C        C   35   3.076   2.602   4.016
    1C        C   36   3.274   2.528   4.139
    1C        C   37   3.207   2.549   4.262
    1C        C   38   3.416   2.506   4.382
    1C        C   39   3.277   2.530   4.383
    1C        C   40   3.487   2.497   4.504
    1C        C   41   3.415   2.493   4.625
    1C        C   42   3.630   2.491   4.744
    1C        C   43   3.488   2.481   4.745
    1C        C   44   3.705   2.490   4.864
    1C        C   45   3.633   2.479   4.984
    1C        C   46   2.838   2.751   2.796
    1C        C   47   2.891   2.706   2.919
    1C        C   48   2.841   2.760   3.039
    1C        C   49   3.015   2.636   3.162
    1C        C   50   2.901   2.719   3.161
    1C        C   51   3.076   2.601   3.284
    1C        C   52   3.019   2.643   3.407
    1C        C   53   3.207   2.544   3.527
    1C        C   54   3.079   2.604   3.528
    1C        C   55   3.274   2.524   3.650
    1C        C   56   3.204   2.544   3.771
    1C        C   57   3.413   2.505   3.896
    1C        C   58   3.274   2.529   3.894
    1C        C   59   3.485   2.497   4.017
    1C        C   60   3.413   2.502   4.139
    1C        C   61   3.627   2.500   4.259
    1C        C   62   3.486   2.492   4.259
    1C        C   63   3.700   2.507   4.380
    1C        C   64   3.628   2.502   4.501
    1C        C   65   3.835   2.549   4.621
    1C        C   66   3.701   2.504   4.622
    1C        C   67   3.905   2.571   4.742
    1C        C   68   3.841   2.529   4.860
    1C        C   69   4.052   2.587   4.976
    1C        C   70   3.923   2.533   4.973
    1C        C   71   2.827   2.734   2.309
    1C        C   72   2.882   2.687   2.430
    1C        C   73   2.834   2.742   2.551
    1C        C   74   3.004   2.618   2.674
    1C        C   75   2.890   2.701   2.674
    1C        C   76   3.067   2.587   2.797
    1C        C   77   3.008   2.628   2.919
    1C        C   78   3.205   2.543   3.037
    1C        C   79   3.074   2.595   3.040
    1C        C   80   3.273   2.526   3.159
    1C        C   81   3.207   2.549   3.282
    1C        C   82   3.414   2.499   3.402
    1C        C   83   3.275   2.526   3.404
    1C        C   84   3.483   2.490   3.525
    1C        C   85   3.413   2.501   3.647
    1C        C   86   3.621   2.503   3.771
    1C        C   87   3.480   2.497   3.772
    1C        C   88   3.693   2.514   3.892
    1C        C   89   3.626   2.503   4.016
    1C        C   90   3.834   2.547   4.138
    1C        C   91   3.698   2.512   4.137
    1C        C   92   3.901   2.575   4.259
    1C        C   93   3.835   2.547   4.381
    1C        C   94   4.028   2.641   4.499
    1C        C   95   3.903   2.576   4.501
    1C        C   96   4.095   2.672   4.620
    1C        C   97   4.037   2.626   4.740
    1C        C   98   4.191   2.770   4.860
    1C        C   99   4.104   2.656   4.862
    1C        C  100   4.208   2.848   4.975
    1C        C  101   2.827   2.731   2.069
    1C        C  102   2.993   2.591   2.192
    1C        C  103   2.883   2.683   2.188
    1C        C  104   3.063   2.563   2.312
    1C        C  105   2.999   2.608   2.430
    1C        C  106   3.201   2.540   2.553
    1C        C  107   3.067   2.587   2.552
    1C        C  108   3.269   2.514   2.674
    1C        C  109   3.199   2.536   2.794
    1C        C  110   3.412   2.500   2.913
    1C        C  111   3.273   2.524   2.914
    1C        C  112   3.481   2.490   3.036
    1C        C  113   3.411   2.497   3.158
    1C        C  114   3.625   2.501   3.280
    1C        C  115   3.484   2.496   3.280
    1C        C  116   3.694   2.508   3.403
    1C        C  117   3.624   2.503   3.525
    1C        C  118   3.829   2.545   3.647
    1C        C  119   3.691   2.512   3.649
    1C        C  120   3.892   2.576   3.769
    1C        C  121   3.829   2.553   3.893
    1C        C  122   4.022   2.644   4.013
    1C        C  123   3.898   2.575   4.014
    1C        C  124   4.086   2.680   4.134
    1C        C  125   4.026   2.642   4.256
    1C        C  126   4.199   2.767   4.374
    1C        C  127   4.087   2.681   4.377
    1C        C  128   4.246   2.820   4.496
    1C        C  129   4.201   2.765   4.618
    1C        C  130   4.330   2.935   4.741
    1C        C  131   4.249   2.818   4.740
    1C        C  132   4.358   3.004   4.861
    1C        C  133   4.287   2.962   4.974
    1C        C  134   3.172   2.463   2.085
    1C        C  135   3.039   2.509   2.084
    1C        C  136   3.261   2.478   2.192
    1C        C  137   3.196   2.513   2.312
    1C        C  138   3.407   2.484   2.428
    1C        C  139   3.267   2.505   2.433
    1C        C  140   3.479   2.477   2.549
    1C        C  141   3.408   2.487   2.671
    1C        C  142   3.623   2.489   2.790
    1C        C  143   3.482   2.485   2.791
    1C        C  144   3.694   2.501   2.911
    1C        C  145   3.622   2.495   3.032
    1C        C  146   3.830   2.535   3.158
    1C        C  147   3.691   2.506   3.155
    1C        C  148   3.897   2.566   3.278
    1C        C  149   3.831   2.544   3.401
    1C        C  150   4.022   2.629   3.520
    1C        C  151   3.897   2.565   3.525
    1C        C  152   4.079   2.673   3.642
    1C        C  153   4.018   2.640   3.765
    1C        C  154   4.189   2.764   3.886
    1C        C  155   4.077   2.678   3.888
    1C        C  156   4.244   2.814   4.007
    1C        C  157   4.200   2.763   4.131
    1C        C  158   4.341   2.924   4.255
    1C        C  159   4.255   2.812   4.252
    1C        C  160   4.380   2.987   4.375
    1C        C  161   4.335   2.930   4.496
    1C        C  162   4.439   3.114   4.617
    1C        C  163   4.377   2.987   4.618
    1C        C  164   4.475   3.181   4.736
    1C        C  165   4.439   3.120   4.858
    1C        C  166   4.518   3.320   4.971
    1C        C  167   4.477   3.187   4.975
    1C        C  168   3.477   2.436   2.072
    1C        C  169   3.401   2.460   2.188
    1C        C  170   3.618   2.467   2.307
    1C        C  171   3.476   2.466   2.307
    1C        C  172   3.693   2.485   2.425
    1C        C  173   3.620   2.484   2.546
    1C        C  174   3.827   2.542   2.665
    1C        C  175   3.691   2.505   2.667
    1C        C  176   3.895   2.560   2.788
    1C        C  177   3.830   2.539   2.912
    1C        C  178   4.022   2.625   3.035
    1C        C  179   3.895   2.563   3.036
    1C        C  180   4.085   2.665   3.155
    1C        C  181   4.023   2.631   3.277
    1C        C  182   4.198   2.751   3.396
    1C        C  183   4.086   2.665   3.399
    1C        C  184   4.238   2.810   3.518
    1C        C  185   4.187   2.764   3.642
    1C        C  186   4.333   2.919   3.763
    1C        C  187   4.237   2.815   3.764
    1C        C  188   4.375   2.978   3.885
    1C        C  189   4.335   2.921   4.008
    1C        C  190   4.450   3.100   4.128
    1C        C  191   4.378   2.979   4.130
    1C        C  192   4.468   3.173   4.248
    1C        C  193   4.444   3.113   4.373
    1C        C  194   4.508   3.316   4.490
    1C        C  195   4.467   3.180   4.495
    1C        C  196   4.521   3.386   4.612
    1C        C  197   4.521   3.315   4.734
    1C        C  198   4.556   3.534   4.849
    1C        C  199   4.539   3.392   4.852
    1C        C  200   4.581   3.618   4.963
    1C        C  201   3.616   2.422   2.072
    1C        C  202   3.826   2.515   2.184
    1C        C  203   3.693   2.464   2.186
    1C        C  204   3.900   2.541   2.303
    1C        C  205   3.831   2.516   2.423
    1C        C  206   4.022   2.619   2.543
    1C        C  207   3.895   2.557   2.542
    1C        C  208   4.077   2.661   2.666
    1C        C  209   4.021   2.625   2.790
    1C        C  210   4.194   2.747   2.908
    1C        C  211   4.082   2.660   2.912
    1C        C  212   4.249   2.795   3.028
    1C        C  213   4.199   2.749   3.152
    1C        C  214   4.339   2.908   3.275
    1C        C  215   4.249   2.799   3.274
    1C        C  216   4.372   2.973   3.396
    1C        C  217   4.328   2.919   3.519
    1C        C  218   4.438   3.101   3.640
    1C        C  219   4.374   2.975   3.640
    1C        C  220   4.460   3.170   3.761
    1C        C  221   4.433   3.107   3.884
    1C        C  222   4.495   3.307   4.005
    1C        C  223   4.470   3.168   4.005
    1C        C  224   4.504   3.383   4.124
    1C        C  225   4.499   3.311   4.245
    1C        C  226   4.513   3.524   4.366
    1C        C  227   4.514   3.383   4.366
    1C        C  228   4.512   3.597   4.487
    1C        C  229   4.525   3.527   4.609
    1C        C  230   4.495   3.741   4.729
    1C        C  231   4.528   3.603   4.728
    1C        C  232   4.492   3.819   4.847
    1C        C  233   4.550   3.754   4.957
    1C        C  234   4.024   2.603   2.063
    1C        C  235   3.897   2.547   2.067
    1C        C  236   4.091   2.639   2.181
    1C        C  237   4.026   2.607   2.302
    1C        C  238   4.202   2.735   2.423
    1C        C  239   4.087   2.651   2.422
    1C        C  240   4.254   2.787   2.544
    1C        C  241   4.190   2.746   2.663
    1C        C  242   4.333   2.904   2.785
    1C        C  243   4.242   2.796   2.784
    1C        C  244   4.374   2.961   2.907
    1C        C  245   4.338   2.905   3.032
    1C        C  246   4.440   3.094   3.149
    1C        C  247   4.379   2.966   3.153
    1C        C  248   4.457   3.162   3.271
    1C        C  249   4.435   3.100   3.396
    1C        C  250   4.500   3.303   3.517
    1C        C  251   4.465   3.166   3.517
    1C        C  252   4.508   3.375   3.638
    1C        C  253   4.499   3.306   3.761
    1C        C  254   4.522   3.518   3.879
    1C        C  255   4.510   3.377   3.883
    1C        C  256   4.519   3.592   3.999
    1C        C  257   4.513   3.524   4.123
    1C        C  258   4.496   3.735   4.244
    1C        C  259   4.517   3.595   4.244
    1C        C  260   4.469   3.804   4.364
    1C        C  261   4.480   3.735   4.487
    1C        C  262   4.426   3.943   4.603
    1C        C  263   4.468   3.808   4.607
    1C        C  264   4.398   4.012   4.723
    1C        C  265   4.436   3.948   4.844
    1C        C  266   4.320   4.129   4.959
    1C        C  267   4.401   4.016   4.961
    1C        C  268   4.264   2.774   2.064
    1C        C  269   4.200   2.729   2.180
    1C        C  270   4.346   2.888   2.299
    1C        C  271   4.253   2.781   2.300
    1C        C  272   4.386   2.952   2.419
    1C        C  273   4.342   2.897   2.541
    1C        C  274   4.445   3.084   2.661
    1C        C  275   4.378   2.960   2.663
    1C        C  276   4.473   3.149   2.783
    1C        C  277   4.443   3.084   2.905
    1C        C  278   4.501   3.292   3.026
    1C        C  279   4.469   3.155   3.025
    1C        C  280   4.507   3.365   3.147
    1C        C  281   4.496   3.298   3.271
    1C        C  282   4.511   3.510   3.389
    1C        C  283   4.513   3.368   3.392
    1C        C  284   4.510   3.582   3.510
    1C        C  285   4.514   3.516   3.636
    1C        C  286   4.498   3.729   3.754
    1C        C  287   4.518   3.589   3.757
    1C        C  288   4.478   3.797   3.876
    1C        C  289   4.494   3.731   4.000
    1C        C  290   4.427   3.934   4.116
    1C        C  291   4.475   3.801   4.121
    1C        C  292   4.397   4.000   4.237
    1C        C  293   4.422   3.937   4.361
    1C        C  294   4.323   4.128   4.480
    1C        C  295   4.396   4.007   4.481
    1C        C  296   4.279   4.190   4.599
    1C        C  297   4.321   4.131   4.720
    1C        C  298   4.204   4.315   4.838
    1C        C  299   4.280   4.194   4.841
    1C        C  300   4.177   4.407   4.944
    1C        C  301   4.352   2.882   2.060
    1C        C  302   4.467   3.069   2.176
    1C        C  303   4.392   2.947   2.177
    1C        C  304   4.485   3.141   2.297
    1C        C  305   4.455   3.075   2.418
    1C        C  306   4.510   3.283   2.536
    1C        C  307   4.480   3.145   2.538
    1C        C  308   4.520   3.354   2.658
    1C        C  309   4.508   3.286   2.781
    1C        C  310   4.518   3.500   2.898
    1C        C  311   4.516   3.358   2.902
    1C        C  312   4.511   3.572   3.019
    1C        C  313   4.513   3.506   3.144
    1C        C  314   4.484   3.718   3.267
    1C        C  315   4.509   3.578   3.266
    1C        C  316   4.472   3.790   3.388
    1C        C  317   4.493   3.722   3.510
    1C        C  318   4.429   3.926   3.626
    1C        C  319   4.479   3.794   3.631
    1C        C  320   4.390   3.988   3.748
    1C        C  321   4.423   3.927   3.871
    1C        C  322   4.318   4.114   3.990
    1C        C  323   4.393   3.994   3.992
    1C        C  324   4.279   4.174   4.112
    1C        C  325   4.323   4.120   4.235
    1C        C  326   4.191   4.290   4.352
    1C        C  327   4.282   4.182   4.355
    1C        C  328   4.140   4.345   4.471
    1C        C  329   4.187   4.297   4.595
    1C        C  330   4.029   4.440   4.713
    1C        C  331   4.142   4.354   4.716
    1C        C  332   3.977   4.500   4.830
    1C        C  333   4.061   4.486   4.940
    1C        C  334   4.554   3.266   2.061
    1C        C  335   4.543   3.127   2.069
    1C        C  336   4.536   3.350   2.172
    1C        C  337   4.517   3.280   2.293
    1C        C  338   4.531   3.493   2.414
    1C        C  339   4.527   3.352   2.414
    1C        C  340   4.522   3.566   2.535
    1C        C  341   4.527   3.495   2.657
    1C        C  342   4.489   3.708   2.774
    1C        C  343   4.519   3.570   2.776
    1C        C  344   4.469   3.776   2.896
    1C        C  345   4.486   3.711   3.020
    1C        C  346   4.424   3.915   3.139
    1C        C  347   4.465   3.780   3.142
    1C        C  348   4.396   3.987   3.258
    1C        C  349   4.426   3.924   3.380
    1C        C  350   4.321   4.106   3.504
    1C        C  351   4.400   3.989   3.503
    1C        C  352   4.276   4.168   3.623
    1C        C  353   4.313   4.106   3.745
    1C        C  354   4.177   4.268   3.867
    1C        C  355   4.273   4.165   3.867
    1C        C  356   4.121   4.315   3.988
    1C        C  357   4.178   4.273   4.110
    1C        C  358   4.013   4.407   4.230
    1C        C  359   4.133   4.332   4.230
    1C        C  360   3.957   4.452   4.351
    1C        C  361   4.023   4.424   4.473
    1C        C  362   3.831   4.521   4.594
    1C        C  363   3.962   4.470   4.592
    1C        C  364   3.762   4.547   4.715
    1C        C  365   3.844   4.547   4.830
    1C        C  366   3.633   4.587   4.950
    1C        C  367   3.772   4.574   4.947
    1C        C  368   4.521   3.563   2.052
    1C        C  369   4.523   3.491   2.172
    1C        C  370   4.507   3.705   2.288
    1C        C  371   4.522   3.564   2.292
    1C        C  372   4.487   3.776   2.408
    1C        C  373   4.496   3.705   2.530
    1C        C  374   4.420   3.906   2.650
    1C        C  375   4.472   3.775   2.650
    1C        C  376   4.391   3.972   2.772
    1C        C  377   4.425   3.910   2.895
    1C        C  378   4.323   4.098   3.010
    1C        C  379   4.399   3.979   3.016
    1C        C  380   4.278   4.155   3.132
    1C        C  381   4.319   4.105   3.257
    1C        C  382   4.179   4.261   3.376
    1C        C  383   4.276   4.159   3.381
    1C        C  384   4.126   4.310   3.497
    1C        C  385   4.182   4.272   3.622
    1C        C  386   4.010   4.394   3.743
    1C        C  387   4.132   4.323   3.744
    1C        C  388   3.946   4.427   3.864
    1C        C  389   4.008   4.399   3.988
    1C        C  390   3.815   4.490   4.109
    1C        C  391   3.944   4.432   4.110
    1C        C  392   3.753   4.520   4.233
    1C        C  393   3.826   4.506   4.353
    1C        C  394   3.619   4.555   4.473
    1C        C  395   3.758   4.532   4.473
    1C        C  396   3.549   4.567   4.595
    1C        C  397   3.622   4.564   4.716
    1C        C  398   3.412   4.550   4.840
    1C        C  399   3.550   4.577   4.837
    1C        C  400   3.345   4.511   4.957
    1C        C  401   4.504   3.701   2.052
    1C        C  402   4.453   3.914   2.167
    1C        C  403   4.494   3.778   2.169
    1C        C  404   4.408   3.974   2.286
    1C        C  405   4.434   3.907   2.408
    1C        C  406   4.326   4.094   2.525
    1C        C  407   4.396   3.972   2.528
    1C        C  408   4.278   4.150   2.645
    1C        C  409   4.318   4.093   2.768
    1C        C  410   4.178   4.255   2.890
    1C        C  411   4.274   4.152   2.889
    1C        C  412   4.127   4.305   3.011
    1C        C  413   4.180   4.257   3.133
    1C        C  414   4.005   4.380   3.255
    1C        C  415   4.127   4.309   3.254
    1C        C  416   3.939   4.409   3.377
    1C        C  417   4.004   4.382   3.500
    1C        C  418   3.816   4.482   3.620
    1C        C  419   3.945   4.425   3.621
    1C        C  420   3.747   4.503   3.741
    1C        C  421   3.818   4.486   3.863
    1C        C  422   3.612   4.533   3.987
    1C        C  423   3.752   4.511   3.985
    1C        C  424   3.542   4.540   4.109
    1C        C  425   3.613   4.539   4.232
    1C        C  426   3.402   4.540   4.356
    1C        C  427   3.543   4.551   4.354
    1C        C  428   3.335   4.541   4.481
    1C        C  429   3.408   4.557   4.600
    1C        C  430   3.196   4.519   4.723
    1C        C  431   3.336   4.543   4.721
    1C        C  432   3.126   4.498   4.845
    1C        C  433   3.207   4.496   4.960
    1C        C  434   4.389   4.124   2.050
    1C        C  435   4.452   3.999   2.056
    1C        C  436   4.304   4.161   2.159
    1C        C  437   4.334   4.096   2.282
    1C        C  438   4.183   4.250   2.399
    1C        C  439   4.282   4.149   2.402
    1C        C  440   4.130   4.296   2.521
    1C        C  441   4.179   4.251   2.646
    1C        C  442   4.008   4.380   2.765
    1C        C  443   4.123   4.297   2.767
    1C        C  444   3.943   4.407   2.887
    1C        C  445   4.004   4.374   3.011
    1C        C  446   3.814   4.470   3.130
    1C        C  447   3.943   4.413   3.133
    1C        C  448   3.748   4.492   3.253
    1C        C  449   3.812   4.470   3.377
    1C        C  450   3.607   4.526   3.494
    1C        C  451   3.746   4.499   3.498
    1C        C  452   3.540   4.528   3.618
    1C        C  453   3.608   4.529   3.742
    1C        C  454   3.400   4.540   3.865
    1C        C  455   3.541   4.541   3.865
    1C        C  456   3.332   4.533   3.989
    1C        C  457   3.401   4.536   4.112
    1C        C  458   3.193   4.501   4.236
    1C        C  459   3.331   4.530   4.235
    1C        C  460   3.127   4.486   4.361
    1C        C  461   3.197   4.510   4.481
    1C        C  462   2.998   4.434   4.602
    1C        C  463   3.127   4.493   4.602
    1C        C  464   2.934   4.397   4.722
    1C        C  465   2.996   4.439   4.843
    1C        C  466   2.804   4.334   4.960
    1C        C  467   2.906   4.430   4.955
    1C        C  468   4.119   4.282   2.040
    1C        C  469   4.187   4.243   2.157
    1C        C  470   4.011   4.373   2.278
    1C        C  471   4.129   4.294   2.276
    1C        C  472   3.946   4.405   2.399
    1C        C  473   4.008   4.367   2.520
    1C        C  474   3.815   4.459   2.644
    1C        C  475   3.946   4.407   2.641
    1C        C  476   3.746   4.488   2.764
    1C        C  477   3.815   4.467   2.885
    1C        C  478   3.609   4.518   3.007
    1C        C  479   3.748   4.490   3.007
    1C        C  480   3.537   4.527   3.128
    1C        C  481   3.608   4.515   3.250
    1C        C  482   3.396   4.524   3.376
    1C        C  483   3.537   4.525   3.372
    1C        C  484   3.327   4.527   3.499
    1C        C  485   3.398   4.532   3.621
    1C        C  486   3.190   4.499   3.744
    1C        C  487   3.328   4.529   3.743
    1C        C  488   3.126   4.481   3.868
    1C        C  489   3.194   4.499   3.991
    1C        C  490   3.000   4.417   4.116
    1C        C  491   3.127   4.481   4.113
    1C        C  492   2.935   4.388   4.238
    1C        C  493   2.998   4.429   4.357
    1C        C  494   2.826   4.308   4.482
    1C        C  495   2.939   4.392   4.481
    1C        C  496   2.772   4.257   4.602
    1C        C  497   2.823   4.309   4.724
    1C        C  498   2.666   4.164   4.846
    1C        C  499   2.761   4.269   4.844
    1C        C  500   2.599   4.116   4.959
    1C        C  501   3.999   4.352   2.041
    1C        C  502   3.814   4.462   2.158
    1C        C  503   3.942   4.403   2.158
    1C        C  504   3.746   4.477   2.280
    1C        C  505   3.812   4.451   2.402
    1C        C  506   3.606   4.508   2.521
    1C        C  507   3.744   4.479   2.523
    1C        C  508   3.533   4.514   2.642
    1C        C  509   3.607   4.514   2.763
    1C        C  510   3.396   4.519   2.886
    1C        C  511   3.538   4.524   2.885
    1C        C  512   3.326   4.515   3.009
    1C        C  513   3.396   4.532   3.130
    1C        C  514   3.190   4.489   3.255
    1C        C  515   3.326   4.525   3.253
    1C        C  516   3.125   4.463   3.377
    1C        C  517   3.190   4.494   3.499
    1C        C  518   2.997   4.411   3.628
    1C        C  519   3.124   4.473   3.622
    1C        C  520   2.936   4.377   3.750
    1C        C  521   3.002   4.413   3.870
    1C        C  522   2.835   4.286   3.997
    1C        C  523   2.944   4.377   3.993
    1C        C  524   2.784   4.238   4.119
    1C        C  525   2.831   4.293   4.240
    1C        C  526   2.694   4.134   4.362
    1C        C  527   2.778   4.248   4.364
    1C        C  528   2.658   4.075   4.485
    1C        C  529   2.693   4.140   4.606
    1C        C  530   2.582   3.962   4.730
    1C        C  531   2.640   4.091   4.728
    1C        C  532   2.540   3.901   4.851
    1C        C  533   2.529   3.995   4.958
    1C        C  534   3.617   4.549   2.039
    1C        C  535   3.751   4.508   2.041
    1C        C  536   3.538   4.539   2.157
    1C        C  537   3.607   4.506   2.277
    1C        C  538   3.396   4.518   2.399
    1C        C  539   3.537   4.521   2.399
    1C        C  540   3.324   4.510   2.521
    1C        C  541   3.392   4.521   2.644
    1C        C  542   3.182   4.488   2.766
    1C        C  543   3.322   4.511   2.766
    1C        C  544   3.119   4.464   2.890
    1C        C  545   3.188   4.485   3.012
    1C        C  546   2.996   4.400   3.136
    1C        C  547   3.120   4.466   3.134
    1C        C  548   2.937   4.365   3.260
    1C        C  549   2.996   4.404   3.382
    1C        C  550   2.828   4.280   3.505
    1C        C  551   2.938   4.369   3.506
    1C        C  552   2.780   4.231   3.628
    1C        C  553   2.830   4.283   3.750
    1C        C  554   2.701   4.121   3.875
    1C        C  555   2.785   4.235   3.875
    1C        C  556   2.659   4.063   3.997
    1C        C  557   2.696   4.127   4.117
    1C        C  558   2.595   3.945   4.242
    1C        C  559   2.654   4.073   4.241
    1C        C  560   2.570   3.882   4.366
    1C        C  561   2.588   3.953   4.486
    1C        C  562   2.537   3.750   4.615
    1C        C  563   2.564   3.889   4.610
    1C        C  564   2.522   3.680   4.737
    1C        C  565   2.523   3.759   4.855
    1C        C  566   2.536   3.545   4.980
    1C        C  567   2.528   3.684   4.974
    1C        C  568   3.329   4.477   2.044
    1C        C  569   3.397   4.519   2.159
    1C        C  570   3.185   4.473   2.281
    1C        C  571   3.322   4.509   2.279
    1C        C  572   3.114   4.462   2.403
    1C        C  573   3.186   4.481   2.523
    1C        C  574   2.988   4.404   2.647
    1C        C  575   3.115   4.467   2.644
    1C        C  576   2.933   4.361   2.769
    1C        C  577   2.993   4.401   2.891
    1C        C  578   2.825   4.274   3.016
    1C        C  579   2.935   4.363   3.014
    1C        C  580   2.773   4.228   3.139
    1C        C  581   2.827   4.277   3.261
    1C        C  582   2.697   4.112   3.386
    1C        C  583   2.777   4.229   3.384
    1C        C  584   2.660   4.055   3.510
    1C        C  585   2.692   4.120   3.631
    1C        C  586   2.597   3.934   3.755
    1C        C  587   2.655   4.063   3.755
    1C        C  588   2.567   3.871   3.878
    1C        C  589   2.596   3.937   3.999
    1C        C  590   2.539   3.736   4.126
    1C        C  591   2.568   3.874   4.123
    1C        C  592   2.529   3.672   4.252
    1C        C  593   2.535   3.745   4.373
    1C        C  594   2.519   3.535   4.498
    1C        C  595   2.526   3.676   4.496
    1C        C  596   2.524   3.463   4.619
    1C        C  597   2.523   3.538   4.739
    1C        C  598   2.533   3.328   4.866
    1C        C  599   2.527   3.469   4.863
    1C        C  600   2.536   3.248   4.981
    1C        C  601   3.195   4.441   2.043
    1C        C  602   2.981   4.398   2.160
    1C        C  603   3.117   4.442   2.159
    1C        C  604   2.926   4.358   2.284
    1C        C  605   2.988   4.398   2.404
    1C        C  606   2.817   4.273   2.529
    1C        C  607   2.927   4.362   2.526
    1C        C  608   2.770   4.220   2.651
    1C        C  609   2.824   4.271   2.772
    1C        C  610   2.691   4.108   2.897
    1C        C  611   2.776   4.220   2.895
    1C        C  612   2.655   4.051   3.021
    1C        C  613   2.687   4.116   3.142
    1C        C  614   2.591   3.928   3.265
    1C        C  615   2.653   4.055   3.265
    1C        C  616   2.573   3.861   3.389
    1C        C  617   2.599   3.927   3.511
    1C        C  618   2.533   3.729   3.636
    1C        C  619   2.573   3.864   3.634
    1C        C  620   2.519   3.663   3.760
    1C        C  621   2.533   3.734   3.881
    1C        C  622   2.514   3.525   4.010
    1C        C  623   2.525   3.666   4.005
    1C        C  624   2.520   3.457   4.134
    1C        C  625   2.520   3.531   4.255
    1C        C  626   2.542   3.322   4.379
    1C        C  627   2.516   3.461   4.377
    1C        C  628   2.560   3.253   4.501
    1C        C  629   2.544   3.323   4.622
    1C        C  630   2.597   3.121   4.745
    1C        C  631   2.550   3.255   4.746
    1C        C  632   2.616   3.048   4.866
    1C        C  633   2.558   3.110   4.981
    1C        C  634   2.780   4.304   2.057
    1C        C  635   2.890   4.391   2.050
    1C        C  636   2.745   4.230   2.171
    1C        C  637   2.809   4.276   2.288
    1C        C  638   2.684   4.104   2.412
    1C        C  639   2.764   4.220   2.410
    1C        C  640   2.638   4.049   2.533
    1C        C  641   2.683   4.109   2.653
    1C        C  642   2.584   3.923   2.779
    1C        C  643   2.645   4.051   2.776
    1C        C  644   2.559   3.858   2.902
    1C        C  645   2.591   3.925   3.022
    1C        C  646   2.532   3.722   3.148
    1C        C  647   2.565   3.860   3.145
    1C        C  648   2.507   3.656   3.271
    1C        C  649   2.532   3.726   3.390
    1C        C  650   2.516   3.517   3.517
    1C        C  651   2.525   3.658   3.514
    1C        C  652   2.516   3.451   3.642
    1C        C  653   2.515   3.521   3.765
    1C        C  654   2.541   3.314   3.888
    1C        C  655   2.519   3.454   3.889
    1C        C  656   2.562   3.249   4.012
    1C        C  657   2.541   3.317   4.135
    1C        C  658   2.609   3.119   4.257
    1C        C  659   2.559   3.251   4.258
    1C        C  660   2.637   3.055   4.380
    1C        C  661   2.606   3.119   4.502
    1C        C  662   2.708   2.936   4.626
    1C        C  663   2.632   3.055   4.625
    1C        C  664   2.752   2.878   4.747
    1C        C  665   2.700   2.932   4.868
    1C        C  666   2.747   2.869   4.984
    1C        C  667   2.685   4.027   2.056
    1C        C  668   2.678   4.106   2.171
    1C        C  669   2.588   3.911   2.292
    1C        C  670   2.640   4.043   2.292
    1C        C  671   2.562   3.847   2.416
    1C        C  672   2.586   3.917   2.535
    1C        C  673   2.516   3.719   2.662
    1C        C  674   2.564   3.852   2.659
    1C        C  675   2.510   3.648   2.783
    1C        C  676   2.529   3.720   2.903
    1C        C  677   2.511   3.510   3.029
    1C        C  678   2.522   3.651   3.027
    1C        C  679   2.504   3.441   3.153
    1C        C  680   2.499   3.515   3.273
    1C        C  681   2.524   3.304   3.400
    1C        C  682   2.504   3.444   3.396
    1C        C  683   2.540   3.238   3.524
    1C        C  684   2.532   3.311   3.644
    1C        C  685   2.588   3.106   3.768
    1C        C  686   2.547   3.242   3.767
    1C        C  687   2.634   3.049   3.889
    1C        C  688   2.606   3.115   4.010
    1C        C  689   2.714   2.937   4.142
    1C        C  690   2.635   3.054   4.134
    1C        C  691   2.761   2.882   4.263
    1C        C  692   2.712   2.935   4.384
    1C        C  693   2.752   2.876   4.506
    1C        C  694   2.636   3.896   2.059
    1C        C  695   2.528   3.705   2.175
    1C        C  696   2.581   3.836   2.173
    1C        C  697   2.509   3.640   2.299
    1C        C  698   2.521   3.712   2.421
    1C        C  699   2.490   3.504   2.541
    1C        C  700   2.498   3.645   2.543
    1C        C  701   2.501   3.434   2.663
    1C        C  702   2.503   3.506   2.784
    1C        C  703   2.528   3.299   2.907
    1C        C  704   2.507   3.438   2.908
    1C        C  705   2.547   3.234   3.032
    1C        C  706   2.530   3.302   3.154
    1C        C  707   2.600   3.106   3.279
    1C        C  708   2.544   3.236   3.278
    1C        C  709   2.633   3.045   3.402
    1C        C  710   2.596   3.108   3.523
    1C        C  711   2.709   2.933   3.649
    1C        C  712   2.618   3.041   3.646
    1C        C  713   2.760   2.882   3.770
    1C        C  714   2.713   2.932   3.894
    1C        C  715   2.754   2.879   4.019
    1C        C  716   2.451   3.499   2.063
    1C        C  717   2.498   3.631   2.060
    1C        C  718   2.467   3.422   2.182
    1C        C  719   2.484   3.500   2.300
    1C        C  720   2.517   3.290   2.422
    1C        C  721   2.488   3.428   2.422
    1C        C  722   2.544   3.222   2.543
    1C        C  723   2.526   3.295   2.663
    1C        C  724   2.590   3.094   2.788
    1C        C  725   2.541   3.227   2.786
    1C        C  726   2.621   3.034   2.913
    1C        C  727   2.597   3.102   3.034
    1C        C  728   2.709   2.924   3.159
    1C        C  729   2.630   3.041   3.158
    1C        C  730   2.753   2.869   3.282
    1C        C  731   2.710   2.927   3.404
    1C        C  732   2.756   2.876   3.528
    1C        C  733   2.489   3.197   2.070
    1C        C  734   2.486   3.280   2.182
    1C        C  735   2.587   3.087   2.302
    1C        C  736   2.532   3.218   2.301
    1C        C  737   2.617   3.022   2.424
    1C        C  738   2.600   3.092   2.545
    1C        C  739   2.700   2.908   2.669
    1C        C  740   2.625   3.028   2.668
    1C        C  741   2.746   2.858   2.793
    1C        C  742   2.699   2.916   2.913
    1C        C  743   2.745   2.864   3.036
    1C        C  744   2.548   3.070   2.069
    1C        C  745   2.689   2.900   2.186
    1C        C  746   2.608   3.015   2.183
    1C        C  747   2.731   2.839   2.306
    1C        C  748   2.695   2.904   2.427
    1C        C  749   2.744   2.851   2.548
    1C        C  750   2.733   2.834   2.071
    1C        C  751   3.670   2.348   1.956
    1C        O  752   3.676   2.222   1.948
    1C        O  753   3.638   2.387   1.825
    1C        C  754   4.656   3.051   2.009
    1C        O  755   4.664   3.012   1.890
    1C        O  756   4.787   3.083   2.046
    1C        C  757   4.461   4.219   1.963
    1C        O  758   4.544   4.303   2.008
    1C        O  759   4.456   4.210   1.823
    1C        C  760   3.607   4.673   1.958
    1C        O  761   3.631   4.786   2.007
    1C        O  762   3.509   4.672   1.859
    1C        C  763   2.875   4.511   1.965
    1C        O  764   2.953   4.539   1.870
    1C        O  765   2.819   4.628   2.020
    1C        C  766   2.331   3.490   1.976
    1C        O  767   2.328   3.522   1.854
    1C        O  768   2.200   3.495   2.023
    1C        C  769   4.688   3.587   5.060
    1C        O  770   4.674   3.602   5.184
    1C        O  771   4.823   3.570   5.026
    1C        C  772   4.286   4.455   5.032
    1C        O  773   4.281   4.430   5.155
    1C        O  774   4.401   4.515   4.979
    1C        C  775   4.144   2.520   5.071
    1C        O  776   4.209   2.420   5.033
    1C        O  777   4.142   2.537   5.210
    1C        C  778   2.887   4.551   5.038
    1C        O  779   2.846   4.662   4.994
    1C        O  780   2.913   4.542   5.175
    1C        C  781   2.448   3.042   5.053
    1C        O  782   2.341   3.022   4.988
    1C        O  783   2.443   3.026   5.191
    1C        C  784   2.406   4.000   5.041
    1C        O  785   2.295   4.034   4.993
    1C        O  786   2.423   4.010   5.180
    1C        C  787   2.955   2.458   1.974
    1C        O  788   2.969   2.499   1.856
    1C        O  789   2.902   2.331   1.994
    1C        C  790   3.175   2.370   5.051
    1C        O  791   3.120   2.275   4.990
    1C        O  792   3.208   2.352   5.186
    1C        H  793   4.290   3.016   5.066
    1C        H  794   4.182   2.813   5.073
    1C        H  795   4.517   3.130   5.057
    1C        H  796   4.561   3.356   5.062
    1C        H  797   4.602   3.817   5.027
    1C        H  798   4.459   4.006   5.050
    1C        H  799   4.254   4.140   5.043
    1C        H  800   4.060   4.574   5.000
    1C        H  801   3.826   4.598   5.036
    1C        H  802   3.598   4.637   5.038
    1C        H  803   3.391   4.535   5.050
    1C        H  804   3.168   4.488   5.059
    1C        H  805   3.894   2.469   5.054
    1C        H  806   3.686   2.447   5.071
    1C        H  807   2.997   2.544   5.064
    1C        H  808   3.456   2.438   5.072
    1C        H  809   2.884   2.744   5.080
    1C        H  810   2.726   2.910   5.081
    1C        H  811   2.474   3.286   5.059
    1C        H  812   2.562   3.498   5.073
    1C        H  813   2.513   3.732   5.068
    1C        H  814   2.575   4.181   5.040
    1C        H  815   2.731   4.346   5.037
    1C        H  816   2.684   2.852   1.977
    1C        H  817   2.867   2.704   1.973
    1C        H  818   3.190   2.381   2.019
    1C        H  819   3.426   2.436   1.978
    1C        H  820   3.840   2.574   1.981
    1C        H  821   4.065   2.619   1.966
    1C        H  822   4.265   2.710   1.978
    1C        H  823   4.380   2.919   1.964
    1C        H  824   4.589   3.310   1.970
    1C        H  825   4.581   3.535   1.967
    1C        H  826   4.495   3.746   1.956
    1C        H  827   3.798   4.494   1.946
    1C        H  828   3.949   4.359   1.947
    1C        H  829   4.167   4.264   1.946
    1C        H  830   4.494   3.957   1.968
    1C        H  831   2.662   3.830   1.978
    1C        H  832   2.748   4.056   1.974
    1C        H  833   2.717   4.289   1.972
    1C        H  834   3.384   4.454   1.955
    1C        H  835   3.149   4.417   1.950
    1C        H  836   2.563   3.031   1.971
    1C        H  837   2.458   3.242   1.978
    1C        H  838   2.485   3.692   1.973
    2V3OU   H29  839   2.806   3.557   3.198
    2V3OU   C27  840   2.791   3.503   3.295
    2V3OU   H27  841   2.731   3.569   3.363
    2V3OU   H28  842   2.737   3.407   3.273
    2V3OU   O11  843   2.917   3.476   3.357
    2V3OU   C15  844   2.929   3.402   3.472
    2V3OU   C13  845   3.057   3.377   3.526
    2V3OU   C14  846   3.078   3.274   3.618
    2V3OU   C16  847   2.985   3.187   3.672
    2V3OU    H6  848   3.002   3.105   3.744
    2V3OU   C12  849   3.218   3.234   3.644
    2V3OU    O2  850   3.242   3.129   3.708
    2V3OU   C10  851   3.329   3.310   3.584
    2V3OU    C8  852   3.461   3.272   3.604
    2V3OU   O10  853   3.489   3.149   3.653
    2V3OU   H26  854   3.410   3.117   3.698
    2V3OU    C6  855   3.570   3.350   3.553
    2V3OU    C5  856   3.544   3.469   3.485
    2V3OU    C4  857   3.707   3.295   3.566
    2V3OU    H4  858   3.721   3.229   3.657
    2V3OU    H5  859   3.718   3.225   3.478
    2V3OU    C2  860   3.823   3.395   3.562
    2V3OU    O6  861   3.808   3.474   3.680
    2V3OU   H21  862   3.769   3.555   3.645
    2V3OU    C3  863   3.786   3.491   3.449
    2V3OU    H2  864   3.860   3.575   3.443
    2V3OU    H3  865   3.787   3.435   3.352
    2V3OU   C25  866   3.958   3.324   3.551
    2V3OU    O7  867   4.004   3.298   3.440
    2V3OU   C26  868   4.030   3.292   3.681
    2V3OU   H22  869   4.069   3.382   3.736
    2V3OU   H23  870   4.117   3.224   3.660
    2V3OU    O8  871   3.962   3.216   3.778
    2V3OU   H24  872   3.923   3.268   3.851
    2V3OU    C1  873   3.655   3.567   3.462
    2V3OU    H1  874   3.631   3.624   3.367
    2V3OU    O3  875   3.659   3.653   3.577
    2V3OU   C19  876   3.620   3.789   3.563
    2V3OU    H9  877   3.523   3.798   3.506
    2V3OU    O4  878   3.718   3.847   3.480
    2V3OU   C20  879   3.846   3.878   3.538
    2V3OU   H10  880   3.894   3.776   3.553
    2V3OU   C24  881   3.610   3.859   3.699
    2V3OU   H16  882   3.543   3.798   3.765
    2V3OU   H17  883   3.563   3.960   3.692
    2V3OU   C23  884   3.746   3.879   3.766
    2V3OU   H15  885   3.785   3.774   3.791
    2V3OU    N1  886   3.736   3.954   3.890
    2V3OU   H19  887   3.804   3.927   3.958
    2V3OU   H20  888   3.652   3.928   3.938
    2V3OU   C21  889   3.851   3.948   3.674
    2V3OU   H11  890   3.958   3.935   3.709
    2V3OU    O5  891   3.828   4.087   3.663
    2V3OU   H18  892   3.777   4.110   3.743
    2V3OU   C22  893   3.913   3.952   3.424
    2V3OU   H12  894   3.862   4.051   3.411
    2V3OU   H13  895   3.907   3.891   3.329
    2V3OU   H14  896   4.023   3.962   3.441
    2V3OU   C11  897   3.162   3.477   3.498
    2V3OU    O1  898   3.136   3.594   3.462
    2V3OU    C9  899   3.302   3.433   3.519
    2V3OU    C7  900   3.408   3.510   3.472
    2V3OU    O9  901   3.386   3.622   3.396
    2V3OU   H25  902   3.291   3.638   3.407
    2V3OU   C17  903   2.836   3.318   3.537
    2V3OU    H7  904   2.734   3.350   3.513
    2V3OU   C18  905   2.856   3.218   3.631
    2V3OU    H8  906   2.785   3.174   3.703
    3SOL     OW  907   3.040   5.066   6.022
    3SOL    HW1  908   3.029   5.156   5.979
    3SOL    HW2  909   3.137   5.042   6.024
    4SOL     OW  910   6.639   6.951   0.781
    4SOL    HW1  911   6.552   6.951   0.730
    4SOL    HW2  912   6.626   6.999   0.868
    5SOL     OW  913   4.812   2.262   2.090
    5SOL    HW1  914   4.749   2.281   2.165
    5SOL    HW2  915   4.784   2.313   2.008
    6SOL     OW  916   4.562   1.858   2.001
    6SOL    HW1  917   4.592   1.948   2.032
    6SOL    HW2  918   4.521   1.865   1.910
    7SOL     OW  919   0.522   4.550   3.695
    7SOL    HW1  920   0.528   4.452   3.717
    7SOL    HW2  921   0.612   4.592   3.704
    8SOL     OW  922   2.404   2.514   5.730
    8SOL    HW1  923   2.346   2.593   5.710
    8SOL    HW2  924   2.347   2.432   5.737
    9SOL     OW  925   6.130   2.588   5.706
    9SOL    HW1  926   6.193   2.663   5.727
    9SOL    HW2  927   6.072   2.570   5.786
   10SOL     OW  928   3.073   5.211   5.232
   10SOL    HW1  929   3.081   5.115   5.206
   10SOL    HW2  930   3.159   5.258   5.212
   11SOL     OW  931   2.111   1.613   6.150
   11SOL    HW1  932   2.105   1.617   6.050
   11SOL    HW2  933   2.188   1.668   6.182
   12SOL     OW  934   3.065   4.901   3.861
   12SOL    HW1  935   3.012   4.829   3.906
   12SOL    HW2  936   3.046   4.989   3.905
   13SOL     OW  937   3.241   6.706   4.014
   13SOL    HW1  938   3.216   6.795   4.053
   13SOL    HW2  939   3.200   6.696   3.924
   14SOL     OW  940   3.976   5.168   5.996
   14SOL    HW1  941   3.896   5.121   6.034
   14SOL    HW2  942   4.059   5.134   6.041
   15SOL     OW  943   0.868   6.013   0.994
   15SOL    HW1  944   0.876   6.073   1.074
   15SOL    HW2  945   0.773   5.986   0.982
   16SOL     OW  946   5.297   2.966   6.731
   16SOL    HW1  947   5.391   2.947   6.704
   16SOL    HW2  948   5.290   3.060   6.763
   17SOL     OW  949   5.450   6.611   6.927
   17SOL    HW1  950   5.354   6.641   6.924
   17SOL    HW2  951   5.491   6.623   6.836
   18SOL     OW  952   3.021   1.103   5.081
   18SOL    HW1  953   2.960   1.123   5.157
   18SOL    HW2  954   3.052   1.008   5.087
   19SOL     OW  955   0.127   2.227   2.356
   19SOL    HW1  956   0.189   2.150   2.371
   19SOL    HW2  957   0.072   2.210   2.275
   20SOL     OW  958   4.902   2.239   5.555
   20SOL    HW1  959   4.876   2.314   5.616
   20SOL    HW2  960   4.973   2.184   5.598
   21SOL     OW  961   2.627   0.785   2.483
   21SOL    HW1  962   2.649   0.878   2.512
   21SOL    HW2  963   2.608   0.728   2.564
   22SOL     OW  964   1.196   6.207   0.085
   22SOL    HW1  965   1.166   6.210   0.181
   22SOL    HW2  966   1.256   6.285   0.067
   23SOL     OW  967   4.039   5.353   1.997
   23SOL    HW1  968   4.129   5.308   1.997
   23SOL    HW2  969   4.007   5.363   2.091
   24SOL     OW  970   3.594   0.572   2.601
   24SOL    HW1  971   3.529   0.574   2.525
   24SOL    HW2  972   3.688   0.578   2.565
   25SOL     OW  973   2.463   6.709   3.682
   25SOL    HW1  974   2.387   6.748   3.630
   25SOL    HW2  975   2.491   6.773   3.753
   26SOL     OW  976   6.454   1.930   0.308
   26SOL    HW1  977   6.364   1.908   0.344
   26SOL    HW2  978   6.523   1.917   0.380
   27SOL     OW  979   1.875   1.211   2.073
   27SOL    HW1  980   1.828   1.244   2.155
   27SOL    HW2  981   1.937   1.282   2.040
   28SOL     OW  982   1.584   0.486   5.158
   28SOL    HW1  983   1.641   0.568   5.157
   28SOL    HW2  984   1.543   0.472   5.068
   29SOL     OW  985   6.485   1.780   1.576
   29SOL    HW1  986   6.453   1.864   1.532
   29SOL    HW2  987   6.504   1.711   1.506
   30SOL     OW  988   4.424   0.696   4.029
   30SOL    HW1  989   4.504   0.716   4.085
   30SOL    HW2  990   4.357   0.770   4.038
   31SOL     OW  991   0.280   2.396   6.491
   31SOL    HW1  992   0.237   2.307   6.508
   31SOL    HW2  993   0.274   2.453   6.573
   32SOL     OW  994   0.658   1.894   2.541
   32SOL    HW1  995   0.701   1.940   2.463
   32SOL    HW2  996   0.605   1.960   2.594
   33SOL     OW  997   0.870   4.601   5.311
   33SOL    HW1  998   0.952   4.654   5.334
   33SOL    HW2  999   0.855   4.531   5.381
   34SOL     OW 1000   2.935   6.137   4.829
   34SOL    HW1 1001   2.904   6.104   4.918
   34SOL    HW2 1002   3.033   6.153   4.832
   35SOL     OW 1003   4.360   2.283   5.707
   35SOL    HW1 1004   4.415   2.366   5.704
   35SOL    HW2 1005   4.350   2.252   5.802
   36SOL     OW 1006   4.161   2.248   4.106
   36SOL    HW1 1007   4.250   2.209   4.127
   36SOL    HW2 1008   4.154   2.266   4.008
   37SOL     OW 1009   1.971   1.902   5.170
   37SOL    HW1 1010   2.042   1.898   5.100
   37SOL    HW2 1011   1.907   1.826   5.156
   38SOL     OW 1012   1.532   4.881   1.687
   38SOL    HW1 1013   1.533   4.945   1.764
   38SOL    HW2 1014   1.623   4.843   1.675
   39SOL     OW 1015   6.110   4.825   6.467
   39SOL    HW1 1016   6.076   4.915   6.438
   39SOL    HW2 1017   6.172   4.837   6.544
   40SOL     OW 1018   3.707   2.528   0.339
   40SOL    HW1 1019   3.623   2.511   0.288
   40SOL    HW2 1020   3.784   2.485   0.291
   41SOL     OW 1021   6.545   3.761   3.318
   41SOL    HW1 1022   6.592   3.838   3.361
   41SOL    HW2 1023   6.517   3.696   3.389
   42SOL     OW 1024   3.459   5.964   4.357
   42SOL    HW1 1025   3.392   6.019   4.407
   42SOL    HW2 1026   3.515   5.914   4.422
   43SOL     OW 1027   4.628   1.028   5.063
   43SOL    HW1 1028   4.559   0.977   5.114
   43SOL    HW2 1029   4.604   1.125   5.063
   44SOL     OW 1030   5.714   2.683   5.264
   44SOL    HW1 1031   5.673   2.698   5.354
   44SOL    HW2 1032   5.794   2.743   5.254
   45SOL     OW 1033   4.712   5.373   1.457
   45SOL    HW1 1034   4.636   5.434   1.438
   45SOL    HW2 1035   4.683   5.302   1.521
   46SOL     OW 1036   0.825   2.484   3.865
   46SOL    HW1 1037   0.749   2.537   3.827
   46SOL    HW2 1038   0.835   2.504   3.962
   47SOL     OW 1039   4.397   4.258   0.980
   47SOL    HW1 1040   4.430   4.286   0.890
   47SOL    HW2 1041   4.473   4.254   1.044
   48SOL     OW 1042   6.461   2.527   6.740
   48SOL    HW1 1043   6.520   2.607   6.749
   48SOL    HW2 1044   6.366   2.553   6.754
   49SOL     OW 1045   5.825   2.688   1.918
   49SOL    HW1 1046   5.889   2.760   1.944
   49SOL    HW2 1047   5.870   2.624   1.855
   50SOL     OW 1048   6.322   1.135   5.387
   50SOL    HW1 1049   6.367   1.223   5.372
   50SOL    HW2 1050   6.320   1.115   5.485
   51SOL     OW 1051   2.044   6.656   3.022
   51SOL    HW1 1052   2.035   6.754   3.039
   51SOL    HW2 1053   2.141   6.631   3.024
   52SOL     OW 1054   5.281   3.278   2.039
   52SOL    HW1 1055   5.281   3.348   1.968
   52SOL    HW2 1056   5.205   3.293   2.102
   53SOL     OW 1057   4.623   1.421   3.733
   53SOL    HW1 1058   4.672   1.494   3.686
   53SOL    HW2 1059   4.645   1.424   3.831
   54SOL     OW 1060   5.553   6.411   1.268
   54SOL    HW1 1061   5.538   6.321   1.310
   54SOL    HW2 1062   5.649   6.436   1.277
   55SOL     OW 1063   2.144   2.857   5.091
   55SOL    HW1 1064   2.225   2.915   5.077
   55SOL    HW2 1065   2.106   2.830   5.003
   56SOL     OW 1066   0.454   0.957   1.034
   56SOL    HW1 1067   0.437   0.933   0.938
   56SOL    HW2 1068   0.518   1.033   1.038
   57SOL     OW 1069   4.171   1.078   1.411
   57SOL    HW1 1070   4.166   1.076   1.311
   57SOL    HW2 1071   4.174   0.985   1.446
   58SOL     OW 1072   0.568   6.704   5.796
   58SOL    HW1 1073   0.555   6.611   5.832
   58SOL    HW2 1074   0.543   6.706   5.700
   59SOL     OW 1075   6.830   3.682   6.178
   59SOL    HW1 1076   6.784   3.599   6.211
   59SOL    HW2 1077   6.815   3.691   6.080
   60SOL     OW 1078   5.080   3.133   4.111
   60SOL    HW1 1079   4.984   3.117   4.090
   60SOL    HW2 1080   5.136   3.119   4.029
   61SOL     OW 1081   0.089   1.192   4.505
   61SOL    HW1 1082   0.012   1.254   4.500
   61SOL    HW2 1083   0.169   1.233   4.462
   62SOL     OW 1084   2.023   1.462   2.043
   62SOL    HW1 1085   2.119   1.461   2.015
   62SOL    HW2 1086   2.003   1.548   2.090
   63SOL     OW 1087   3.705   0.459   4.532
   63SOL    HW1 1088   3.716   0.549   4.489
   63SOL    HW2 1089   3.608   0.438   4.542
   64SOL     OW 1090   0.163   2.670   6.274
   64SOL    HW1 1091   0.144   2.671   6.176
   64SOL    HW2 1092   0.218   2.589   6.297
   65SOL     OW 1093   6.982   5.000   5.939
   65SOL    HW1 1094   7.019   5.051   6.017
   65SOL    HW2 1095   6.907   5.052   5.898
   66SOL     OW 1096   3.272   0.541   3.266
   66SOL    HW1 1097   3.282   0.457   3.319
   66SOL    HW2 1098   3.357   0.558   3.216
   67SOL     OW 1099   0.532   2.816   6.093
   67SOL    HW1 1100   0.488   2.894   6.138
   67SOL    HW2 1101   0.628   2.812   6.123
   68SOL     OW 1102   0.476   1.973   6.680
   68SOL    HW1 1103   0.386   2.005   6.711
   68SOL    HW2 1104   0.487   1.876   6.705
   69SOL     OW 1105   1.350   2.401   5.503
   69SOL    HW1 1106   1.425   2.434   5.446
   69SOL    HW2 1107   1.277   2.470   5.506
   70SOL     OW 1108   5.264   4.701   4.472
   70SOL    HW1 1109   5.300   4.794   4.477
   70SOL    HW2 1110   5.320   4.641   4.529
   71SOL     OW 1111   4.732   2.286   3.292
   71SOL    HW1 1112   4.661   2.289   3.362
   71SOL    HW2 1113   4.820   2.308   3.333
   72SOL     OW 1114   0.692   1.141   3.164
   72SOL    HW1 1115   0.661   1.090   3.084
   72SOL    HW2 1116   0.781   1.106   3.195
   73SOL     OW 1117   3.455   0.313   0.521
   73SOL    HW1 1118   3.512   0.237   0.553
   73SOL    HW2 1119   3.412   0.287   0.435
   74SOL     OW 1120   3.462   1.311   0.186
   74SOL    HW1 1121   3.382   1.359   0.149
   74SOL    HW2 1122   3.462   1.217   0.154
   75SOL     OW 1123   4.350   1.233   1.539
   75SOL    HW1 1124   4.335   1.199   1.632
   75SOL    HW2 1125   4.285   1.189   1.477
   76SOL     OW 1126   3.026   3.485   0.033
   76SOL    HW1 1127   3.022   3.388   0.009
   76SOL    HW2 1128   2.934   3.522   0.042
   77SOL     OW 1129   0.955   0.227   3.290
   77SOL    HW1 1130   1.041   0.181   3.313
   77SOL    HW2 1131   0.966   0.274   3.202
   78SOL     OW 1132   4.850   1.247   0.716
   78SOL    HW1 1133   4.779   1.266   0.648
   78SOL    HW2 1134   4.897   1.332   0.739
   79SOL     OW 1135   2.785   6.400   1.731
   79SOL    HW1 1136   2.830   6.333   1.791
   79SOL    HW2 1137   2.813   6.492   1.758
   80SOL     OW 1138   3.888   1.787   4.078
   80SOL    HW1 1139   3.890   1.875   4.125
   80SOL    HW2 1140   3.835   1.795   3.994
   81SOL     OW 1141   1.748   6.703   1.881
   81SOL    HW1 1142   1.735   6.605   1.869
   81SOL    HW2 1143   1.664   6.752   1.856
   82SOL     OW 1144   5.778   6.008   1.513
   82SOL    HW1 1145   5.766   5.988   1.610
   82SOL    HW2 1146   5.753   5.928   1.459
   83SOL     OW 1147   0.640   0.955   6.620
   83SOL    HW1 1148   0.678   0.876   6.571
   83SOL    HW2 1149   0.702   1.033   6.611
   84SOL     OW 1150   5.954   3.813   3.220
   84SOL    HW1 1151   6.021   3.744   3.192
   84SOL    HW2 1152   5.994   3.904   3.211
   85SOL     OW 1153   1.357   1.199   3.306
   85SOL    HW1 1154   1.371   1.233   3.213
   85SOL    HW2 1155   1.419   1.247   3.368
   86SOL     OW 1156   6.915   1.508   0.080
   86SOL    HW1 1157   6.852   1.474   0.010
   86SOL    HW2 1158   6.923   1.441   0.154
   87SOL     OW 1159   4.157   4.202   0.903
   87SOL    HW1 1160   4.184   4.227   0.810
   87SOL    HW2 1161   4.238   4.198   0.961
   88SOL     OW 1162   3.474   2.533   5.920
   88SOL    HW1 1163   3.438   2.532   5.827
   88SOL    HW2 1164   3.467   2.442   5.960
   89SOL     OW 1165   3.085   2.579   0.297
   89SOL    HW1 1166   3.071   2.515   0.221
   89SOL    HW2 1167   2.997   2.600   0.339
   90SOL     OW 1168   3.714   5.420   2.625
   90SOL    HW1 1169   3.744   5.329   2.656
   90SOL    HW2 1170   3.772   5.490   2.666
   91SOL     OW 1171   6.413   3.923   5.862
   91SOL    HW1 1172   6.421   3.952   5.957
   91SOL    HW2 1173   6.485   3.967   5.807
   92SOL     OW 1174   4.860   4.789   0.682
   92SOL    HW1 1175   4.909   4.843   0.613
   92SOL    HW2 1176   4.820   4.851   0.749
   93SOL     OW 1177   3.330   3.041   6.931
   93SOL    HW1 1178   3.383   3.027   6.847
   93SOL    HW2 1179   3.273   2.960   6.948
   94SOL     OW 1180   2.956   5.525   6.626
   94SOL    HW1 1181   2.928   5.621   6.633
   94SOL    HW2 1182   2.944   5.494   6.532
   95SOL     OW 1183   1.978   1.539   3.338
   95SOL    HW1 1184   2.008   1.471   3.271
   95SOL    HW2 1185   2.041   1.616   3.337
   96SOL     OW 1186   4.473   5.645   5.382
   96SOL    HW1 1187   4.456   5.702   5.463
   96SOL    HW2 1188   4.472   5.702   5.300
   97SOL     OW 1189   2.141   3.722   5.323
   97SOL    HW1 1190   2.229   3.760   5.353
   97SOL    HW2 1191   2.157   3.636   5.275
   98SOL     OW 1192   1.097   1.697   0.480
   98SOL    HW1 1193   1.007   1.690   0.438
   98SOL    HW2 1194   1.088   1.691   0.579
   99SOL     OW 1195   3.893   3.595   1.864
   99SOL    HW1 1196   3.983   3.586   1.820
   99SOL    HW2 1197   3.821   3.583   1.796
  100SOL     OW 1198   0.309   6.865   3.971
  100SOL    HW1 1199   0.253   6.881   3.890
  100SOL    HW2 1200   0.406   6.864   3.946
  101SOL     OW 1201   0.294   4.890   2.184
  101SOL    HW1 1202   0.369   4.899   2.119
  101SOL    HW2 1203   0.328   4.909   2.276
  102SOL     OW 1204   3.495   5.772   2.079
  102SOL    HW1 1205   3.407   5.770   2.032
  102SOL    HW2 1206   3.524   5.867   2.092
  103SOL     OW 1207   2.290   2.419   2.441
  103SOL    HW1 1208   2.296   2.319   2.444
  103SOL    HW2 1209   2.265   2.453   2.532
  104SOL     OW 1210   1.609   5.358   2.689
  104SOL    HW1 1211   1.572   5.444   2.723
  104SOL    HW2 1212   1.577   5.343   2.595
  105SOL     OW 1213   6.184   1.034   6.554
  105SOL    HW1 1214   6.231   0.959   6.507
  105SOL    HW2 1215   6.097   1.052   6.509
  106SOL     OW 1216   3.772   5.915   3.603
  106SOL    HW1 1217   3.767   5.823   3.565
  106SOL    HW2 1218   3.714   5.922   3.684
  107SOL     OW 1219   0.431   0.917   0.511
  107SOL    HW1 1220   0.387   0.973   0.441
  107SOL    HW2 1221   0.530   0.935   0.511
  108SOL     OW 1222   4.175   6.435   6.547
  108SOL    HW1 1223   4.084   6.474   6.543
  108SOL    HW2 1224   4.174   6.352   6.603
  109SOL     OW 1225   2.662   1.033   2.615
  109SOL    HW1 1226   2.761   1.024   2.608
  109SOL    HW2 1227   2.636   1.130   2.607
  110SOL     OW 1228   3.352   4.969   4.566
  110SOL    HW1 1229   3.261   4.965   4.608
  110SOL    HW2 1230   3.347   4.933   4.473
  111SOL     OW 1231   1.828   1.600   3.975
  111SOL    HW1 1232   1.738   1.596   3.932
  111SOL    HW2 1233   1.891   1.538   3.928
  112SOL     OW 1234   4.403   6.051   0.616
  112SOL    HW1 1235   4.469   5.982   0.586
  112SOL    HW2 1236   4.414   6.134   0.562
  113SOL     OW 1237   1.403   6.169   3.298
  113SOL    HW1 1238   1.495   6.144   3.268
  113SOL    HW2 1239   1.346   6.191   3.219
  114SOL     OW 1240   1.414   6.168   2.184
  114SOL    HW1 1241   1.492   6.204   2.132
  114SOL    HW2 1242   1.441   6.151   2.278
  115SOL     OW 1243   5.272   6.678   2.873
  115SOL    HW1 1244   5.277   6.622   2.790
  115SOL    HW2 1245   5.234   6.624   2.947
  116SOL     OW 1246   0.362   5.666   1.185
  116SOL    HW1 1247   0.418   5.585   1.168
  116SOL    HW2 1248   0.416   5.735   1.233
  117SOL     OW 1249   0.771   0.779   0.689
  117SOL    HW1 1250   0.843   0.809   0.752
  117SOL    HW2 1251   0.690   0.754   0.742
  118SOL     OW 1252   1.294   1.969   2.503
  118SOL    HW1 1253   1.220   1.902   2.496
  118SOL    HW2 1254   1.272   2.035   2.575
  119SOL     OW 1255   0.073   0.535   0.039
  119SOL    HW1 1256   0.070   0.561   6.966
  119SOL    HW2 1257   7.016   0.481   0.061
  120SOL     OW 1258   5.548   0.806   4.223
  120SOL    HW1 1259   5.604   0.737   4.268
  120SOL    HW2 1260   5.466   0.822   4.278
  121SOL     OW 1261   1.379   3.924   0.109
  121SOL    HW1 1262   1.478   3.937   0.110
  121SOL    HW2 1263   1.347   3.906   0.202
  122SOL     OW 1264   1.516   3.263   0.710
  122SOL    HW1 1265   1.508   3.328   0.635
  122SOL    HW2 1266   1.562   3.307   0.787
  123SOL     OW 1267   1.266   1.480   1.892
  123SOL    HW1 1268   1.244   1.413   1.963
  123SOL    HW2 1269   1.325   1.438   1.823
  124SOL     OW 1270   3.104   2.293   0.838
  124SOL    HW1 1271   3.039   2.219   0.822
  124SOL    HW2 1272   3.126   2.298   0.936
  125SOL     OW 1273   3.709   3.021   0.506
  125SOL    HW1 1274   3.641   3.060   0.567
  125SOL    HW2 1275   3.704   2.921   0.510
  126SOL     OW 1276   3.363   2.900   2.780
  126SOL    HW1 1277   3.407   2.887   2.869
  126SOL    HW2 1278   3.286   2.837   2.771
  127SOL     OW 1279   6.997   5.429   6.466
  127SOL    HW1 1280   7.022   5.335   6.492
  127SOL    HW2 1281   6.963   5.429   6.372
  128SOL     OW 1282   4.883   3.143   1.267
  128SOL    HW1 1283   4.880   3.139   1.167
  128SOL    HW2 1284   4.827   3.070   1.305
  129SOL     OW 1285   3.004   3.550   0.301
  129SOL    HW1 1286   2.937   3.624   0.295
  129SOL    HW2 1287   3.041   3.531   0.210
  130SOL     OW 1288   6.853   0.278   4.529
  130SOL    HW1 1289   6.935   0.274   4.585
  130SOL    HW2 1290   6.863   0.219   4.450
  131SOL     OW 1291   5.192   0.384   3.879
  131SOL    HW1 1292   5.265   0.428   3.932
  131SOL    HW2 1293   5.104   0.420   3.907
  132SOL     OW 1294   3.033   2.555   1.017
  132SOL    HW1 1295   2.979   2.602   1.087
  132SOL    HW2 1296   3.129   2.582   1.025
  133SOL     OW 1297   5.549   0.793   3.608
  133SOL    HW1 1298   5.527   0.700   3.638
  133SOL    HW2 1299   5.648   0.805   3.608
  134SOL     OW 1300   6.841   0.363   3.190
  134SOL    HW1 1301   6.885   0.452   3.197
  134SOL    HW2 1302   6.899   0.294   3.234
  135SOL     OW 1303   5.167   3.688   4.185
  135SOL    HW1 1304   5.202   3.695   4.092
  135SOL    HW2 1305   5.095   3.619   4.188
  136SOL     OW 1306   2.250   5.396   4.972
  136SOL    HW1 1307   2.266   5.305   4.934
  136SOL    HW2 1308   2.221   5.388   5.067
  137SOL     OW 1309   4.239   1.370   3.735
  137SOL    HW1 1310   4.281   1.355   3.824
  137SOL    HW2 1311   4.308   1.405   3.671
  138SOL     OW 1312   0.897   4.143   3.239
  138SOL    HW1 1313   0.991   4.115   3.221
  138SOL    HW2 1314   0.885   4.239   3.214
  139SOL     OW 1315   1.887   6.081   5.580
  139SOL    HW1 1316   1.835   6.130   5.649
  139SOL    HW2 1317   1.983   6.110   5.582
  140SOL     OW 1318   1.566   6.239   4.159
  140SOL    HW1 1319   1.618   6.164   4.199
  140SOL    HW2 1320   1.481   6.204   4.119
  141SOL     OW 1321   6.744   3.073   5.581
  141SOL    HW1 1322   6.784   2.998   5.528
  141SOL    HW2 1323   6.686   3.035   5.653
  142SOL     OW 1324   2.133   3.612   2.281
  142SOL    HW1 1325   2.172   3.563   2.204
  142SOL    HW2 1326   2.123   3.551   2.359
  143SOL     OW 1327   5.321   6.085   0.892
  143SOL    HW1 1328   5.393   6.132   0.840
  143SOL    HW2 1329   5.341   5.987   0.895
  144SOL     OW 1330   2.111   4.578   5.299
  144SOL    HW1 1331   2.152   4.499   5.345
  144SOL    HW2 1332   2.121   4.568   5.200
  145SOL     OW 1333   2.454   5.313   1.210
  145SOL    HW1 1334   2.487   5.224   1.181
  145SOL    HW2 1335   2.512   5.385   1.172
  146SOL     OW 1336   5.131   0.302   0.091
  146SOL    HW1 1337   5.140   0.268   7.021
  146SOL    HW2 1338   5.102   0.228   0.151
  147SOL     OW 1339   5.307   1.025   5.857
  147SOL    HW1 1340   5.259   0.942   5.883
  147SOL    HW2 1341   5.382   1.042   5.920
  148SOL     OW 1342   0.640   5.298   1.559
  148SOL    HW1 1343   0.567   5.365   1.550
  148SOL    HW2 1344   0.645   5.267   1.654
  149SOL     OW 1345   3.357   1.999   4.997
  149SOL    HW1 1346   3.348   1.901   4.979
  149SOL    HW2 1347   3.325   2.051   4.918
  150SOL     OW 1348   5.148   0.512   6.335
  150SOL    HW1 1349   5.121   0.596   6.383
  150SOL    HW2 1350   5.122   0.519   6.238
  151SOL     OW 1351   3.746   0.665   2.300
  151SOL    HW1 1352   3.720   0.756   2.335
  151SOL    HW2 1353   3.672   0.628   2.244
  152SOL     OW 1354   0.104   1.775   0.222
  152SOL    HW1 1355   0.008   1.803   0.229
  152SOL    HW2 1356   0.109   1.692   0.166
  153SOL     OW 1357   3.109   6.454   3.007
  153SOL    HW1 1358   3.100   6.482   2.912
  153SOL    HW2 1359   3.191   6.399   3.018
  154SOL     OW 1360   0.411   3.368   0.616
  154SOL    HW1 1361   0.357   3.296   0.574
  154SOL    HW2 1362   0.370   3.394   0.703
  155SOL     OW 1363   0.770   0.784   3.103
  155SOL    HW1 1364   0.746   0.858   3.040
  155SOL    HW2 1365   0.827   0.717   3.055
  156SOL     OW 1366   6.901   0.294   6.913
  156SOL    HW1 1367   6.822   0.352   6.892
  156SOL    HW2 1368   6.958   0.286   6.831
  157SOL     OW 1369   5.697   3.530   0.493
  157SOL    HW1 1370   5.657   3.621   0.495
  157SOL    HW2 1371   5.781   3.529   0.548
  158SOL     OW 1372   1.957   2.848   1.213
  158SOL    HW1 1373   1.991   2.767   1.261
  158SOL    HW2 1374   2.024   2.922   1.221
  159SOL     OW 1375   4.079   5.014   1.313
  159SOL    HW1 1376   4.125   4.990   1.227
  159SOL    HW2 1377   4.123   4.965   1.389
  160SOL     OW 1378   5.996   0.331   1.008
  160SOL    HW1 1379   5.940   0.337   0.925
  160SOL    HW2 1380   6.048   0.415   1.020
  161SOL     OW 1381   1.640   0.370   2.695
  161SOL    HW1 1382   1.637   0.335   2.601
  161SOL    HW2 1383   1.702   0.313   2.749
  162SOL     OW 1384   3.481   5.784   6.801
  162SOL    HW1 1385   3.386   5.815   6.794
  162SOL    HW2 1386   3.521   5.780   6.709
  163SOL     OW 1387   0.453   5.963   2.750
  163SOL    HW1 1388   0.361   6.004   2.749
  163SOL    HW2 1389   0.451   5.881   2.807
  164SOL     OW 1390   0.950   3.522   2.552
  164SOL    HW1 1391   0.852   3.520   2.532
  164SOL    HW2 1392   0.981   3.430   2.577
  165SOL     OW 1393   5.574   5.279   6.893
  165SOL    HW1 1394   5.580   5.223   6.976
  165SOL    HW2 1395   5.550   5.372   6.918
  166SOL     OW 1396   0.224   3.743   1.834
  166SOL    HW1 1397   0.231   3.689   1.750
  166SOL    HW2 1398   0.267   3.693   1.909
  167SOL     OW 1399   6.480   1.899   6.325
  167SOL    HW1 1400   6.437   1.986   6.301
  167SOL    HW2 1401   6.410   1.831   6.344
  168SOL     OW 1402   4.212   2.444   1.103
  168SOL    HW1 1403   4.187   2.483   1.192
  168SOL    HW2 1404   4.278   2.371   1.116
  169SOL     OW 1405   5.502   2.642   6.821
  169SOL    HW1 1406   5.572   2.619   6.753
  169SOL    HW2 1407   5.490   2.565   6.884
  170SOL     OW 1408   6.948   5.722   2.337
  170SOL    HW1 1409   6.949   5.704   2.435
  170SOL    HW2 1410   6.889   5.655   2.291
  171SOL     OW 1411   2.544   4.727   0.399
  171SOL    HW1 1412   2.610   4.676   0.343
  171SOL    HW2 1413   2.487   4.662   0.449
  172SOL     OW 1414   5.750   1.991   3.019
  172SOL    HW1 1415   5.734   1.959   3.113
  172SOL    HW2 1416   5.683   1.948   2.958
  173SOL     OW 1417   5.644   1.632   4.879
  173SOL    HW1 1418   5.699   1.711   4.850
  173SOL    HW2 1419   5.700   1.570   4.933
  174SOL     OW 1420   4.735   5.230   3.413
  174SOL    HW1 1421   4.830   5.260   3.412
  174SOL    HW2 1422   4.691   5.256   3.327
  175SOL     OW 1423   3.370   0.981   0.829
  175SOL    HW1 1424   3.430   1.039   0.773
  175SOL    HW2 1425   3.394   0.993   0.925
  176SOL     OW 1426   5.275   4.803   2.215
  176SOL    HW1 1427   5.326   4.816   2.300
  176SOL    HW2 1428   5.324   4.738   2.157
  177SOL     OW 1429   5.031   3.289   4.657
  177SOL    HW1 1430   4.979   3.204   4.656
  177SOL    HW2 1431   5.089   3.294   4.575
  178SOL     OW 1432   2.895   4.766   5.631
  178SOL    HW1 1433   2.849   4.694   5.683
  178SOL    HW2 1434   2.926   4.728   5.544
  179SOL     OW 1435   4.127   0.137   6.850
  179SOL    HW1 1436   4.192   0.155   6.924
  179SOL    HW2 1437   4.048   0.197   6.860
  180SOL     OW 1438   2.398   0.011   0.478
  180SOL    HW1 1439   2.469   6.983   0.527
  180SOL    HW2 1440   2.363   6.979   0.403
  181SOL     OW 1441   2.976   3.276   6.097
  181SOL    HW1 1442   2.963   3.177   6.085
  181SOL    HW2 1443   3.015   3.294   6.188
  182SOL     OW 1444   3.943   2.080   6.509
  182SOL    HW1 1445   4.033   2.111   6.541
  182SOL    HW2 1446   3.915   2.000   6.561
  183SOL     OW 1447   3.463   2.018   3.711
  183SOL    HW1 1448   3.456   1.991   3.615
  183SOL    HW2 1449   3.546   2.072   3.724
  184SOL     OW 1450   0.256   6.537   3.127
  184SOL    HW1 1451   0.170   6.491   3.148
  184SOL    HW2 1452   0.280   6.520   3.031
  185SOL     OW 1453   1.117   1.254   4.821
  185SOL    HW1 1454   1.133   1.156   4.807
  185SOL    HW2 1455   1.196   1.294   4.868
  186SOL     OW 1456   5.821   0.951   4.276
  186SOL    HW1 1457   5.808   0.854   4.253
  186SOL    HW2 1458   5.763   0.975   4.354
  187SOL     OW 1459   5.741   6.811   2.378
  187SOL    HW1 1460   5.731   6.902   2.418
  187SOL    HW2 1461   5.834   6.799   2.345
  188SOL     OW 1462   0.432   3.394   3.859
  188SOL    HW1 1463   0.420   3.463   3.931
  188SOL    HW2 1464   0.518   3.411   3.812
  189SOL     OW 1465   1.774   5.040   6.922
  189SOL    HW1 1466   1.677   5.020   6.908
  189SOL    HW2 1467   1.818   5.054   6.834
  190SOL     OW 1468   6.340   4.437   6.018
  190SOL    HW1 1469   6.310   4.419   5.924
  190SOL    HW2 1470   6.440   4.431   6.023
  191SOL     OW 1471   6.482   1.360   6.571
  191SOL    HW1 1472   6.415   1.337   6.500
  191SOL    HW2 1473   6.487   1.285   6.637
  192SOL     OW 1474   0.335   4.675   1.797
  192SOL    HW1 1475   0.248   4.707   1.835
  192SOL    HW2 1476   0.389   4.633   1.870
  193SOL     OW 1477   4.999   4.096   5.435
  193SOL    HW1 1478   5.056   4.086   5.516
  193SOL    HW2 1479   4.957   4.009   5.412
  194SOL     OW 1480   3.713   6.317   3.417
  194SOL    HW1 1481   3.770   6.236   3.406
  194SOL    HW2 1482   3.707   6.341   3.514
  195SOL     OW 1483   1.601   1.302   3.427
  195SOL    HW1 1484   1.556   1.273   3.512
  195SOL    HW2 1485   1.660   1.380   3.446
  196SOL     OW 1486   2.792   0.235   6.653
  196SOL    HW1 1487   2.849   0.222   6.735
  196SOL    HW2 1488   2.756   0.328   6.652
  197SOL     OW 1489   3.099   0.190   0.453
  197SOL    HW1 1490   3.020   0.220   0.399
  197SOL    HW2 1491   3.076   0.192   0.550
  198SOL     OW 1492   4.592   0.006   2.302
  198SOL    HW1 1493   4.602   0.105   2.299
  198SOL    HW2 1494   4.563   6.997   2.212
  199SOL     OW 1495   6.368   1.116   3.291
  199SOL    HW1 1496   6.331   1.182   3.357
  199SOL    HW2 1497   6.387   1.163   3.205
  200SOL     OW 1498   0.822   4.044   1.963
  200SOL    HW1 1499   0.766   3.988   2.024
  200SOL    HW2 1500   0.876   3.984   1.904
  201SOL     OW 1501   4.838   6.877   6.514
  201SOL    HW1 1502   4.821   6.886   6.612
  201SOL    HW2 1503   4.834   6.781   6.488
  202SOL     OW 1504   5.560   0.154   5.743
  202SOL    HW1 1505   5.466   0.182   5.764
  202SOL    HW2 1506   5.620   0.233   5.749
  203SOL     OW 1507   4.815   2.230   4.717
  203SOL    HW1 1508   4.736   2.273   4.760
  203SOL    HW2 1509   4.799   2.221   4.618
  204SOL     OW 1510   6.911   0.903   6.804
  204SOL    HW1 1511   6.890   0.912   6.901
  204SOL    HW2 1512   6.994   0.956   6.784
  205SOL     OW 1513   1.007   1.016   2.170
  205SOL    HW1 1514   1.017   0.991   2.073
  205SOL    HW2 1515   0.912   1.040   2.188
  206SOL     OW 1516   0.028   4.779   2.728
  206SOL    HW1 1517   7.017   4.872   2.740
  206SOL    HW2 1518   0.123   4.783   2.695
  207SOL     OW 1519   4.249   0.596   4.300
  207SOL    HW1 1520   4.290   0.530   4.364
  207SOL    HW2 1521   4.318   0.663   4.273
  208SOL     OW 1522   5.133   3.995   5.646
  208SOL    HW1 1523   5.096   3.920   5.592
  208SOL    HW2 1524   5.217   3.966   5.692
  209SOL     OW 1525   1.297   5.060   4.719
  209SOL    HW1 1526   1.302   5.061   4.819
  209SOL    HW2 1527   1.232   5.129   4.688
  210SOL     OW 1528   4.770   2.207   1.609
  210SOL    HW1 1529   4.754   2.110   1.591
  210SOL    HW2 1530   4.772   2.223   1.708
  211SOL     OW 1531   1.065   6.096   4.477
  211SOL    HW1 1532   1.023   6.184   4.501
  211SOL    HW2 1533   1.020   6.059   4.395
  212SOL     OW 1534   2.139   4.622   2.132
  212SOL    HW1 1535   2.089   4.708   2.144
  212SOL    HW2 1536   2.169   4.613   2.037
  213SOL     OW 1537   3.497   0.964   6.168
  213SOL    HW1 1538   3.474   0.904   6.245
  213SOL    HW2 1539   3.415   0.980   6.113
  214SOL     OW 1540   3.890   5.959   2.024
  214SOL    HW1 1541   3.896   5.904   1.941
  214SOL    HW2 1542   3.980   5.963   2.068
  215SOL     OW 1543   3.102   4.100   1.783
  215SOL    HW1 1544   3.118   4.086   1.881
  215SOL    HW2 1545   3.188   4.090   1.733
  216SOL     OW 1546   1.856   6.278   4.850
  216SOL    HW1 1547   1.762   6.253   4.824
  216SOL    HW2 1548   1.861   6.289   4.949
  217SOL     OW 1549   2.802   2.267   3.877
  217SOL    HW1 1550   2.761   2.356   3.861
  217SOL    HW2 1551   2.865   2.245   3.802
  218SOL     OW 1552   0.513   3.316   4.397
  218SOL    HW1 1553   0.421   3.319   4.357
  218SOL    HW2 1554   0.579   3.348   4.329
  219SOL     OW 1555   3.185   6.661   6.419
  219SOL    HW1 1556   3.151   6.695   6.331
  219SOL    HW2 1557   3.172   6.731   6.489
  220SOL     OW 1558   3.606   6.714   6.409
  220SOL    HW1 1559   3.663   6.632   6.412
  220SOL    HW2 1560   3.575   6.729   6.315
  221SOL     OW 1561   0.177   3.690   2.372
  221SOL    HW1 1562   0.155   3.787   2.359
  221SOL    HW2 1563   0.245   3.680   2.444
  222SOL     OW 1564   2.251   5.161   5.610
  222SOL    HW1 1565   2.266   5.259   5.605
  222SOL    HW2 1566   2.268   5.120   5.520
  223SOL     OW 1567   5.937   3.370   1.102
  223SOL    HW1 1568   5.907   3.420   1.020
  223SOL    HW2 1569   6.019   3.413   1.139
  224SOL     OW 1570   2.929   1.732   3.811
  224SOL    HW1 1571   2.920   1.731   3.711
  224SOL    HW2 1572   2.859   1.791   3.850
  225SOL     OW 1573   5.021   1.276   6.270
  225SOL    HW1 1574   5.057   1.366   6.294
  225SOL    HW2 1575   4.923   1.273   6.289
  226SOL     OW 1576   0.801   0.223   5.919
  226SOL    HW1 1577   0.815   0.319   5.895
  226SOL    HW2 1578   0.782   0.171   5.836
  227SOL     OW 1579   1.493   4.350   1.971
  227SOL    HW1 1580   1.580   4.301   1.967
  227SOL    HW2 1581   1.497   4.430   1.912
  228SOL     OW 1582   3.393   6.135   3.883
  228SOL    HW1 1583   3.374   6.218   3.935
  228SOL    HW2 1584   3.362   6.055   3.935
  229SOL     OW 1585   5.099   6.771   0.285
  229SOL    HW1 1586   5.190   6.738   0.259
  229SOL    HW2 1587   5.031   6.735   0.222
  230SOL     OW 1588   2.796   4.687   2.527
  230SOL    HW1 1589   2.792   4.786   2.534
  230SOL    HW2 1590   2.825   4.661   2.435
  231SOL     OW 1591   6.294   2.322   6.436
  231SOL    HW1 1592   6.299   2.421   6.430
  231SOL    HW2 1593   6.253   2.296   6.524
  232SOL     OW 1594   1.431   4.180   6.185
  232SOL    HW1 1595   1.377   4.200   6.267
  232SOL    HW2 1596   1.403   4.092   6.147
  233SOL     OW 1597   2.385   1.284   3.906
  233SOL    HW1 1598   2.404   1.291   3.808
  233SOL    HW2 1599   2.348   1.370   3.940
  234SOL     OW 1600   3.154   5.969   5.450
  234SOL    HW1 1601   3.151   6.004   5.357
  234SOL    HW2 1602   3.068   5.990   5.496
  235SOL     OW 1603   3.141   3.711   2.388
  235SOL    HW1 1604   3.103   3.742   2.301
  235SOL    HW2 1605   3.081   3.642   2.429
  236SOL     OW 1606   5.851   2.720   6.893
  236SOL    HW1 1607   5.790   2.682   6.824
  236SOL    HW2 1608   5.931   2.761   6.848
  237SOL     OW 1609   6.682   6.564   0.744
  237SOL    HW1 1610   6.639   6.507   0.814
  237SOL    HW2 1611   6.645   6.657   0.750
  238SOL     OW 1612   6.118   1.847   7.008
  238SOL    HW1 1613   6.048   1.872   6.942
  238SOL    HW2 1614   6.074   1.814   0.068
  239SOL     OW 1615   6.916   5.681   6.882
  239SOL    HW1 1616   6.944   5.667   6.787
  239SOL    HW2 1617   6.851   5.756   6.887
  240SOL     OW 1618   0.314   3.144   5.957
  240SOL    HW1 1619   0.279   3.125   6.048
  240SOL    HW2 1620   0.355   3.235   5.955
  241SOL     OW 1621   1.478   0.411   4.395
  241SOL    HW1 1622   1.500   0.330   4.340
  241SOL    HW2 1623   1.402   0.460   4.353
  242SOL     OW 1624   2.178   3.138   6.283
  242SOL    HW1 1625   2.115   3.142   6.361
  242SOL    HW2 1626   2.215   3.229   6.267
  243SOL     OW 1627   5.167   0.075   6.681
  243SOL    HW1 1628   5.211   0.159   6.713
  243SOL    HW2 1629   5.071   0.076   6.707
  244SOL     OW 1630   4.811   3.084   4.126
  244SOL    HW1 1631   4.808   2.998   4.177
  244SOL    HW2 1632   4.771   3.157   4.181
  245SOL     OW 1633   0.142   2.236   4.959
  245SOL    HW1 1634   0.100   2.263   5.045
  245SOL    HW2 1635   0.084   2.168   4.914
  246SOL     OW 1636   5.602   3.097   3.313
  246SOL    HW1 1637   5.559   3.152   3.384
  246SOL    HW2 1638   5.532   3.045   3.263
  247SOL     OW 1639   1.979   1.685   2.177
  247SOL    HW1 1640   1.987   1.666   2.275
  247SOL    HW2 1641   2.048   1.752   2.151
  248SOL     OW 1642   4.326   1.913   4.283
  248SOL    HW1 1643   4.370   1.988   4.234
  248SOL    HW2 1644   4.349   1.920   4.381
  249SOL     OW 1645   4.665   0.019   5.498
  249SOL    HW1 1646   4.716   0.012   5.412
  249SOL    HW2 1647   4.569   7.019   5.481
  250SOL     OW 1648   4.776   2.516   5.882
  250SOL    HW1 1649   4.873   2.531   5.863
  250SOL    HW2 1650   4.727   2.603   5.871
  251SOL     OW 1651   4.359   5.067   6.254
  251SOL    HW1 1652   4.405   5.155   6.238
  251SOL    HW2 1653   4.325   5.031   6.167
  252SOL     OW 1654   0.302   0.742   0.080
  252SOL    HW1 1655   0.216   0.701   0.108
  252SOL    HW2 1656   0.368   0.669   0.060
  253SOL     OW 1657   2.216   4.308   0.114
  253SOL    HW1 1658   2.141   4.284   0.052
  253SOL    HW2 1659   2.241   4.404   0.100
  254SOL     OW 1660   6.432   2.796   3.492
  254SOL    HW1 1661   6.364   2.868   3.481
  254SOL    HW2 1662   6.419   2.726   3.421
  255SOL     OW 1663   1.854   3.150   4.016
  255SOL    HW1 1664   1.874   3.174   3.920
  255SOL    HW2 1665   1.839   3.234   4.068
  256SOL     OW 1666   6.462   4.496   0.279
  256SOL    HW1 1667   6.527   4.450   0.340
  256SOL    HW2 1668   6.385   4.529   0.333
  257SOL     OW 1669   3.860   5.386   5.325
  257SOL    HW1 1670   3.881   5.482   5.341
  257SOL    HW2 1671   3.865   5.366   5.227
  258SOL     OW 1672   5.506   4.940   4.729
  258SOL    HW1 1673   5.568   4.939   4.651
  258SOL    HW2 1674   5.493   4.846   4.762
  259SOL     OW 1675   1.854   2.856   2.408
  259SOL    HW1 1676   1.794   2.880   2.483
  259SOL    HW2 1677   1.946   2.891   2.426
  260SOL     OW 1678   4.510   1.422   1.408
  260SOL    HW1 1679   4.466   1.349   1.461
  260SOL    HW2 1680   4.441   1.468   1.352
  261SOL     OW 1681   6.686   3.957   0.907
  261SOL    HW1 1682   6.675   4.038   0.964
  261SOL    HW2 1683   6.672   3.875   0.962
  262SOL     OW 1684   0.678   3.704   1.498
  262SOL    HW1 1685   0.653   3.798   1.523
  262SOL    HW2 1686   0.662   3.644   1.577
  263SOL     OW 1687   0.588   1.231   3.852
  263SOL    HW1 1688   0.614   1.327   3.861
  263SOL    HW2 1689   0.499   1.217   3.895
  264SOL     OW 1690   5.532   4.115   5.005
  264SOL    HW1 1691   5.539   4.073   4.914
  264SOL    HW2 1692   5.437   4.111   5.036
  265SOL     OW 1693   4.611   4.234   3.214
  265SOL    HW1 1694   4.631   4.138   3.193
  265SOL    HW2 1695   4.646   4.292   3.141
  266SOL     OW 1696   3.255   3.181   5.933
  266SOL    HW1 1697   3.243   3.276   5.903
  266SOL    HW2 1698   3.167   3.144   5.961
  267SOL     OW 1699   6.838   2.623   6.001
  267SOL    HW1 1700   6.822   2.705   5.945
  267SOL    HW2 1701   6.755   2.567   6.002
  268SOL     OW 1702   4.834   6.410   5.061
  268SOL    HW1 1703   4.737   6.408   5.035
  268SOL    HW2 1704   4.878   6.489   5.019
  269SOL     OW 1705   1.929   1.775   0.130
  269SOL    HW1 1706   1.930   1.690   0.182
  269SOL    HW2 1707   1.941   1.755   0.033
  270SOL     OW 1708   6.994   0.486   2.089
  270SOL    HW1 1709   0.034   0.461   2.016
  270SOL    HW2 1710   0.003   0.568   2.136
  271SOL     OW 1711   2.734   2.366   0.311
  271SOL    HW1 1712   2.766   2.276   0.279
  271SOL    HW2 1713   2.679   2.355   0.393
  272SOL     OW 1714   3.138   5.403   4.222
  272SOL    HW1 1715   3.233   5.422   4.197
  272SOL    HW2 1716   3.080   5.477   4.191
  273SOL     OW 1717   1.550   5.484   5.465
  273SOL    HW1 1718   1.519   5.439   5.549
  273SOL    HW2 1719   1.641   5.452   5.441
  274SOL     OW 1720   5.589   1.876   4.064
  274SOL    HW1 1721   5.611   1.844   4.157
  274SOL    HW2 1722   5.528   1.955   4.070
  275SOL     OW 1723   0.203   5.874   6.411
  275SOL    HW1 1724   0.197   5.974   6.415
  275SOL    HW2 1725   0.123   5.834   6.456
  276SOL     OW 1726   6.752   5.243   3.750
  276SOL    HW1 1727   6.684   5.209   3.815
  276SOL    HW2 1728   6.744   5.342   3.742
  277SOL     OW 1729   2.646   1.397   6.973
  277SOL    HW1 1730   2.723   1.461   6.984
  277SOL    HW2 1731   2.584   1.406   0.027
  278SOL     OW 1732   6.630   3.703   1.889
  278SOL    HW1 1733   6.681   3.617   1.896
  278SOL    HW2 1734   6.557   3.705   1.956
  279SOL     OW 1735   6.190   2.767   4.607
  279SOL    HW1 1736   6.107   2.712   4.611
  279SOL    HW2 1737   6.167   2.861   4.583
  280SOL     OW 1738   3.954   6.821   2.780
  280SOL    HW1 1739   3.970   6.919   2.780
  280SOL    HW2 1740   3.856   6.802   2.769
  281SOL     OW 1741   2.647   4.608   2.734
  281SOL    HW1 1742   2.547   4.606   2.722
  281SOL    HW2 1743   2.691   4.616   2.645
  282SOL     OW 1744   3.984   2.389   5.374
  282SOL    HW1 1745   4.021   2.455   5.307
  282SOL    HW2 1746   3.911   2.336   5.332
  283SOL     OW 1747   6.544   0.969   5.995
  283SOL    HW1 1748   6.644   0.965   6.003
  283SOL    HW2 1749   6.508   0.877   5.980
  284SOL     OW 1750   0.459   4.722   5.290
  284SOL    HW1 1751   0.521   4.655   5.248
  284SOL    HW2 1752   0.428   4.687   5.379
  285SOL     OW 1753   5.034   5.764   6.929
  285SOL    HW1 1754   5.100   5.835   6.905
  285SOL    HW2 1755   5.082   5.678   6.943
  286SOL     OW 1756   4.133   4.790   5.142
  286SOL    HW1 1757   4.118   4.854   5.218
  286SOL    HW2 1758   4.195   4.718   5.171
  287SOL     OW 1759   0.508   5.130   6.831
  287SOL    HW1 1760   0.471   5.037   6.835
  287SOL    HW2 1761   0.504   5.163   6.737
  288SOL     OW 1762   4.261   1.370   0.525
  288SOL    HW1 1763   4.188   1.382   0.457
  288SOL    HW2 1764   4.292   1.460   0.555
  289SOL     OW 1765   0.263   5.213   4.843
  289SOL    HW1 1766   0.185   5.165   4.804
  289SOL    HW2 1767   0.235   5.304   4.874
  290SOL     OW 1768   5.001   1.698   3.737
  290SOL    HW1 1769   5.087   1.695   3.687
  290SOL    HW2 1770   5.018   1.685   3.835
  291SOL     OW 1771   3.752   1.020   4.295
  291SOL    HW1 1772   3.765   1.106   4.246
  291SOL    HW2 1773   3.796   0.946   4.246
  292SOL     OW 1774   4.219   1.777   3.848
  292SOL    HW1 1775   4.304   1.772   3.795
  292SOL    HW2 1776   4.148   1.819   3.792
  293SOL     OW 1777   3.680   6.225   1.568
  293SOL    HW1 1778   3.711   6.274   1.649
  293SOL    HW2 1779   3.631   6.142   1.595
  294SOL     OW 1780   6.473   5.817   6.826
  294SOL    HW1 1781   6.388   5.840   6.778
  294SOL    HW2 1782   6.459   5.829   6.924
  295SOL     OW 1783   2.485   1.770   5.373
  295SOL    HW1 1784   2.510   1.866   5.358
  295SOL    HW2 1785   2.551   1.711   5.326
  296SOL     OW 1786   6.217   2.451   1.774
  296SOL    HW1 1787   6.267   2.534   1.796
  296SOL    HW2 1788   6.254   2.374   1.826
  297SOL     OW 1789   3.095   4.976   2.859
  297SOL    HW1 1790   3.041   4.893   2.841
  297SOL    HW2 1791   3.116   4.981   2.957
  298SOL     OW 1792   3.900   6.919   0.195
  298SOL    HW1 1793   3.920   6.908   0.098
  298SOL    HW2 1794   3.926   7.011   0.224
  299SOL     OW 1795   4.551   2.598   6.113
  299SOL    HW1 1796   4.465   2.563   6.076
  299SOL    HW2 1797   4.599   2.524   6.162
  300SOL     OW 1798   4.480   0.898   2.474
  300SOL    HW1 1799   4.509   0.807   2.504
  300SOL    HW2 1800   4.494   0.906   2.375
  301SOL     OW 1801   4.904   1.690   0.759
  301SOL    HW1 1802   4.922   1.600   0.720
  301SOL    HW2 1803   4.979   1.752   0.736
  302SOL     OW 1804   6.730   0.531   2.793
  302SOL    HW1 1805   6.730   0.592   2.873
  302SOL    HW2 1806   6.691   0.443   2.819
  303SOL     OW 1807   6.369   5.984   2.022
  303SOL    HW1 1808   6.459   6.024   2.041
  303SOL    HW2 1809   6.375   5.922   1.944
  304SOL     OW 1810   2.052   6.290   6.311
  304SOL    HW1 1811   2.033   6.276   6.408
  304SOL    HW2 1812   2.137   6.243   6.287
  305SOL     OW 1813   1.191   2.948   0.721
  305SOL    HW1 1814   1.213   2.939   0.624
  305SOL    HW2 1815   1.157   2.860   0.755
  306SOL     OW 1816   0.557   0.926   2.600
  306SOL    HW1 1817   0.652   0.941   2.629
  306SOL    HW2 1818   0.535   0.829   2.610
  307SOL     OW 1819   4.704   4.613   0.507
  307SOL    HW1 1820   4.794   4.656   0.504
  307SOL    HW2 1821   4.652   4.648   0.584
  308SOL     OW 1822   5.927   3.596   4.320
  308SOL    HW1 1823   5.961   3.584   4.226
  308SOL    HW2 1824   5.848   3.658   4.319
  309SOL     OW 1825   1.446   5.989   0.121
  309SOL    HW1 1826   1.438   6.089   0.130
  309SOL    HW2 1827   1.450   5.965   0.024
  310SOL     OW 1828   5.290   5.748   4.385
  310SOL    HW1 1829   5.191   5.753   4.379
  310SOL    HW2 1830   5.323   5.819   4.448
  311SOL     OW 1831   3.322   5.372   2.815
  311SOL    HW1 1832   3.343   5.298   2.751
  311SOL    HW2 1833   3.242   5.422   2.783
  312SOL     OW 1834   3.584   1.852   4.461
  312SOL    HW1 1835   3.603   1.918   4.534
  312SOL    HW2 1836   3.547   1.901   4.382
  313SOL     OW 1837   3.439   4.172   2.290
  313SOL    HW1 1838   3.348   4.133   2.272
  313SOL    HW2 1839   3.429   4.262   2.330
  314SOL     OW 1840   2.585   4.558   6.147
  314SOL    HW1 1841   2.595   4.657   6.138
  314SOL    HW2 1842   2.517   4.537   6.217
  315SOL     OW 1843   0.693   2.926   3.989
  315SOL    HW1 1844   0.694   2.985   3.909
  315SOL    HW2 1845   0.614   2.949   4.047
  316SOL     OW 1846   3.449   0.348   4.546
  316SOL    HW1 1847   3.469   0.287   4.469
  316SOL    HW2 1848   3.377   0.412   4.520
  317SOL     OW 1849   6.984   1.959   1.182
  317SOL    HW1 1850   0.015   1.932   1.103
  317SOL    HW2 1851   6.910   2.019   1.151
  318SOL     OW 1852   0.240   6.616   6.679
  318SOL    HW1 1853   0.238   6.517   6.664
  318SOL    HW2 1854   0.278   6.635   6.770
  319SOL     OW 1855   6.636   1.333   3.808
  319SOL    HW1 1856   6.641   1.255   3.745
  319SOL    HW2 1857   6.583   1.406   3.767
  320SOL     OW 1858   5.429   2.507   0.050
  320SOL    HW1 1859   5.344   2.460   0.075
  320SOL    HW2 1860   5.430   2.599   0.089
  321SOL     OW 1861   3.715   2.067   0.079
  321SOL    HW1 1862   3.621   2.065   0.114
  321SOL    HW2 1863   3.712   2.075   7.003
  322SOL     OW 1864   2.972   3.204   4.097
  322SOL    HW1 1865   2.986   3.264   4.175
  322SOL    HW2 1866   2.916   3.126   4.124
  323SOL     OW 1867   1.202   2.510   5.885
  323SOL    HW1 1868   1.166   2.533   5.795
  323SOL    HW2 1869   1.242   2.419   5.883
  324SOL     OW 1870   3.111   0.132   3.041
  324SOL    HW1 1871   3.020   0.105   3.073
  324SOL    HW2 1872   3.123   0.231   3.055
  325SOL     OW 1873   0.442   2.769   1.790
  325SOL    HW1 1874   0.529   2.814   1.772
  325SOL    HW2 1875   0.402   2.739   1.703
  326SOL     OW 1876   1.111   4.061   6.354
  326SOL    HW1 1877   1.081   4.144   6.306
  326SOL    HW2 1878   1.034   3.998   6.362
  327SOL     OW 1879   1.778   4.754   2.239
  327SOL    HW1 1880   1.860   4.793   2.198
  327SOL    HW2 1881   1.766   4.791   2.331
  328SOL     OW 1882   1.326   5.751   1.975
  328SOL    HW1 1883   1.330   5.844   2.012
  328SOL    HW2 1884   1.377   5.748   1.889
  329SOL     OW 1885   2.888   3.502   5.427
  329SOL    HW1 1886   2.952   3.545   5.362
  329SOL    HW2 1887   2.856   3.415   5.390
  330SOL     OW 1888   3.070   6.397   1.433
  330SOL    HW1 1889   3.044   6.316   1.380
  330SOL    HW2 1890   3.039   6.479   1.385
  331SOL     OW 1891   4.130   5.568   0.722
  331SOL    HW1 1892   4.201   5.574   0.652
  331SOL    HW2 1893   4.049   5.523   0.683
  332SOL     OW 1894   5.083   2.766   5.565
  332SOL    HW1 1895   5.114   2.836   5.500
  332SOL    HW2 1896   5.153   2.695   5.572
  333SOL     OW 1897   4.295   0.987   5.593
  333SOL    HW1 1898   4.365   0.973   5.664
  333SOL    HW2 1899   4.286   1.085   5.576
  334SOL     OW 1900   3.588   1.528   0.334
  334SOL    HW1 1901   3.611   1.512   0.429
  334SOL    HW2 1902   3.537   1.449   0.298
  335SOL     OW 1903   4.275   0.148   6.292
  335SOL    HW1 1904   4.313   0.213   6.358
  335SOL    HW2 1905   4.199   0.098   6.334
  336SOL     OW 1906   2.915   1.170   3.285
  336SOL    HW1 1907   2.859   1.162   3.367
  336SOL    HW2 1908   3.000   1.217   3.307
  337SOL     OW 1909   0.135   3.442   6.197
  337SOL    HW1 1910   0.112   3.498   6.117
  337SOL    HW2 1911   0.100   3.487   6.279
  338SOL     OW 1912   2.772   2.263   1.153
  338SOL    HW1 1913   2.740   2.345   1.200
  338SOL    HW2 1914   2.752   2.271   1.055
  339SOL     OW 1915   4.580   5.826   4.847
  339SOL    HW1 1916   4.511   5.848   4.779
  339SOL    HW2 1917   4.633   5.907   4.870
  340SOL     OW 1918   5.402   3.763   4.824
  340SOL    HW1 1919   5.477   3.748   4.887
  340SOL    HW2 1920   5.315   3.751   4.871
  341SOL     OW 1921   6.118   6.700   4.314
  341SOL    HW1 1922   6.048   6.769   4.295
  341SOL    HW2 1923   6.145   6.705   4.410
  342SOL     OW 1924   5.620   3.811   0.475
  342SOL    HW1 1925   5.537   3.838   0.523
  342SOL    HW2 1926   5.624   3.857   0.386
  343SOL     OW 1927   1.148   5.677   1.393
  343SOL    HW1 1928   1.105   5.688   1.304
  343SOL    HW2 1929   1.161   5.579   1.412
  344SOL     OW 1930   1.082   3.445   1.639
  344SOL    HW1 1931   1.151   3.512   1.668
  344SOL    HW2 1932   1.086   3.365   1.698
  345SOL     OW 1933   5.485   2.327   3.686
  345SOL    HW1 1934   5.431   2.288   3.761
  345SOL    HW2 1935   5.540   2.403   3.721
  346SOL     OW 1936   1.915   1.182   2.784
  346SOL    HW1 1937   1.970   1.119   2.730
  346SOL    HW2 1938   1.840   1.133   2.828
  347SOL     OW 1939   2.943   5.697   0.014
  347SOL    HW1 1940   2.887   5.614   0.021
  347SOL    HW2 1941   3.002   5.704   0.095
  348SOL     OW 1942   5.090   4.247   2.655
  348SOL    HW1 1943   5.134   4.231   2.744
  348SOL    HW2 1944   5.107   4.169   2.595
  349SOL     OW 1945   0.146   4.872   0.814
  349SOL    HW1 1946   0.093   4.839   0.893
  349SOL    HW2 1947   0.214   4.938   0.846
  350SOL     OW 1948   2.926   2.072   0.844
  350SOL    HW1 1949   2.855   2.001   0.846
  350SOL    HW2 1950   3.004   2.043   0.900
  351SOL     OW 1951   2.955   3.695   0.790
  351SOL    HW1 1952   2.906   3.617   0.828
  351SOL    HW2 1953   2.976   3.678   0.694
  352SOL     OW 1954   3.105   6.945   3.578
  352SOL    HW1 1955   3.019   6.942   3.527
  352SOL    HW2 1956   3.115   6.862   3.633
  353SOL     OW 1957   2.909   0.203   6.905
  353SOL    HW1 1958   2.942   0.116   6.942
  353SOL    HW2 1959   2.819   0.223   6.944
  354SOL     OW 1960   4.248   2.915   0.927
  354SOL    HW1 1961   4.286   2.842   0.870
  354SOL    HW2 1962   4.202   2.875   1.006
  355SOL     OW 1963   1.603   4.077   2.968
  355SOL    HW1 1964   1.685   4.065   3.024
  355SOL    HW2 1965   1.550   3.992   2.969
  356SOL     OW 1966   1.999   0.326   5.890
  356SOL    HW1 1967   1.979   0.232   5.861
  356SOL    HW2 1968   2.026   0.326   5.987
  357SOL     OW 1969   6.985   6.558   5.317
  357SOL    HW1 1970   7.013   6.469   5.280
  357SOL    HW2 1971   0.025   6.629   5.288
  358SOL     OW 1972   4.552   6.573   0.733
  358SOL    HW1 1973   4.514   6.662   0.710
  358SOL    HW2 1974   4.484   6.520   0.785
  359SOL     OW 1975   2.933   2.065   1.571
  359SOL    HW1 1976   3.026   2.042   1.601
  359SOL    HW2 1977   2.885   2.113   1.644
  360SOL     OW 1978   1.278   4.087   5.762
  360SOL    HW1 1979   1.278   3.988   5.779
  360SOL    HW2 1980   1.184   4.118   5.746
  361SOL     OW 1981   6.640   6.147   2.610
  361SOL    HW1 1982   6.708   6.176   2.677
  361SOL    HW2 1983   6.583   6.075   2.650
  362SOL     OW 1984   3.442   2.718   1.553
  362SOL    HW1 1985   3.428   2.622   1.575
  362SOL    HW2 1986   3.499   2.761   1.624
  363SOL     OW 1987   5.834   4.237   2.941
  363SOL    HW1 1988   5.854   4.151   2.893
  363SOL    HW2 1989   5.781   4.297   2.881
  364SOL     OW 1990   6.307   4.817   6.727
  364SOL    HW1 1991   6.403   4.834   6.705
  364SOL    HW2 1992   6.291   4.719   6.734
  365SOL     OW 1993   5.318   6.971   1.947
  365SOL    HW1 1994   5.253   6.997   1.874
  365SOL    HW2 1995   5.411   6.995   1.918
  366SOL     OW 1996   5.537   0.756   6.837
  366SOL    HW1 1997   5.530   0.657   6.825
  366SOL    HW2 1998   5.473   0.802   6.776
  367SOL     OW 1999   5.892   2.618   1.234
  367SOL    HW1 2000   5.939   2.707   1.239
  367SOL    HW2 2001   5.835   2.606   1.316
  368SOL     OW 2002   0.318   2.624   5.517
  368SOL    HW1 2003   0.280   2.682   5.445
  368SOL    HW2 2004   0.381   2.677   5.574
  369SOL     OW 2005   6.023   5.117   2.534
  369SOL    HW1 2006   5.959   5.180   2.578
  369SOL    HW2 2007   6.090   5.086   2.601
  370SOL     OW 2008   1.445   1.705   5.129
  370SOL    HW1 2009   1.417   1.733   5.037
  370SOL    HW2 2010   1.421   1.610   5.144
  371SOL     OW 2011   1.615   4.693   5.604
  371SOL    HW1 2012   1.711   4.714   5.623
  371SOL    HW2 2013   1.566   4.776   5.579
  372SOL     OW 2014   1.548   6.752   6.414
  372SOL    HW1 2015   1.543   6.663   6.370
  372SOL    HW2 2016   1.457   6.795   6.412
  373SOL     OW 2017   5.917   6.622   4.630
  373SOL    HW1 2018   6.015   6.627   4.611
  373SOL    HW2 2019   5.883   6.712   4.657
  374SOL     OW 2020   2.663   1.776   3.942
  374SOL    HW1 2021   2.644   1.851   3.879
  374SOL    HW2 2022   2.655   1.688   3.894
  375SOL     OW 2023   0.985   4.798   3.874
  375SOL    HW1 2024   0.926   4.877   3.889
  375SOL    HW2 2025   1.037   4.778   3.957
  376SOL     OW 2026   2.500   1.019   5.386
  376SOL    HW1 2027   2.579   0.958   5.391
  376SOL    HW2 2028   2.523   1.101   5.333
  377SOL     OW 2029   1.130   1.777   1.154
  377SOL    HW1 2030   1.067   1.814   1.223
  377SOL    HW2 2031   1.086   1.701   1.106
  378SOL     OW 2032   4.672   2.411   6.320
  378SOL    HW1 2033   4.714   2.366   6.399
  378SOL    HW2 2034   4.686   2.354   6.239
  379SOL     OW 2035   5.964   2.504   1.784
  379SOL    HW1 2036   5.919   2.415   1.776
  379SOL    HW2 2037   6.063   2.491   1.789
  380SOL     OW 2038   2.994   1.189   0.588
  380SOL    HW1 2039   2.914   1.248   0.578
  380SOL    HW2 2040   3.007   1.167   0.685
  381SOL     OW 2041   1.580   4.347   2.954
  381SOL    HW1 2042   1.589   4.249   2.936
  381SOL    HW2 2043   1.547   4.393   2.872
  382SOL     OW 2044   6.068   0.474   7.001
  382SOL    HW1 2045   6.030   0.562   0.005
  382SOL    HW2 2046   6.133   0.487   6.926
  383SOL     OW 2047   3.988   4.023   6.658
  383SOL    HW1 2048   3.991   4.099   6.724
  383SOL    HW2 2049   4.060   3.957   6.681
  384SOL     OW 2050   6.861   5.230   3.990
  384SOL    HW1 2051   6.838   5.246   3.894
  384SOL    HW2 2052   6.960   5.242   4.003
  385SOL     OW 2053   3.092   4.719   5.240
  385SOL    HW1 2054   3.039   4.647   5.195
  385SOL    HW2 2055   3.123   4.685   5.329
  386SOL     OW 2056   2.779   6.898   4.772
  386SOL    HW1 2057   2.806   6.984   4.815
  386SOL    HW2 2058   2.684   6.904   4.741
  387SOL     OW 2059   1.301   6.602   2.278
  387SOL    HW1 2060   1.379   6.567   2.330
  387SOL    HW2 2061   1.264   6.528   2.221
  388SOL     OW 2062   1.204   1.814   5.597
  388SOL    HW1 2063   1.133   1.884   5.601
  388SOL    HW2 2064   1.268   1.835   5.523
  389SOL     OW 2065   3.842   3.518   1.584
  389SOL    HW1 2066   3.743   3.527   1.593
  389SOL    HW2 2067   3.885   3.608   1.589
  390SOL     OW 2068   3.098   1.641   1.984
  390SOL    HW1 2069   3.064   1.684   1.901
  390SOL    HW2 2070   3.023   1.594   2.031
  391SOL     OW 2071   2.204   2.706   6.869
  391SOL    HW1 2072   2.263   2.744   6.941
  391SOL    HW2 2073   2.239   2.616   6.842
  392SOL     OW 2074   1.621   4.153   0.664
  392SOL    HW1 2075   1.646   4.126   0.571
  392SOL    HW2 2076   1.703   4.170   0.718
  393SOL     OW 2077   1.489   4.703   6.585
  393SOL    HW1 2078   1.422   4.633   6.610
  393SOL    HW2 2079   1.581   4.663   6.587
  394SOL     OW 2080   6.826   1.811   0.183
  394SOL    HW1 2081   6.845   1.784   0.277
  394SOL    HW2 2082   6.792   1.733   0.131
  395SOL     OW 2083   4.936   3.833   2.977
  395SOL    HW1 2084   4.964   3.832   3.073
  395SOL    HW2 2085   5.016   3.852   2.920
  396SOL     OW 2086   3.348   4.089   1.664
  396SOL    HW1 2087   3.333   4.130   1.574
  396SOL    HW2 2088   3.388   3.998   1.653
  397SOL     OW 2089   6.030   1.710   5.515
  397SOL    HW1 2090   5.980   1.647   5.456
  397SOL    HW2 2091   5.992   1.705   5.608
  398SOL     OW 2092   1.028   6.723   1.982
  398SOL    HW1 2093   1.057   6.798   2.040
  398SOL    HW2 2094   0.986   6.651   2.038
  399SOL     OW 2095   6.329   5.834   2.335
  399SOL    HW1 2096   6.294   5.911   2.282
  399SOL    HW2 2097   6.425   5.818   2.310
  400SOL     OW 2098   6.187   6.480   5.658
  400SOL    HW1 2099   6.259   6.427   5.703
  400SOL    HW2 2100   6.226   6.529   5.579
  401SOL     OW 2101   5.934   0.696   6.223
  401SOL    HW1 2102   5.852   0.679   6.277
  401SOL    HW2 2103   6.013   0.701   6.284
  402SOL     OW 2104   5.799   0.203   3.560
  402SOL    HW1 2105   5.802   0.268   3.484
  402SOL    HW2 2106   5.763   0.116   3.528
  403SOL     OW 2107   3.597   2.153   4.396
  403SOL    HW1 2108   3.613   2.210   4.476
  403SOL    HW2 2109   3.501   2.158   4.370
  404SOL     OW 2110   1.556   4.925   3.837
  404SOL    HW1 2111   1.459   4.925   3.862
  404SOL    HW2 2112   1.591   5.019   3.839
  405SOL     OW 2113   1.494   3.558   2.321
  405SOL    HW1 2114   1.394   3.561   2.326
  405SOL    HW2 2115   1.528   3.646   2.288
  406SOL     OW 2116   1.064   4.016   4.592
  406SOL    HW1 2117   1.075   3.928   4.547
  406SOL    HW2 2118   1.133   4.025   4.665
  407SOL     OW 2119   1.552   0.996   4.334
  407SOL    HW1 2120   1.631   0.952   4.378
  407SOL    HW2 2121   1.535   1.084   4.376
  408SOL     OW 2122   1.148   2.470   3.056
  408SOL    HW1 2123   1.108   2.508   3.140
  408SOL    HW2 2124   1.202   2.389   3.079
  409SOL     OW 2125   0.081   2.872   1.732
  409SOL    HW1 2126   0.020   2.865   1.653
  409SOL    HW2 2127   0.027   2.869   1.816
  410SOL     OW 2128   2.005   1.256   0.825
  410SOL    HW1 2129   1.963   1.323   0.887
  410SOL    HW2 2130   2.048   1.183   0.879
  411SOL     OW 2131   5.908   6.957   1.809
  411SOL    HW1 2132   5.830   7.017   1.789
  411SOL    HW2 2133   5.923   6.896   1.731
  412SOL     OW 2134   3.957   5.825   3.952
  412SOL    HW1 2135   3.976   5.762   4.027
  412SOL    HW2 2136   3.901   5.779   3.883
  413SOL     OW 2137   5.139   3.665   1.427
  413SOL    HW1 2138   5.236   3.686   1.438
  413SOL    HW2 2139   5.098   3.649   1.517
  414SOL     OW 2140   3.811   5.272   3.739
  414SOL    HW1 2141   3.909   5.294   3.737
  414SOL    HW2 2142   3.785   5.242   3.830
  415SOL     OW 2143   1.035   5.872   6.889
  415SOL    HW1 2144   1.017   5.970   6.894
  415SOL    HW2 2145   1.088   5.852   6.806
  416SOL     OW 2146   4.722   6.607   4.313
  416SOL    HW1 2147   4.819   6.601   4.291
  416SOL    HW2 2148   4.670   6.548   4.251
  417SOL     OW 2149   2.396   5.584   6.422
  417SOL    HW1 2150   2.465   5.648   6.454
  417SOL    HW2 2151   2.371   5.605   6.328
  418SOL     OW 2152   4.361   6.181   0.181
  418SOL    HW1 2153   4.332   6.115   0.111
  418SOL    HW2 2154   4.306   6.169   0.263
  419SOL     OW 2155   2.243   6.892   1.421
  419SOL    HW1 2156   2.238   6.984   1.460
  419SOL    HW2 2157   2.274   6.828   1.491
  420SOL     OW 2158   5.792   1.293   0.161
  420SOL    HW1 2159   5.839   1.348   0.231
  420SOL    HW2 2160   5.695   1.318   0.159
  421SOL     OW 2161   6.980   4.376   5.519
  421SOL    HW1 2162   6.939   4.407   5.434
  421SOL    HW2 2163   6.980   4.451   5.585
  422SOL     OW 2164   5.799   3.645   1.634
  422SOL    HW1 2165   5.762   3.581   1.701
  422SOL    HW2 2166   5.778   3.612   1.542
  423SOL     OW 2167   0.653   1.999   6.153
  423SOL    HW1 2168   0.639   1.976   6.249
  423SOL    HW2 2169   0.691   1.921   6.104
  424SOL     OW 2170   1.818   5.451   0.714
  424SOL    HW1 2171   1.757   5.530   0.716
  424SOL    HW2 2172   1.849   5.430   0.807
  425SOL     OW 2173   4.773   1.622   3.634
  425SOL    HW1 2174   4.866   1.650   3.660
  425SOL    HW2 2175   4.775   1.582   3.542
  426SOL     OW 2176   3.485   2.049   4.697
  426SOL    HW1 2177   3.406   2.107   4.714
  426SOL    HW2 2178   3.462   1.954   4.719
  427SOL     OW 2179   5.648   6.198   3.725
  427SOL    HW1 2180   5.683   6.291   3.725
  427SOL    HW2 2181   5.554   6.198   3.690
  428SOL     OW 2182   4.250   0.462   4.030
  428SOL    HW1 2183   4.317   0.406   4.078
  428SOL    HW2 2184   4.296   0.539   3.986
  429SOL     OW 2185   1.186   4.563   1.193
  429SOL    HW1 2186   1.137   4.489   1.240
  429SOL    HW2 2187   1.279   4.571   1.230
  430SOL     OW 2188   0.793   0.353   4.737
  430SOL    HW1 2189   0.827   0.319   4.825
  430SOL    HW2 2190   0.861   0.414   4.697
  431SOL     OW 2191   2.509   0.306   0.915
  431SOL    HW1 2192   2.444   0.250   0.865
  431SOL    HW2 2193   2.602   0.286   0.883
  432SOL     OW 2194   6.358   1.643   0.709
  432SOL    HW1 2195   6.419   1.721   0.726
  432SOL    HW2 2196   6.266   1.677   0.687
  433SOL     OW 2197   2.119   6.518   4.894
  433SOL    HW1 2198   2.050   6.587   4.917
  433SOL    HW2 2199   2.153   6.476   4.979
  434SOL     OW 2200   3.389   5.137   2.990
  434SOL    HW1 2201   3.315   5.180   2.939
  434SOL    HW2 2202   3.472   5.193   2.983
  435SOL     OW 2203   4.961   3.018   6.612
  435SOL    HW1 2204   4.964   2.972   6.523
  435SOL    HW2 2205   4.996   2.956   6.682
  436SOL     OW 2206   3.360   6.015   1.900
  436SOL    HW1 2207   3.338   5.918   1.894
  436SOL    HW2 2208   3.456   6.029   1.873
  437SOL     OW 2209   0.795   1.483   0.095
  437SOL    HW1 2210   0.844   1.424   0.158
  437SOL    HW2 2211   0.767   1.431   0.015
  438SOL     OW 2212   2.268   4.173   3.480
  438SOL    HW1 2213   2.309   4.245   3.535
  438SOL    HW2 2214   2.201   4.213   3.417
  439SOL     OW 2215   5.798   5.300   2.591
  439SOL    HW1 2216   5.799   5.398   2.571
  439SOL    HW2 2217   5.749   5.251   2.519
  440SOL     OW 2218   2.035   1.769   4.696
  440SOL    HW1 2219   2.134   1.773   4.683
  440SOL    HW2 2220   1.992   1.738   4.611
  441SOL     OW 2221   0.457   3.233   4.109
  441SOL    HW1 2222   0.459   3.279   4.020
  441SOL    HW2 2223   0.402   3.286   4.173
  442SOL     OW 2224   4.260   5.518   5.515
  442SOL    HW1 2225   4.210   5.594   5.557
  442SOL    HW2 2226   4.326   5.554   5.449
  443SOL     OW 2227   5.899   4.593   3.717
  443SOL    HW1 2228   5.981   4.650   3.720
  443SOL    HW2 2229   5.851   4.607   3.630
  444SOL     OW 2230   4.635   0.721   6.758
  444SOL    HW1 2231   4.709   0.655   6.741
  444SOL    HW2 2232   4.547   0.676   6.746
  445SOL     OW 2233   0.810   5.779   2.898
  445SOL    HW1 2234   0.843   5.765   2.805
  445SOL    HW2 2235   0.755   5.700   2.927
  446SOL     OW 2236   3.357   5.068   3.983
  446SOL    HW1 2237   3.337   5.147   3.924
  446SOL    HW2 2238   3.272   5.027   4.014
  447SOL     OW 2239   0.545   2.774   6.454
  447SOL    HW1 2240   0.610   2.698   6.453
  447SOL    HW2 2241   0.453   2.739   6.471
  448SOL     OW 2242   1.834   0.445   3.653
  448SOL    HW1 2243   1.762   0.406   3.711
  448SOL    HW2 2244   1.794   0.518   3.597
  449SOL     OW 2245   2.893   0.880   3.630
  449SOL    HW1 2246   2.927   0.859   3.538
  449SOL    HW2 2247   2.833   0.806   3.661
  450SOL     OW 2248   1.341   4.895   2.969
  450SOL    HW1 2249   1.371   4.862   2.880
  450SOL    HW2 2250   1.302   4.987   2.959
  451SOL     OW 2251   1.143   2.575   3.974
  451SOL    HW1 2252   1.123   2.525   3.890
  451SOL    HW2 2253   1.060   2.580   4.030
  452SOL     OW 2254   5.327   6.657   0.183
  452SOL    HW1 2255   5.344   6.669   0.085
  452SOL    HW2 2256   5.400   6.700   0.235
  453SOL     OW 2257   4.495   0.336   6.317
  453SOL    HW1 2258   4.581   0.285   6.314
  453SOL    HW2 2259   4.493   0.403   6.244
  454SOL     OW 2260   6.878   4.328   5.882
  454SOL    HW1 2261   6.942   4.258   5.914
  454SOL    HW2 2262   6.929   4.406   5.848
  455SOL     OW 2263   5.779   2.167   4.076
  455SOL    HW1 2264   5.767   2.113   4.160
  455SOL    HW2 2265   5.811   2.106   4.003
  456SOL     OW 2266   6.981   6.827   3.561
  456SOL    HW1 2267   0.020   6.791   3.493
  456SOL    HW2 2268   6.893   6.847   3.518
  457SOL     OW 2269   1.989   2.523   4.010
  457SOL    HW1 2270   1.977   2.559   3.917
  457SOL    HW2 2271   1.958   2.591   4.076
  458SOL     OW 2272   4.190   5.733   3.206
  458SOL    HW1 2273   4.096   5.735   3.240
  458SOL    HW2 2274   4.190   5.700   3.111
  459SOL     OW 2275   1.737   6.873   5.890
  459SOL    HW1 2276   1.660   6.859   5.828
  459SOL    HW2 2277   1.802   6.797   5.880
  460SOL     OW 2278   2.612   6.771   4.422
  460SOL    HW1 2279   2.654   6.682   4.443
  460SOL    HW2 2280   2.520   6.775   4.462
  461SOL     OW 2281   0.003   6.000   5.906
  461SOL    HW1 2282   6.981   6.084   5.878
  461SOL    HW2 2283   0.083   5.985   5.847
  462SOL     OW 2284   4.121   3.588   6.905
  462SOL    HW1 2285   4.076   3.501   6.928
  462SOL    HW2 2286   4.055   3.663   6.914
  463SOL     OW 2287   5.592   5.950   3.456
  463SOL    HW1 2288   5.674   5.900   3.426
  463SOL    HW2 2289   5.517   5.885   3.470
  464SOL     OW 2290   2.611   1.473   5.752
  464SOL    HW1 2291   2.562   1.466   5.839
  464SOL    HW2 2292   2.545   1.489   5.678
  465SOL     OW 2293   0.622   2.770   0.484
  465SOL    HW1 2294   0.604   2.868   0.493
  465SOL    HW2 2295   0.695   2.756   0.416
  466SOL     OW 2296   1.656   6.169   3.634
  466SOL    HW1 2297   1.561   6.199   3.628
  466SOL    HW2 2298   1.702   6.219   3.707
  467SOL     OW 2299   1.852   0.930   0.546
  467SOL    HW1 2300   1.823   1.008   0.600
  467SOL    HW2 2301   1.911   0.871   0.602
  468SOL     OW 2302   3.906   6.625   5.664
  468SOL    HW1 2303   3.975   6.583   5.605
  468SOL    HW2 2304   3.952   6.681   5.734
  469SOL     OW 2305   3.020   3.445   6.711
  469SOL    HW1 2306   2.952   3.513   6.736
  469SOL    HW2 2307   3.009   3.364   6.769
  470SOL     OW 2308   4.710   6.496   1.399
  470SOL    HW1 2309   4.742   6.407   1.366
  470SOL    HW2 2310   4.615   6.487   1.431
  471SOL     OW 2311   2.243   2.577   3.799
  471SOL    HW1 2312   2.218   2.572   3.896
  471SOL    HW2 2313   2.214   2.665   3.762
  472SOL     OW 2314   4.159   3.857   6.766
  472SOL    HW1 2315   4.194   3.922   6.834
  472SOL    HW2 2316   4.225   3.782   6.755
  473SOL     OW 2317   1.294   2.404   2.606
  473SOL    HW1 2318   1.311   2.387   2.509
  473SOL    HW2 2319   1.284   2.317   2.654
  474SOL     OW 2320   5.453   5.703   4.758
  474SOL    HW1 2321   5.479   5.673   4.666
  474SOL    HW2 2322   5.415   5.626   4.809
  475SOL     OW 2323   6.135   1.543   6.550
  475SOL    HW1 2324   6.115   1.482   6.473
  475SOL    HW2 2325   6.116   1.496   6.635
  476SOL     OW 2326   0.405   3.377   2.584
  476SOL    HW1 2327   0.343   3.318   2.635
  476SOL    HW2 2328   0.480   3.322   2.547
  477SOL     OW 2329   2.687   6.399   3.072
  477SOL    HW1 2330   2.701   6.458   2.993
  477SOL    HW2 2331   2.759   6.415   3.140
  478SOL     OW 2332   3.733   6.635   2.864
  478SOL    HW1 2333   3.785   6.625   2.780
  478SOL    HW2 2334   3.787   6.600   2.941
  479SOL     OW 2335   3.973   2.326   6.180
  479SOL    HW1 2336   3.985   2.287   6.088
  479SOL    HW2 2337   4.040   2.399   6.193
  480SOL     OW 2338   2.638   0.574   0.243
  480SOL    HW1 2339   2.692   0.502   0.288
  480SOL    HW2 2340   2.541   0.559   0.260
  481SOL     OW 2341   2.100   6.582   1.579
  481SOL    HW1 2342   2.169   6.544   1.641
  481SOL    HW2 2343   2.078   6.515   1.509
  482SOL     OW 2344   4.068   4.771   2.342
  482SOL    HW1 2345   3.985   4.810   2.301
  482SOL    HW2 2346   4.112   4.711   2.275
  483SOL     OW 2347   6.562   2.321   2.806
  483SOL    HW1 2348   6.577   2.371   2.720
  483SOL    HW2 2349   6.472   2.279   2.805
  484SOL     OW 2350   1.681   3.202   5.171
  484SOL    HW1 2351   1.677   3.291   5.216
  484SOL    HW2 2352   1.728   3.212   5.083
  485SOL     OW 2353   4.042   5.227   2.728
  485SOL    HW1 2354   4.089   5.148   2.769
  485SOL    HW2 2355   4.080   5.311   2.765
  486SOL     OW 2356   6.487   1.619   0.255
  486SOL    HW1 2357   6.555   1.593   0.324
  486SOL    HW2 2358   6.472   1.718   0.258
  487SOL     OW 2359   0.965   0.610   3.021
  487SOL    HW1 2360   0.961   0.528   3.078
  487SOL    HW2 2361   1.028   0.594   2.945
  488SOL     OW 2362   0.950   1.331   2.035
  488SOL    HW1 2363   1.041   1.304   2.068
  488SOL    HW2 2364   0.951   1.429   2.013
  489SOL     OW 2365   4.323   5.796   5.612
  489SOL    HW1 2366   4.297   5.810   5.707
  489SOL    HW2 2367   4.304   5.879   5.560
  490SOL     OW 2368   0.698   6.017   3.212
  490SOL    HW1 2369   0.699   6.100   3.268
  490SOL    HW2 2370   0.732   6.038   3.120
  491SOL     OW 2371   1.495   3.982   1.975
  491SOL    HW1 2372   1.562   4.055   1.966
  491SOL    HW2 2373   1.541   3.894   1.972
  492SOL     OW 2374   1.349   0.631   5.441
  492SOL    HW1 2375   1.423   0.697   5.430
  492SOL    HW2 2376   1.266   0.667   5.399
  493SOL     OW 2377   4.177   6.732   5.479
  493SOL    HW1 2378   4.144   6.798   5.546
  493SOL    HW2 2379   4.168   6.639   5.516
  494SOL     OW 2380   0.840   6.442   0.044
  494SOL    HW1 2381   0.922   6.487   0.009
  494SOL    HW2 2382   0.846   6.344   0.026
  495SOL     OW 2383   4.413   6.077   3.631
  495SOL    HW1 2384   4.375   6.052   3.542
  495SOL    HW2 2385   4.438   5.994   3.681
  496SOL     OW 2386   5.262   2.873   2.034
  496SOL    HW1 2387   5.262   2.854   2.132
  496SOL    HW2 2388   5.169   2.895   2.004
  497SOL     OW 2389   2.860   2.010   4.775
  497SOL    HW1 2390   2.842   1.916   4.745
  497SOL    HW2 2391   2.907   2.008   4.863
  498SOL     OW 2392   0.724   4.414   1.583
  498SOL    HW1 2393   0.741   4.428   1.486
  498SOL    HW2 2394   0.625   4.412   1.600
  499SOL     OW 2395   1.438   5.432   3.989
  499SOL    HW1 2396   1.465   5.514   3.939
  499SOL    HW2 2397   1.446   5.449   4.087
  500SOL     OW 2398   6.939   1.850   5.858
  500SOL    HW1 2399   6.988   1.923   5.905
  500SOL    HW2 2400   6.984   1.762   5.878
  501SOL     OW 2401   3.230   0.522   0.682
  501SOL    HW1 2402   3.278   0.494   0.599
  501SOL    HW2 2403   3.255   0.460   0.757
  502SOL     OW 2404   1.008   3.618   6.003
  502SOL    HW1 2405   1.001   3.602   6.101
  502SOL    HW2 2406   1.087   3.677   5.985
  503SOL     OW 2407   6.797   4.863   6.989
  503SOL    HW1 2408   6.698   4.864   7.005
  503SOL    HW2 2409   6.821   4.938   6.927
  504SOL     OW 2410   0.940   5.068   2.406
  504SOL    HW1 2411   1.023   5.044   2.457
  504SOL    HW2 2412   0.914   4.992   2.346
  505SOL     OW 2413   2.955   5.926   4.620
  505SOL    HW1 2414   3.053   5.904   4.619
  505SOL    HW2 2415   2.942   6.020   4.648
  506SOL     OW 2416   3.446   4.940   4.226
  506SOL    HW1 2417   3.358   4.936   4.273
  506SOL    HW2 2418   3.436   4.993   4.142
  507SOL     OW 2419   2.897   6.965   3.408
  507SOL    HW1 2420   2.869   6.889   3.350
  507SOL    HW2 2421   2.889   0.027   3.357
  508SOL     OW 2422   7.008   3.521   2.986
  508SOL    HW1 2423   0.058   3.574   2.944
  508SOL    HW2 2424   6.982   3.562   3.073
  509SOL     OW 2425   2.884   1.221   1.581
  509SOL    HW1 2426   2.873   1.194   1.677
  509SOL    HW2 2427   2.968   1.273   1.571
  510SOL     OW 2428   6.076   4.139   6.755
  510SOL    HW1 2429   6.008   4.209   6.731
  510SOL    HW2 2430   6.104   4.090   6.673
  511SOL     OW 2431   0.740   2.450   6.033
  511SOL    HW1 2432   0.829   2.429   6.074
  511SOL    HW2 2433   0.753   2.474   5.936
  512SOL     OW 2434   0.215   2.871   6.451
  512SOL    HW1 2435   0.188   2.794   6.393
  512SOL    HW2 2436   0.211   2.844   6.547
  513SOL     OW 2437   5.857   6.435   3.407
  513SOL    HW1 2438   5.807   6.348   3.407
  513SOL    HW2 2439   5.801   6.505   3.361
  514SOL     OW 2440   6.373   0.949   4.447
  514SOL    HW1 2441   6.291   0.953   4.389
  514SOL    HW2 2442   6.353   0.988   4.536
  515SOL     OW 2443   1.108   6.095   0.851
  515SOL    HW1 2444   1.010   6.081   0.865
  515SOL    HW2 2445   1.139   6.039   0.774
  516SOL     OW 2446   2.824   4.757   2.246
  516SOL    HW1 2447   2.827   4.701   2.163
  516SOL    HW2 2448   2.917   4.788   2.268
  517SOL     OW 2449   4.208   5.238   1.582
  517SOL    HW1 2450   4.172   5.331   1.572
  517SOL    HW2 2451   4.165   5.195   1.662
  518SOL     OW 2452   2.480   2.086   3.381
  518SOL    HW1 2453   2.485   2.084   3.281
  518SOL    HW2 2454   2.394   2.043   3.410
  519SOL     OW 2455   0.584   6.088   4.055
  519SOL    HW1 2456   0.585   5.991   4.031
  519SOL    HW2 2457   0.586   6.098   4.154
  520SOL     OW 2458   5.857   3.736   0.134
  520SOL    HW1 2459   5.892   3.664   0.193
  520SOL    HW2 2460   5.932   3.799   0.110
  521SOL     OW 2461   6.083   6.152   5.080
  521SOL    HW1 2462   6.145   6.227   5.059
  521SOL    HW2 2463   5.994   6.189   5.109
  522SOL     OW 2464   3.297   3.275   4.439
  522SOL    HW1 2465   3.346   3.314   4.517
  522SOL    HW2 2466   3.300   3.175   4.445
  523SOL     OW 2467   0.985   5.477   1.731
  523SOL    HW1 2468   1.044   5.398   1.747
  523SOL    HW2 2469   0.975   5.492   1.633
  524SOL     OW 2470   0.286   2.004   2.350
  524SOL    HW1 2471   0.352   2.057   2.404
  524SOL    HW2 2472   0.329   1.919   2.321
  525SOL     OW 2473   1.798   4.111   5.781
  525SOL    HW1 2474   1.716   4.090   5.728
  525SOL    HW2 2475   1.841   4.194   5.744
  526SOL     OW 2476   3.775   5.513   4.166
  526SOL    HW1 2477   3.745   5.477   4.255
  526SOL    HW2 2478   3.709   5.581   4.135
  527SOL     OW 2479   6.185   3.147   0.494
  527SOL    HW1 2480   6.207   3.059   0.535
  527SOL    HW2 2481   6.268   3.190   0.459
  528SOL     OW 2482   1.346   2.830   3.717
  528SOL    HW1 2483   1.438   2.794   3.697
  528SOL    HW2 2484   1.280   2.756   3.711
  529SOL     OW 2485   1.479   6.009   4.637
  529SOL    HW1 2486   1.534   5.925   4.635
  529SOL    HW2 2487   1.447   6.030   4.545
  530SOL     OW 2488   3.300   3.713   3.774
  530SOL    HW1 2489   3.307   3.726   3.873
  530SOL    HW2 2490   3.249   3.789   3.733
  531SOL     OW 2491   0.640   2.044   2.796
  531SOL    HW1 2492   0.639   2.063   2.894
  531SOL    HW2 2493   0.722   2.084   2.755
  532SOL     OW 2494   0.745   3.086   6.950
  532SOL    HW1 2495   0.818   3.027   6.914
  532SOL    HW2 2496   0.714   3.050   0.014
  533SOL     OW 2497   4.196   6.631   3.999
  533SOL    HW1 2498   4.110   6.586   4.023
  533SOL    HW2 2499   4.183   6.687   3.917
  534SOL     OW 2500   5.223   6.361   2.288
  534SOL    HW1 2501   5.278   6.277   2.288
  534SOL    HW2 2502   5.252   6.420   2.212
  535SOL     OW 2503   6.903   3.439   4.762
  535SOL    HW1 2504   6.945   3.382   4.832
  535SOL    HW2 2505   6.832   3.387   4.714
  536SOL     OW 2506   6.174   4.672   2.603
  536SOL    HW1 2507   6.213   4.593   2.556
  536SOL    HW2 2508   6.098   4.709   2.549
  537SOL     OW 2509   2.354   6.621   4.833
  537SOL    HW1 2510   2.431   6.558   4.823
  537SOL    HW2 2511   2.269   6.570   4.842
  538SOL     OW 2512   1.576   5.156   4.162
  538SOL    HW1 2513   1.605   5.061   4.170
  538SOL    HW2 2514   1.538   5.171   4.071
  539SOL     OW 2515   1.856   5.718   1.189
  539SOL    HW1 2516   1.877   5.811   1.219
  539SOL    HW2 2517   1.926   5.686   1.125
  540SOL     OW 2518   1.427   1.512   2.942
  540SOL    HW1 2519   1.369   1.508   2.860
  540SOL    HW2 2520   1.380   1.565   3.013
  541SOL     OW 2521   4.832   5.129   3.793
  541SOL    HW1 2522   4.930   5.132   3.771
  541SOL    HW2 2523   4.820   5.100   3.888
  542SOL     OW 2524   5.564   5.993   6.675
  542SOL    HW1 2525   5.521   5.903   6.686
  542SOL    HW2 2526   5.514   6.045   6.605
  543SOL     OW 2527   0.562   3.027   4.253
  543SOL    HW1 2528   0.652   3.053   4.287
  543SOL    HW2 2529   0.520   3.105   4.206
  544SOL     OW 2530   2.325   4.829   6.925
  544SOL    HW1 2531   2.238   4.879   6.927
  544SOL    HW2 2532   2.398   4.889   6.956
  545SOL     OW 2533   3.239   1.511   1.647
  545SOL    HW1 2534   3.203   1.476   1.733
  545SOL    HW2 2535   3.321   1.565   1.664
  546SOL     OW 2536   2.292   3.021   0.577
  546SOL    HW1 2537   2.277   2.983   0.669
  546SOL    HW2 2538   2.206   3.061   0.543
  547SOL     OW 2539   3.270   1.155   0.449
  547SOL    HW1 2540   3.271   1.253   0.429
  547SOL    HW2 2541   3.188   1.132   0.501
  548SOL     OW 2542   3.398   3.603   2.255
  548SOL    HW1 2543   3.342   3.639   2.181
  548SOL    HW2 2544   3.346   3.604   2.341
  549SOL     OW 2545   5.455   3.338   1.176
  549SOL    HW1 2546   5.385   3.288   1.126
  549SOL    HW2 2547   5.412   3.388   1.252
  550SOL     OW 2548   0.857   5.618   4.014
  550SOL    HW1 2549   0.811   5.629   4.102
  550SOL    HW2 2550   0.953   5.595   4.030
  551SOL     OW 2551   1.407   0.419   2.091
  551SOL    HW1 2552   1.395   0.376   2.001
  551SOL    HW2 2553   1.363   0.508   2.091
  552SOL     OW 2554   6.294   4.545   6.924
  552SOL    HW1 2555   6.277   4.498   7.010
  552SOL    HW2 2556   6.207   4.580   6.887
  553SOL     OW 2557   3.187   6.207   2.774
  553SOL    HW1 2558   3.137   6.121   2.773
  553SOL    HW2 2559   3.281   6.192   2.803
  554SOL     OW 2560   5.852   6.565   6.918
  554SOL    HW1 2561   5.828   6.592   6.825
  554SOL    HW2 2562   5.943   6.523   6.918
  555SOL     OW 2563   1.949   4.643   4.324
  555SOL    HW1 2564   1.849   4.647   4.327
  555SOL    HW2 2565   1.981   4.573   4.387
  556SOL     OW 2566   4.175   2.088   3.821
  556SOL    HW1 2567   4.236   2.163   3.846
  556SOL    HW2 2568   4.224   2.001   3.833
  557SOL     OW 2569   0.311   5.530   0.817
  557SOL    HW1 2570   0.291   5.626   0.836
  557SOL    HW2 2571   0.404   5.522   0.780
  558SOL     OW 2572   2.899   3.624   3.727
  558SOL    HW1 2573   2.990   3.647   3.761
  558SOL    HW2 2574   2.849   3.573   3.796
  559SOL     OW 2575   6.610   6.171   0.540
  559SOL    HW1 2576   6.691   6.112   0.530
  559SOL    HW2 2577   6.602   6.199   0.636
  560SOL     OW 2578   5.282   4.499   6.243
  560SOL    HW1 2579   5.213   4.571   6.230
  560SOL    HW2 2580   5.264   4.425   6.178
  561SOL     OW 2581   0.843   1.491   1.571
  561SOL    HW1 2582   0.839   1.578   1.619
  561SOL    HW2 2583   0.935   1.452   1.580
  562SOL     OW 2584   4.902   0.627   5.846
  562SOL    HW1 2585   4.808   0.595   5.860
  562SOL    HW2 2586   4.956   0.552   5.807
  563SOL     OW 2587   2.420   0.371   3.641
  563SOL    HW1 2588   2.421   0.315   3.724
  563SOL    HW2 2589   2.485   0.446   3.651
  564SOL     OW 2590   1.750   1.879   6.891
  564SOL    HW1 2591   1.847   1.902   6.899
  564SOL    HW2 2592   1.711   1.928   6.813
  565SOL     OW 2593   3.057   2.888   5.464
  565SOL    HW1 2594   3.134   2.948   5.442
  565SOL    HW2 2595   2.971   2.933   5.442
  566SOL     OW 2596   6.570   5.224   3.354
  566SOL    HW1 2597   6.598   5.300   3.296
  566SOL    HW2 2598   6.645   5.197   3.413
  567SOL     OW 2599   2.898   2.719   1.202
  567SOL    HW1 2600   2.807   2.683   1.183
  567SOL    HW2 2601   2.913   2.721   1.301
  568SOL     OW 2602   5.054   0.745   6.991
  568SOL    HW1 2603   5.104   0.737   0.053
  568SOL    HW2 2604   4.956   0.741   7.009
  569SOL     OW 2605   1.772   3.177   6.623
  569SOL    HW1 2606   1.752   3.080   6.610
  569SOL    HW2 2607   1.688   3.227   6.640
  570SOL     OW 2608   3.325   6.685   6.664
  570SOL    HW1 2609   3.306   6.622   6.589
  570SOL    HW2 2610   3.248   6.687   6.727
  571SOL     OW 2611   3.198   7.014   2.004
  571SOL    HW1 2612   3.262   7.004   1.927
  571SOL    HW2 2613   3.238   6.975   2.086
  572SOL     OW 2614   2.362   4.913   5.421
  572SOL    HW1 2615   2.325   4.824   5.448
  572SOL    HW2 2616   2.460   4.916   5.442
  573SOL     OW 2617   5.551   1.576   5.595
  573SOL    HW1 2618   5.488   1.499   5.604
  573SOL    HW2 2619   5.567   1.595   5.498
  574SOL     OW 2620   3.435   1.840   4.210
  574SOL    HW1 2621   3.353   1.873   4.256
  574SOL    HW2 2622   3.447   1.888   4.123
  575SOL     OW 2623   4.941   4.142   6.815
  575SOL    HW1 2624   4.899   4.208   6.876
  575SOL    HW2 2625   5.025   4.106   6.857
  576SOL     OW 2626   0.774   2.208   2.643
  576SOL    HW1 2627   0.810   2.229   2.552
  576SOL    HW2 2628   0.812   2.273   2.710
  577SOL     OW 2629   1.375   1.098   2.803
  577SOL    HW1 2630   1.298   1.148   2.764
  577SOL    HW2 2631   1.364   1.000   2.785
  578SOL     OW 2632   5.880   6.030   3.678
  578SOL    HW1 2633   5.826   5.947   3.692
  578SOL    HW2 2634   5.820   6.110   3.685
  579SOL     OW 2635   1.923   2.881   2.837
  579SOL    HW1 2636   1.926   2.783   2.854
  579SOL    HW2 2637   2.010   2.922   2.867
  580SOL     OW 2638   5.833   5.305   0.544
  580SOL    HW1 2639   5.911   5.368   0.542
  580SOL    HW2 2640   5.748   5.357   0.538
  581SOL     OW 2641   2.615   3.390   1.406
  581SOL    HW1 2642   2.525   3.391   1.450
  581SOL    HW2 2643   2.649   3.296   1.400
  582SOL     OW 2644   4.306   6.834   1.670
  582SOL    HW1 2645   4.295   6.921   1.717
  582SOL    HW2 2646   4.291   6.847   1.572
  583SOL     OW 2647   2.925   5.448   5.729
  583SOL    HW1 2648   2.868   5.463   5.649
  583SOL    HW2 2649   2.894   5.366   5.778
  584SOL     OW 2650   3.010   4.481   6.306
  584SOL    HW1 2651   3.097   4.529   6.320
  584SOL    HW2 2652   3.006   4.400   6.363
  585SOL     OW 2653   5.468   2.837   6.368
  585SOL    HW1 2654   5.396   2.795   6.422
  585SOL    HW2 2655   5.429   2.907   6.308
  586SOL     OW 2656   3.918   1.445   6.145
  586SOL    HW1 2657   3.944   1.522   6.088
  586SOL    HW2 2658   3.819   1.435   6.145
  587SOL     OW 2659   4.232   1.788   5.336
  587SOL    HW1 2660   4.235   1.825   5.243
  587SOL    HW2 2661   4.320   1.801   5.380
  588SOL     OW 2662   1.728   4.170   1.901
  588SOL    HW1 2663   1.738   4.175   2.001
  588SOL    HW2 2664   1.818   4.158   1.859
  589SOL     OW 2665   3.082   4.590   1.421
  589SOL    HW1 2666   3.100   4.688   1.408
  589SOL    HW2 2667   3.065   4.547   1.332
  590SOL     OW 2668   4.941   3.274   3.428
  590SOL    HW1 2669   5.037   3.253   3.441
  590SOL    HW2 2670   4.890   3.256   3.512
  591SOL     OW 2671   3.587   5.422   3.693
  591SOL    HW1 2672   3.575   5.452   3.788
  591SOL    HW2 2673   3.678   5.384   3.681
  592SOL     OW 2674   3.318   1.047   1.263
  592SOL    HW1 2675   3.324   0.965   1.320
  592SOL    HW2 2676   3.410   1.074   1.234
  593SOL     OW 2677   4.649   2.643   3.189
  593SOL    HW1 2678   4.653   2.630   3.090
  593SOL    HW2 2679   4.685   2.734   3.212
  594SOL     OW 2680   6.340   2.081   6.973
  594SOL    HW1 2681   6.292   2.072   0.036
  594SOL    HW2 2682   6.379   1.993   6.947
  595SOL     OW 2683   5.869   6.796   3.407
  595SOL    HW1 2684   5.793   6.840   3.455
  595SOL    HW2 2685   5.930   6.753   3.473
  596SOL     OW 2686   1.229   4.769   3.312
  596SOL    HW1 2687   1.187   4.696   3.366
  596SOL    HW2 2688   1.326   4.746   3.296
  597SOL     OW 2689   3.536   0.410   0.196
  597SOL    HW1 2690   3.467   0.352   0.240
  597SOL    HW2 2691   3.518   0.506   0.218
  598SOL     OW 2692   4.462   4.961   5.321
  598SOL    HW1 2693   4.456   5.016   5.238
  598SOL    HW2 2694   4.434   5.016   5.399
  599SOL     OW 2695   2.495   6.109   2.207
  599SOL    HW1 2696   2.475   6.127   2.110
  599SOL    HW2 2697   2.591   6.132   2.226
  600SOL     OW 2698   0.494   1.278   0.044
  600SOL    HW1 2699   0.396   1.298   0.038
  600SOL    HW2 2700   0.543   1.360   0.074
  601SOL     OW 2701   2.601   0.099   4.487
  601SOL    HW1 2702   2.592   0.198   4.478
  601SOL    HW2 2703   2.646   0.062   4.405
  602SOL     OW 2704   1.668   2.917   6.579
  602SOL    HW1 2705   1.580   2.963   6.589
  602SOL    HW2 2706   1.676   2.844   6.646
  603SOL     OW 2707   2.612   2.044   4.643
  603SOL    HW1 2708   2.682   2.109   4.673
  603SOL    HW2 2709   2.521   2.085   4.656
  604SOL     OW 2710   1.214   3.329   1.881
  604SOL    HW1 2711   1.215   3.230   1.871
  604SOL    HW2 2712   1.238   3.354   1.975
  605SOL     OW 2713   6.617   6.688   1.931
  605SOL    HW1 2714   6.543   6.750   1.954
  605SOL    HW2 2715   6.595   6.596   1.964
  606SOL     OW 2716   4.428   0.235   6.804
  606SOL    HW1 2717   4.366   0.222   6.881
  606SOL    HW2 2718   4.376   0.272   6.726
  607SOL     OW 2719   6.643   6.662   6.035
  607SOL    HW1 2720   6.687   6.668   6.125
  607SOL    HW2 2721   6.710   6.683   5.964
  608SOL     OW 2722   3.233   6.268   6.118
  608SOL    HW1 2723   3.261   6.176   6.142
  608SOL    HW2 2724   3.302   6.333   6.150
  609SOL     OW 2725   3.942   3.282   3.159
  609SOL    HW1 2726   3.980   3.357   3.103
  609SOL    HW2 2727   3.983   3.285   3.250
  610SOL     OW 2728   5.002   3.346   2.441
  610SOL    HW1 2729   4.960   3.436   2.452
  610SOL    HW2 2730   5.035   3.336   2.347
  611SOL     OW 2731   3.852   6.992   0.887
  611SOL    HW1 2732   3.766   0.017   0.871
  611SOL    HW2 2733   3.926   0.034   0.900
  612SOL     OW 2734   4.107   6.971   5.679
  612SOL    HW1 2735   4.082   0.010   5.605
  612SOL    HW2 2736   4.167   7.018   5.744
  613SOL     OW 2737   3.988   6.803   5.852
  613SOL    HW1 2738   4.030   6.813   5.941
  613SOL    HW2 2739   4.021   6.875   5.791
  614SOL     OW 2740   4.704   4.797   1.257
  614SOL    HW1 2741   4.637   4.869   1.277
  614SOL    HW2 2742   4.769   4.790   1.333
  615SOL     OW 2743   6.709   2.620   1.743
  615SOL    HW1 2744   6.736   2.716   1.748
  615SOL    HW2 2745   6.736   2.573   1.827
  616SOL     OW 2746   0.317   1.710   3.837
  616SOL    HW1 2747   0.379   1.668   3.770
  616SOL    HW2 2748   0.228   1.727   3.795
  617SOL     OW 2749   6.520   4.287   6.523
  617SOL    HW1 2750   6.605   4.331   6.493
  617SOL    HW2 2751   6.497   4.319   6.615
  618SOL     OW 2752   6.410   2.591   6.405
  618SOL    HW1 2753   6.438   2.585   6.501
  618SOL    HW2 2754   6.328   2.647   6.398
  619SOL     OW 2755   4.310   0.962   6.780
  619SOL    HW1 2756   4.339   0.905   6.702
  619SOL    HW2 2757   4.217   0.938   6.807
  620SOL     OW 2758   4.530   3.278   1.583
  620SOL    HW1 2759   4.441   3.297   1.625
  620SOL    HW2 2760   4.583   3.217   1.641
  621SOL     OW 2761   2.853   5.791   6.818
  621SOL    HW1 2762   2.892   5.740   6.895
  621SOL    HW2 2763   2.872   5.888   6.829
  622SOL     OW 2764   1.542   0.898   5.055
  622SOL    HW1 2765   1.581   0.988   5.031
  622SOL    HW2 2766   1.454   0.911   5.100
  623SOL     OW 2767   0.662   5.722   6.052
  623SOL    HW1 2768   0.757   5.716   6.021
  623SOL    HW2 2769   0.616   5.634   6.037
  624SOL     OW 2770   0.058   2.061   1.852
  624SOL    HW1 2771   0.122   2.045   1.928
  624SOL    HW2 2772   0.027   1.973   1.815
  625SOL     OW 2773   1.389   1.840   2.001
  625SOL    HW1 2774   1.296   1.828   1.967
  625SOL    HW2 2775   1.436   1.909   1.947
  626SOL     OW 2776   1.059   5.989   3.260
  626SOL    HW1 2777   1.024   5.935   3.183
  626SOL    HW2 2778   1.090   6.078   3.227
  627SOL     OW 2779   6.195   6.186   0.810
  627SOL    HW1 2780   6.269   6.128   0.776
  627SOL    HW2 2781   6.108   6.152   0.776
  628SOL     OW 2782   5.682   5.593   5.727
  628SOL    HW1 2783   5.725   5.668   5.677
  628SOL    HW2 2784   5.649   5.524   5.663
  629SOL     OW 2785   0.138   1.028   6.762
  629SOL    HW1 2786   0.129   1.053   6.665
  629SOL    HW2 2787   0.233   1.004   6.781
  630SOL     OW 2788   0.468   1.531   1.296
  630SOL    HW1 2789   0.434   1.624   1.313
  630SOL    HW2 2790   0.409   1.486   1.229
  631SOL     OW 2791   4.336   0.758   5.153
  631SOL    HW1 2792   4.301   0.818   5.225
  631SOL    HW2 2793   4.410   0.702   5.189
  632SOL     OW 2794   3.698   1.367   1.398
  632SOL    HW1 2795   3.722   1.451   1.348
  632SOL    HW2 2796   3.610   1.380   1.444
  633SOL     OW 2797   3.291   3.555   6.808
  633SOL    HW1 2798   3.224   3.500   6.759
  633SOL    HW2 2799   3.372   3.499   6.826
  634SOL     OW 2800   4.041   3.413   2.255
  634SOL    HW1 2801   4.085   3.341   2.201
  634SOL    HW2 2802   4.044   3.499   2.204
  635SOL     OW 2803   4.576   5.653   0.600
  635SOL    HW1 2804   4.639   5.725   0.629
  635SOL    HW2 2805   4.548   5.599   0.678
  636SOL     OW 2806   2.498   6.312   0.212
  636SOL    HW1 2807   2.426   6.358   0.159
  636SOL    HW2 2808   2.586   6.356   0.194
  637SOL     OW 2809   0.001   3.247   2.913
  637SOL    HW1 2810   7.013   3.344   2.935
  637SOL    HW2 2811   7.021   3.193   2.998
  638SOL     OW 2812   6.049   2.234   3.954
  638SOL    HW1 2813   5.962   2.266   3.992
  638SOL    HW2 2814   6.057   2.265   3.859
  639SOL     OW 2815   4.887   3.524   3.308
  639SOL    HW1 2816   4.904   3.432   3.342
  639SOL    HW2 2817   4.860   3.520   3.212
  640SOL     OW 2818   0.503   5.409   4.215
  640SOL    HW1 2819   0.460   5.352   4.285
  640SOL    HW2 2820   0.565   5.354   4.160
  641SOL     OW 2821   0.157   4.779   4.928
  641SOL    HW1 2822   0.176   4.754   5.023
  641SOL    HW2 2823   0.236   4.757   4.872
  642SOL     OW 2824   6.776   2.916   4.096
  642SOL    HW1 2825   6.791   2.947   4.003
  642SOL    HW2 2826   6.864   2.910   4.144
  643SOL     OW 2827   5.959   5.425   5.713
  643SOL    HW1 2828   5.873   5.467   5.742
  643SOL    HW2 2829   6.009   5.489   5.654
  644SOL     OW 2830   1.583   6.656   4.373
  644SOL    HW1 2831   1.552   6.626   4.283
  644SOL    HW2 2832   1.683   6.656   4.377
  645SOL     OW 2833   4.421   0.665   4.647
  645SOL    HW1 2834   4.413   0.585   4.587
  645SOL    HW2 2835   4.402   0.748   4.594
  646SOL     OW 2836   3.371   0.830   4.610
  646SOL    HW1 2837   3.390   0.872   4.522
  646SOL    HW2 2838   3.458   0.804   4.654
  647SOL     OW 2839   5.597   1.683   5.330
  647SOL    HW1 2840   5.501   1.703   5.314
  647SOL    HW2 2841   5.654   1.754   5.287
  648SOL     OW 2842   0.548   3.392   3.114
  648SOL    HW1 2843   0.517   3.398   3.019
  648SOL    HW2 2844   0.468   3.385   3.175
  649SOL     OW 2845   2.875   4.250   0.593
  649SOL    HW1 2846   2.903   4.299   0.511
  649SOL    HW2 2847   2.794   4.196   0.574
  650SOL     OW 2848   5.745   4.396   0.245
  650SOL    HW1 2849   5.748   4.308   0.293
  650SOL    HW2 2850   5.751   4.470   0.312
  651SOL     OW 2851   0.674   6.315   6.317
  651SOL    HW1 2852   0.633   6.227   6.340
  651SOL    HW2 2853   0.609   6.369   6.264
  652SOL     OW 2854   4.891   0.682   3.969
  652SOL    HW1 2855   4.844   0.602   3.933
  652SOL    HW2 2856   4.862   0.764   3.919
  653SOL     OW 2857   0.687   5.441   6.405
  653SOL    HW1 2858   0.600   5.393   6.418
  653SOL    HW2 2859   0.684   5.530   6.452
  654SOL     OW 2860   0.493   4.617   6.381
  654SOL    HW1 2861   0.412   4.595   6.326
  654SOL    HW2 2862   0.575   4.611   6.324
  655SOL     OW 2863   0.348   5.776   1.651
  655SOL    HW1 2864   0.352   5.690   1.701
  655SOL    HW2 2865   0.259   5.819   1.666
  656SOL     OW 2866   1.763   6.390   1.584
  656SOL    HW1 2867   1.678   6.336   1.581
  656SOL    HW2 2868   1.775   6.438   1.498
  657SOL     OW 2869   2.240   3.750   1.748
  657SOL    HW1 2870   2.232   3.729   1.651
  657SOL    HW2 2871   2.286   3.675   1.795
  658SOL     OW 2872   2.386   4.172   6.821
  658SOL    HW1 2873   2.433   4.232   6.757
  658SOL    HW2 2874   2.452   4.112   6.866
  659SOL     OW 2875   1.332   5.338   5.551
  659SOL    HW1 2876   1.239   5.373   5.539
  659SOL    HW2 2877   1.358   5.343   5.647
  660SOL     OW 2878   5.505   3.617   2.593
  660SOL    HW1 2879   5.469   3.524   2.598
  660SOL    HW2 2880   5.558   3.637   2.675
  661SOL     OW 2881   5.102   4.753   3.136
  661SOL    HW1 2882   5.101   4.710   3.227
  661SOL    HW2 2883   5.105   4.682   3.066
  662SOL     OW 2884   4.008   0.624   4.425
  662SOL    HW1 2885   4.082   0.653   4.365
  662SOL    HW2 2886   4.033   0.540   4.472
  663SOL     OW 2887   1.655   3.939   0.121
  663SOL    HW1 2888   1.746   3.952   0.160
  663SOL    HW2 2889   1.652   3.979   0.029
  664SOL     OW 2890   0.013   4.929   6.628
  664SOL    HW1 2891   0.103   4.886   6.618
  664SOL    HW2 2892   6.970   4.879   6.572
  665SOL     OW 2893   4.532   4.963   1.033
  665SOL    HW1 2894   4.507   4.866   1.040
  665SOL    HW2 2895   4.559   4.996   1.123
  666SOL     OW 2896   4.779   1.988   2.936
  666SOL    HW1 2897   4.685   1.992   2.902
  666SOL    HW2 2898   4.831   1.921   2.884
  667SOL     OW 2899   6.377   3.616   4.037
  667SOL    HW1 2900   6.328   3.585   4.119
  667SOL    HW2 2901   6.377   3.543   3.969
  668SOL     OW 2902   4.592   5.878   6.674
  668SOL    HW1 2903   4.609   5.780   6.664
  668SOL    HW2 2904   4.533   5.910   6.600
  669SOL     OW 2905   3.840   6.318   3.773
  669SOL    HW1 2906   3.762   6.376   3.748
  669SOL    HW2 2907   3.900   6.307   3.694
  670SOL     OW 2908   2.601   3.063   1.140
  670SOL    HW1 2909   2.552   2.983   1.175
  670SOL    HW2 2910   2.688   3.074   1.189
  671SOL     OW 2911   2.246   5.937   0.653
  671SOL    HW1 2912   2.256   5.905   0.747
  671SOL    HW2 2913   2.224   6.035   0.654
  672SOL     OW 2914   1.252   4.830   2.195
  672SOL    HW1 2915   1.294   4.907   2.244
  672SOL    HW2 2916   1.313   4.751   2.201
  673SOL     OW 2917   0.444   0.631   1.277
  673SOL    HW1 2918   0.346   0.621   1.258
  673SOL    HW2 2919   0.461   0.723   1.312
  674SOL     OW 2920   0.205   3.135   4.738
  674SOL    HW1 2921   0.159   3.201   4.797
  674SOL    HW2 2922   0.285   3.178   4.696
  675SOL     OW 2923   0.936   0.429   4.001
  675SOL    HW1 2924   0.860   0.462   4.057
  675SOL    HW2 2925   0.927   0.331   3.986
  676SOL     OW 2926   4.399   6.357   2.833
  676SOL    HW1 2927   4.492   6.328   2.810
  676SOL    HW2 2928   4.351   6.383   2.749
  677SOL     OW 2929   6.559   1.583   6.829
  677SOL    HW1 2930   6.483   1.527   6.861
  677SOL    HW2 2931   6.553   1.594   6.730
  678SOL     OW 2932   1.682   1.173   5.124
  678SOL    HW1 2933   1.666   1.229   5.205
  678SOL    HW2 2934   1.772   1.130   5.130
  679SOL     OW 2935   4.206   1.704   4.150
  679SOL    HW1 2936   4.262   1.776   4.190
  679SOL    HW2 2937   4.183   1.728   4.055
  680SOL     OW 2938   5.893   5.216   5.543
  680SOL    HW1 2939   5.824   5.187   5.609
  680SOL    HW2 2940   5.953   5.284   5.585
  681SOL     OW 2941   5.334   5.639   1.541
  681SOL    HW1 2942   5.392   5.592   1.474
  681SOL    HW2 2943   5.369   5.623   1.633
  682SOL     OW 2944   1.504   0.939   0.351
  682SOL    HW1 2945   1.550   0.938   0.440
  682SOL    HW2 2946   1.557   0.995   0.287
  683SOL     OW 2947   3.633   3.075   6.958
  683SOL    HW1 2948   3.534   3.059   6.956
  683SOL    HW2 2949   3.680   2.989   6.976
  684SOL     OW 2950   0.055   0.896   0.165
  684SOL    HW1 2951   6.985   0.878   0.135
  684SOL    HW2 2952   0.089   0.818   0.216
  685SOL     OW 2953   4.706   1.423   3.998
  685SOL    HW1 2954   4.786   1.379   3.957
  685SOL    HW2 2955   4.696   1.393   4.093
  686SOL     OW 2956   5.491   2.142   4.164
  686SOL    HW1 2957   5.572   2.195   4.187
  686SOL    HW2 2958   5.431   2.196   4.105
  687SOL     OW 2959   0.249   2.290   4.389
  687SOL    HW1 2960   0.304   2.355   4.442
  687SOL    HW2 2961   0.307   2.212   4.363
  688SOL     OW 2962   0.743   2.372   0.328
  688SOL    HW1 2963   0.709   2.292   0.378
  688SOL    HW2 2964   0.786   2.435   0.393
  689SOL     OW 2965   0.121   4.129   6.216
  689SOL    HW1 2966   0.047   4.064   6.202
  689SOL    HW2 2967   0.209   4.082   6.213
  690SOL     OW 2968   0.634   4.119   3.125
  690SOL    HW1 2969   0.552   4.135   3.181
  690SOL    HW2 2970   0.715   4.133   3.182
  691SOL     OW 2971   2.645   0.287   6.315
  691SOL    HW1 2972   2.656   0.385   6.326
  691SOL    HW2 2973   2.713   0.239   6.369
  692SOL     OW 2974   3.665   5.672   3.910
  692SOL    HW1 2975   3.589   5.617   3.943
  692SOL    HW2 2976   3.722   5.618   3.848
  693SOL     OW 2977   6.311   0.700   3.477
  693SOL    HW1 2978   6.319   0.703   3.577
  693SOL    HW2 2979   6.394   0.739   3.437
  694SOL     OW 2980   4.439   6.128   2.422
  694SOL    HW1 2981   4.469   6.149   2.514
  694SOL    HW2 2982   4.353   6.176   2.403
  695SOL     OW 2983   4.154   5.936   4.828
  695SOL    HW1 2984   4.062   5.976   4.827
  695SOL    HW2 2985   4.188   5.935   4.922
  696SOL     OW 2986   3.972   5.068   2.413
  696SOL    HW1 2987   3.929   5.120   2.487
  696SOL    HW2 2988   3.910   4.996   2.382
  697SOL     OW 2989   2.152   3.058   3.400
  697SOL    HW1 2990   2.056   3.032   3.407
  697SOL    HW2 2991   2.193   3.016   3.320
  698SOL     OW 2992   5.808   6.305   0.133
  698SOL    HW1 2993   5.784   6.300   0.036
  698SOL    HW2 2994   5.908   6.314   0.141
  699SOL     OW 2995   2.029   3.696   6.263
  699SOL    HW1 2996   2.090   3.628   6.304
  699SOL    HW2 2997   2.034   3.781   6.315
  700SOL     OW 2998   2.383   1.502   3.206
  700SOL    HW1 2999   2.306   1.439   3.218
  700SOL    HW2 3000   2.446   1.466   3.138
  701SOL     OW 3001   5.813   3.597   5.072
  701SOL    HW1 3002   5.837   3.506   5.038
  701SOL    HW2 3003   5.896   3.644   5.101
  702SOL     OW 3004   0.679   6.428   5.823
  702SOL    HW1 3005   0.711   6.334   5.833
  702SOL    HW2 3006   0.580   6.431   5.836
  703SOL     OW 3007   3.618   3.919   6.352
  703SOL    HW1 3008   3.654   3.855   6.284
  703SOL    HW2 3009   3.612   3.873   6.440
  704SOL     OW 3010   1.608   1.773   0.073
  704SOL    HW1 3011   1.671   1.815   0.007
  704SOL    HW2 3012   1.652   1.693   0.114
  705SOL     OW 3013   6.489   5.921   2.643
  705SOL    HW1 3014   6.522   5.855   2.574
  705SOL    HW2 3015   6.391   5.938   2.628
  706SOL     OW 3016   4.558   2.368   4.180
  706SOL    HW1 3017   4.650   2.363   4.219
  706SOL    HW2 3018   4.494   2.398   4.250
  707SOL     OW 3019   5.014   6.830   2.384
  707SOL    HW1 3020   5.003   6.732   2.402
  707SOL    HW2 3021   5.083   6.843   2.313
  708SOL     OW 3022   3.982   0.365   1.591
  708SOL    HW1 3023   4.080   0.366   1.571
  708SOL    HW2 3024   3.954   0.272   1.617
  709SOL     OW 3025   1.108   5.251   1.330
  709SOL    HW1 3026   1.100   5.211   1.421
  709SOL    HW2 3027   1.178   5.201   1.278
  710SOL     OW 3028   3.602   2.908   2.685
  710SOL    HW1 3029   3.507   2.913   2.716
  710SOL    HW2 3030   3.648   2.832   2.731
  711SOL     OW 3031   6.765   2.571   5.175
  711SOL    HW1 3032   6.703   2.507   5.131
  711SOL    HW2 3033   6.790   2.536   5.266
  712SOL     OW 3034   3.966   3.436   1.287
  712SOL    HW1 3035   4.043   3.498   1.268
  712SOL    HW2 3036   3.937   3.447   1.381
  713SOL     OW 3037   4.135   2.569   6.199
  713SOL    HW1 3038   4.178   2.577   6.289
  713SOL    HW2 3039   4.172   2.640   6.138
  714SOL     OW 3040   6.691   4.383   3.906
  714SOL    HW1 3041   6.676   4.296   3.953
  714SOL    HW2 3042   6.750   4.441   3.960
  715SOL     OW 3043   5.518   5.668   0.330
  715SOL    HW1 3044   5.480   5.722   0.405
  715SOL    HW2 3045   5.582   5.725   0.277
  716SOL     OW 3046   0.875   0.006   1.024
  716SOL    HW1 3047   0.777   7.014   1.037
  716SOL    HW2 3048   0.888   0.090   0.970
  717SOL     OW 3049   6.134   4.694   5.638
  717SOL    HW1 3050   6.069   4.702   5.715
  717SOL    HW2 3051   6.084   4.671   5.555
  718SOL     OW 3052   5.063   2.314   6.033
  718SOL    HW1 3053   5.099   2.222   6.016
  718SOL    HW2 3054   5.139   2.377   6.047
  719SOL     OW 3055   6.473   0.482   1.678
  719SOL    HW1 3056   6.496   0.578   1.693
  719SOL    HW2 3057   6.455   0.439   1.766
  720SOL     OW 3058   3.671   1.196   6.123
  720SOL    HW1 3059   3.589   1.139   6.137
  720SOL    HW2 3060   3.650   1.267   6.056
  721SOL     OW 3061   2.977   0.960   4.103
  721SOL    HW1 3062   2.975   1.050   4.059
  721SOL    HW2 3063   2.971   0.972   4.202
  722SOL     OW 3064   2.702   1.032   4.705
  722SOL    HW1 3065   2.639   0.991   4.640
  722SOL    HW2 3066   2.680   1.000   4.798
  723SOL     OW 3067   1.766   3.661   3.153
  723SOL    HW1 3068   1.833   3.598   3.114
  723SOL    HW2 3069   1.795   3.755   3.135
  724SOL     OW 3070   0.953   3.051   4.006
  724SOL    HW1 3071   0.870   2.995   4.003
  724SOL    HW2 3072   1.028   3.002   3.961
  725SOL     OW 3073   3.172   5.708   0.412
  725SOL    HW1 3074   3.139   5.628   0.363
  725SOL    HW2 3075   3.264   5.691   0.445
  726SOL     OW 3076   3.886   4.916   1.020
  726SOL    HW1 3077   3.844   4.827   1.042
  726SOL    HW2 3078   3.985   4.909   1.029
  727SOL     OW 3079   5.617   4.429   5.695
  727SOL    HW1 3080   5.706   4.471   5.713
  727SOL    HW2 3081   5.626   4.359   5.624
  728SOL     OW 3082   6.693   3.283   4.637
  728SOL    HW1 3083   6.600   3.248   4.652
  728SOL    HW2 3084   6.702   3.312   4.542
  729SOL     OW 3085   1.429   1.783   0.957
  729SOL    HW1 3086   1.393   1.852   1.020
  729SOL    HW2 3087   1.395   1.800   0.865
  730SOL     OW 3088   5.978   0.993   3.648
  730SOL    HW1 3089   6.017   0.901   3.652
  730SOL    HW2 3090   5.907   1.002   3.718
  731SOL     OW 3091   5.975   4.426   6.105
  731SOL    HW1 3092   5.880   4.430   6.139
  731SOL    HW2 3093   5.985   4.487   6.027
  732SOL     OW 3094   6.456   2.373   1.587
  732SOL    HW1 3095   6.379   2.429   1.556
  732SOL    HW2 3096   6.538   2.429   1.595
  733SOL     OW 3097   5.784   6.418   5.566
  733SOL    HW1 3098   5.764   6.515   5.569
  733SOL    HW2 3099   5.861   6.401   5.504
  734SOL     OW 3100   6.964   4.772   3.066
  734SOL    HW1 3101   6.948   4.859   3.114
  734SOL    HW2 3102   6.951   4.786   2.968
  735SOL     OW 3103   3.820   1.841   0.513
  735SOL    HW1 3104   3.775   1.802   0.593
  735SOL    HW2 3105   3.759   1.835   0.434
  736SOL     OW 3106   0.775   0.878   3.568
  736SOL    HW1 3107   0.807   0.888   3.474
  736SOL    HW2 3108   0.847   0.905   3.632
  737SOL     OW 3109   4.821   1.974   5.416
  737SOL    HW1 3110   4.855   1.893   5.464
  737SOL    HW2 3111   4.848   2.056   5.467
  738SOL     OW 3112   1.977   4.118   1.752
  738SOL    HW1 3113   1.940   4.135   1.661
  738SOL    HW2 3114   2.056   4.178   1.767
  739SOL     OW 3115   4.330   0.167   4.250
  739SOL    HW1 3116   4.295   0.173   4.157
  739SOL    HW2 3117   4.427   0.143   4.248
  740SOL     OW 3118   6.007   0.543   1.381
  740SOL    HW1 3119   5.987   0.471   1.448
  740SOL    HW2 3120   5.927   0.559   1.324
  741SOL     OW 3121   2.453   6.360   3.202
  741SOL    HW1 3122   2.414   6.276   3.163
  741SOL    HW2 3123   2.524   6.395   3.141
  742SOL     OW 3124   2.545   6.851   2.423
  742SOL    HW1 3125   2.575   6.791   2.348
  742SOL    HW2 3126   2.624   6.883   2.474
  743SOL     OW 3127   0.259   3.614   3.622
  743SOL    HW1 3128   0.255   3.515   3.620
  743SOL    HW2 3129   0.352   3.645   3.599
  744SOL     OW 3130   5.810   0.466   6.810
  744SOL    HW1 3131   5.718   0.439   6.839
  744SOL    HW2 3132   5.878   0.410   6.857
  745SOL     OW 3133   1.176   5.776   5.094
  745SOL    HW1 3134   1.103   5.747   5.032
  745SOL    HW2 3135   1.245   5.704   5.100
  746SOL     OW 3136   0.029   4.340   6.464
  746SOL    HW1 3137   6.975   4.294   6.506
  746SOL    HW2 3138   0.033   4.316   6.367
  747SOL     OW 3139   3.550   6.375   4.377
  747SOL    HW1 3140   3.648   6.372   4.356
  747SOL    HW2 3141   3.529   6.307   4.447
  748SOL     OW 3142   3.702   5.289   2.310
  748SOL    HW1 3143   3.621   5.279   2.368
  748SOL    HW2 3144   3.677   5.268   2.216
  749SOL     OW 3145   6.121   4.504   4.819
  749SOL    HW1 3146   6.076   4.583   4.861
  749SOL    HW2 3147   6.208   4.532   4.780
  750SOL     OW 3148   1.519   1.705   1.436
  750SOL    HW1 3149   1.526   1.693   1.535
  750SOL    HW2 3150   1.426   1.681   1.407
  751SOL     OW 3151   4.283   2.316   6.772
  751SOL    HW1 3152   4.225   2.389   6.809
  751SOL    HW2 3153   4.359   2.299   6.835
  752SOL     OW 3154   3.554   1.122   2.569
  752SOL    HW1 3155   3.562   1.127   2.669
  752SOL    HW2 3156   3.459   1.139   2.543
  753SOL     OW 3157   1.981   3.306   5.220
  753SOL    HW1 3158   1.933   3.346   5.142
  753SOL    HW2 3159   2.069   3.353   5.232
  754SOL     OW 3160   4.865   2.655   5.327
  754SOL    HW1 3161   4.795   2.681   5.260
  754SOL    HW2 3162   4.956   2.672   5.288
  755SOL     OW 3163   1.288   4.282   5.427
  755SOL    HW1 3164   1.243   4.366   5.396
  755SOL    HW2 3165   1.371   4.307   5.479
  756SOL     OW 3166   3.175   6.410   0.185
  756SOL    HW1 3167   3.119   6.449   0.112
  756SOL    HW2 3168   3.239   6.344   0.146
  757SOL     OW 3169   0.629   0.632   3.521
  757SOL    HW1 3170   0.659   0.728   3.523
  757SOL    HW2 3171   0.707   0.573   3.541
  758SOL     OW 3172   3.429   6.912   1.896
  758SOL    HW1 3173   3.424   6.819   1.933
  758SOL    HW2 3174   3.514   6.955   1.925
  759SOL     OW 3175   0.330   1.275   1.451
  759SOL    HW1 3176   0.397   1.346   1.428
  759SOL    HW2 3177   0.376   1.186   1.453
  760SOL     OW 3178   5.555   0.168   5.326
  760SOL    HW1 3179   5.575   0.110   5.405
  760SOL    HW2 3180   5.456   0.185   5.322
  761SOL     OW 3181   5.444   3.197   5.880
  761SOL    HW1 3182   5.525   3.249   5.907
  761SOL    HW2 3183   5.396   3.245   5.807
  762SOL     OW 3184   2.409   0.765   4.692
  762SOL    HW1 3185   2.481   0.709   4.734
  762SOL    HW2 3186   2.398   0.849   4.745
  763SOL     OW 3187   4.401   5.536   6.247
  763SOL    HW1 3188   4.308   5.516   6.216
  763SOL    HW2 3189   4.401   5.625   6.294
  764SOL     OW 3190   5.124   1.873   5.166
  764SOL    HW1 3191   5.203   1.811   5.162
  764SOL    HW2 3192   5.106   1.898   5.261
  765SOL     OW 3193   1.275   6.161   1.434
  765SOL    HW1 3194   1.243   6.095   1.503
  765SOL    HW2 3195   1.267   6.120   1.343
  766SOL     OW 3196   2.760   3.549   6.671
  766SOL    HW1 3197   2.744   3.496   6.754
  766SOL    HW2 3198   2.767   3.487   6.593
  767SOL     OW 3199   6.049   5.929   1.731
  767SOL    HW1 3200   5.998   6.003   1.775
  767SOL    HW2 3201   5.991   5.847   1.727
  768SOL     OW 3202   2.237   6.457   2.204
  768SOL    HW1 3203   2.291   6.490   2.281
  768SOL    HW2 3204   2.212   6.534   2.145
  769SOL     OW 3205   2.968   1.054   4.798
  769SOL    HW1 3206   2.970   1.082   4.894
  769SOL    HW2 3207   2.883   1.086   4.756
  770SOL     OW 3208   1.816   4.469   2.947
  770SOL    HW1 3209   1.729   4.424   2.928
  770SOL    HW2 3210   1.853   4.509   2.863
  771SOL     OW 3211   1.986   5.025   2.515
  771SOL    HW1 3212   1.995   5.018   2.615
  771SOL    HW2 3213   2.067   4.986   2.472
  772SOL     OW 3214   5.588   5.439   0.526
  772SOL    HW1 3215   5.608   5.499   0.604
  772SOL    HW2 3216   5.574   5.495   0.445
  773SOL     OW 3217   0.125   3.930   4.895
  773SOL    HW1 3218   0.126   3.895   4.988
  773SOL    HW2 3219   0.135   3.855   4.831
  774SOL     OW 3220   1.116   1.471   1.582
  774SOL    HW1 3221   1.128   1.559   1.629
  774SOL    HW2 3222   1.193   1.411   1.603
  775SOL     OW 3223   0.470   2.368   3.097
  775SOL    HW1 3224   0.463   2.294   3.031
  775SOL    HW2 3225   0.393   2.431   3.086
  776SOL     OW 3226   1.515   0.137   6.238
  776SOL    HW1 3227   1.422   0.171   6.226
  776SOL    HW2 3228   1.559   0.127   6.148
  777SOL     OW 3229   2.351   5.058   1.768
  777SOL    HW1 3230   2.391   4.990   1.706
  777SOL    HW2 3231   2.423   5.094   1.828
  778SOL     OW 3232   2.371   1.698   2.217
  778SOL    HW1 3233   2.407   1.667   2.305
  778SOL    HW2 3234   2.387   1.796   2.207
  779SOL     OW 3235   6.698   2.816   2.060
  779SOL    HW1 3236   6.681   2.913   2.048
  779SOL    HW2 3237   6.610   2.768   2.066
  780SOL     OW 3238   6.581   3.459   4.413
  780SOL    HW1 3239   6.593   3.556   4.389
  780SOL    HW2 3240   6.645   3.403   4.361
  781SOL     OW 3241   5.919   0.700   0.057
  781SOL    HW1 3242   5.848   0.769   0.043
  781SOL    HW2 3243   5.889   0.635   0.127
  782SOL     OW 3244   1.646   4.267   6.437
  782SOL    HW1 3245   1.566   4.206   6.437
  782SOL    HW2 3246   1.638   4.332   6.361
  783SOL     OW 3247   4.659   5.311   1.112
  783SOL    HW1 3248   4.562   5.301   1.088
  783SOL    HW2 3249   4.713   5.326   1.029
  784SOL     OW 3250   4.928   5.992   0.481
  784SOL    HW1 3251   4.939   6.023   0.575
  784SOL    HW2 3252   4.834   5.963   0.465
  785SOL     OW 3253   0.351   2.321   3.342
  785SOL    HW1 3254   0.276   2.386   3.358
  785SOL    HW2 3255   0.401   2.348   3.260
  786SOL     OW 3256   1.741   1.208   2.306
  786SOL    HW1 3257   1.727   1.155   2.389
  786SOL    HW2 3258   1.670   1.186   2.239
  787SOL     OW 3259   2.659   0.681   7.011
  787SOL    HW1 3260   2.653   0.629   0.072
  787SOL    HW2 3261   2.727   0.638   6.951
  788SOL     OW 3262   3.392   3.002   5.715
  788SOL    HW1 3263   3.443   3.027   5.797
  788SOL    HW2 3264   3.298   2.981   5.740
  789SOL     OW 3265   5.117   4.153   0.626
  789SOL    HW1 3266   5.032   4.100   0.627
  789SOL    HW2 3267   5.182   4.113   0.690
  790SOL     OW 3268   2.464   1.327   3.658
  790SOL    HW1 3269   2.447   1.405   3.598
  790SOL    HW2 3270   2.502   1.251   3.605
  791SOL     OW 3271   2.935   5.651   3.910
  791SOL    HW1 3272   2.937   5.557   3.877
  791SOL    HW2 3273   2.993   5.660   3.991
  792SOL     OW 3274   1.220   6.882   0.729
  792SOL    HW1 3275   1.291   6.859   0.796
  792SOL    HW2 3276   1.232   6.826   0.648
  793SOL     OW 3277   4.896   4.622   3.577
  793SOL    HW1 3278   4.818   4.560   3.574
  793SOL    HW2 3279   4.864   4.716   3.574
  794SOL     OW 3280   3.683   3.601   5.393
  794SOL    HW1 3281   3.679   3.701   5.391
  794SOL    HW2 3282   3.778   3.571   5.396
  795SOL     OW 3283   3.149   6.912   4.166
  795SOL    HW1 3284   3.054   6.889   4.189
  795SOL    HW2 3285   3.153   7.005   4.130
  796SOL     OW 3286   0.308   1.884   6.297
  796SOL    HW1 3287   0.404   1.870   6.272
  796SOL    HW2 3288   0.260   1.796   6.298
  797SOL     OW 3289   5.599   3.108   0.832
  797SOL    HW1 3290   5.691   3.101   0.872
  797SOL    HW2 3291   5.605   3.151   0.742
  798SOL     OW 3292   3.965   0.289   2.762
  798SOL    HW1 3293   3.869   0.300   2.787
  798SOL    HW2 3294   4.004   0.213   2.813
  799SOL     OW 3295   0.010   6.988   6.091
  799SOL    HW1 3296   7.011   6.992   6.189
  799SOL    HW2 3297   0.102   6.949   6.080
  800SOL     OW 3298   5.357   2.347   2.881
  800SOL    HW1 3299   5.289   2.383   2.818
  800SOL    HW2 3300   5.383   2.254   2.852
  801SOL     OW 3301   1.342   3.499   4.419
  801SOL    HW1 3302   1.351   3.599   4.418
  801SOL    HW2 3303   1.352   3.466   4.513
  802SOL     OW 3304   3.941   2.051   1.190
  802SOL    HW1 3305   4.006   2.052   1.114
  802SOL    HW2 3306   3.854   2.091   1.159
  803SOL     OW 3307   0.370   6.321   5.562
  803SOL    HW1 3308   0.412   6.231   5.573
  803SOL    HW2 3309   0.295   6.331   5.627
  804SOL     OW 3310   5.133   5.700   6.584
  804SOL    HW1 3311   5.055   5.709   6.646
  804SOL    HW2 3312   5.134   5.607   6.546
  805SOL     OW 3313   3.504   6.862   5.013
  805SOL    HW1 3314   3.579   6.928   5.023
  805SOL    HW2 3315   3.455   6.878   4.927
  806SOL     OW 3316   4.919   1.081   4.461
  806SOL    HW1 3317   4.977   1.156   4.493
  806SOL    HW2 3318   4.912   1.084   4.361
  807SOL     OW 3319   1.651   1.914   3.938
  807SOL    HW1 3320   1.579   1.911   4.008
  807SOL    HW2 3321   1.615   1.878   3.852
  808SOL     OW 3322   4.736   3.352   6.234
  808SOL    HW1 3323   4.675   3.411   6.288
  808SOL    HW2 3324   4.828   3.356   6.272
  809SOL     OW 3325   6.791   4.957   0.868
  809SOL    HW1 3326   6.890   4.951   0.882
  809SOL    HW2 3327   6.764   4.898   0.792
  810SOL     OW 3328   3.170   3.514   1.732
  810SOL    HW1 3329   3.091   3.572   1.708
  810SOL    HW2 3330   3.161   3.483   1.826
  811SOL     OW 3331   4.387   5.392   5.237
  811SOL    HW1 3332   4.298   5.419   5.201
  811SOL    HW2 3333   4.433   5.472   5.274
  812SOL     OW 3334   0.618   1.526   2.302
  812SOL    HW1 3335   0.572   1.444   2.336
  812SOL    HW2 3336   0.717   1.515   2.314
  813SOL     OW 3337   3.557   6.435   4.763
  813SOL    HW1 3338   3.472   6.474   4.727
  813SOL    HW2 3339   3.550   6.425   4.862
  814SOL     OW 3340   6.646   6.105   2.043
  814SOL    HW1 3341   6.723   6.041   2.042
  814SOL    HW2 3342   6.631   6.137   2.137
  815SOL     OW 3343   0.433   3.395   2.856
  815SOL    HW1 3344   0.339   3.362   2.850
  815SOL    HW2 3345   0.460   3.435   2.769
  816SOL     OW 3346   6.284   6.615   0.760
  816SOL    HW1 3347   6.280   6.518   0.733
  816SOL    HW2 3348   6.285   6.672   0.677
  817SOL     OW 3349   2.394   4.502   0.938
  817SOL    HW1 3350   2.415   4.425   0.999
  817SOL    HW2 3351   2.457   4.501   0.860
  818SOL     OW 3352   6.249   3.153   2.291
  818SOL    HW1 3353   6.318   3.135   2.361
  818SOL    HW2 3354   6.221   3.067   2.249
  819SOL     OW 3355   5.797   2.608   3.244
  819SOL    HW1 3356   5.784   2.696   3.289
  819SOL    HW2 3357   5.792   2.621   3.145
  820SOL     OW 3358   2.960   2.350   5.266
  820SOL    HW1 3359   3.055   2.348   5.236
  820SOL    HW2 3360   2.923   2.441   5.253
  821SOL     OW 3361   1.786   4.813   1.306
  821SOL    HW1 3362   1.724   4.759   1.249
  821SOL    HW2 3363   1.836   4.878   1.249
  822SOL     OW 3364   1.369   4.545   4.059
  822SOL    HW1 3365   1.355   4.607   3.982
  822SOL    HW2 3366   1.328   4.456   4.038
  823SOL     OW 3367   5.112   3.831   6.764
  823SOL    HW1 3368   5.020   3.842   6.725
  823SOL    HW2 3369   5.104   3.787   6.854
  824SOL     OW 3370   5.750   0.948   6.036
  824SOL    HW1 3371   5.766   1.040   6.001
  824SOL    HW2 3372   5.830   0.917   6.087
  825SOL     OW 3373   0.533   4.093   1.193
  825SOL    HW1 3374   0.469   4.133   1.258
  825SOL    HW2 3375   0.609   4.156   1.178
  826SOL     OW 3376   5.520   3.156   5.544
  826SOL    HW1 3377   5.512   3.157   5.444
  826SOL    HW2 3378   5.436   3.190   5.585
  827SOL     OW 3379   2.637   4.919   5.511
  827SOL    HW1 3380   2.614   4.917   5.609
  827SOL    HW2 3381   2.686   4.836   5.487
  828SOL     OW 3382   5.418   0.001   6.434
  828SOL    HW1 3383   5.335   0.055   6.448
  828SOL    HW2 3384   5.407   6.935   6.476
  829SOL     OW 3385   3.868   4.026   2.795
  829SOL    HW1 3386   3.951   4.062   2.752
  829SOL    HW2 3387   3.887   4.008   2.892
  830SOL     OW 3388   5.207   5.230   6.599
  830SOL    HW1 3389   5.123   5.210   6.548
  830SOL    HW2 3390   5.286   5.197   6.547
  831SOL     OW 3391   6.404   0.144   0.303
  831SOL    HW1 3392   6.401   0.045   0.303
  831SOL    HW2 3393   6.494   0.175   0.335
  832SOL     OW 3394   3.388   0.891   1.678
  832SOL    HW1 3395   3.452   0.922   1.749
  832SOL    HW2 3396   3.318   0.961   1.664
  833SOL     OW 3397   1.074   3.844   5.726
  833SOL    HW1 3398   1.127   3.810   5.648
  833SOL    HW2 3399   0.977   3.824   5.711
  834SOL     OW 3400   4.193   3.870   0.535
  834SOL    HW1 3401   4.269   3.810   0.510
  834SOL    HW2 3402   4.195   3.888   0.633
  835SOL     OW 3403   3.468   0.275   5.225
  835SOL    HW1 3404   3.512   0.257   5.137
  835SOL    HW2 3405   3.440   0.371   5.229
  836SOL     OW 3406   3.700   6.233   6.275
  836SOL    HW1 3407   3.723   6.150   6.224
  836SOL    HW2 3408   3.664   6.302   6.212
  837SOL     OW 3409   5.745   0.595   0.932
  837SOL    HW1 3410   5.653   0.618   0.901
  837SOL    HW2 3411   5.775   0.511   0.888
  838SOL     OW 3412   2.145   0.380   4.585
  838SOL    HW1 3413   2.227   0.323   4.593
  838SOL    HW2 3414   2.092   0.374   4.670
  839SOL     OW 3415   1.344   3.039   2.302
  839SOL    HW1 3416   1.399   3.054   2.220
  839SOL    HW2 3417   1.365   2.949   2.341
  840SOL     OW 3418   6.380   6.221   0.376
  840SOL    HW1 3419   6.405   6.211   0.280
  840SOL    HW2 3420   6.459   6.201   0.434
  841SOL     OW 3421   4.090   5.120   6.608
  841SOL    HW1 3422   4.024   5.074   6.549
  841SOL    HW2 3423   4.180   5.121   6.564
  842SOL     OW 3424   4.139   0.397   5.255
  842SOL    HW1 3425   4.039   0.394   5.254
  842SOL    HW2 3426   4.170   0.438   5.340
  843SOL     OW 3427   0.876   1.476   1.276
  843SOL    HW1 3428   0.874   1.532   1.359
  843SOL    HW2 3429   0.968   1.436   1.265
  844SOL     OW 3430   6.078   0.630   0.644
  844SOL    HW1 3431   6.110   0.697   0.577
  844SOL    HW2 3432   5.999   0.667   0.694
  845SOL     OW 3433   4.892   4.583   5.110
  845SOL    HW1 3434   4.824   4.515   5.137
  845SOL    HW2 3435   4.926   4.630   5.191
  846SOL     OW 3436   2.030   2.093   6.485
  846SOL    HW1 3437   1.975   2.063   6.563
  846SOL    HW2 3438   2.053   2.190   6.495
  847SOL     OW 3439   1.635   3.151   1.638
  847SOL    HW1 3440   1.612   3.102   1.554
  847SOL    HW2 3441   1.580   3.234   1.645
  848SOL     OW 3442   6.177   0.909   6.125
  848SOL    HW1 3443   6.216   0.936   6.037
  848SOL    HW2 3444   6.078   0.901   6.116
  849SOL     OW 3445   0.306   4.267   6.454
  849SOL    HW1 3446   0.234   4.323   6.495
  849SOL    HW2 3447   0.264   4.195   6.399
  850SOL     OW 3448   5.081   0.375   3.355
  850SOL    HW1 3449   5.094   0.436   3.433
  850SOL    HW2 3450   4.987   0.385   3.321
  851SOL     OW 3451   0.015   1.734   2.377
  851SOL    HW1 3452   6.981   1.713   2.456
  851SOL    HW2 3453   0.077   1.657   2.361
  852SOL     OW 3454   1.369   3.006   6.962
  852SOL    HW1 3455   1.399   2.988   0.032
  852SOL    HW2 3456   1.376   3.103   6.942
  853SOL     OW 3457   1.795   4.427   2.045
  853SOL    HW1 3458   1.764   4.476   1.963
  853SOL    HW2 3459   1.765   4.477   2.126
  854SOL     OW 3460   4.560   6.064   1.362
  854SOL    HW1 3461   4.498   6.008   1.417
  854SOL    HW2 3462   4.643   6.082   1.415
  855SOL     OW 3463   0.129   6.848   1.498
  855SOL    HW1 3464   0.209   6.905   1.512
  855SOL    HW2 3465   0.104   6.849   1.401
  856SOL     OW 3466   1.201   2.408   5.246
  856SOL    HW1 3467   1.226   2.350   5.168
  856SOL    HW2 3468   1.241   2.370   5.329
  857SOL     OW 3469   6.202   4.166   1.620
  857SOL    HW1 3470   6.118   4.144   1.669
  857SOL    HW2 3471   6.252   4.238   1.669
  858SOL     OW 3472   2.517   3.593   1.017
  858SOL    HW1 3473   2.550   3.631   0.930
  858SOL    HW2 3474   2.421   3.620   1.030
  859SOL     OW 3475   5.578   5.843   5.209
  859SOL    HW1 3476   5.493   5.893   5.227
  859SOL    HW2 3477   5.580   5.814   5.114
  860SOL     OW 3478   5.418   3.247   0.475
  860SOL    HW1 3479   5.324   3.277   0.490
  860SOL    HW2 3480   5.420   3.147   0.467
  861SOL     OW 3481   2.753   5.513   3.484
  861SOL    HW1 3482   2.667   5.476   3.451
  861SOL    HW2 3483   2.735   5.583   3.554
  862SOL     OW 3484   0.864   4.102   4.985
  862SOL    HW1 3485   0.859   4.006   5.014
  862SOL    HW2 3486   0.959   4.132   4.986
  863SOL     OW 3487   6.221   0.832   1.022
  863SOL    HW1 3488   6.261   0.866   1.107
  863SOL    HW2 3489   6.243   0.895   0.947
  864SOL     OW 3490   4.283   4.862   3.500
  864SOL    HW1 3491   4.358   4.919   3.535
  864SOL    HW2 3492   4.203   4.874   3.558
  865SOL     OW 3493   0.417   6.488   5.961
  865SOL    HW1 3494   0.464   6.563   6.008
  865SOL    HW2 3495   0.331   6.469   6.006
  866SOL     OW 3496   1.963   1.969   1.367
  866SOL    HW1 3497   2.032   1.897   1.354
  866SOL    HW2 3498   1.977   2.013   1.455
  867SOL     OW 3499   4.029   3.687   1.030
  867SOL    HW1 3500   4.059   3.644   1.115
  867SOL    HW2 3501   4.105   3.737   0.990
  868SOL     OW 3502   5.750   1.091   1.292
  868SOL    HW1 3503   5.726   1.029   1.217
  868SOL    HW2 3504   5.744   1.041   1.379
  869SOL     OW 3505   0.272   5.158   3.226
  869SOL    HW1 3506   0.270   5.092   3.151
  869SOL    HW2 3507   0.192   5.144   3.285
  870SOL     OW 3508   4.416   3.272   0.552
  870SOL    HW1 3509   4.457   3.362   0.564
  870SOL    HW2 3510   4.317   3.280   0.548
  871SOL     OW 3511   4.448   2.460   3.279
  871SOL    HW1 3512   4.471   2.409   3.363
  871SOL    HW2 3513   4.516   2.531   3.264
  872SOL     OW 3514   5.185   3.890   3.700
  872SOL    HW1 3515   5.265   3.949   3.706
  872SOL    HW2 3516   5.102   3.946   3.698
  873SOL     OW 3517   5.746   6.927   3.996
  873SOL    HW1 3518   5.735   6.832   3.967
  873SOL    HW2 3519   5.795   6.977   3.924
  874SOL     OW 3520   0.881   4.206   6.478
  874SOL    HW1 3521   0.866   4.175   6.572
  874SOL    HW2 3522   0.870   4.305   6.473
  875SOL     OW 3523   3.523   3.094   0.667
  875SOL    HW1 3524   3.498   3.102   0.764
  875SOL    HW2 3525   3.480   3.168   0.616
  876SOL     OW 3526   0.507   5.130   2.758
  876SOL    HW1 3527   0.457   5.206   2.800
  876SOL    HW2 3528   0.507   5.052   2.820
  877SOL     OW 3529   4.347   4.061   6.520
  877SOL    HW1 3530   4.318   3.968   6.497
  877SOL    HW2 3531   4.278   4.104   6.579
  878SOL     OW 3532   3.904   6.031   5.353
  878SOL    HW1 3533   3.891   5.967   5.429
  878SOL    HW2 3534   3.920   6.123   5.389
  879SOL     OW 3535   2.983   2.358   1.405
  879SOL    HW1 3536   3.008   2.337   1.499
  879SOL    HW2 3537   2.919   2.288   1.371
  880SOL     OW 3538   3.486   4.431   5.485
  880SOL    HW1 3539   3.433   4.496   5.539
  880SOL    HW2 3540   3.583   4.456   5.486
  881SOL     OW 3541   4.804   4.170   5.146
  881SOL    HW1 3542   4.886   4.199   5.195
  881SOL    HW2 3543   4.817   4.183   5.048
  882SOL     OW 3544   0.456   2.198   4.188
  882SOL    HW1 3545   0.543   2.220   4.234
  882SOL    HW2 3546   0.467   2.117   4.132
  883SOL     OW 3547   4.737   5.767   6.044
  883SOL    HW1 3548   4.835   5.781   6.048
  883SOL    HW2 3549   4.713   5.726   5.956
  884SOL     OW 3550   0.160   3.905   0.128
  884SOL    HW1 3551   0.243   3.861   0.162
  884SOL    HW2 3552   0.153   3.998   0.166
  885SOL     OW 3553   4.648   5.621   6.512
  885SOL    HW1 3554   4.729   5.633   6.456
  885SOL    HW2 3555   4.648   5.529   6.551
  886SOL     OW 3556   4.127   0.772   1.470
  886SOL    HW1 3557   4.036   0.731   1.475
  886SOL    HW2 3558   4.187   0.712   1.416
  887SOL     OW 3559   3.422   6.960   4.168
  887SOL    HW1 3560   3.477   6.918   4.095
  887SOL    HW2 3561   3.329   6.924   4.164
  888SOL     OW 3562   5.794   5.745   3.161
  888SOL    HW1 3563   5.754   5.812   3.098
  888SOL    HW2 3564   5.744   5.658   3.154
  889SOL     OW 3565   1.563   6.644   6.134
  889SOL    HW1 3566   1.610   6.612   6.052
  889SOL    HW2 3567   1.502   6.719   6.110
  890SOL     OW 3568   2.539   5.102   2.404
  890SOL    HW1 3569   2.519   5.015   2.358
  890SOL    HW2 3570   2.622   5.141   2.364
  891SOL     OW 3571   6.299   4.162   0.353
  891SOL    HW1 3572   6.341   4.166   0.262
  891SOL    HW2 3573   6.235   4.085   0.357
  892SOL     OW 3574   4.104   4.022   5.597
  892SOL    HW1 3575   4.106   4.003   5.499
  892SOL    HW2 3576   4.118   3.937   5.648
  893SOL     OW 3577   1.858   0.949   1.915
  893SOL    HW1 3578   1.815   1.034   1.947
  893SOL    HW2 3579   1.886   0.895   1.994
  894SOL     OW 3580   1.419   2.373   3.142
  894SOL    HW1 3581   1.387   2.451   3.197
  894SOL    HW2 3582   1.452   2.301   3.203
  895SOL     OW 3583   1.102   5.146   4.384
  895SOL    HW1 3584   1.144   5.215   4.325
  895SOL    HW2 3585   1.119   5.170   4.480
  896SOL     OW 3586   6.413   6.441   1.670
  896SOL    HW1 3587   6.510   6.416   1.667
  896SOL    HW2 3588   6.367   6.388   1.741
  897SOL     OW 3589   4.613   0.413   6.922
  897SOL    HW1 3590   4.581   0.324   6.890
  897SOL    HW2 3591   4.645   0.467   6.844
  898SOL     OW 3592   3.875   6.268   3.043
  898SOL    HW1 3593   3.791   6.223   3.076
  898SOL    HW2 3594   3.936   6.199   3.005
  899SOL     OW 3595   0.414   4.860   0.608
  899SOL    HW1 3596   0.431   4.789   0.676
  899SOL    HW2 3597   0.449   4.947   0.642
  900SOL     OW 3598   4.153   6.506   0.716
  900SOL    HW1 3599   4.112   6.577   0.774
  900SOL    HW2 3600   4.181   6.545   0.629
  901SOL     OW 3601   1.142   1.298   5.243
  901SOL    HW1 3602   1.044   1.319   5.241
  901SOL    HW2 3603   1.170   1.284   5.338
  902SOL     OW 3604   0.611   2.200   0.871
  902SOL    HW1 3605   0.665   2.208   0.786
  902SOL    HW2 3606   0.573   2.289   0.894
  903SOL     OW 3607   6.804   3.897   5.854
  903SOL    HW1 3608   6.885   3.954   5.846
  903SOL    HW2 3609   6.745   3.932   5.926
  904SOL     OW 3610   1.944   2.599   2.977
  904SOL    HW1 3611   1.923   2.586   3.074
  904SOL    HW2 3612   1.866   2.567   2.922
  905SOL     OW 3613   4.670   4.033   6.248
  905SOL    HW1 3614   4.706   4.061   6.337
  905SOL    HW2 3615   4.685   4.105   6.181
  906SOL     OW 3616   0.662   3.182   5.927
  906SOL    HW1 3617   0.757   3.163   5.953
  906SOL    HW2 3618   0.625   3.105   5.875
  907SOL     OW 3619   5.628   2.879   2.919
  907SOL    HW1 3620   5.628   2.979   2.919
  907SOL    HW2 3621   5.537   2.845   2.896
  908SOL     OW 3622   1.961   5.823   3.203
  908SOL    HW1 3623   1.893   5.801   3.273
  908SOL    HW2 3624   1.919   5.878   3.131
  909SOL     OW 3625   2.853   6.079   2.546
  909SOL    HW1 3626   2.848   6.111   2.641
  909SOL    HW2 3627   2.929   6.016   2.536
  910SOL     OW 3628   3.070   0.815   0.626
  910SOL    HW1 3629   3.169   0.815   0.610
  910SOL    HW2 3630   3.044   0.727   0.666
  911SOL     OW 3631   0.323   5.227   0.796
  911SOL    HW1 3632   0.292   5.195   0.706
  911SOL    HW2 3633   0.307   5.326   0.803
  912SOL     OW 3634   6.075   0.701   3.747
  912SOL    HW1 3635   6.106   0.716   3.841
  912SOL    HW2 3636   6.107   0.612   3.716
  913SOL     OW 3637   1.196   0.779   3.167
  913SOL    HW1 3638   1.189   0.681   3.183
  913SOL    HW2 3639   1.290   0.809   3.184
  914SOL     OW 3640   2.422   5.869   4.708
  914SOL    HW1 3641   2.335   5.912   4.729
  914SOL    HW2 3642   2.489   5.892   4.778
  915SOL     OW 3643   1.359   3.415   0.353
  915SOL    HW1 3644   1.438   3.459   0.310
  915SOL    HW2 3645   1.295   3.485   0.386
  916SOL     OW 3646   0.998   2.632   1.793
  916SOL    HW1 3647   0.948   2.674   1.716
  916SOL    HW2 3648   1.041   2.547   1.762
  917SOL     OW 3649   5.856   0.733   2.055
  917SOL    HW1 3650   5.796   0.812   2.060
  917SOL    HW2 3651   5.949   0.760   2.079
  918SOL     OW 3652   2.963   7.010   0.021
  918SOL    HW1 3653   2.927   6.917   0.012
  918SOL    HW2 3654   3.027   7.014   0.097
  919SOL     OW 3655   6.529   5.301   2.734
  919SOL    HW1 3656   6.537   5.288   2.833
  919SOL    HW2 3657   6.475   5.226   2.695
  920SOL     OW 3658   2.296   5.949   3.195
  920SOL    HW1 3659   2.261   5.895   3.271
  920SOL    HW2 3660   2.220   5.997   3.151
  921SOL     OW 3661   4.489   4.438   2.967
  921SOL    HW1 3662   4.445   4.485   3.044
  921SOL    HW2 3663   4.467   4.485   2.882
  922SOL     OW 3664   3.244   3.098   5.502
  922SOL    HW1 3665   3.249   3.197   5.491
  922SOL    HW2 3666   3.299   3.070   5.581
  923SOL     OW 3667   2.796   4.931   5.979
  923SOL    HW1 3668   2.839   4.845   6.008
  923SOL    HW2 3669   2.860   5.006   5.994
  924SOL     OW 3670   6.082   2.409   2.851
  924SOL    HW1 3671   6.045   2.472   2.783
  924SOL    HW2 3672   6.007   2.358   2.894
  925SOL     OW 3673   6.941   1.877   6.490
  925SOL    HW1 3674   6.958   1.920   6.579
  925SOL    HW2 3675   7.011   1.807   6.473
  926SOL     OW 3676   5.942   1.537   0.582
  926SOL    HW1 3677   5.978   1.457   0.631
  926SOL    HW2 3678   5.872   1.581   0.637
  927SOL     OW 3679   5.857   3.457   3.532
  927SOL    HW1 3680   5.851   3.548   3.491
  927SOL    HW2 3681   5.935   3.408   3.493
  928SOL     OW 3682   1.131   5.495   0.716
  928SOL    HW1 3683   1.205   5.465   0.777
  928SOL    HW2 3684   1.043   5.470   0.755
  929SOL     OW 3685   0.254   0.645   1.533
  929SOL    HW1 3686   0.249   0.547   1.551
  929SOL    HW2 3687   0.230   0.663   1.438
  930SOL     OW 3688   5.493   6.375   4.223
  930SOL    HW1 3689   5.422   6.313   4.187
  930SOL    HW2 3690   5.454   6.464   4.242
  931SOL     OW 3691   5.604   2.435   2.899
  931SOL    HW1 3692   5.658   2.368   2.847
  931SOL    HW2 3693   5.507   2.409   2.895
  932SOL     OW 3694   3.517   6.727   3.035
  932SOL    HW1 3695   3.511   6.658   3.107
  932SOL    HW2 3696   3.584   6.697   2.966
  933SOL     OW 3697   0.919   5.295   3.357
  933SOL    HW1 3698   0.843   5.264   3.300
  933SOL    HW2 3699   0.893   5.292   3.453
  934SOL     OW 3700   1.699   0.781   4.874
  934SOL    HW1 3701   1.632   0.811   4.942
  934SOL    HW2 3702   1.724   0.858   4.815
  935SOL     OW 3703   5.084   4.408   5.000
  935SOL    HW1 3704   5.078   4.345   5.077
  935SOL    HW2 3705   5.070   4.502   5.032
  936SOL     OW 3706   1.743   0.723   6.470
  936SOL    HW1 3707   1.705   0.813   6.491
  936SOL    HW2 3708   1.736   0.664   6.550
  937SOL     OW 3709   4.919   1.288   4.868
  937SOL    HW1 3710   4.876   1.366   4.913
  937SOL    HW2 3711   4.911   1.207   4.926
  938SOL     OW 3712   6.973   5.635   5.702
  938SOL    HW1 3713   6.917   5.715   5.720
  938SOL    HW2 3714   0.031   5.638   5.760
  939SOL     OW 3715   5.934   0.322   5.964
  939SOL    HW1 3716   5.863   0.300   6.030
  939SOL    HW2 3717   5.930   0.420   5.942
  940SOL     OW 3718   0.859   2.952   1.668
  940SOL    HW1 3719   0.787   2.949   1.737
  940SOL    HW2 3720   0.859   2.866   1.616
  941SOL     OW 3721   6.062   1.182   5.287
  941SOL    HW1 3722   6.027   1.088   5.283
  941SOL    HW2 3723   6.155   1.181   5.323
  942SOL     OW 3724   4.985   0.064   3.754
  942SOL    HW1 3725   4.905   0.003   3.758
  942SOL    HW2 3726   5.006   0.084   3.658
  943SOL     OW 3727   1.841   3.452   3.485
  943SOL    HW1 3728   1.928   3.502   3.478
  943SOL    HW2 3729   1.822   3.433   3.581
  944SOL     OW 3730   6.693   3.961   5.605
  944SOL    HW1 3731   6.742   3.939   5.689
  944SOL    HW2 3732   6.705   4.058   5.584
  945SOL     OW 3733   6.445   4.514   5.103
  945SOL    HW1 3734   6.492   4.448   5.163
  945SOL    HW2 3735   6.472   4.498   5.008
  946SOL     OW 3736   4.680   2.804   5.959
  946SOL    HW1 3737   4.660   2.717   6.004
  946SOL    HW2 3738   4.611   2.872   5.984
  947SOL     OW 3739   3.785   3.035   4.315
  947SOL    HW1 3740   3.851   3.095   4.269
  947SOL    HW2 3741   3.717   3.003   4.250
  948SOL     OW 3742   4.316   0.591   1.033
  948SOL    HW1 3743   4.281   0.669   0.980
  948SOL    HW2 3744   4.367   0.625   1.112
  949SOL     OW 3745   0.929   6.308   6.237
  949SOL    HW1 3746   0.831   6.309   6.258
  949SOL    HW2 3747   0.981   6.306   6.322
  950SOL     OW 3748   4.635   5.134   1.580
  950SOL    HW1 3749   4.551   5.170   1.540
  950SOL    HW2 3750   4.622   5.038   1.605
  951SOL     OW 3751   2.222   0.478   3.511
  951SOL    HW1 3752   2.233   0.531   3.427
  951SOL    HW2 3753   2.311   0.442   3.539
  952SOL     OW 3754   5.320   2.599   3.012
  952SOL    HW1 3755   5.314   2.509   2.968
  952SOL    HW2 3756   5.375   2.592   3.095
  953SOL     OW 3757   5.189   5.395   4.139
  953SOL    HW1 3758   5.220   5.450   4.061
  953SOL    HW2 3759   5.248   5.413   4.218
  954SOL     OW 3760   4.711   6.082   1.002
  954SOL    HW1 3761   4.765   6.133   1.069
  954SOL    HW2 3762   4.620   6.064   1.040
  955SOL     OW 3763   6.842   4.157   2.723
  955SOL    HW1 3764   6.759   4.116   2.761
  955SOL    HW2 3765   6.914   4.088   2.720
  956SOL     OW 3766   0.044   2.448   2.840
  956SOL    HW1 3767   0.086   2.467   2.752
  956SOL    HW2 3768   6.994   2.382   2.828
  957SOL     OW 3769   0.183   4.728   5.198
  957SOL    HW1 3770   0.120   4.704   5.273
  957SOL    HW2 3771   0.273   4.748   5.236
  958SOL     OW 3772   4.207   1.431   2.771
  958SOL    HW1 3773   4.165   1.512   2.812
  958SOL    HW2 3774   4.138   1.358   2.763
  959SOL     OW 3775   3.714   5.293   3.031
  959SOL    HW1 3776   3.724   5.243   2.945
  959SOL    HW2 3777   3.705   5.391   3.012
  960SOL     OW 3778   1.021   5.694   3.359
  960SOL    HW1 3779   1.070   5.617   3.319
  960SOL    HW2 3780   0.975   5.746   3.287
  961SOL     OW 3781   4.610   0.048   3.651
  961SOL    HW1 3782   4.572   0.015   3.738
  961SOL    HW2 3783   4.552   0.018   3.575
  962SOL     OW 3784   1.137   0.747   4.589
  962SOL    HW1 3785   1.213   0.757   4.654
  962SOL    HW2 3786   1.173   0.716   4.501
  963SOL     OW 3787   0.045   2.063   5.979
  963SOL    HW1 3788   0.118   2.118   5.938
  963SOL    HW2 3789   0.062   2.053   6.077
  964SOL     OW 3790   5.944   4.412   6.807
  964SOL    HW1 3791   6.000   4.494   6.789
  964SOL    HW2 3792   5.909   4.377   6.721
  965SOL     OW 3793   5.683   1.920   0.940
  965SOL    HW1 3794   5.627   1.936   0.859
  965SOL    HW2 3795   5.680   2.001   0.999
  966SOL     OW 3796   5.209   2.437   1.633
  966SOL    HW1 3797   5.283   2.376   1.662
  966SOL    HW2 3798   5.132   2.382   1.600
  967SOL     OW 3799   1.770   4.636   1.814
  967SOL    HW1 3800   1.817   4.724   1.807
  967SOL    HW2 3801   1.741   4.606   1.723
  968SOL     OW 3802   3.466   1.467   1.910
  968SOL    HW1 3803   3.475   1.541   1.842
  968SOL    HW2 3804   3.438   1.506   1.998
  969SOL     OW 3805   3.370   5.889   5.985
  969SOL    HW1 3806   3.350   5.794   5.959
  969SOL    HW2 3807   3.441   5.926   5.925
  970SOL     OW 3808   5.364   0.527   6.118
  970SOL    HW1 3809   5.271   0.493   6.102
  970SOL    HW2 3810   5.383   0.601   6.053
  971SOL     OW 3811   6.791   1.937   3.049
  971SOL    HW1 3812   6.696   1.914   3.069
  971SOL    HW2 3813   6.817   2.018   3.102
  972SOL     OW 3814   5.388   3.786   1.496
  972SOL    HW1 3815   5.388   3.780   1.596
  972SOL    HW2 3816   5.466   3.735   1.459
  973SOL     OW 3817   6.978   4.267   0.027
  973SOL    HW1 3818   0.019   4.220   0.086
  973SOL    HW2 3819   6.950   4.353   0.069
  974SOL     OW 3820   5.492   6.722   2.566
  974SOL    HW1 3821   5.538   6.805   2.600
  974SOL    HW2 3822   5.541   6.641   2.599
  975SOL     OW 3823   1.857   5.734   6.233
  975SOL    HW1 3824   1.785   5.773   6.176
  975SOL    HW2 3825   1.832   5.641   6.258
  976SOL     OW 3826   0.138   3.704   2.773
  976SOL    HW1 3827   0.174   3.732   2.862
  976SOL    HW2 3828   0.213   3.692   2.709
  977SOL     OW 3829   1.252   0.446   2.576
  977SOL    HW1 3830   1.314   0.462   2.499
  977SOL    HW2 3831   1.157   0.459   2.546
  978SOL     OW 3832   4.695   3.835   5.770
  978SOL    HW1 3833   4.626   3.842   5.698
  978SOL    HW2 3834   4.653   3.858   5.858
  979SOL     OW 3835   6.618   2.074   0.809
  979SOL    HW1 3836   6.537   2.121   0.842
  979SOL    HW2 3837   6.670   2.135   0.748
  980SOL     OW 3838   4.507   2.489   3.937
  980SOL    HW1 3839   4.515   2.433   4.020
  980SOL    HW2 3840   4.570   2.567   3.944
  981SOL     OW 3841   1.091   1.833   5.093
  981SOL    HW1 3842   1.060   1.924   5.067
  981SOL    HW2 3843   1.096   1.774   5.012
  982SOL     OW 3844   2.434   2.369   3.824
  982SOL    HW1 3845   2.386   2.437   3.770
  982SOL    HW2 3846   2.370   2.322   3.885
  983SOL     OW 3847   5.555   2.419   4.602
  983SOL    HW1 3848   5.644   2.459   4.622
  983SOL    HW2 3849   5.566   2.322   4.582
  984SOL     OW 3850   2.568   1.783   4.470
  984SOL    HW1 3851   2.547   1.825   4.381
  984SOL    HW2 3852   2.664   1.799   4.492
  985SOL     OW 3853   5.314   4.850   6.081
  985SOL    HW1 3854   5.240   4.784   6.070
  985SOL    HW2 3855   5.299   4.905   6.163
  986SOL     OW 3856   5.700   4.358   0.602
  986SOL    HW1 3857   5.685   4.332   0.698
  986SOL    HW2 3858   5.798   4.361   0.583
  987SOL     OW 3859   4.501   0.023   1.862
  987SOL    HW1 3860   4.546   0.043   1.775
  987SOL    HW2 3861   4.486   0.109   1.912
  988SOL     OW 3862   3.265   3.462   3.018
  988SOL    HW1 3863   3.330   3.400   3.063
  988SOL    HW2 3864   3.219   3.518   3.087
  989SOL     OW 3865   6.240   0.290   5.186
  989SOL    HW1 3866   6.287   0.211   5.225
  989SOL    HW2 3867   6.291   0.373   5.208
  990SOL     OW 3868   3.782   0.107   1.941
  990SOL    HW1 3869   3.827   0.170   2.004
  990SOL    HW2 3870   3.716   0.158   1.885
  991SOL     OW 3871   1.263   2.689   5.247
  991SOL    HW1 3872   1.247   2.591   5.233
  991SOL    HW2 3873   1.353   2.703   5.288
  992SOL     OW 3874   6.715   2.436   2.120
  992SOL    HW1 3875   6.779   2.365   2.091
  992SOL    HW2 3876   6.718   2.445   2.219
  993SOL     OW 3877   1.545   4.180   1.637
  993SOL    HW1 3878   1.453   4.140   1.636
  993SOL    HW2 3879   1.588   4.160   1.725
  994SOL     OW 3880   3.512   3.849   2.179
  994SOL    HW1 3881   3.483   3.877   2.270
  994SOL    HW2 3882   3.475   3.758   2.159
  995SOL     OW 3883   3.753   3.004   5.611
  995SOL    HW1 3884   3.694   2.939   5.659
  995SOL    HW2 3885   3.847   2.969   5.610
  996SOL     OW 3886   3.201   4.912   4.345
  996SOL    HW1 3887   3.173   5.008   4.334
  996SOL    HW2 3888   3.121   4.853   4.347
  997SOL     OW 3889   1.149   1.028   3.289
  997SOL    HW1 3890   1.230   1.087   3.292
  997SOL    HW2 3891   1.161   0.960   3.217
  998SOL     OW 3892   4.748   0.303   4.298
  998SOL    HW1 3893   4.839   0.264   4.287
  998SOL    HW2 3894   4.742   0.347   4.388
  999SOL     OW 3895   5.056   4.713   2.358
  999SOL    HW1 3896   4.962   4.741   2.341
  999SOL    HW2 3897   5.113   4.739   2.280
 1000SOL     OW 3898   2.277   1.149   2.370
 1000SOL    HW1 3899   2.219   1.104   2.302
 1000SOL    HW2 3900   2.367   1.106   2.371
 1001SOL     OW 3901   5.141   6.513   0.417
 1001SOL    HW1 3902   5.229   6.469   0.397
 1001SOL    HW2 3903   5.136   6.601   0.372
 1002SOL     OW 3904   6.098   1.763   0.675
 1002SOL    HW1 3905   6.042   1.689   0.636
 1002SOL    HW2 3906   6.039   1.841   0.696
 1003SOL     OW 3907   1.829   5.851   1.965
 1003SOL    HW1 3908   1.897   5.901   2.019
 1003SOL    HW2 3909   1.755   5.820   2.026
 1004SOL     OW 3910   0.401   0.480   1.782
 1004SOL    HW1 3911   0.433   0.450   1.692
 1004SOL    HW2 3912   0.475   0.471   1.848
 1005SOL     OW 3913   1.490   2.614   3.568
 1005SOL    HW1 3914   1.544   2.692   3.534
 1005SOL    HW2 3915   1.530   2.529   3.535
 1006SOL     OW 3916   1.331   4.501   0.881
 1006SOL    HW1 3917   1.412   4.453   0.914
 1006SOL    HW2 3918   1.345   4.528   0.786
 1007SOL     OW 3919   4.648   0.359   5.295
 1007SOL    HW1 3920   4.680   0.345   5.389
 1007SOL    HW2 3921   4.725   0.351   5.232
 1008SOL     OW 3922   1.547   2.719   4.996
 1008SOL    HW1 3923   1.546   2.810   4.954
 1008SOL    HW2 3924   1.634   2.674   4.975
 1009SOL     OW 3925   6.912   5.656   4.676
 1009SOL    HW1 3926   6.945   5.729   4.736
 1009SOL    HW2 3927   6.888   5.576   4.732
 1010SOL     OW 3928   3.592   2.776   5.745
 1010SOL    HW1 3929   3.495   2.779   5.769
 1010SOL    HW2 3930   3.645   2.743   5.823
 1011SOL     OW 3931   2.222   4.952   2.383
 1011SOL    HW1 3932   2.251   5.046   2.365
 1011SOL    HW2 3933   2.265   4.919   2.466
 1012SOL     OW 3934   6.778   0.675   1.743
 1012SOL    HW1 3935   6.865   0.630   1.724
 1012SOL    HW2 3936   6.758   0.669   1.841
 1013SOL     OW 3937   0.810   1.032   5.283
 1013SOL    HW1 3938   0.818   1.041   5.382
 1013SOL    HW2 3939   0.766   0.944   5.262
 1014SOL     OW 3940   5.214   5.904   6.418
 1014SOL    HW1 3941   5.153   5.983   6.412
 1014SOL    HW2 3942   5.182   5.843   6.490
 1015SOL     OW 3943   2.758   6.668   5.741
 1015SOL    HW1 3944   2.787   6.596   5.804
 1015SOL    HW2 3945   2.732   6.626   5.654
 1016SOL     OW 3946   3.871   3.803   6.886
 1016SOL    HW1 3947   3.785   3.774   6.842
 1016SOL    HW2 3948   3.924   3.858   6.821
 1017SOL     OW 3949   4.004   2.597   1.681
 1017SOL    HW1 3950   3.932   2.530   1.701
 1017SOL    HW2 3951   4.086   2.550   1.648
 1018SOL     OW 3952   0.475   3.729   4.491
 1018SOL    HW1 3953   0.567   3.690   4.492
 1018SOL    HW2 3954   0.478   3.824   4.520
 1019SOL     OW 3955   6.992   0.103   1.699
 1019SOL    HW1 3956   6.911   0.141   1.744
 1019SOL    HW2 3957   6.965   0.049   1.620
 1020SOL     OW 3958   0.793   0.476   1.039
 1020SOL    HW1 3959   0.731   0.551   1.057
 1020SOL    HW2 3960   0.853   0.500   0.962
 1021SOL     OW 3961   5.044   6.818   1.456
 1021SOL    HW1 3962   5.115   6.857   1.514
 1021SOL    HW2 3963   5.040   6.868   1.369
 1022SOL     OW 3964   4.064   5.047   5.764
 1022SOL    HW1 3965   4.096   5.112   5.696
 1022SOL    HW2 3966   4.020   5.097   5.839
 1023SOL     OW 3967   0.813   6.663   2.705
 1023SOL    HW1 3968   0.794   6.690   2.800
 1023SOL    HW2 3969   0.894   6.713   2.672
 1024SOL     OW 3970   6.879   2.297   4.132
 1024SOL    HW1 3971   6.849   2.208   4.098
 1024SOL    HW2 3972   6.970   2.317   4.097
 1025SOL     OW 3973   2.410   2.853   0.942
 1025SOL    HW1 3974   2.396   2.763   0.899
 1025SOL    HW2 3975   2.508   2.871   0.950
 1026SOL     OW 3976   2.416   2.551   1.730
 1026SOL    HW1 3977   2.334   2.551   1.672
 1026SOL    HW2 3978   2.414   2.630   1.791
 1027SOL     OW 3979   2.978   6.645   1.361
 1027SOL    HW1 3980   3.053   6.694   1.317
 1027SOL    HW2 3981   2.892   6.673   1.319
 1028SOL     OW 3982   3.126   6.333   0.429
 1028SOL    HW1 3983   3.147   6.378   0.342
 1028SOL    HW2 3984   3.175   6.245   0.434
 1029SOL     OW 3985   1.612   0.033   0.108
 1029SOL    HW1 3986   1.694   0.085   0.129
 1029SOL    HW2 3987   1.541   0.094   0.073
 1030SOL     OW 3988   2.800   3.395   1.794
 1030SOL    HW1 3989   2.711   3.429   1.763
 1030SOL    HW2 3990   2.810   3.415   1.892
 1031SOL     OW 3991   5.182   5.070   0.966
 1031SOL    HW1 3992   5.104   5.055   1.026
 1031SOL    HW2 3993   5.197   4.989   0.909
 1032SOL     OW 3994   2.255   1.732   4.410
 1032SOL    HW1 3995   2.310   1.767   4.334
 1032SOL    HW2 3996   2.236   1.636   4.396
 1033SOL     OW 3997   1.419   6.353   0.929
 1033SOL    HW1 3998   1.432   6.301   1.013
 1033SOL    HW2 3999   1.504   6.400   0.906
 1034SOL     OW 4000   0.723   5.372   4.909
 1034SOL    HW1 4001   0.659   5.434   4.863
 1034SOL    HW2 4002   0.753   5.413   4.995
 1035SOL     OW 4003   0.981   0.823   4.901
 1035SOL    HW1 4004   0.906   0.853   4.841
 1035SOL    HW2 4005   0.961   0.732   4.937
 1036SOL     OW 4006   3.316   1.175   1.878
 1036SOL    HW1 4007   3.302   1.157   1.781
 1036SOL    HW2 4008   3.381   1.109   1.915
 1037SOL     OW 4009   1.466   0.732   1.672
 1037SOL    HW1 4010   1.459   0.633   1.660
 1037SOL    HW2 4011   1.562   0.758   1.685
 1038SOL     OW 4012   1.040   6.930   5.471
 1038SOL    HW1 4013   0.987   7.004   5.430
 1038SOL    HW2 4014   1.112   6.968   5.528
 1039SOL     OW 4015   3.116   3.432   5.887
 1039SOL    HW1 4016   3.052   3.403   5.958
 1039SOL    HW2 4017   3.150   3.524   5.907
 1040SOL     OW 4018   4.844   3.136   2.753
 1040SOL    HW1 4019   4.862   3.045   2.790
 1040SOL    HW2 4020   4.844   3.133   2.654
 1041SOL     OW 4021   6.704   6.963   3.911
 1041SOL    HW1 4022   6.718   0.012   3.844
 1041SOL    HW2 4023   6.744   6.878   3.876
 1042SOL     OW 4024   4.398   5.122   2.172
 1042SOL    HW1 4025   4.348   5.085   2.250
 1042SOL    HW2 4026   4.336   5.178   2.117
 1043SOL     OW 4027   3.721   1.240   5.179
 1043SOL    HW1 4028   3.786   1.208   5.109
 1043SOL    HW2 4029   3.646   1.289   5.135
 1044SOL     OW 4030   5.200   4.474   2.334
 1044SOL    HW1 4031   5.194   4.569   2.362
 1044SOL    HW2 4032   5.109   4.439   2.314
 1045SOL     OW 4033   4.327   6.559   2.356
 1045SOL    HW1 4034   4.386   6.640   2.364
 1045SOL    HW2 4035   4.379   6.485   2.313
 1046SOL     OW 4036   1.311   0.802   0.181
 1046SOL    HW1 4037   1.380   0.846   0.239
 1046SOL    HW2 4038   1.248   0.872   0.147
 1047SOL     OW 4039   1.457   1.017   3.490
 1047SOL    HW1 4040   1.406   1.082   3.434
 1047SOL    HW2 4041   1.526   0.972   3.435
 1048SOL     OW 4042   5.822   6.568   4.190
 1048SOL    HW1 4043   5.824   6.666   4.210
 1048SOL    HW2 4044   5.765   6.551   4.110
 1049SOL     OW 4045   6.424   5.914   4.138
 1049SOL    HW1 4046   6.423   6.003   4.183
 1049SOL    HW2 4047   6.386   5.845   4.199
 1050SOL     OW 4048   4.515   5.500   0.813
 1050SOL    HW1 4049   4.592   5.508   0.877
 1050SOL    HW2 4050   4.451   5.431   0.847
 1051SOL     OW 4051   2.599   5.893   0.929
 1051SOL    HW1 4052   2.593   5.960   0.855
 1051SOL    HW2 4053   2.652   5.931   1.004
 1052SOL     OW 4054   3.650   0.800   4.686
 1052SOL    HW1 4055   3.690   0.727   4.743
 1052SOL    HW2 4056   3.683   0.791   4.592
 1053SOL     OW 4057   5.749   5.101   3.030
 1053SOL    HW1 4058   5.679   5.148   3.084
 1053SOL    HW2 4059   5.718   5.092   2.936
 1054SOL     OW 4060   2.709   4.198   5.821
 1054SOL    HW1 4061   2.685   4.271   5.884
 1054SOL    HW2 4062   2.649   4.202   5.741
 1055SOL     OW 4063   4.702   0.037   4.498
 1055SOL    HW1 4064   4.631   0.102   4.524
 1055SOL    HW2 4065   4.666   6.996   4.431
 1056SOL     OW 4066   2.124   4.783   6.236
 1056SOL    HW1 4067   2.039   4.762   6.285
 1056SOL    HW2 4068   2.135   4.718   6.161
 1057SOL     OW 4069   2.933   3.233   2.518
 1057SOL    HW1 4070   2.981   3.171   2.456
 1057SOL    HW2 4071   2.849   3.265   2.474
 1058SOL     OW 4072   4.361   1.493   3.505
 1058SOL    HW1 4073   4.323   1.577   3.543
 1058SOL    HW2 4074   4.439   1.515   3.446
 1059SOL     OW 4075   2.056   6.917   1.219
 1059SOL    HW1 4076   2.105   6.895   1.304
 1059SOL    HW2 4077   2.107   6.985   1.168
 1060SOL     OW 4078   6.804   4.357   4.296
 1060SOL    HW1 4079   6.750   4.273   4.291
 1060SOL    HW2 4080   6.803   4.402   4.206
 1061SOL     OW 4081   5.679   3.659   1.331
 1061SOL    HW1 4082   5.765   3.667   1.282
 1061SOL    HW2 4083   5.608   3.708   1.282
 1062SOL     OW 4084   5.798   4.004   6.509
 1062SOL    HW1 4085   5.793   3.955   6.595
 1062SOL    HW2 4086   5.732   3.966   6.444
 1063SOL     OW 4087   1.939   5.067   1.954
 1063SOL    HW1 4088   2.014   5.132   1.945
 1063SOL    HW2 4089   1.872   5.102   2.019
 1064SOL     OW 4090   1.861   3.851   1.760
 1064SOL    HW1 4091   1.893   3.789   1.832
 1064SOL    HW2 4092   1.903   3.941   1.773
 1065SOL     OW 4093   3.989   6.996   4.082
 1065SOL    HW1 4094   3.911   7.008   4.022
 1065SOL    HW2 4095   4.070   0.015   4.042
 1066SOL     OW 4096   4.615   0.570   3.827
 1066SOL    HW1 4097   4.581   0.657   3.793
 1066SOL    HW2 4098   4.567   0.546   3.911
 1067SOL     OW 4099   0.743   3.160   0.722
 1067SOL    HW1 4100   0.678   3.088   0.749
 1067SOL    HW2 4101   0.823   3.157   0.783
 1068SOL     OW 4102   5.488   5.179   2.753
 1068SOL    HW1 4103   5.514   5.195   2.657
 1068SOL    HW2 4104   5.477   5.080   2.768
 1069SOL     OW 4105   4.745   4.980   0.847
 1069SOL    HW1 4106   4.725   5.047   0.775
 1069SOL    HW2 4107   4.670   4.980   0.914
 1070SOL     OW 4108   0.109   0.235   2.211
 1070SOL    HW1 4109   0.040   0.307   2.216
 1070SOL    HW2 4110   0.177   0.248   2.282
 1071SOL     OW 4111   1.488   0.801   3.127
 1071SOL    HW1 4112   1.572   0.805   3.181
 1071SOL    HW2 4113   1.463   0.706   3.110
 1072SOL     OW 4114   1.991   0.478   0.671
 1072SOL    HW1 4115   1.949   0.404   0.618
 1072SOL    HW2 4116   1.937   0.495   0.754
 1073SOL     OW 4117   4.781   6.874   1.511
 1073SOL    HW1 4118   4.732   6.867   1.424
 1073SOL    HW2 4119   4.880   6.872   1.494
 1074SOL     OW 4120   2.665   5.346   0.781
 1074SOL    HW1 4121   2.575   5.309   0.758
 1074SOL    HW2 4122   2.662   5.446   0.779
 1075SOL     OW 4123   4.429   6.534   3.902
 1075SOL    HW1 4124   4.516   6.583   3.900
 1075SOL    HW2 4125   4.362   6.587   3.956
 1076SOL     OW 4126   6.751   3.280   5.958
 1076SOL    HW1 4127   6.676   3.252   6.018
 1076SOL    HW2 4128   6.713   3.320   5.875
 1077SOL     OW 4129   5.607   0.501   1.408
 1077SOL    HW1 4130   5.705   0.502   1.389
 1077SOL    HW2 4131   5.560   0.447   1.338
 1078SOL     OW 4132   1.163   1.529   2.512
 1078SOL    HW1 4133   1.250   1.507   2.468
 1078SOL    HW2 4134   1.090   1.474   2.470
 1079SOL     OW 4135   2.245   6.191   2.282
 1079SOL    HW1 4136   2.252   6.290   2.265
 1079SOL    HW2 4137   2.336   6.151   2.282
 1080SOL     OW 4138   1.285   4.311   3.857
 1080SOL    HW1 4139   1.199   4.296   3.907
 1080SOL    HW2 4140   1.305   4.231   3.801
 1081SOL     OW 4141   0.135   5.844   6.107
 1081SOL    HW1 4142   0.183   5.873   6.190
 1081SOL    HW2 4143   0.111   5.925   6.053
 1082SOL     OW 4144   3.982   2.101   5.632
 1082SOL    HW1 4145   3.883   2.096   5.617
 1082SOL    HW2 4146   4.023   2.013   5.609
 1083SOL     OW 4147   4.266   3.806   0.156
 1083SOL    HW1 4148   4.176   3.829   0.192
 1083SOL    HW2 4149   4.295   3.717   0.190
 1084SOL     OW 4150   5.898   5.854   0.039
 1084SOL    HW1 4151   5.959   5.775   0.044
 1084SOL    HW2 4152   5.950   5.937   0.059
 1085SOL     OW 4153   0.934   3.769   4.275
 1085SOL    HW1 4154   1.008   3.782   4.341
 1085SOL    HW2 4155   0.916   3.856   4.229
 1086SOL     OW 4156   6.713   6.222   1.271
 1086SOL    HW1 4157   6.759   6.169   1.343
 1086SOL    HW2 4158   6.694   6.314   1.306
 1087SOL     OW 4159   5.647   2.210   5.247
 1087SOL    HW1 4160   5.702   2.234   5.327
 1087SOL    HW2 4161   5.704   2.213   5.165
 1088SOL     OW 4162   6.461   4.535   3.173
 1088SOL    HW1 4163   6.370   4.500   3.150
 1088SOL    HW2 4164   6.472   4.536   3.273
 1089SOL     OW 4165   1.458   6.340   4.493
 1089SOL    HW1 4166   1.416   6.254   4.466
 1089SOL    HW2 4167   1.509   6.378   4.416
 1090SOL     OW 4168   2.037   1.811   3.284
 1090SOL    HW1 4169   1.937   1.813   3.294
 1090SOL    HW2 4170   2.079   1.836   3.371
 1091SOL     OW 4171   2.621   2.564   5.577
 1091SOL    HW1 4172   2.542   2.538   5.633
 1091SOL    HW2 4173   2.704   2.526   5.617
 1092SOL     OW 4174   1.989   4.325   1.014
 1092SOL    HW1 4175   2.067   4.310   1.075
 1092SOL    HW2 4176   1.981   4.423   0.994
 1093SOL     OW 4177   1.738   1.803   2.096
 1093SOL    HW1 4178   1.658   1.767   2.145
 1093SOL    HW2 4179   1.821   1.761   2.132
 1094SOL     OW 4180   1.118   6.567   3.716
 1094SOL    HW1 4181   1.048   6.504   3.684
 1094SOL    HW2 4182   1.076   6.635   3.777
 1095SOL     OW 4183   0.566   3.035   6.562
 1095SOL    HW1 4184   0.540   2.950   6.515
 1095SOL    HW2 4185   0.661   3.029   6.592
 1096SOL     OW 4186   3.424   4.483   1.706
 1096SOL    HW1 4187   3.459   4.394   1.735
 1096SOL    HW2 4188   3.464   4.555   1.763
 1097SOL     OW 4189   2.275   4.233   4.380
 1097SOL    HW1 4190   2.325   4.147   4.388
 1097SOL    HW2 4191   2.177   4.215   4.388
 1098SOL     OW 4192   4.536   3.504   0.641
 1098SOL    HW1 4193   4.477   3.577   0.606
 1098SOL    HW2 4194   4.626   3.542   0.665
 1099SOL     OW 4195   4.595   1.674   5.126
 1099SOL    HW1 4196   4.657   1.752   5.123
 1099SOL    HW2 4197   4.547   1.666   5.038
 1100SOL     OW 4198   3.450   2.276   5.989
 1100SOL    HW1 4199   3.400   2.237   6.067
 1100SOL    HW2 4200   3.544   2.240   5.989
 1101SOL     OW 4201   6.018   1.807   0.230
 1101SOL    HW1 4202   6.079   1.818   0.308
 1101SOL    HW2 4203   5.947   1.878   0.231
 1102SOL     OW 4204   0.812   5.512   4.502
 1102SOL    HW1 4205   0.746   5.458   4.554
 1102SOL    HW2 4206   0.766   5.558   4.426
 1103SOL     OW 4207   3.807   2.069   0.800
 1103SOL    HW1 4208   3.729   2.105   0.850
 1103SOL    HW2 4209   3.806   1.969   0.805
 1104SOL     OW 4210   2.316   3.301   5.250
 1104SOL    HW1 4211   2.356   3.221   5.204
 1104SOL    HW2 4212   2.362   3.315   5.337
 1105SOL     OW 4213   6.316   3.714   4.888
 1105SOL    HW1 4214   6.294   3.649   4.960
 1105SOL    HW2 4215   6.383   3.780   4.921
 1106SOL     OW 4216   1.216   1.736   1.578
 1106SOL    HW1 4217   1.270   1.813   1.611
 1106SOL    HW2 4218   1.223   1.730   1.478
 1107SOL     OW 4219   2.205   0.207   6.403
 1107SOL    HW1 4220   2.111   0.218   6.436
 1107SOL    HW2 4221   2.205   0.209   6.303
 1108SOL     OW 4222   3.498   0.491   5.489
 1108SOL    HW1 4223   3.559   0.570   5.481
 1108SOL    HW2 4224   3.543   0.421   5.545
 1109SOL     OW 4225   4.745   0.354   4.549
 1109SOL    HW1 4226   4.834   0.320   4.579
 1109SOL    HW2 4227   4.679   0.344   4.624
 1110SOL     OW 4228   2.771   2.029   3.473
 1110SOL    HW1 4229   2.803   2.122   3.459
 1110SOL    HW2 4230   2.671   2.026   3.460
 1111SOL     OW 4231   5.280   5.532   6.157
 1111SOL    HW1 4232   5.246   5.438   6.163
 1111SOL    HW2 4233   5.343   5.539   6.080
 1112SOL     OW 4234   5.299   1.600   2.599
 1112SOL    HW1 4235   5.228   1.577   2.532
 1112SOL    HW2 4236   5.330   1.516   2.644
 1113SOL     OW 4237   0.034   3.597   2.168
 1113SOL    HW1 4238   0.095   3.596   2.089
 1113SOL    HW2 4239   0.086   3.616   2.251
 1114SOL     OW 4240   3.769   1.719   6.634
 1114SOL    HW1 4241   3.828   1.794   6.603
 1114SOL    HW2 4242   3.776   1.642   6.569
 1115SOL     OW 4243   4.074   3.548   0.386
 1115SOL    HW1 4244   4.150   3.573   0.326
 1115SOL    HW2 4245   4.110   3.517   0.474
 1116SOL     OW 4246   5.299   6.474   5.057
 1116SOL    HW1 4247   5.290   6.425   5.143
 1116SOL    HW2 4248   5.380   6.441   5.008
 1117SOL     OW 4249   1.103   2.420   1.646
 1117SOL    HW1 4250   1.046   2.404   1.565
 1117SOL    HW2 4251   1.166   2.343   1.658
 1118SOL     OW 4252   2.540   4.371   1.369
 1118SOL    HW1 4253   2.516   4.437   1.298
 1118SOL    HW2 4254   2.623   4.401   1.416
 1119SOL     OW 4255   4.469   4.205   0.249
 1119SOL    HW1 4256   4.513   4.214   0.160
 1119SOL    HW2 4257   4.509   4.127   0.298
 1120SOL     OW 4258   6.139   6.868   5.135
 1120SOL    HW1 4259   6.054   6.868   5.188
 1120SOL    HW2 4260   6.118   6.863   5.038
 1121SOL     OW 4261   5.070   4.923   2.709
 1121SOL    HW1 4262   5.074   4.968   2.619
 1121SOL    HW2 4263   5.009   4.975   2.768
 1122SOL     OW 4264   5.082   3.463   6.829
 1122SOL    HW1 4265   5.024   3.419   6.761
 1122SOL    HW2 4266   5.033   3.470   6.916
 1123SOL     OW 4267   5.153   1.164   3.178
 1123SOL    HW1 4268   5.102   1.087   3.140
 1123SOL    HW2 4269   5.217   1.130   3.247
 1124SOL     OW 4270   6.321   3.713   5.513
 1124SOL    HW1 4271   6.391   3.654   5.553
 1124SOL    HW2 4272   6.239   3.659   5.494
 1125SOL     OW 4273   3.124   1.559   5.091
 1125SOL    HW1 4274   3.153   1.479   5.143
 1125SOL    HW2 4275   3.091   1.530   5.001
 1126SOL     OW 4276   6.203   5.355   6.536
 1126SOL    HW1 4277   6.142   5.346   6.458
 1126SOL    HW2 4278   6.298   5.339   6.507
 1127SOL     OW 4279   4.842   5.058   4.320
 1127SOL    HW1 4280   4.917   5.016   4.371
 1127SOL    HW2 4281   4.755   5.023   4.354
 1128SOL     OW 4282   5.646   1.876   5.639
 1128SOL    HW1 4283   5.598   1.791   5.661
 1128SOL    HW2 4284   5.588   1.954   5.662
 1129SOL     OW 4285   3.350   0.411   6.963
 1129SOL    HW1 4286   3.333   0.506   6.934
 1129SOL    HW2 4287   3.397   0.412   0.028
 1130SOL     OW 4288   2.598   4.968   0.474
 1130SOL    HW1 4289   2.601   4.869   0.461
 1130SOL    HW2 4290   2.514   4.992   0.522
 1131SOL     OW 4291   0.085   6.475   6.377
 1131SOL    HW1 4292   0.172   6.427   6.389
 1131SOL    HW2 4293   0.015   6.429   6.432
 1132SOL     OW 4294   5.215   0.240   1.286
 1132SOL    HW1 4295   5.158   0.174   1.237
 1132SOL    HW2 4296   5.307   0.203   1.297
 1133SOL     OW 4297   1.092   0.412   1.051
 1133SOL    HW1 4298   1.002   0.372   1.033
 1133SOL    HW2 4299   1.083   0.511   1.057
 1134SOL     OW 4300   5.222   1.336   1.416
 1134SOL    HW1 4301   5.303   1.323   1.474
 1134SOL    HW2 4302   5.208   1.433   1.399
 1135SOL     OW 4303   1.893   1.518   2.984
 1135SOL    HW1 4304   1.955   1.440   2.995
 1135SOL    HW2 4305   1.946   1.600   2.961
 1136SOL     OW 4306   3.103   4.940   4.727
 1136SOL    HW1 4307   3.025   4.877   4.729
 1136SOL    HW2 4308   3.141   4.951   4.819
 1137SOL     OW 4309   1.001   1.455   5.963
 1137SOL    HW1 4310   0.959   1.541   5.932
 1137SOL    HW2 4311   1.100   1.466   5.968
 1138SOL     OW 4312   0.168   0.965   6.464
 1138SOL    HW1 4313   0.235   1.027   6.423
 1138SOL    HW2 4314   0.209   0.919   6.543
 1139SOL     OW 4315   3.915   5.344   1.559
 1139SOL    HW1 4316   3.972   5.416   1.600
 1139SOL    HW2 4317   3.829   5.337   1.608
 1140SOL     OW 4318   4.087   1.247   1.996
 1140SOL    HW1 4319   4.069   1.206   1.906
 1140SOL    HW2 4320   4.132   1.179   2.054
 1141SOL     OW 4321   0.337   6.807   6.454
 1141SOL    HW1 4322   0.291   6.740   6.512
 1141SOL    HW2 4323   0.399   6.862   6.510
 1142SOL     OW 4324   2.950   0.081   4.871
 1142SOL    HW1 4325   2.937   0.135   4.954
 1142SOL    HW2 4326   2.917   0.132   4.792
 1143SOL     OW 4327   1.693   3.569   2.689
 1143SOL    HW1 4328   1.607   3.618   2.705
 1143SOL    HW2 4329   1.745   3.617   2.619
 1144SOL     OW 4330   6.582   4.980   5.337
 1144SOL    HW1 4331   6.681   4.976   5.322
 1144SOL    HW2 4332   6.564   5.019   5.427
 1145SOL     OW 4333   0.344   3.977   1.963
 1145SOL    HW1 4334   0.285   3.905   1.924
 1145SOL    HW2 4335   0.426   3.987   1.908
 1146SOL     OW 4336   6.107   0.840   2.057
 1146SOL    HW1 4337   6.163   0.788   1.993
 1146SOL    HW2 4338   6.165   0.879   2.129
 1147SOL     OW 4339   2.132   5.430   1.355
 1147SOL    HW1 4340   2.053   5.482   1.389
 1147SOL    HW2 4341   2.187   5.399   1.432
 1148SOL     OW 4342   4.805   7.016   0.367
 1148SOL    HW1 4343   4.795   6.919   0.387
 1148SOL    HW2 4344   4.885   0.028   0.415
 1149SOL     OW 4345   6.486   4.218   2.552
 1149SOL    HW1 4346   6.570   4.270   2.537
 1149SOL    HW2 4347   6.508   4.129   2.591
 1150SOL     OW 4348   2.836   3.900   0.218
 1150SOL    HW1 4349   2.795   3.812   0.194
 1150SOL    HW2 4350   2.934   3.896   0.202
 1151SOL     OW 4351   4.034   5.225   0.045
 1151SOL    HW1 4352   4.101   5.156   0.075
 1151SOL    HW2 4353   3.996   5.197   6.981
 1152SOL     OW 4354   6.267   4.906   6.098
 1152SOL    HW1 4355   6.252   4.811   6.123
 1152SOL    HW2 4356   6.192   4.937   6.039
 1153SOL     OW 4357   2.219   7.017   1.818
 1153SOL    HW1 4358   2.122   7.010   1.844
 1153SOL    HW2 4359   2.226   0.032   1.726
 1154SOL     OW 4360   0.970   4.191   1.665
 1154SOL    HW1 4361   1.005   4.285   1.662
 1154SOL    HW2 4362   0.924   4.170   1.579
 1155SOL     OW 4363   2.009   5.427   6.226
 1155SOL    HW1 4364   2.009   5.377   6.139
 1155SOL    HW2 4365   2.074   5.502   6.221
 1156SOL     OW 4366   2.929   1.536   4.410
 1156SOL    HW1 4367   2.967   1.477   4.339
 1156SOL    HW2 4368   2.838   1.505   4.434
 1157SOL     OW 4369   6.005   0.427   5.311
 1157SOL    HW1 4370   6.009   0.476   5.397
 1157SOL    HW2 4371   5.954   0.341   5.323
 1158SOL     OW 4372   6.782   6.011   5.523
 1158SOL    HW1 4373   6.779   6.077   5.448
 1158SOL    HW2 4374   6.706   5.947   5.514
 1159SOL     OW 4375   6.219   0.036   4.299
 1159SOL    HW1 4376   6.292   0.033   4.230
 1159SOL    HW2 4377   6.131   0.051   4.254
 1160SOL     OW 4378   3.786   3.770   1.216
 1160SOL    HW1 4379   3.826   3.679   1.205
 1160SOL    HW2 4380   3.717   3.785   1.144
 1161SOL     OW 4381   6.237   0.464   6.790
 1161SOL    HW1 4382   6.328   0.498   6.764
 1161SOL    HW2 4383   6.170   0.496   6.723
 1162SOL     OW 4384   2.416   1.750   6.532
 1162SOL    HW1 4385   2.387   1.833   6.485
 1162SOL    HW2 4386   2.462   1.774   6.618
 1163SOL     OW 4387   6.835   3.403   1.333
 1163SOL    HW1 4388   6.743   3.430   1.305
 1163SOL    HW2 4389   6.832   3.310   1.371
 1164SOL     OW 4390   5.421   2.698   5.253
 1164SOL    HW1 4391   5.414   2.598   5.261
 1164SOL    HW2 4392   5.514   2.727   5.278
 1165SOL     OW 4393   2.681   4.682   3.853
 1165SOL    HW1 4394   2.748   4.715   3.920
 1165SOL    HW2 4395   2.716   4.697   3.761
 1166SOL     OW 4396   3.732   6.706   6.701
 1166SOL    HW1 4397   3.634   6.709   6.682
 1166SOL    HW2 4398   3.760   6.794   6.739
 1167SOL     OW 4399   4.304   6.706   6.694
 1167SOL    HW1 4400   4.326   6.796   6.730
 1167SOL    HW2 4401   4.283   6.713   6.597
 1168SOL     OW 4402   5.065   2.122   3.830
 1168SOL    HW1 4403   5.001   2.131   3.906
 1168SOL    HW2 4404   5.017   2.085   3.751
 1169SOL     OW 4405   5.461   2.275   6.018
 1169SOL    HW1 4406   5.426   2.357   5.972
 1169SOL    HW2 4407   5.551   2.251   5.980
 1170SOL     OW 4408   5.251   1.294   2.945
 1170SOL    HW1 4409   5.214   1.279   3.036
 1170SOL    HW2 4410   5.198   1.242   2.878
 1171SOL     OW 4411   2.861   6.284   6.934
 1171SOL    HW1 4412   2.764   6.261   6.931
 1171SOL    HW2 4413   2.905   6.236   7.010
 1172SOL     OW 4414   3.281   4.019   1.986
 1172SOL    HW1 4415   3.377   4.027   2.013
 1172SOL    HW2 4416   3.271   3.945   1.919
 1173SOL     OW 4417   3.519   0.386   6.530
 1173SOL    HW1 4418   3.420   0.393   6.521
 1173SOL    HW2 4419   3.541   0.332   6.611
 1174SOL     OW 4420   3.691   4.311   0.238
 1174SOL    HW1 4421   3.725   4.251   0.310
 1174SOL    HW2 4422   3.592   4.317   0.243
 1175SOL     OW 4423   3.788   3.345   6.582
 1175SOL    HW1 4424   3.770   3.425   6.525
 1175SOL    HW2 4425   3.874   3.303   6.554
 1176SOL     OW 4426   6.170   5.032   6.832
 1176SOL    HW1 4427   6.079   5.045   6.792
 1176SOL    HW2 4428   6.227   4.978   6.770
 1177SOL     OW 4429   6.548   1.951   5.964
 1177SOL    HW1 4430   6.596   1.969   5.878
 1177SOL    HW2 4431   6.502   2.034   5.994
 1178SOL     OW 4432   3.223   3.311   1.537
 1178SOL    HW1 4433   3.201   3.395   1.586
 1178SOL    HW2 4434   3.207   3.324   1.439
 1179SOL     OW 4435   3.054   6.537   1.075
 1179SOL    HW1 4436   3.140   6.546   1.125
 1179SOL    HW2 4437   3.062   6.462   1.009
 1180SOL     OW 4438   2.433   6.066   3.747
 1180SOL    HW1 4439   2.374   6.084   3.668
 1180SOL    HW2 4440   2.377   6.046   3.827
 1181SOL     OW 4441   0.314   3.520   5.653
 1181SOL    HW1 4442   0.240   3.464   5.617
 1181SOL    HW2 4443   0.386   3.460   5.690
 1182SOL     OW 4444   3.152   5.319   3.262
 1182SOL    HW1 4445   3.245   5.350   3.282
 1182SOL    HW2 4446   3.094   5.333   3.342
 1183SOL     OW 4447   3.825   5.927   1.709
 1183SOL    HW1 4448   3.875   5.859   1.763
 1183SOL    HW2 4449   3.777   5.880   1.634
 1184SOL     OW 4450   5.330   6.925   6.828
 1184SOL    HW1 4451   5.303   7.007   6.778
 1184SOL    HW2 4452   5.254   6.861   6.830
 1185SOL     OW 4453   0.769   0.895   1.001
 1185SOL    HW1 4454   0.732   0.968   1.059
 1185SOL    HW2 4455   0.731   0.807   1.029
 1186SOL     OW 4456   5.528   5.820   5.479
 1186SOL    HW1 4457   5.571   5.851   5.394
 1186SOL    HW2 4458   5.457   5.753   5.457
 1187SOL     OW 4459   5.310   6.802   5.099
 1187SOL    HW1 4460   5.325   6.713   5.056
 1187SOL    HW2 4461   5.323   6.875   5.032
 1188SOL     OW 4462   3.667   5.800   6.031
 1188SOL    HW1 4463   3.610   5.723   6.057
 1188SOL    HW2 4464   3.684   5.799   5.933
 1189SOL     OW 4465   6.338   0.441   1.974
 1189SOL    HW1 4466   6.244   0.477   1.972
 1189SOL    HW2 4467   6.371   0.441   2.068
 1190SOL     OW 4468   3.383   5.503   3.047
 1190SOL    HW1 4469   3.468   5.552   3.031
 1190SOL    HW2 4470   3.355   5.456   2.963
 1191SOL     OW 4471   2.788   6.546   4.438
 1191SOL    HW1 4472   2.870   6.488   4.436
 1191SOL    HW2 4473   2.764   6.567   4.532
 1192SOL     OW 4474   5.748   6.174   3.445
 1192SOL    HW1 4475   5.685   6.120   3.500
 1192SOL    HW2 4476   5.833   6.123   3.431
 1193SOL     OW 4477   0.377   0.705   5.300
 1193SOL    HW1 4478   0.406   0.686   5.393
 1193SOL    HW2 4479   0.437   0.773   5.259
 1194SOL     OW 4480   6.829   1.695   0.755
 1194SOL    HW1 4481   6.854   1.600   0.773
 1194SOL    HW2 4482   6.911   1.750   0.741
 1195SOL     OW 4483   6.484   3.793   0.760
 1195SOL    HW1 4484   6.568   3.741   0.778
 1195SOL    HW2 4485   6.508   3.882   0.722
 1196SOL     OW 4486   5.949   4.526   2.681
 1196SOL    HW1 4487   5.896   4.558   2.759
 1196SOL    HW2 4488   6.023   4.590   2.662
 1197SOL     OW 4489   4.516   6.408   4.147
 1197SOL    HW1 4490   4.423   6.436   4.172
 1197SOL    HW2 4491   4.526   6.411   4.048
 1198SOL     OW 4492   1.098   3.901   2.268
 1198SOL    HW1 4493   1.093   3.804   2.244
 1198SOL    HW2 4494   1.185   3.939   2.236
 1199SOL     OW 4495   3.360   3.202   2.674
 1199SOL    HW1 4496   3.344   3.104   2.684
 1199SOL    HW2 4497   3.438   3.229   2.730
 1200SOL     OW 4498   3.962   4.003   4.432
 1200SOL    HW1 4499   3.929   4.002   4.337
 1200SOL    HW2 4500   4.004   3.914   4.453
 1201SOL     OW 4501   0.055   0.748   4.778
 1201SOL    HW1 4502   0.016   0.720   4.691
 1201SOL    HW2 4503   0.059   0.848   4.782
 1202SOL     OW 4504   6.828   6.767   5.852
 1202SOL    HW1 4505   6.925   6.781   5.871
 1202SOL    HW2 4506   6.817   6.735   5.758
 1203SOL     OW 4507   0.234   6.501   0.827
 1203SOL    HW1 4508   0.313   6.554   0.798
 1203SOL    HW2 4509   0.152   6.558   0.825
 1204SOL     OW 4510   5.037   1.393   1.748
 1204SOL    HW1 4511   4.969   1.403   1.821
 1204SOL    HW2 4512   5.023   1.305   1.702
 1205SOL     OW 4513   3.598   3.649   0.012
 1205SOL    HW1 4514   3.641   3.604   0.091
 1205SOL    HW2 4515   3.599   3.587   6.958
 1206SOL     OW 4516   1.044   3.034   4.280
 1206SOL    HW1 4517   1.057   3.115   4.336
 1206SOL    HW2 4518   1.033   3.060   4.184
 1207SOL     OW 4519   0.532   0.596   0.456
 1207SOL    HW1 4520   0.632   0.592   0.465
 1207SOL    HW2 4521   0.501   0.690   0.463
 1208SOL     OW 4522   3.469   3.759   1.857
 1208SOL    HW1 4523   3.456   3.791   1.763
 1208SOL    HW2 4524   3.566   3.769   1.882
 1209SOL     OW 4525   5.487   0.384   4.062
 1209SOL    HW1 4526   5.523   0.333   3.984
 1209SOL    HW2 4527   5.562   0.433   4.107
 1210SOL     OW 4528   4.892   6.717   3.958
 1210SOL    HW1 4529   4.862   6.622   3.971
 1210SOL    HW2 4530   4.958   6.741   4.029
 1211SOL     OW 4531   0.982   3.160   3.220
 1211SOL    HW1 4532   1.032   3.245   3.239
 1211SOL    HW2 4533   0.899   3.158   3.276
 1212SOL     OW 4534   6.814   0.569   6.007
 1212SOL    HW1 4535   6.896   0.525   6.043
 1212SOL    HW2 4536   6.820   0.573   5.907
 1213SOL     OW 4537   5.853   1.809   2.743
 1213SOL    HW1 4538   5.789   1.860   2.685
 1213SOL    HW2 4539   5.807   1.729   2.781
 1214SOL     OW 4540   0.351   2.664   6.668
 1214SOL    HW1 4541   0.424   2.720   6.708
 1214SOL    HW2 4542   0.262   2.704   6.690
 1215SOL     OW 4543   1.742   4.826   2.519
 1215SOL    HW1 4544   1.820   4.887   2.534
 1215SOL    HW2 4545   1.662   4.863   2.567
 1216SOL     OW 4546   6.156   1.478   1.056
 1216SOL    HW1 4547   6.191   1.385   1.065
 1216SOL    HW2 4548   6.081   1.479   0.989
 1217SOL     OW 4549   3.309   4.641   0.755
 1217SOL    HW1 4550   3.278   4.658   0.661
 1217SOL    HW2 4551   3.348   4.725   0.792
 1218SOL     OW 4552   1.635   3.075   5.614
 1218SOL    HW1 4553   1.680   3.019   5.544
 1218SOL    HW2 4554   1.627   3.022   5.698
 1219SOL     OW 4555   5.193   5.298   1.639
 1219SOL    HW1 4556   5.150   5.340   1.559
 1219SOL    HW2 4557   5.291   5.287   1.622
 1220SOL     OW 4558   6.892   3.980   2.265
 1220SOL    HW1 4559   6.949   4.058   2.288
 1220SOL    HW2 4560   6.902   3.959   2.167
 1221SOL     OW 4561   5.398   3.757   6.400
 1221SOL    HW1 4562   5.306   3.727   6.376
 1221SOL    HW2 4563   5.458   3.677   6.410
 1222SOL     OW 4564   0.362   0.879   6.640
 1222SOL    HW1 4565   0.440   0.941   6.649
 1222SOL    HW2 4566   0.394   0.784   6.640
 1223SOL     OW 4567   3.705   1.184   0.262
 1223SOL    HW1 4568   3.659   1.111   0.313
 1223SOL    HW2 4569   3.636   1.242   0.218
 1224SOL     OW 4570   3.207   5.838   6.805
 1224SOL    HW1 4571   3.177   5.895   6.881
 1224SOL    HW2 4572   3.204   5.891   6.720
 1225SOL     OW 4573   3.736   2.774   6.995
 1225SOL    HW1 4574   3.761   2.679   6.975
 1225SOL    HW2 4575   3.817   2.824   0.002
 1226SOL     OW 4576   3.542   6.223   0.440
 1226SOL    HW1 4577   3.597   6.162   0.497
 1226SOL    HW2 4578   3.446   6.197   0.447
 1227SOL     OW 4579   5.375   5.603   5.652
 1227SOL    HW1 4580   5.285   5.596   5.609
 1227SOL    HW2 4581   5.366   5.588   5.751
 1228SOL     OW 4582   3.473   2.474   6.636
 1228SOL    HW1 4583   3.507   2.542   6.701
 1228SOL    HW2 4584   3.418   2.406   6.683
 1229SOL     OW 4585   1.841   5.019   0.180
 1229SOL    HW1 4586   1.828   5.081   0.102
 1229SOL    HW2 4587   1.849   5.072   0.264
 1230SOL     OW 4588   5.853   6.061   2.125
 1230SOL    HW1 4589   5.866   6.103   2.035
 1230SOL    HW2 4590   5.935   6.008   2.148
 1231SOL     OW 4591   1.715   2.009   5.335
 1231SOL    HW1 4592   1.653   2.083   5.363
 1231SOL    HW2 4593   1.801   2.048   5.303
 1232SOL     OW 4594   6.522   1.223   5.002
 1232SOL    HW1 4595   6.620   1.223   5.023
 1232SOL    HW2 4596   6.476   1.152   5.055
 1233SOL     OW 4597   0.665   5.285   4.621
 1233SOL    HW1 4598   0.718   5.268   4.704
 1233SOL    HW2 4599   0.580   5.231   4.624
 1234SOL     OW 4600   5.787   2.034   5.450
 1234SOL    HW1 4601   5.773   2.126   5.486
 1234SOL    HW2 4602   5.732   1.969   5.501
 1235SOL     OW 4603   6.012   4.460   1.593
 1235SOL    HW1 4604   6.002   4.528   1.520
 1235SOL    HW2 4605   6.103   4.470   1.634
 1236SOL     OW 4606   4.242   1.504   1.791
 1236SOL    HW1 4607   4.157   1.471   1.750
 1236SOL    HW2 4608   4.256   1.459   1.879
 1237SOL     OW 4609   1.244   4.733   5.271
 1237SOL    HW1 4610   1.275   4.779   5.355
 1237SOL    HW2 4611   1.273   4.787   5.192
 1238SOL     OW 4612   1.409   0.457   5.653
 1238SOL    HW1 4613   1.434   0.397   5.577
 1238SOL    HW2 4614   1.316   0.491   5.640
 1239SOL     OW 4615   0.113   6.940   6.364
 1239SOL    HW1 4616   0.066   6.956   6.451
 1239SOL    HW2 4617   0.212   6.938   6.381
 1240SOL     OW 4618   5.922   6.029   1.267
 1240SOL    HW1 4619   5.877   6.046   1.355
 1240SOL    HW2 4620   5.940   6.115   1.221
 1241SOL     OW 4621   6.060   4.600   5.415
 1241SOL    HW1 4622   6.103   4.595   5.325
 1241SOL    HW2 4623   6.049   4.508   5.452
 1242SOL     OW 4624   2.189   4.460   1.239
 1242SOL    HW1 4625   2.280   4.501   1.236
 1242SOL    HW2 4626   2.196   4.363   1.219
 1243SOL     OW 4627   1.038   1.004   5.099
 1243SOL    HW1 4628   0.956   1.028   5.152
 1243SOL    HW2 4629   1.013   0.947   5.021
 1244SOL     OW 4630   5.257   6.226   4.458
 1244SOL    HW1 4631   5.342   6.196   4.503
 1244SOL    HW2 4632   5.179   6.196   4.513
 1245SOL     OW 4633   5.163   4.072   6.961
 1245SOL    HW1 4634   5.228   4.001   6.932
 1245SOL    HW2 4635   5.205   4.129   0.007
 1246SOL     OW 4636   3.041   1.685   1.536
 1246SOL    HW1 4637   3.066   1.751   1.466
 1246SOL    HW2 4638   3.124   1.646   1.576
 1247SOL     OW 4639   0.058   6.636   5.988
 1247SOL    HW1 4640   0.085   6.696   5.913
 1247SOL    HW2 4641   0.039   6.690   6.070
 1248SOL     OW 4642   1.907   6.417   3.625
 1248SOL    HW1 4643   1.857   6.421   3.711
 1248SOL    HW2 4644   1.867   6.480   3.559
 1249SOL     OW 4645   6.472   2.464   1.909
 1249SOL    HW1 4646   6.552   2.436   1.961
 1249SOL    HW2 4647   6.491   2.458   1.811
 1250SOL     OW 4648   5.710   5.122   3.389
 1250SOL    HW1 4649   5.695   5.054   3.461
 1250SOL    HW2 4650   5.798   5.106   3.346
 1251SOL     OW 4651   1.775   1.103   3.104
 1251SOL    HW1 4652   1.785   1.153   3.189
 1251SOL    HW2 4653   1.735   1.163   3.034
 1252SOL     OW 4654   3.777   4.528   6.810
 1252SOL    HW1 4655   3.724   4.515   6.894
 1252SOL    HW2 4656   3.874   4.509   6.829
 1253SOL     OW 4657   3.779   6.522   2.564
 1253SOL    HW1 4658   3.685   6.533   2.532
 1253SOL    HW2 4659   3.781   6.457   2.641
 1254SOL     OW 4660   0.510   2.206   3.765
 1254SOL    HW1 4661   0.577   2.150   3.813
 1254SOL    HW2 4662   0.457   2.148   3.703
 1255SOL     OW 4663   5.975   1.231   6.135
 1255SOL    HW1 4664   6.046   1.295   6.107
 1255SOL    HW2 4665   5.891   1.248   6.083
 1256SOL     OW 4666   0.186   6.882   3.721
 1256SOL    HW1 4667   0.106   6.860   3.665
 1256SOL    HW2 4668   0.268   6.881   3.663
 1257SOL     OW 4669   6.808   5.290   4.921
 1257SOL    HW1 4670   6.885   5.229   4.944
 1257SOL    HW2 4671   6.745   5.293   4.998
 1258SOL     OW 4672   1.567   5.034   3.137
 1258SOL    HW1 4673   1.519   5.081   3.063
 1258SOL    HW2 4674   1.506   4.966   3.177
 1259SOL     OW 4675   4.034   0.146   4.745
 1259SOL    HW1 4676   3.969   0.128   4.672
 1259SOL    HW2 4677   4.043   0.244   4.760
 1260SOL     OW 4678   3.294   1.906   0.245
 1260SOL    HW1 4679   3.299   1.925   0.343
 1260SOL    HW2 4680   3.248   1.818   0.230
 1261SOL     OW 4681   6.677   5.421   6.549
 1261SOL    HW1 4682   6.633   5.490   6.606
 1261SOL    HW2 4683   6.777   5.430   6.556
 1262SOL     OW 4684   5.533   4.767   1.153
 1262SOL    HW1 4685   5.442   4.758   1.114
 1262SOL    HW2 4686   5.601   4.767   1.080
 1263SOL     OW 4687   6.714   2.068   1.532
 1263SOL    HW1 4688   6.790   2.129   1.509
 1263SOL    HW2 4689   6.724   2.037   1.626
 1264SOL     OW 4690   0.243   3.427   1.242
 1264SOL    HW1 4691   0.303   3.485   1.187
 1264SOL    HW2 4692   0.150   3.463   1.239
 1265SOL     OW 4693   5.434   5.492   3.337
 1265SOL    HW1 4694   5.356   5.466   3.394
 1265SOL    HW2 4695   5.404   5.551   3.263
 1266SOL     OW 4696   1.132   1.140   4.369
 1266SOL    HW1 4697   1.053   1.168   4.314
 1266SOL    HW2 4698   1.143   1.202   4.447
 1267SOL     OW 4699   5.368   6.024   1.505
 1267SOL    HW1 4700   5.381   5.938   1.554
 1267SOL    HW2 4701   5.361   6.099   1.571
 1268SOL     OW 4702   3.602   3.023   0.251
 1268SOL    HW1 4703   3.637   3.057   0.337
 1268SOL    HW2 4704   3.609   3.093   0.181
 1269SOL     OW 4705   5.337   5.523   5.111
 1269SOL    HW1 4706   5.359   5.499   5.017
 1269SOL    HW2 4707   5.292   5.445   5.156
 1270SOL     OW 4708   2.236   4.429   3.887
 1270SOL    HW1 4709   2.257   4.366   3.962
 1270SOL    HW2 4710   2.300   4.413   3.812
 1271SOL     OW 4711   2.915   2.241   4.125
 1271SOL    HW1 4712   2.875   2.281   4.042
 1271SOL    HW2 4713   2.871   2.154   4.144
 1272SOL     OW 4714   5.532   5.461   0.150
 1272SOL    HW1 4715   5.560   5.534   0.212
 1272SOL    HW2 4716   5.472   5.397   0.198
 1273SOL     OW 4717   0.469   4.257   6.683
 1273SOL    HW1 4718   0.417   4.273   6.599
 1273SOL    HW2 4719   0.488   4.159   6.692
 1274SOL     OW 4720   6.672   3.956   1.600
 1274SOL    HW1 4721   6.689   4.029   1.534
 1274SOL    HW2 4722   6.591   3.978   1.654
 1275SOL     OW 4723   3.518   1.686   4.747
 1275SOL    HW1 4724   3.590   1.626   4.781
 1275SOL    HW2 4725   3.543   1.718   4.655
 1276SOL     OW 4726   0.008   6.742   4.693
 1276SOL    HW1 4727   0.024   6.836   4.722
 1276SOL    HW2 4728   6.958   6.739   4.626
 1277SOL     OW 4729   1.025   6.061   6.147
 1277SOL    HW1 4730   0.995   6.154   6.170
 1277SOL    HW2 4731   0.950   5.998   6.166
 1278SOL     OW 4732   0.864   0.035   5.320
 1278SOL    HW1 4733   0.870   0.135   5.315
 1278SOL    HW2 4734   0.797   0.002   5.253
 1279SOL     OW 4735   3.133   6.672   0.340
 1279SOL    HW1 4736   3.171   6.752   0.294
 1279SOL    HW2 4737   3.128   6.595   0.277
 1280SOL     OW 4738   2.995   6.483   4.789
 1280SOL    HW1 4739   2.989   6.581   4.807
 1280SOL    HW2 4740   2.936   6.459   4.712
 1281SOL     OW 4741   1.434   6.345   3.622
 1281SOL    HW1 4742   1.457   6.429   3.671
 1281SOL    HW2 4743   1.375   6.367   3.545
 1282SOL     OW 4744   0.650   2.166   6.587
 1282SOL    HW1 4745   0.599   2.090   6.627
 1282SOL    HW2 4746   0.728   2.188   6.646
 1283SOL     OW 4747   6.948   3.005   4.980
 1283SOL    HW1 4748   6.955   2.918   5.030
 1283SOL    HW2 4749   6.861   3.008   4.930
 1284SOL     OW 4750   4.862   1.677   1.791
 1284SOL    HW1 4751   4.928   1.701   1.719
 1284SOL    HW2 4752   4.778   1.643   1.749
 1285SOL     OW 4753   4.778   2.266   6.125
 1285SOL    HW1 4754   4.726   2.236   6.045
 1285SOL    HW2 4755   4.865   2.306   6.095
 1286SOL     OW 4756   5.147   4.059   2.398
 1286SOL    HW1 4757   5.083   4.127   2.362
 1286SOL    HW2 4758   5.195   4.016   2.322
 1287SOL     OW 4759   5.553   5.536   5.263
 1287SOL    HW1 4760   5.577   5.631   5.283
 1287SOL    HW2 4761   5.486   5.534   5.189
 1288SOL     OW 4762   4.337   3.647   6.769
 1288SOL    HW1 4763   4.264   3.607   6.824
 1288SOL    HW2 4764   4.395   3.575   6.732
 1289SOL     OW 4765   1.288   6.000   2.033
 1289SOL    HW1 4766   1.202   6.030   1.992
 1289SOL    HW2 4767   1.332   6.077   2.079
 1290SOL     OW 4768   0.954   6.277   6.519
 1290SOL    HW1 4769   0.989   6.367   6.545
 1290SOL    HW2 4770   0.880   6.251   6.582
 1291SOL     OW 4771   0.168   3.725   5.422
 1291SOL    HW1 4772   0.258   3.683   5.432
 1291SOL    HW2 4773   0.107   3.692   5.494
 1292SOL     OW 4774   0.378   5.713   2.237
 1292SOL    HW1 4775   0.420   5.722   2.146
 1292SOL    HW2 4776   0.278   5.709   2.227
 1293SOL     OW 4777   1.292   1.602   0.305
 1293SOL    HW1 4778   1.332   1.520   0.347
 1293SOL    HW2 4779   1.220   1.638   0.365
 1294SOL     OW 4780   1.198   3.272   6.776
 1294SOL    HW1 4781   1.283   3.288   6.825
 1294SOL    HW2 4782   1.121   3.279   6.840
 1295SOL     OW 4783   0.242   3.253   2.058
 1295SOL    HW1 4784   0.176   3.180   2.074
 1295SOL    HW2 4785   0.245   3.314   2.137
 1296SOL     OW 4786   3.573   0.328   5.696
 1296SOL    HW1 4787   3.489   0.286   5.728
 1296SOL    HW2 4788   3.638   0.257   5.670
 1297SOL     OW 4789   6.019   0.933   1.314
 1297SOL    HW1 4790   5.957   1.011   1.316
 1297SOL    HW2 4791   5.985   0.865   1.250
 1298SOL     OW 4792   5.810   4.543   2.395
 1298SOL    HW1 4793   5.858   4.464   2.435
 1298SOL    HW2 4794   5.722   4.556   2.441
 1299SOL     OW 4795   1.440   3.718   3.192
 1299SOL    HW1 4796   1.345   3.739   3.217
 1299SOL    HW2 4797   1.498   3.731   3.272
 1300SOL     OW 4798   3.188   2.912   1.900
 1300SOL    HW1 4799   3.252   2.891   1.974
 1300SOL    HW2 4800   3.181   2.834   1.838
 1301SOL     OW 4801   0.801   5.700   1.255
 1301SOL    HW1 4802   0.856   5.755   1.193
 1301SOL    HW2 4803   0.840   5.608   1.263
 1302SOL     OW 4804   5.012   0.662   5.434
 1302SOL    HW1 4805   5.077   0.592   5.404
 1302SOL    HW2 4806   5.059   0.749   5.445
 1303SOL     OW 4807   4.388   1.433   2.041
 1303SOL    HW1 4808   4.470   1.491   2.033
 1303SOL    HW2 4809   4.382   1.396   2.133
 1304SOL     OW 4810   2.218   1.243   6.354
 1304SOL    HW1 4811   2.162   1.163   6.336
 1304SOL    HW2 4812   2.160   1.324   6.362
 1305SOL     OW 4813   4.938   3.403   0.373
 1305SOL    HW1 4814   4.852   3.357   0.350
 1305SOL    HW2 4815   5.005   3.388   0.300
 1306SOL     OW 4816   0.430   4.826   4.625
 1306SOL    HW1 4817   0.334   4.798   4.621
 1306SOL    HW2 4818   0.480   4.781   4.551
 1307SOL     OW 4819   0.388   4.034   4.129
 1307SOL    HW1 4820   0.342   4.019   4.216
 1307SOL    HW2 4821   0.459   3.966   4.116
 1308SOL     OW 4822   5.530   6.407   4.881
 1308SOL    HW1 4823   5.565   6.327   4.929
 1308SOL    HW2 4824   5.607   6.464   4.850
 1309SOL     OW 4825   5.333   3.727   5.397
 1309SOL    HW1 4826   5.417   3.781   5.412
 1309SOL    HW2 4827   5.339   3.680   5.309
 1310SOL     OW 4828   6.788   3.794   4.165
 1310SOL    HW1 4829   6.840   3.709   4.158
 1310SOL    HW2 4830   6.851   3.869   4.186
 1311SOL     OW 4831   0.749   6.584   4.801
 1311SOL    HW1 4832   0.722   6.489   4.784
 1311SOL    HW2 4833   0.819   6.610   4.735
 1312SOL     OW 4834   1.341   0.353   6.515
 1312SOL    HW1 4835   1.380   0.385   6.429
 1312SOL    HW2 4836   1.414   0.321   6.575
 1313SOL     OW 4837   0.728   3.899   3.966
 1313SOL    HW1 4838   0.786   3.825   3.934
 1313SOL    HW2 4839   0.779   3.985   3.963
 1314SOL     OW 4840   4.328   1.286   5.580
 1314SOL    HW1 4841   4.401   1.302   5.645
 1314SOL    HW2 4842   4.240   1.312   5.620
 1315SOL     OW 4843   0.064   1.210   1.393
 1315SOL    HW1 4844   0.040   1.223   1.297
 1315SOL    HW2 4845   0.147   1.261   1.415
 1316SOL     OW 4846   2.376   6.156   4.975
 1316SOL    HW1 4847   2.473   6.158   4.999
 1316SOL    HW2 4848   2.366   6.135   4.878
 1317SOL     OW 4849   2.182   4.173   6.241
 1317SOL    HW1 4850   2.086   4.179   6.268
 1317SOL    HW2 4851   2.189   4.117   6.158
 1318SOL     OW 4852   1.017   1.070   1.082
 1318SOL    HW1 4853   0.924   1.045   1.054
 1318SOL    HW2 4854   1.019   1.082   1.181
 1319SOL     OW 4855   6.762   0.843   0.051
 1319SOL    HW1 4856   6.709   0.758   0.055
 1319SOL    HW2 4857   6.699   0.920   0.046
 1320SOL     OW 4858   4.901   3.980   0.702
 1320SOL    HW1 4859   4.856   3.895   0.731
 1320SOL    HW2 4860   4.836   4.055   0.705
 1321SOL     OW 4861   5.597   1.274   6.187
 1321SOL    HW1 4862   5.623   1.209   6.258
 1321SOL    HW2 4863   5.645   1.360   6.201
 1322SOL     OW 4864   3.667   0.731   3.979
 1322SOL    HW1 4865   3.626   0.760   3.893
 1322SOL    HW2 4866   3.603   0.749   4.054
 1323SOL     OW 4867   4.911   1.148   5.750
 1323SOL    HW1 4868   4.898   1.171   5.846
 1323SOL    HW2 4869   4.898   1.050   5.736
 1324SOL     OW 4870   1.227   3.311   0.604
 1324SOL    HW1 4871   1.273   3.295   0.517
 1324SOL    HW2 4872   1.137   3.270   0.602
 1325SOL     OW 4873   2.149   6.962   2.992
 1325SOL    HW1 4874   2.233   7.000   3.033
 1325SOL    HW2 4875   2.096   0.013   2.952
 1326SOL     OW 4876   4.851   3.331   5.161
 1326SOL    HW1 4877   4.894   3.350   5.248
 1326SOL    HW2 4878   4.840   3.415   5.109
 1327SOL     OW 4879   1.554   4.704   2.087
 1327SOL    HW1 4880   1.622   4.714   2.160
 1327SOL    HW2 4881   1.552   4.788   2.032
 1328SOL     OW 4882   1.309   3.146   0.877
 1328SOL    HW1 4883   1.258   3.074   0.829
 1328SOL    HW2 4884   1.374   3.188   0.814
 1329SOL     OW 4885   0.273   2.423   1.204
 1329SOL    HW1 4886   0.276   2.354   1.276
 1329SOL    HW2 4887   0.366   2.442   1.172
 1330SOL     OW 4888   0.418   1.510   1.784
 1330SOL    HW1 4889   0.456   1.554   1.866
 1330SOL    HW2 4890   0.355   1.574   1.739
 1331SOL     OW 4891   5.099   2.599   3.518
 1331SOL    HW1 4892   5.126   2.525   3.579
 1331SOL    HW2 4893   5.032   2.565   3.451
 1332SOL     OW 4894   3.011   0.203   6.504
 1332SOL    HW1 4895   3.070   0.280   6.526
 1332SOL    HW2 4896   2.929   0.207   6.561
 1333SOL     OW 4897   4.073   3.913   5.343
 1333SOL    HW1 4898   4.158   3.870   5.312
 1333SOL    HW2 4899   4.050   3.989   5.282
 1334SOL     OW 4900   6.329   1.757   4.441
 1334SOL    HW1 4901   6.233   1.751   4.465
 1334SOL    HW2 4902   6.341   1.826   4.369
 1335SOL     OW 4903   2.525   2.025   3.113
 1335SOL    HW1 4904   2.464   2.087   3.063
 1335SOL    HW2 4905   2.503   1.930   3.091
 1336SOL     OW 4906   2.005   2.179   5.577
 1336SOL    HW1 4907   2.016   2.148   5.483
 1336SOL    HW2 4908   2.083   2.236   5.603
 1337SOL     OW 4909   1.924   2.097   4.668
 1337SOL    HW1 4910   1.950   2.191   4.642
 1337SOL    HW2 4911   1.999   2.055   4.718
 1338SOL     OW 4912   5.764   1.926   4.886
 1338SOL    HW1 4913   5.744   1.906   4.982
 1338SOL    HW2 4914   5.795   2.021   4.877
 1339SOL     OW 4915   0.639   1.654   6.509
 1339SOL    HW1 4916   0.673   1.560   6.498
 1339SOL    HW2 4917   0.587   1.661   6.594
 1340SOL     OW 4918   0.050   2.025   2.838
 1340SOL    HW1 4919   0.062   1.945   2.898
 1340SOL    HW2 4920   0.139   2.054   2.803
 1341SOL     OW 4921   5.158   0.189   6.094
 1341SOL    HW1 4922   5.100   0.114   6.061
 1341SOL    HW2 4923   5.207   0.229   6.016
 1342SOL     OW 4924   1.806   5.495   5.984
 1342SOL    HW1 4925   1.721   5.505   6.036
 1342SOL    HW2 4926   1.868   5.570   6.008
 1343SOL     OW 4927   4.636   5.983   3.172
 1343SOL    HW1 4928   4.729   5.957   3.146
 1343SOL    HW2 4929   4.573   5.908   3.151
 1344SOL     OW 4930   6.812   5.292   4.405
 1344SOL    HW1 4931   6.785   5.296   4.501
 1344SOL    HW2 4932   6.849   5.201   4.385
 1345SOL     OW 4933   1.649   0.639   2.683
 1345SOL    HW1 4934   1.747   0.658   2.674
 1345SOL    HW2 4935   1.637   0.543   2.709
 1346SOL     OW 4936   0.677   5.876   4.371
 1346SOL    HW1 4937   0.623   5.960   4.356
 1346SOL    HW2 4938   0.616   5.803   4.401
 1347SOL     OW 4939   6.140   6.406   4.732
 1347SOL    HW1 4940   6.066   6.342   4.747
 1347SOL    HW2 4941   6.182   6.388   4.642
 1348SOL     OW 4942   5.421   5.372   2.517
 1348SOL    HW1 4943   5.472   5.334   2.440
 1348SOL    HW2 4944   5.334   5.324   2.527
 1349SOL     OW 4945   4.306   2.677   5.942
 1349SOL    HW1 4946   4.276   2.758   5.994
 1349SOL    HW2 4947   4.236   2.606   5.949
 1350SOL     OW 4948   5.596   4.869   5.980
 1350SOL    HW1 4949   5.610   4.824   5.892
 1350SOL    HW2 4950   5.501   4.858   6.010
 1351SOL     OW 4951   6.255   1.190   3.605
 1351SOL    HW1 4952   6.274   1.287   3.623
 1351SOL    HW2 4953   6.339   1.137   3.616
 1352SOL     OW 4954   6.835   6.762   2.884
 1352SOL    HW1 4955   6.847   6.664   2.897
 1352SOL    HW2 4956   6.739   6.781   2.865
 1353SOL     OW 4957   0.077   3.509   6.785
 1353SOL    HW1 4958   0.117   3.469   6.703
 1353SOL    HW2 4959   7.021   3.455   6.812
 1354SOL     OW 4960   0.935   3.199   0.505
 1354SOL    HW1 4961   0.869   3.157   0.442
 1354SOL    HW2 4962   0.903   3.187   0.599
 1355SOL     OW 4963   6.459   2.472   5.485
 1355SOL    HW1 4964   6.493   2.554   5.531
 1355SOL    HW2 4965   6.369   2.448   5.521
 1356SOL     OW 4966   2.934   3.659   2.705
 1356SOL    HW1 4967   2.944   3.759   2.702
 1356SOL    HW2 4968   2.926   3.629   2.800
 1357SOL     OW 4969   1.304   3.400   5.476
 1357SOL    HW1 4970   1.348   3.310   5.474
 1357SOL    HW2 4971   1.373   3.471   5.467
 1358SOL     OW 4972   4.027   1.062   5.849
 1358SOL    HW1 4973   4.018   1.002   5.769
 1358SOL    HW2 4974   3.980   1.021   5.927
 1359SOL     OW 4975   5.886   4.497   1.834
 1359SOL    HW1 4976   5.927   4.478   1.923
 1359SOL    HW2 4977   5.952   4.475   1.761
 1360SOL     OW 4978   3.964   2.452   0.272
 1360SOL    HW1 4979   4.003   2.543   0.261
 1360SOL    HW2 4980   4.030   2.392   0.317
 1361SOL     OW 4981   0.254   5.684   5.176
 1361SOL    HW1 4982   0.257   5.783   5.161
 1361SOL    HW2 4983   0.176   5.661   5.233
 1362SOL     OW 4984   2.947   3.827   4.595
 1362SOL    HW1 4985   2.976   3.888   4.521
 1362SOL    HW2 4986   2.997   3.850   4.679
 1363SOL     OW 4987   0.110   5.282   3.938
 1363SOL    HW1 4988   0.200   5.325   3.945
 1363SOL    HW2 4989   0.094   5.253   3.844
 1364SOL     OW 4990   6.440   2.292   1.197
 1364SOL    HW1 4991   6.466   2.385   1.225
 1364SOL    HW2 4992   6.489   2.226   1.254
 1365SOL     OW 4993   0.671   2.507   5.767
 1365SOL    HW1 4994   0.720   2.594   5.779
 1365SOL    HW2 4995   0.572   2.523   5.775
 1366SOL     OW 4996   0.751   4.684   6.928
 1366SOL    HW1 4997   0.683   4.740   6.974
 1366SOL    HW2 4998   0.719   4.589   6.925
 1367SOL     OW 4999   1.396   6.758   2.589
 1367SOL    HW1 5000   1.386   6.666   2.627
 1367SOL    HW2 5001   1.445   6.752   2.502
 1368SOL     OW 5002   6.937   0.518   3.884
 1368SOL    HW1 5003   6.893   0.571   3.812
 1368SOL    HW2 5004   6.894   0.539   3.972
 1369SOL     OW 5005   2.246   0.054   2.213
 1369SOL    HW1 5006   2.195   7.007   2.164
 1369SOL    HW2 5007   2.330   0.074   2.163
 1370SOL     OW 5008   4.190   1.481   2.397
 1370SOL    HW1 5009   4.138   1.514   2.318
 1370SOL    HW2 5010   4.127   1.461   2.472
 1371SOL     OW 5011   6.055   1.508   4.704
 1371SOL    HW1 5012   6.153   1.498   4.684
 1371SOL    HW2 5013   6.008   1.422   4.682
 1372SOL     OW 5014   0.918   2.613   0.496
 1372SOL    HW1 5015   0.893   2.650   0.586
 1372SOL    HW2 5016   0.958   2.686   0.441
 1373SOL     OW 5017   4.527   2.484   6.736
 1373SOL    HW1 5018   4.513   2.390   6.704
 1373SOL    HW2 5019   4.603   2.485   6.801
 1374SOL     OW 5020   4.838   1.912   7.024
 1374SOL    HW1 5021   4.869   1.819   7.006
 1374SOL    HW2 5022   4.738   1.916   7.015
 1375SOL     OW 5023   0.074   5.190   6.493
 1375SOL    HW1 5024   0.036   5.113   6.544
 1375SOL    HW2 5025   0.136   5.156   6.422
 1376SOL     OW 5026   4.627   4.733   5.119
 1376SOL    HW1 5027   4.687   4.772   5.189
 1376SOL    HW2 5028   4.681   4.709   5.039
 1377SOL     OW 5029   0.751   3.116   5.389
 1377SOL    HW1 5030   0.778   3.120   5.485
 1377SOL    HW2 5031   0.709   3.202   5.362
 1378SOL     OW 5032   5.904   1.370   5.184
 1378SOL    HW1 5033   5.954   1.445   5.139
 1378SOL    HW2 5034   5.970   1.310   5.230
 1379SOL     OW 5035   3.878   6.539   3.082
 1379SOL    HW1 5036   3.939   6.552   3.160
 1379SOL    HW2 5037   3.882   6.444   3.052
 1380SOL     OW 5038   0.518   6.999   2.637
 1380SOL    HW1 5039   0.614   7.013   2.610
 1380SOL    HW2 5040   0.512   6.991   2.737
 1381SOL     OW 5041   5.912   1.946   6.820
 1381SOL    HW1 5042   5.813   1.945   6.832
 1381SOL    HW2 5043   5.934   1.929   6.724
 1382SOL     OW 5044   4.906   3.275   0.649
 1382SOL    HW1 5045   4.959   3.285   0.565
 1382SOL    HW2 5046   4.854   3.190   0.646
 1383SOL     OW 5047   0.839   0.044   1.976
 1383SOL    HW1 5048   0.801   7.016   1.899
 1383SOL    HW2 5049   0.869   0.134   1.944
 1384SOL     OW 5050   4.870   0.529   2.029
 1384SOL    HW1 5051   4.959   0.550   1.988
 1384SOL    HW2 5052   4.818   0.614   2.040
 1385SOL     OW 5053   2.192   4.456   3.488
 1385SOL    HW1 5054   2.243   4.518   3.548
 1385SOL    HW2 5055   2.094   4.467   3.504
 1386SOL     OW 5056   3.087   0.322   4.235
 1386SOL    HW1 5057   3.017   0.384   4.270
 1386SOL    HW2 5058   3.136   0.281   4.312
 1387SOL     OW 5059   3.496   5.918   2.992
 1387SOL    HW1 5060   3.456   5.869   3.070
 1387SOL    HW2 5061   3.593   5.895   2.985
 1388SOL     OW 5062   0.546   0.023   2.940
 1388SOL    HW1 5063   0.556   0.101   2.878
 1388SOL    HW2 5064   0.583   0.046   3.030
 1389SOL     OW 5065   6.614   1.489   4.235
 1389SOL    HW1 5066   6.655   1.406   4.196
 1389SOL    HW2 5067   6.661   1.569   4.198
 1390SOL     OW 5068   6.529   3.139   6.078
 1390SOL    HW1 5069   6.518   3.191   6.164
 1390SOL    HW2 5070   6.453   3.161   6.017
 1391SOL     OW 5071   5.893   6.919   5.523
 1391SOL    HW1 5072   5.958   6.933   5.597
 1391SOL    HW2 5073   5.812   6.975   5.538
 1392SOL     OW 5074   5.601   6.774   5.983
 1392SOL    HW1 5075   5.515   6.725   5.970
 1392SOL    HW2 5076   5.677   6.712   5.968
 1393SOL     OW 5077   6.594   3.864   6.347
 1393SOL    HW1 5078   6.610   3.894   6.253
 1393SOL    HW2 5079   6.662   3.904   6.408
 1394SOL     OW 5080   3.289   5.804   5.013
 1394SOL    HW1 5081   3.374   5.851   5.033
 1394SOL    HW2 5082   3.299   5.749   4.930
 1395SOL     OW 5083   1.758   4.203   4.813
 1395SOL    HW1 5084   1.736   4.107   4.827
 1395SOL    HW2 5085   1.850   4.212   4.775
 1396SOL     OW 5086   0.240   0.650   4.961
 1396SOL    HW1 5087   0.209   0.568   5.009
 1396SOL    HW2 5088   0.171   0.676   4.893
 1397SOL     OW 5089   0.268   6.168   4.595
 1397SOL    HW1 5090   0.210   6.223   4.655
 1397SOL    HW2 5091   0.210   6.114   4.534
 1398SOL     OW 5092   2.903   0.901   6.604
 1398SOL    HW1 5093   2.890   0.951   6.519
 1398SOL    HW2 5094   2.814   0.876   6.643
 1399SOL     OW 5095   3.803   5.807   0.403
 1399SOL    HW1 5096   3.808   5.833   0.307
 1399SOL    HW2 5097   3.776   5.711   0.410
 1400SOL     OW 5098   0.339   1.658   4.290
 1400SOL    HW1 5099   0.436   1.638   4.306
 1400SOL    HW2 5100   0.285   1.576   4.305
 1401SOL     OW 5101   5.692   0.535   4.165
 1401SOL    HW1 5102   5.691   0.579   4.255
 1401SOL    HW2 5103   5.777   0.556   4.118
 1402SOL     OW 5104   5.723   4.442   6.253
 1402SOL    HW1 5105   5.647   4.404   6.304
 1402SOL    HW2 5106   5.772   4.508   6.310
 1403SOL     OW 5107   2.035   1.956   0.963
 1403SOL    HW1 5108   2.002   1.912   0.880
 1403SOL    HW2 5109   2.037   2.055   0.949
 1404SOL     OW 5110   6.594   0.627   0.024
 1404SOL    HW1 5111   6.499   0.624   0.056
 1404SOL    HW2 5112   6.607   0.558   6.977
 1405SOL     OW 5113   2.837   4.017   1.064
 1405SOL    HW1 5114   2.765   4.059   1.010
 1405SOL    HW2 5115   2.797   3.960   1.136
 1406SOL     OW 5116   1.571   5.648   1.207
 1406SOL    HW1 5117   1.520   5.659   1.122
 1406SOL    HW2 5118   1.669   5.658   1.189
 1407SOL     OW 5119   0.879   4.041   3.492
 1407SOL    HW1 5120   0.972   4.066   3.518
 1407SOL    HW2 5121   0.862   4.071   3.398
 1408SOL     OW 5122   5.518   0.202   6.630
 1408SOL    HW1 5123   5.495   0.144   6.552
 1408SOL    HW2 5124   5.612   0.184   6.658
 1409SOL     OW 5125   0.544   0.417   5.402
 1409SOL    HW1 5126   0.583   0.487   5.342
 1409SOL    HW2 5127   0.502   0.461   5.481
 1410SOL     OW 5128   1.922   4.172   6.292
 1410SOL    HW1 5129   1.872   4.230   6.356
 1410SOL    HW2 5130   1.947   4.086   6.336
 1411SOL     OW 5131   3.651   6.155   0.168
 1411SOL    HW1 5132   3.563   6.203   0.164
 1411SOL    HW2 5133   3.704   6.188   0.247
 1412SOL     OW 5134   0.894   4.101   1.003
 1412SOL    HW1 5135   0.920   4.064   1.092
 1412SOL    HW2 5136   0.976   4.132   0.955
 1413SOL     OW 5137   2.318   1.231   4.658
 1413SOL    HW1 5138   2.330   1.266   4.565
 1413SOL    HW2 5139   2.229   1.259   4.694
 1414SOL     OW 5140   2.397   1.063   1.695
 1414SOL    HW1 5141   2.360   1.147   1.655
 1414SOL    HW2 5142   2.437   1.083   1.784
 1415SOL     OW 5143   2.980   1.223   3.997
 1415SOL    HW1 5144   2.914   1.285   4.040
 1415SOL    HW2 5145   2.985   1.242   3.900
 1416SOL     OW 5146   4.375   6.478   4.646
 1416SOL    HW1 5147   4.277   6.471   4.660
 1416SOL    HW2 5148   4.394   6.548   4.577
 1417SOL     OW 5149   2.996   2.460   0.070
 1417SOL    HW1 5150   2.960   2.479   7.002
 1417SOL    HW2 5151   2.958   2.374   0.103
 1418SOL     OW 5152   2.918   3.596   1.395
 1418SOL    HW1 5153   2.946   3.602   1.299
 1418SOL    HW2 5154   2.820   3.576   1.400
 1419SOL     OW 5155   3.443   6.271   4.132
 1419SOL    HW1 5156   3.453   6.331   4.212
 1419SOL    HW2 5157   3.532   6.229   4.112
 1420SOL     OW 5158   3.777   5.793   3.163
 1420SOL    HW1 5159   3.851   5.777   3.228
 1420SOL    HW2 5160   3.696   5.826   3.211
 1421SOL     OW 5161   0.921   4.043   4.202
 1421SOL    HW1 5162   0.888   4.094   4.123
 1421SOL    HW2 5163   0.940   4.106   4.277
 1422SOL     OW 5164   2.265   3.919   6.498
 1422SOL    HW1 5165   2.318   3.841   6.464
 1422SOL    HW2 5166   2.323   4.001   6.496
 1423SOL     OW 5167   4.360   0.423   4.517
 1423SOL    HW1 5168   4.416   0.342   4.532
 1423SOL    HW2 5169   4.269   0.395   4.487
 1424SOL     OW 5170   6.809   3.692   6.800
 1424SOL    HW1 5171   6.829   3.683   6.702
 1424SOL    HW2 5172   6.731   3.635   6.824
 1425SOL     OW 5173   2.141   5.514   5.252
 1425SOL    HW1 5174   2.068   5.510   5.184
 1425SOL    HW2 5175   2.131   5.598   5.305
 1426SOL     OW 5176   2.583   2.271   6.462
 1426SOL    HW1 5177   2.625   2.219   6.387
 1426SOL    HW2 5178   2.549   2.358   6.426
 1427SOL     OW 5179   6.772   6.903   4.193
 1427SOL    HW1 5180   6.846   6.836   4.201
 1427SOL    HW2 5181   6.735   6.902   4.100
 1428SOL     OW 5182   0.971   2.350   1.441
 1428SOL    HW1 5183   0.895   2.412   1.461
 1428SOL    HW2 5184   0.950   2.299   1.357
 1429SOL     OW 5185   5.211   1.709   0.162
 1429SOL    HW1 5186   5.211   1.648   0.083
 1429SOL    HW2 5187   5.200   1.655   0.245
 1430SOL     OW 5188   2.322   5.052   3.987
 1430SOL    HW1 5189   2.383   5.059   3.908
 1430SOL    HW2 5190   2.275   4.964   3.985
 1431SOL     OW 5191   2.654   2.327   6.983
 1431SOL    HW1 5192   2.726   2.263   7.011
 1431SOL    HW2 5193   2.666   2.414   0.007
 1432SOL     OW 5194   2.932   1.409   1.224
 1432SOL    HW1 5195   3.031   1.395   1.230
 1432SOL    HW2 5196   2.904   1.412   1.128
 1433SOL     OW 5197   5.047   0.928   5.508
 1433SOL    HW1 5198   5.139   0.953   5.538
 1433SOL    HW2 5199   5.015   0.996   5.442
 1434SOL     OW 5200   0.716   0.726   6.494
 1434SOL    HW1 5201   0.739   0.641   6.542
 1434SOL    HW2 5202   0.619   0.726   6.471
 1435SOL     OW 5203   6.467   6.915   3.102
 1435SOL    HW1 5204   6.404   6.987   3.131
 1435SOL    HW2 5205   6.559   6.935   3.136
 1436SOL     OW 5206   5.548   4.086   6.979
 1436SOL    HW1 5207   5.556   4.115   0.050
 1436SOL    HW2 5208   5.638   4.085   6.937
 1437SOL     OW 5209   3.659   1.658   6.157
 1437SOL    HW1 5210   3.580   1.623   6.208
 1437SOL    HW2 5211   3.632   1.739   6.105
 1438SOL     OW 5212   2.259   0.107   1.563
 1438SOL    HW1 5213   2.354   0.123   1.535
 1438SOL    HW2 5214   2.228   0.185   1.618
 1439SOL     OW 5215   6.896   4.666   0.681
 1439SOL    HW1 5216   6.987   4.677   0.641
 1439SOL    HW2 5217   6.838   4.743   0.655
 1440SOL     OW 5218   3.323   2.897   6.106
 1440SOL    HW1 5219   3.330   2.840   6.188
 1440SOL    HW2 5220   3.264   2.975   6.126
 1441SOL     OW 5221   6.133   2.926   3.682
 1441SOL    HW1 5222   6.209   2.937   3.746
 1441SOL    HW2 5223   6.166   2.941   3.588
 1442SOL     OW 5224   6.232   5.446   6.974
 1442SOL    HW1 5225   6.156   5.451   6.908
 1442SOL    HW2 5226   6.313   5.407   6.929
 1443SOL     OW 5227   0.511   2.944   4.545
 1443SOL    HW1 5228   0.564   2.974   4.466
 1443SOL    HW2 5229   0.430   2.895   4.514
 1444SOL     OW 5230   3.779   5.992   1.000
 1444SOL    HW1 5231   3.859   5.966   0.947
 1444SOL    HW2 5232   3.730   6.066   0.954
 1445SOL     OW 5233   0.264   2.569   1.926
 1445SOL    HW1 5234   0.174   2.585   1.967
 1445SOL    HW2 5235   0.292   2.650   1.875
 1446SOL     OW 5236   4.716   2.424   6.923
 1446SOL    HW1 5237   4.707   2.454   7.018
 1446SOL    HW2 5238   4.770   2.340   6.920
 1447SOL     OW 5239   6.110   6.656   5.861
 1447SOL    HW1 5240   6.164   6.634   5.943
 1447SOL    HW2 5241   6.124   6.586   5.792
 1448SOL     OW 5242   6.443   2.846   0.135
 1448SOL    HW1 5243   6.515   2.780   0.157
 1448SOL    HW2 5244   6.401   2.822   0.048
 1449SOL     OW 5245   0.129   1.379   0.249
 1449SOL    HW1 5246   0.158   1.288   0.219
 1449SOL    HW2 5247   0.125   1.381   0.349
 1450SOL     OW 5248   0.729   2.094   1.710
 1450SOL    HW1 5249   0.641   2.105   1.665
 1450SOL    HW2 5250   0.731   2.147   1.794
 1451SOL     OW 5251   2.355   0.516   2.510
 1451SOL    HW1 5252   2.323   0.487   2.419
 1451SOL    HW2 5253   2.388   0.436   2.560
 1452SOL     OW 5254   4.061   1.126   4.444
 1452SOL    HW1 5255   3.994   1.163   4.380
 1452SOL    HW2 5256   4.153   1.149   4.413
 1453SOL     OW 5257   6.956   3.949   5.308
 1453SOL    HW1 5258   7.011   3.905   5.237
 1453SOL    HW2 5259   6.924   3.881   5.374
 1454SOL     OW 5260   6.503   2.885   2.915
 1454SOL    HW1 5261   6.567   2.873   2.991
 1454SOL    HW2 5262   6.472   2.795   2.884
 1455SOL     OW 5263   1.363   0.184   1.745
 1455SOL    HW1 5264   1.444   0.126   1.754
 1455SOL    HW2 5265   1.333   0.185   1.650
 1456SOL     OW 5266   6.396   6.731   5.206
 1456SOL    HW1 5267   6.313   6.770   5.166
 1456SOL    HW2 5268   6.475   6.784   5.175
 1457SOL     OW 5269   1.230   6.876   1.331
 1457SOL    HW1 5270   1.171   6.847   1.406
 1457SOL    HW2 5271   1.253   6.798   1.274
 1458SOL     OW 5272   5.840   5.755   3.427
 1458SOL    HW1 5273   5.842   5.762   3.327
 1458SOL    HW2 5274   5.930   5.778   3.464
 1459SOL     OW 5275   2.933   5.043   5.677
 1459SOL    HW1 5276   2.924   4.945   5.658
 1459SOL    HW2 5277   2.870   5.095   5.619
 1460SOL     OW 5278   0.085   5.481   5.532
 1460SOL    HW1 5279   0.048   5.546   5.598
 1460SOL    HW2 5280   0.076   5.388   5.569
 1461SOL     OW 5281   0.168   4.986   3.613
 1461SOL    HW1 5282   0.134   4.900   3.650
 1461SOL    HW2 5283   0.236   5.025   3.676
 1462SOL     OW 5284   1.310   0.699   6.327
 1462SOL    HW1 5285   1.348   0.776   6.277
 1462SOL    HW2 5286   1.222   0.725   6.367
 1463SOL     OW 5287   0.132   5.323   6.810
 1463SOL    HW1 5288   0.121   5.275   6.723
 1463SOL    HW2 5289   0.045   5.365   6.836
 1464SOL     OW 5290   5.656   6.899   0.700
 1464SOL    HW1 5291   5.590   6.973   0.718
 1464SOL    HW2 5292   5.657   6.836   0.777
 1465SOL     OW 5293   1.779   1.495   3.521
 1465SOL    HW1 5294   1.829   1.425   3.574
 1465SOL    HW2 5295   1.841   1.537   3.456
 1466SOL     OW 5296   1.357   1.477   2.314
 1466SOL    HW1 5297   1.356   1.516   2.221
 1466SOL    HW2 5298   1.443   1.503   2.359
 1467SOL     OW 5299   2.402   2.039   1.702
 1467SOL    HW1 5300   2.436   2.097   1.777
 1467SOL    HW2 5301   2.400   1.944   1.732
 1468SOL     OW 5302   5.410   5.646   2.890
 1468SOL    HW1 5303   5.374   5.704   2.816
 1468SOL    HW2 5304   5.509   5.656   2.894
 1469SOL     OW 5305   0.735   0.857   2.373
 1469SOL    HW1 5306   0.776   0.932   2.425
 1469SOL    HW2 5307   0.757   0.770   2.416
 1470SOL     OW 5308   1.510   1.523   2.545
 1470SOL    HW1 5309   1.573   1.475   2.606
 1470SOL    HW2 5310   1.439   1.569   2.599
 1471SOL     OW 5311   1.039   0.403   0.407
 1471SOL    HW1 5312   1.138   0.400   0.396
 1471SOL    HW2 5313   1.012   0.493   0.441
 1472SOL     OW 5314   3.983   6.180   5.133
 1472SOL    HW1 5315   3.929   6.124   5.196
 1472SOL    HW2 5316   4.005   6.267   5.176
 1473SOL     OW 5317   5.712   6.241   4.074
 1473SOL    HW1 5318   5.629   6.290   4.101
 1473SOL    HW2 5319   5.791   6.301   4.087
 1474SOL     OW 5320   5.716   5.485   3.114
 1474SOL    HW1 5321   5.652   5.410   3.133
 1474SOL    HW2 5322   5.774   5.460   3.036
 1475SOL     OW 5323   6.403   0.167   1.869
 1475SOL    HW1 5324   6.321   0.114   1.892
 1475SOL    HW2 5325   6.389   0.262   1.895
 1476SOL     OW 5326   2.480   1.290   1.336
 1476SOL    HW1 5327   2.493   1.377   1.288
 1476SOL    HW2 5328   2.448   1.221   1.271
 1477SOL     OW 5329   3.439   0.656   6.490
 1477SOL    HW1 5330   3.404   0.565   6.465
 1477SOL    HW2 5331   3.458   0.659   6.588
 1478SOL     OW 5332   5.796   5.454   0.033
 1478SOL    HW1 5333   5.714   5.458   0.090
 1478SOL    HW2 5334   5.771   5.475   6.962
 1479SOL     OW 5335   1.484   3.150   0.278
 1479SOL    HW1 5336   1.496   3.107   0.368
 1479SOL    HW2 5337   1.470   3.248   0.289
 1480SOL     OW 5338   3.640   0.113   5.987
 1480SOL    HW1 5339   3.541   0.118   6.000
 1480SOL    HW2 5340   3.685   0.121   6.076
 1481SOL     OW 5341   6.665   2.955   5.262
 1481SOL    HW1 5342   6.606   2.897   5.207
 1481SOL    HW2 5343   6.761   2.928   5.249
 1482SOL     OW 5344   4.735   2.508   1.567
 1482SOL    HW1 5345   4.656   2.493   1.507
 1482SOL    HW2 5346   4.775   2.597   1.548
 1483SOL     OW 5347   5.615   2.037   6.462
 1483SOL    HW1 5348   5.580   2.093   6.538
 1483SOL    HW2 5349   5.666   2.095   6.399
 1484SOL     OW 5350   5.749   4.918   3.836
 1484SOL    HW1 5351   5.659   4.929   3.795
 1484SOL    HW2 5352   5.819   4.946   3.771
 1485SOL     OW 5353   3.182   1.740   3.153
 1485SOL    HW1 5354   3.128   1.738   3.069
 1485SOL    HW2 5355   3.219   1.831   3.167
 1486SOL     OW 5356   4.789   2.040   3.218
 1486SOL    HW1 5357   4.767   2.134   3.244
 1486SOL    HW2 5358   4.772   2.027   3.120
 1487SOL     OW 5359   6.581   2.774   6.699
 1487SOL    HW1 5360   6.658   2.737   6.647
 1487SOL    HW2 5361   6.571   2.871   6.680
 1488SOL     OW 5362   5.220   1.670   3.598
 1488SOL    HW1 5363   5.299   1.617   3.628
 1488SOL    HW2 5364   5.238   1.710   3.508
 1489SOL     OW 5365   3.575   5.193   4.282
 1489SOL    HW1 5366   3.642   5.200   4.356
 1489SOL    HW2 5367   3.519   5.111   4.295
 1490SOL     OW 5368   1.404   2.910   1.246
 1490SOL    HW1 5369   1.329   2.975   1.236
 1490SOL    HW2 5370   1.490   2.961   1.255
 1491SOL     OW 5371   6.639   3.725   3.702
 1491SOL    HW1 5372   6.606   3.746   3.794
 1491SOL    HW2 5373   6.579   3.659   3.658
 1492SOL     OW 5374   5.480   1.108   2.175
 1492SOL    HW1 5375   5.428   1.047   2.235
 1492SOL    HW2 5376   5.562   1.140   2.223
 1493SOL     OW 5377   4.432   0.136   4.532
 1493SOL    HW1 5378   4.372   0.078   4.587
 1493SOL    HW2 5379   4.391   0.150   4.442
 1494SOL     OW 5380   6.074   1.864   5.919
 1494SOL    HW1 5381   6.065   1.822   6.009
 1494SOL    HW2 5382   5.989   1.851   5.868
 1495SOL     OW 5383   6.539   2.779   5.070
 1495SOL    HW1 5384   6.610   2.709   5.081
 1495SOL    HW2 5385   6.459   2.738   5.026
 1496SOL     OW 5386   0.607   1.348   1.663
 1496SOL    HW1 5387   0.680   1.406   1.626
 1496SOL    HW2 5388   0.541   1.405   1.711
 1497SOL     OW 5389   6.620   3.163   3.167
 1497SOL    HW1 5390   6.655   3.191   3.078
 1497SOL    HW2 5391   6.647   3.230   3.236
 1498SOL     OW 5392   1.842   4.994   5.953
 1498SOL    HW1 5393   1.874   4.899   5.962
 1498SOL    HW2 5394   1.917   5.052   5.924
 1499SOL     OW 5395   1.206   3.570   6.475
 1499SOL    HW1 5396   1.121   3.619   6.495
 1499SOL    HW2 5397   1.272   3.634   6.434
 1500SOL     OW 5398   6.735   5.945   0.169
 1500SOL    HW1 5399   6.750   5.971   0.073
 1500SOL    HW2 5400   6.771   6.017   0.229
 1501SOL     OW 5401   5.904   1.921   6.310
 1501SOL    HW1 5402   5.986   1.893   6.262
 1501SOL    HW2 5403   5.927   1.946   6.404
 1502SOL     OW 5404   5.415   0.866   1.126
 1502SOL    HW1 5405   5.387   0.930   1.055
 1502SOL    HW2 5406   5.396   0.907   1.216
 1503SOL     OW 5407   2.050   2.387   1.793
 1503SOL    HW1 5408   2.064   2.299   1.838
 1503SOL    HW2 5409   1.992   2.445   1.850
 1504SOL     OW 5410   0.547   0.176   5.542
 1504SOL    HW1 5411   0.558   0.262   5.492
 1504SOL    HW2 5412   0.466   0.129   5.508
 1505SOL     OW 5413   6.005   0.875   5.447
 1505SOL    HW1 5414   6.009   0.867   5.347
 1505SOL    HW2 5415   6.018   0.785   5.488
 1506SOL     OW 5416   1.912   5.399   0.962
 1506SOL    HW1 5417   1.855   5.397   1.045
 1506SOL    HW2 5418   1.996   5.449   0.982
 1507SOL     OW 5419   0.823   1.729   5.548
 1507SOL    HW1 5420   0.729   1.709   5.575
 1507SOL    HW2 5421   0.845   1.677   5.465
 1508SOL     OW 5422   6.768   0.631   2.002
 1508SOL    HW1 5423   6.712   0.556   2.038
 1508SOL    HW2 5424   6.865   0.606   2.007
 1509SOL     OW 5425   4.653   2.792   5.674
 1509SOL    HW1 5426   4.687   2.802   5.767
 1509SOL    HW2 5427   4.617   2.879   5.641
 1510SOL     OW 5428   5.078   2.843   4.973
 1510SOL    HW1 5429   5.010   2.891   4.916
 1510SOL    HW2 5430   5.128   2.778   4.917
 1511SOL     OW 5431   3.000   3.101   1.961
 1511SOL    HW1 5432   3.061   3.176   1.936
 1511SOL    HW2 5433   3.045   3.014   1.942
 1512SOL     OW 5434   0.789   4.854   1.494
 1512SOL    HW1 5435   0.869   4.809   1.534
 1512SOL    HW2 5436   0.736   4.898   1.566
 1513SOL     OW 5437   3.075   0.202   3.561
 1513SOL    HW1 5438   3.152   0.234   3.506
 1513SOL    HW2 5439   3.082   0.103   3.574
 1514SOL     OW 5440   4.278   2.233   5.962
 1514SOL    HW1 5441   4.257   2.137   5.943
 1514SOL    HW2 5442   4.260   2.252   6.058
 1515SOL     OW 5443   5.811   2.427   4.649
 1515SOL    HW1 5444   5.827   2.337   4.609
 1515SOL    HW2 5445   5.839   2.426   4.745
 1516SOL     OW 5446   6.826   0.087   0.648
 1516SOL    HW1 5447   6.757   0.021   0.678
 1516SOL    HW2 5448   6.868   0.055   0.564
 1517SOL     OW 5449   4.373   6.257   3.874
 1517SOL    HW1 5450   4.380   6.357   3.877
 1517SOL    HW2 5451   4.384   6.225   3.780
 1518SOL     OW 5452   1.014   3.258   6.994
 1518SOL    HW1 5453   0.929   3.305   7.016
 1518SOL    HW2 5454   1.088   3.295   0.025
 1519SOL     OW 5455   6.047   5.013   2.202
 1519SOL    HW1 5456   6.073   5.100   2.160
 1519SOL    HW2 5457   5.996   5.030   2.286
 1520SOL     OW 5458   0.561   3.855   2.629
 1520SOL    HW1 5459   0.626   3.930   2.613
 1520SOL    HW2 5460   0.491   3.884   2.693
 1521SOL     OW 5461   2.194   4.166   0.468
 1521SOL    HW1 5462   2.157   4.227   0.537
 1521SOL    HW2 5463   2.154   4.188   0.379
 1522SOL     OW 5464   6.418   6.555   4.969
 1522SOL    HW1 5465   6.434   6.602   5.055
 1522SOL    HW2 5466   6.325   6.519   4.967
 1523SOL     OW 5467   4.987   4.826   6.737
 1523SOL    HW1 5468   5.062   4.812   6.801
 1523SOL    HW2 5469   4.910   4.766   6.761
 1524SOL     OW 5470   1.473   2.486   2.350
 1524SOL    HW1 5471   1.454   2.533   2.263
 1524SOL    HW2 5472   1.572   2.485   2.366
 1525SOL     OW 5473   6.456   2.264   0.553
 1525SOL    HW1 5474   6.457   2.349   0.607
 1525SOL    HW2 5475   6.547   2.223   0.555
 1526SOL     OW 5476   0.446   6.685   0.161
 1526SOL    HW1 5477   0.439   6.655   0.065
 1526SOL    HW2 5478   0.411   6.778   0.169
 1527SOL     OW 5479   3.708   1.213   5.622
 1527SOL    HW1 5480   3.618   1.248   5.596
 1527SOL    HW2 5481   3.771   1.221   5.544
 1528SOL     OW 5482   4.930   5.994   2.399
 1528SOL    HW1 5483   5.019   6.000   2.443
 1528SOL    HW2 5484   4.932   6.039   2.311
 1529SOL     OW 5485   3.984   0.341   0.619
 1529SOL    HW1 5486   3.898   0.360   0.571
 1529SOL    HW2 5487   3.970   0.353   0.718
 1530SOL     OW 5488   3.253   1.444   2.546
 1530SOL    HW1 5489   3.270   1.349   2.570
 1530SOL    HW2 5490   3.168   1.475   2.590
 1531SOL     OW 5491   4.827   1.463   4.619
 1531SOL    HW1 5492   4.810   1.543   4.676
 1531SOL    HW2 5493   4.859   1.387   4.675
 1532SOL     OW 5494   2.846   3.818   6.049
 1532SOL    HW1 5495   2.917   3.888   6.037
 1532SOL    HW2 5496   2.788   3.843   6.126
 1533SOL     OW 5497   6.525   3.299   0.140
 1533SOL    HW1 5498   6.470   3.377   0.169
 1533SOL    HW2 5499   6.531   3.232   0.214
 1534SOL     OW 5500   1.686   5.001   6.189
 1534SOL    HW1 5501   1.691   4.903   6.204
 1534SOL    HW2 5502   1.757   5.029   6.124
 1535SOL     OW 5503   4.986   6.531   4.215
 1535SOL    HW1 5504   5.058   6.591   4.180
 1535SOL    HW2 5505   5.018   6.486   4.298
 1536SOL     OW 5506   4.388   4.317   5.377
 1536SOL    HW1 5507   4.467   4.269   5.340
 1536SOL    HW2 5508   4.321   4.333   5.305
 1537SOL     OW 5509   4.024   6.247   3.595
 1537SOL    HW1 5510   4.080   6.312   3.544
 1537SOL    HW2 5511   4.078   6.165   3.615
 1538SOL     OW 5512   4.024   6.372   5.322
 1538SOL    HW1 5513   3.993   6.435   5.251
 1538SOL    HW2 5514   4.077   6.422   5.391
 1539SOL     OW 5515   4.282   3.620   1.589
 1539SOL    HW1 5516   4.366   3.670   1.605
 1539SOL    HW2 5517   4.204   3.676   1.615
 1540SOL     OW 5518   1.772   5.986   6.377
 1540SOL    HW1 5519   1.748   6.083   6.378
 1540SOL    HW2 5520   1.868   5.976   6.352
 1541SOL     OW 5521   3.686   2.894   2.411
 1541SOL    HW1 5522   3.783   2.911   2.423
 1541SOL    HW2 5523   3.640   2.894   2.500
 1542SOL     OW 5524   6.613   5.794   1.970
 1542SOL    HW1 5525   6.586   5.725   1.903
 1542SOL    HW2 5526   6.688   5.848   1.933
 1543SOL     OW 5527   3.478   4.080   4.935
 1543SOL    HW1 5528   3.514   4.004   4.881
 1543SOL    HW2 5529   3.553   4.142   4.959
 1544SOL     OW 5530   3.281   3.788   2.758
 1544SOL    HW1 5531   3.335   3.849   2.816
 1544SOL    HW2 5532   3.185   3.817   2.759
 1545SOL     OW 5533   5.345   0.960   4.001
 1545SOL    HW1 5534   5.279   1.023   4.041
 1545SOL    HW2 5535   5.438   0.996   4.011
 1546SOL     OW 5536   4.350   6.777   5.738
 1546SOL    HW1 5537   4.405   6.703   5.775
 1546SOL    HW2 5538   4.333   6.845   5.809
 1547SOL     OW 5539   1.544   3.453   3.172
 1547SOL    HW1 5540   1.560   3.421   3.078
 1547SOL    HW2 5541   1.536   3.552   3.172
 1548SOL     OW 5542   4.694   4.194   5.831
 1548SOL    HW1 5543   4.773   4.145   5.869
 1548SOL    HW2 5544   4.669   4.269   5.892
 1549SOL     OW 5545   3.857   0.948   3.205
 1549SOL    HW1 5546   3.869   1.026   3.144
 1549SOL    HW2 5547   3.944   0.928   3.251
 1550SOL     OW 5548   2.412   5.032   6.135
 1550SOL    HW1 5549   2.462   4.946   6.137
 1550SOL    HW2 5550   2.380   5.054   6.227
 1551SOL     OW 5551   2.113   4.224   6.846
 1551SOL    HW1 5552   2.069   4.156   6.786
 1551SOL    HW2 5553   2.211   4.207   6.848
 1552SOL     OW 5554   0.089   0.081   0.812
 1552SOL    HW1 5555   0.172   0.071   0.757
 1552SOL    HW2 5556   0.022   0.135   0.762
 1553SOL     OW 5557   0.202   1.056   5.825
 1553SOL    HW1 5558   0.160   1.003   5.899
 1553SOL    HW2 5559   0.168   1.024   5.737
 1554SOL     OW 5560   3.666   1.703   3.511
 1554SOL    HW1 5561   3.655   1.677   3.607
 1554SOL    HW2 5562   3.689   1.801   3.506
 1555SOL     OW 5563   5.003   1.906   0.234
 1555SOL    HW1 5564   5.080   1.857   0.195
 1555SOL    HW2 5565   4.940   1.934   0.161
 1556SOL     OW 5566   3.505   1.185   0.665
 1556SOL    HW1 5567   3.437   1.259   0.665
 1556SOL    HW2 5568   3.525   1.158   0.571
 1557SOL     OW 5569   2.461   1.276   6.234
 1557SOL    HW1 5570   2.539   1.307   6.289
 1557SOL    HW2 5571   2.376   1.295   6.283
 1558SOL     OW 5572   5.272   1.390   4.064
 1558SOL    HW1 5573   5.194   1.359   4.119
 1558SOL    HW2 5574   5.331   1.448   4.120
 1559SOL     OW 5575   6.993   2.540   0.184
 1559SOL    HW1 5576   6.981   2.462   0.123
 1559SOL    HW2 5577   0.042   2.598   0.149
 1560SOL     OW 5578   2.935   1.776   6.059
 1560SOL    HW1 5579   2.895   1.858   6.017
 1560SOL    HW2 5580   2.891   1.694   6.022
 1561SOL     OW 5581   6.997   6.132   2.581
 1561SOL    HW1 5582   0.012   6.224   2.576
 1561SOL    HW2 5583   6.973   6.101   2.489
 1562SOL     OW 5584   4.070   5.977   1.470
 1562SOL    HW1 5585   3.996   5.989   1.403
 1562SOL    HW2 5586   4.044   6.022   1.556
 1563SOL     OW 5587   2.471   0.911   6.130
 1563SOL    HW1 5588   2.416   0.867   6.059
 1563SOL    HW2 5589   2.448   0.872   6.219
 1564SOL     OW 5590   0.997   2.629   2.458
 1564SOL    HW1 5591   1.065   2.662   2.524
 1564SOL    HW2 5592   0.905   2.654   2.491
 1565SOL     OW 5593   4.328   5.172   3.981
 1565SOL    HW1 5594   4.385   5.254   3.987
 1565SOL    HW2 5595   4.269   5.167   4.062
 1566SOL     OW 5596   5.550   5.085   4.296
 1566SOL    HW1 5597   5.455   5.095   4.325
 1566SOL    HW2 5598   5.594   5.175   4.294
 1567SOL     OW 5599   6.434   6.165   0.100
 1567SOL    HW1 5600   6.468   6.239   0.042
 1567SOL    HW2 5601   6.439   6.079   0.051
 1568SOL     OW 5602   2.363   5.709   1.414
 1568SOL    HW1 5603   2.348   5.626   1.468
 1568SOL    HW2 5604   2.285   5.770   1.425
 1569SOL     OW 5605   2.855   6.783   3.851
 1569SOL    HW1 5606   2.831   6.690   3.823
 1569SOL    HW2 5607   2.841   6.846   3.775
 1570SOL     OW 5608   2.542   6.731   0.576
 1570SOL    HW1 5609   2.574   6.645   0.616
 1570SOL    HW2 5610   2.449   6.720   0.543
 1571SOL     OW 5611   6.189   1.430   2.600
 1571SOL    HW1 5612   6.158   1.518   2.637
 1571SOL    HW2 5613   6.225   1.444   2.507
 1572SOL     OW 5614   1.522   5.794   0.533
 1572SOL    HW1 5615   1.617   5.788   0.504
 1572SOL    HW2 5616   1.465   5.825   0.457
 1573SOL     OW 5617   6.343   3.602   1.963
 1573SOL    HW1 5618   6.248   3.570   1.971
 1573SOL    HW2 5619   6.391   3.588   2.049
 1574SOL     OW 5620   6.728   1.101   3.479
 1574SOL    HW1 5621   6.715   1.059   3.389
 1574SOL    HW2 5622   6.734   1.201   3.469
 1575SOL     OW 5623   2.257   2.443   1.325
 1575SOL    HW1 5624   2.213   2.460   1.413
 1575SOL    HW2 5625   2.250   2.346   1.301
 1576SOL     OW 5626   0.840   0.482   2.530
 1576SOL    HW1 5627   0.876   0.410   2.472
 1576SOL    HW2 5628   0.878   0.570   2.502
 1577SOL     OW 5629   2.647   0.616   5.797
 1577SOL    HW1 5630   2.551   0.606   5.772
 1577SOL    HW2 5631   2.660   0.587   5.892
 1578SOL     OW 5632   5.439   2.545   5.986
 1578SOL    HW1 5633   5.491   2.567   5.903
 1578SOL    HW2 5634   5.347   2.584   5.979
 1579SOL     OW 5635   0.207   1.954   2.087
 1579SOL    HW1 5636   0.252   1.997   2.165
 1579SOL    HW2 5637   0.108   1.955   2.102
 1580SOL     OW 5638   3.414   4.049   4.034
 1580SOL    HW1 5639   3.428   3.950   4.032
 1580SOL    HW2 5640   3.406   4.081   4.128
 1581SOL     OW 5641   6.488   4.340   4.893
 1581SOL    HW1 5642   6.580   4.312   4.923
 1581SOL    HW2 5643   6.478   4.320   4.796
 1582SOL     OW 5644   2.091   7.003   4.022
 1582SOL    HW1 5645   2.087   6.979   3.925
 1582SOL    HW2 5646   2.185   0.007   4.045
 1583SOL     OW 5647   1.056   5.313   2.686
 1583SOL    HW1 5648   1.013   5.330   2.597
 1583SOL    HW2 5649   1.103   5.396   2.717
 1584SOL     OW 5650   0.554   6.076   6.388
 1584SOL    HW1 5651   0.644   6.043   6.418
 1584SOL    HW2 5652   0.520   6.018   6.314
 1585SOL     OW 5653   4.497   2.030   3.533
 1585SOL    HW1 5654   4.398   2.013   3.533
 1585SOL    HW2 5655   4.545   1.946   3.507
 1586SOL     OW 5656   3.289   4.828   1.912
 1586SOL    HW1 5657   3.370   4.775   1.890
 1586SOL    HW2 5658   3.315   4.921   1.937
 1587SOL     OW 5659   2.814   6.125   6.068
 1587SOL    HW1 5660   2.858   6.145   5.981
 1587SOL    HW2 5661   2.845   6.036   6.102
 1588SOL     OW 5662   3.581   1.157   2.829
 1588SOL    HW1 5663   3.511   1.190   2.893
 1588SOL    HW2 5664   3.670   1.196   2.855
 1589SOL     OW 5665   0.017   3.094   2.037
 1589SOL    HW1 5666   6.959   3.142   2.006
 1589SOL    HW2 5667   0.010   2.997   2.012
 1590SOL     OW 5668   3.948   0.742   4.875
 1590SOL    HW1 5669   3.956   0.760   4.777
 1590SOL    HW2 5670   4.029   0.775   4.922
 1591SOL     OW 5671   6.988   5.362   1.725
 1591SOL    HW1 5672   6.948   5.276   1.694
 1591SOL    HW2 5673   0.024   5.398   1.654
 1592SOL     OW 5674   1.969   3.602   6.984
 1592SOL    HW1 5675   1.942   3.533   6.917
 1592SOL    HW2 5676   1.889   3.653   7.014
 1593SOL     OW 5677   0.989   6.462   5.536
 1593SOL    HW1 5678   0.941   6.385   5.578
 1593SOL    HW2 5679   0.939   6.491   5.454
 1594SOL     OW 5680   0.584   6.399   1.786
 1594SOL    HW1 5681   0.587   6.356   1.696
 1594SOL    HW2 5682   0.580   6.328   1.857
 1595SOL     OW 5683   2.173   4.916   0.436
 1595SOL    HW1 5684   2.191   4.986   0.368
 1595SOL    HW2 5685   2.100   4.946   0.497
 1596SOL     OW 5686   0.179   2.090   3.761
 1596SOL    HW1 5687   0.198   2.187   3.774
 1596SOL    HW2 5688   0.245   2.051   3.697
 1597SOL     OW 5689   1.375   6.498   0.209
 1597SOL    HW1 5690   1.298   6.523   0.268
 1597SOL    HW2 5691   1.341   6.484   0.116
 1598SOL     OW 5692   0.018   4.571   5.716
 1598SOL    HW1 5693   0.076   4.577   5.797
 1598SOL    HW2 5694   6.986   4.654   5.709
 1599SOL     OW 5695   4.504   5.381   4.651
 1599SOL    HW1 5696   4.459   5.410   4.735
 1599SOL    HW2 5697   4.534   5.286   4.661
 1600SOL     OW 5698   3.485   1.227   3.286
 1600SOL    HW1 5699   3.488   1.326   3.300
 1600SOL    HW2 5700   3.516   1.181   3.370
 1601SOL     OW 5701   6.616   5.911   4.509
 1601SOL    HW1 5702   6.659   5.941   4.424
 1601SOL    HW2 5703   6.610   5.988   4.573
 1602SOL     OW 5704   4.055   5.743   4.211
 1602SOL    HW1 5705   4.073   5.645   4.217
 1602SOL    HW2 5706   4.142   5.793   4.211
 1603SOL     OW 5707   1.686   6.242   3.185
 1603SOL    HW1 5708   1.763   6.304   3.172
 1603SOL    HW2 5709   1.715   6.164   3.240
 1604SOL     OW 5710   5.342   4.238   1.105
 1604SOL    HW1 5711   5.340   4.167   1.176
 1604SOL    HW2 5712   5.286   4.208   1.028
 1605SOL     OW 5713   6.631   5.173   1.410
 1605SOL    HW1 5714   6.532   5.188   1.416
 1605SOL    HW2 5715   6.654   5.090   1.461
 1606SOL     OW 5716   4.088   0.150   5.520
 1606SOL    HW1 5717   4.183   0.177   5.505
 1606SOL    HW2 5718   4.047   0.124   5.432
 1607SOL     OW 5719   4.285   1.587   1.047
 1607SOL    HW1 5720   4.303   1.600   0.950
 1607SOL    HW2 5721   4.192   1.618   1.068
 1608SOL     OW 5722   0.648   1.235   3.578
 1608SOL    HW1 5723   0.618   1.206   3.670
 1608SOL    HW2 5724   0.582   1.201   3.511
 1609SOL     OW 5725   4.217   0.031   0.351
 1609SOL    HW1 5726   4.126   0.057   0.318
 1609SOL    HW2 5727   4.243   0.092   0.426
 1610SOL     OW 5728   6.269   4.524   6.598
 1610SOL    HW1 5729   6.331   4.447   6.612
 1610SOL    HW2 5730   6.190   4.494   6.544
 1611SOL     OW 5731   2.812   3.954   0.737
 1611SOL    HW1 5732   2.786   3.965   0.641
 1611SOL    HW2 5733   2.860   3.868   0.749
 1612SOL     OW 5734   2.539   0.084   6.738
 1612SOL    HW1 5735   2.606   0.111   6.669
 1612SOL    HW2 5736   2.571   0.002   6.785
 1613SOL     OW 5737   1.139   5.691   2.198
 1613SOL    HW1 5738   1.046   5.665   2.172
 1613SOL    HW2 5739   1.177   5.752   2.129
 1614SOL     OW 5740   5.017   2.960   6.976
 1614SOL    HW1 5741   5.114   2.937   6.976
 1614SOL    HW2 5742   4.997   3.018   6.897
 1615SOL     OW 5743   5.997   5.805   0.604
 1615SOL    HW1 5744   6.000   5.705   0.600
 1615SOL    HW2 5745   5.992   5.842   0.511
 1616SOL     OW 5746   3.258   1.478   5.408
 1616SOL    HW1 5747   3.243   1.389   5.365
 1616SOL    HW2 5748   3.171   1.517   5.436
 1617SOL     OW 5749   5.593   6.475   2.664
 1617SOL    HW1 5750   5.620   6.521   2.749
 1617SOL    HW2 5751   5.659   6.498   2.592
 1618SOL     OW 5752   1.486   5.358   2.442
 1618SOL    HW1 5753   1.400   5.399   2.411
 1618SOL    HW2 5754   1.562   5.417   2.414
 1619SOL     OW 5755   0.927   3.938   1.723
 1619SOL    HW1 5756   0.961   4.031   1.705
 1619SOL    HW2 5757   0.976   3.873   1.664
 1620SOL     OW 5758   2.746   4.685   1.726
 1620SOL    HW1 5759   2.680   4.715   1.794
 1620SOL    HW2 5760   2.820   4.635   1.771
 1621SOL     OW 5761   6.818   1.184   0.775
 1621SOL    HW1 5762   6.898   1.129   0.754
 1621SOL    HW2 5763   6.771   1.146   0.854
 1622SOL     OW 5764   0.460   2.866   4.877
 1622SOL    HW1 5765   0.386   2.925   4.845
 1622SOL    HW2 5766   0.422   2.778   4.905
 1623SOL     OW 5767   2.340   2.867   4.720
 1623SOL    HW1 5768   2.295   2.783   4.750
 1623SOL    HW2 5769   2.362   2.923   4.800
 1624SOL     OW 5770   2.882   1.340   5.326
 1624SOL    HW1 5771   2.982   1.341   5.315
 1624SOL    HW2 5772   2.854   1.418   5.382
 1625SOL     OW 5773   1.594   4.861   0.144
 1625SOL    HW1 5774   1.675   4.918   0.139
 1625SOL    HW2 5775   1.533   4.896   0.216
 1626SOL     OW 5776   4.403   1.625   6.844
 1626SOL    HW1 5777   4.488   1.578   6.869
 1626SOL    HW2 5778   4.329   1.593   6.903
 1627SOL     OW 5779   6.395   3.131   3.526
 1627SOL    HW1 5780   6.483   3.149   3.570
 1627SOL    HW2 5781   6.338   3.213   3.529
 1628SOL     OW 5782   4.834   4.619   6.859
 1628SOL    HW1 5783   4.875   4.589   6.945
 1628SOL    HW2 5784   4.877   4.569   6.783
 1629SOL     OW 5785   3.018   0.598   3.907
 1629SOL    HW1 5786   3.064   0.686   3.895
 1629SOL    HW2 5787   3.083   0.532   3.946
 1630SOL     OW 5788   1.524   4.481   5.777
 1630SOL    HW1 5789   1.441   4.434   5.803
 1630SOL    HW2 5790   1.501   4.568   5.734
 1631SOL     OW 5791   0.923   2.821   0.324
 1631SOL    HW1 5792   0.930   2.904   0.269
 1631SOL    HW2 5793   0.866   2.754   0.276
 1632SOL     OW 5794   5.924   2.501   0.572
 1632SOL    HW1 5795   5.894   2.551   0.652
 1632SOL    HW2 5796   6.012   2.537   0.540
 1633SOL     OW 5797   5.699   4.017   4.322
 1633SOL    HW1 5798   5.681   3.920   4.338
 1633SOL    HW2 5799   5.656   4.044   4.235
 1634SOL     OW 5800   3.910   5.672   4.833
 1634SOL    HW1 5801   4.010   5.669   4.838
 1634SOL    HW2 5802   3.878   5.599   4.772
 1635SOL     OW 5803   7.010   4.809   0.127
 1635SOL    HW1 5804   6.938   4.850   0.070
 1635SOL    HW2 5805   6.977   4.798   0.220
 1636SOL     OW 5806   2.608   4.373   1.717
 1636SOL    HW1 5807   2.672   4.309   1.676
 1636SOL    HW2 5808   2.594   4.451   1.656
 1637SOL     OW 5809   0.556   0.395   2.990
 1637SOL    HW1 5810   0.603   0.392   3.078
 1637SOL    HW2 5811   0.475   0.452   2.998
 1638SOL     OW 5812   6.666   4.257   3.659
 1638SOL    HW1 5813   6.720   4.316   3.718
 1638SOL    HW2 5814   6.645   4.305   3.573
 1639SOL     OW 5815   4.874   0.116   2.139
 1639SOL    HW1 5816   4.969   0.135   2.113
 1639SOL    HW2 5817   4.830   0.201   2.167
 1640SOL     OW 5818   6.100   0.518   0.259
 1640SOL    HW1 5819   6.126   0.500   0.165
 1640SOL    HW2 5820   6.172   0.572   0.304
 1641SOL     OW 5821   4.629   1.804   3.237
 1641SOL    HW1 5822   4.665   1.743   3.166
 1641SOL    HW2 5823   4.696   1.876   3.255
 1642SOL     OW 5824   6.126   3.733   6.576
 1642SOL    HW1 5825   6.076   3.820   6.576
 1642SOL    HW2 5826   6.063   3.659   6.598
 1643SOL     OW 5827   2.849   4.765   4.730
 1643SOL    HW1 5828   2.851   4.725   4.821
 1643SOL    HW2 5829   2.777   4.721   4.676
 1644SOL     OW 5830   6.011   3.559   0.311
 1644SOL    HW1 5831   6.070   3.529   0.386
 1644SOL    HW2 5832   5.954   3.482   0.281
 1645SOL     OW 5833   3.509   4.811   6.385
 1645SOL    HW1 5834   3.576   4.850   6.448
 1645SOL    HW2 5835   3.555   4.752   6.319
 1646SOL     OW 5836   3.007   6.512   0.022
 1646SOL    HW1 5837   3.028   6.568   6.966
 1646SOL    HW2 5838   2.980   6.421   7.017
 1647SOL     OW 5839   5.705   3.174   4.777
 1647SOL    HW1 5840   5.727   3.151   4.682
 1647SOL    HW2 5841   5.696   3.091   4.831
 1648SOL     OW 5842   5.089   5.817   0.878
 1648SOL    HW1 5843   5.074   5.907   0.837
 1648SOL    HW2 5844   5.098   5.828   0.978
 1649SOL     OW 5845   3.411   1.166   4.161
 1649SOL    HW1 5846   3.480   1.238   4.154
 1649SOL    HW2 5847   3.368   1.169   4.252
 1650SOL     OW 5848   1.863   6.272   6.063
 1650SOL    HW1 5849   1.939   6.258   6.128
 1650SOL    HW2 5850   1.855   6.191   6.005
 1651SOL     OW 5851   0.895   1.735   1.676
 1651SOL    HW1 5852   0.994   1.746   1.668
 1651SOL    HW2 5853   0.862   1.785   1.756
 1652SOL     OW 5854   1.119   3.616   2.090
 1652SOL    HW1 5855   1.032   3.568   2.078
 1652SOL    HW2 5856   1.147   3.612   2.186
 1653SOL     OW 5857   0.507   6.589   0.827
 1653SOL    HW1 5858   0.517   6.538   0.741
 1653SOL    HW2 5859   0.541   6.683   0.814
 1654SOL     OW 5860   0.594   3.538   1.717
 1654SOL    HW1 5861   0.598   3.579   1.809
 1654SOL    HW2 5862   0.674   3.480   1.704
 1655SOL     OW 5863   1.059   2.109   5.051
 1655SOL    HW1 5864   1.046   2.077   5.145
 1655SOL    HW2 5865   1.015   2.198   5.041
 1656SOL     OW 5866   2.418   4.398   2.468
 1656SOL    HW1 5867   2.366   4.474   2.430
 1656SOL    HW2 5868   2.404   4.395   2.567
 1657SOL     OW 5869   0.082   1.013   4.131
 1657SOL    HW1 5870   0.114   0.984   4.221
 1657SOL    HW2 5871   0.038   1.102   4.139
 1658SOL     OW 5872   0.248   6.079   1.082
 1658SOL    HW1 5873   0.329   6.048   1.032
 1658SOL    HW2 5874   0.245   6.178   1.083
 1659SOL     OW 5875   3.771   6.975   6.545
 1659SOL    HW1 5876   3.753   6.900   6.480
 1659SOL    HW2 5877   3.702   0.022   6.533
 1660SOL     OW 5878   1.546   5.209   3.833
 1660SOL    HW1 5879   1.492   5.183   3.752
 1660SOL    HW2 5880   1.524   5.303   3.858
 1661SOL     OW 5881   2.517   6.978   1.161
 1661SOL    HW1 5882   2.503   0.052   1.174
 1661SOL    HW2 5883   2.534   6.934   1.249
 1662SOL     OW 5884   6.579   0.700   4.715
 1662SOL    HW1 5885   6.636   0.684   4.795
 1662SOL    HW2 5886   6.579   0.797   4.692
 1663SOL     OW 5887   4.538   6.229   3.098
 1663SOL    HW1 5888   4.572   6.250   3.006
 1663SOL    HW2 5889   4.564   6.136   3.122
 1664SOL     OW 5890   2.038   6.842   4.769
 1664SOL    HW1 5891   1.998   6.779   4.702
 1664SOL    HW2 5892   2.107   6.898   4.725
 1665SOL     OW 5893   0.171   2.372   3.073
 1665SOL    HW1 5894   0.158   2.400   2.978
 1665SOL    HW2 5895   0.096   2.312   3.101
 1666SOL     OW 5896   5.649   1.986   6.829
 1666SOL    HW1 5897   5.575   1.980   6.762
 1666SOL    HW2 5898   5.613   1.967   6.920
 1667SOL     OW 5899   6.679   5.868   1.446
 1667SOL    HW1 5900   6.695   5.770   1.438
 1667SOL    HW2 5901   6.632   5.902   1.365
 1668SOL     OW 5902   5.568   6.639   4.566
 1668SOL    HW1 5903   5.498   6.633   4.637
 1668SOL    HW2 5904   5.615   6.552   4.558
 1669SOL     OW 5905   6.632   5.431   6.280
 1669SOL    HW1 5906   6.538   5.463   6.269
 1669SOL    HW2 5907   6.649   5.412   6.377
 1670SOL     OW 5908   0.532   4.096   5.980
 1670SOL    HW1 5909   0.582   4.076   5.896
 1670SOL    HW2 5910   0.594   4.135   6.047
 1671SOL     OW 5911   5.702   1.136   2.532
 1671SOL    HW1 5912   5.602   1.133   2.540
 1671SOL    HW2 5913   5.742   1.116   2.621
 1672SOL     OW 5914   1.368   2.631   0.771
 1672SOL    HW1 5915   1.375   2.665   0.865
 1672SOL    HW2 5916   1.273   2.637   0.740
 1673SOL     OW 5917   1.567   1.634   4.525
 1673SOL    HW1 5918   1.596   1.617   4.431
 1673SOL    HW2 5919   1.472   1.606   4.537
 1674SOL     OW 5920   0.801   3.160   2.278
 1674SOL    HW1 5921   0.717   3.174   2.226
 1674SOL    HW2 5922   0.880   3.176   2.218
 1675SOL     OW 5923   5.488   0.193   0.721
 1675SOL    HW1 5924   5.394   0.200   0.689
 1675SOL    HW2 5925   5.550   0.227   0.650
 1676SOL     OW 5926   2.404   2.606   2.256
 1676SOL    HW1 5927   2.350   2.571   2.333
 1676SOL    HW2 5928   2.485   2.549   2.243
 1677SOL     OW 5929   3.218   3.566   4.568
 1677SOL    HW1 5930   3.294   3.620   4.604
 1677SOL    HW2 5931   3.172   3.519   4.644
 1678SOL     OW 5932   5.539   4.219   4.179
 1678SOL    HW1 5933   5.525   4.296   4.242
 1678SOL    HW2 5934   5.521   4.249   4.085
 1679SOL     OW 5935   2.384   2.533   4.314
 1679SOL    HW1 5936   2.401   2.618   4.363
 1679SOL    HW2 5937   2.466   2.506   4.264
 1680SOL     OW 5938   0.101   2.855   4.658
 1680SOL    HW1 5939   0.026   2.797   4.627
 1680SOL    HW2 5940   0.083   2.950   4.634
 1681SOL     OW 5941   6.981   5.402   0.183
 1681SOL    HW1 5942   7.013   5.480   0.130
 1681SOL    HW2 5943   6.959   5.327   0.120
 1682SOL     OW 5944   1.456   1.257   4.442
 1682SOL    HW1 5945   1.424   1.207   4.523
 1682SOL    HW2 5946   1.552   1.283   4.455
 1683SOL     OW 5947   5.137   5.375   1.362
 1683SOL    HW1 5948   5.063   5.347   1.301
 1683SOL    HW2 5949   5.115   5.463   1.404
 1684SOL     OW 5950   1.063   5.846   2.443
 1684SOL    HW1 5951   1.099   5.939   2.432
 1684SOL    HW2 5952   1.066   5.799   2.355
 1685SOL     OW 5953   2.709   1.095   4.348
 1685SOL    HW1 5954   2.711   1.194   4.335
 1685SOL    HW2 5955   2.626   1.069   4.398
 1686SOL     OW 5956   2.844   6.286   4.573
 1686SOL    HW1 5957   2.842   6.231   4.656
 1686SOL    HW2 5958   2.827   6.228   4.494
 1687SOL     OW 5959   1.924   3.479   1.635
 1687SOL    HW1 5960   2.018   3.448   1.647
 1687SOL    HW2 5961   1.885   3.437   1.553
 1688SOL     OW 5962   2.396   2.708   4.006
 1688SOL    HW1 5963   2.464   2.635   4.014
 1688SOL    HW2 5964   2.383   2.732   3.910
 1689SOL     OW 5965   6.084   1.415   2.884
 1689SOL    HW1 5966   6.127   1.487   2.939
 1689SOL    HW2 5967   6.118   1.421   2.790
 1690SOL     OW 5968   1.910   2.621   3.766
 1690SOL    HW1 5969   1.833   2.560   3.782
 1690SOL    HW2 5970   1.898   2.669   3.679
 1691SOL     OW 5971   6.270   3.659   3.666
 1691SOL    HW1 5972   6.211   3.578   3.669
 1691SOL    HW2 5973   6.243   3.717   3.590
 1692SOL     OW 5974   5.410   6.265   1.658
 1692SOL    HW1 5975   5.363   6.299   1.739
 1692SOL    HW2 5976   5.392   6.324   1.580
 1693SOL     OW 5977   6.948   2.284   2.016
 1693SOL    HW1 5978   0.021   2.279   1.992
 1693SOL    HW2 5979   6.933   2.241   2.106
 1694SOL     OW 5980   5.697   0.708   2.302
 1694SOL    HW1 5981   5.706   0.807   2.288
 1694SOL    HW2 5982   5.624   0.673   2.244
 1695SOL     OW 5983   3.830   0.937   5.417
 1695SOL    HW1 5984   3.852   1.033   5.400
 1695SOL    HW2 5985   3.913   0.889   5.446
 1696SOL     OW 5986   4.335   4.891   0.572
 1696SOL    HW1 5987   4.306   4.796   0.566
 1696SOL    HW2 5988   4.433   4.897   0.556
 1697SOL     OW 5989   5.882   0.764   0.774
 1697SOL    HW1 5990   5.838   0.701   0.838
 1697SOL    HW2 5991   5.914   0.845   0.823
 1698SOL     OW 5992   4.059   0.395   0.091
 1698SOL    HW1 5993   4.052   0.423   7.019
 1698SOL    HW2 5994   4.148   0.422   0.128
 1699SOL     OW 5995   2.031   0.743   0.650
 1699SOL    HW1 5996   2.127   0.768   0.661
 1699SOL    HW2 5997   2.022   0.644   0.661
 1700SOL     OW 5998   6.080   2.857   4.044
 1700SOL    HW1 5999   6.074   2.772   4.095
 1700SOL    HW2 6000   6.099   2.932   4.107
 1701SOL     OW 6001   4.695   4.282   6.437
 1701SOL    HW1 6002   4.607   4.317   6.403
 1701SOL    HW2 6003   4.719   4.330   6.521
 1702SOL     OW 6004   6.275   2.064   0.627
 1702SOL    HW1 6005   6.241   2.079   0.720
 1702SOL    HW2 6006   6.342   2.135   0.604
 1703SOL     OW 6007   2.841   2.629   1.673
 1703SOL    HW1 6008   2.865   2.589   1.762
 1703SOL    HW2 6009   2.745   2.609   1.653
 1704SOL     OW 6010   0.904   2.161   1.234
 1704SOL    HW1 6011   0.922   2.063   1.238
 1704SOL    HW2 6012   0.923   2.195   1.141
 1705SOL     OW 6013   3.186   1.435   2.231
 1705SOL    HW1 6014   3.235   1.404   2.313
 1705SOL    HW2 6015   3.228   1.519   2.197
 1706SOL     OW 6016   4.849   1.217   2.141
 1706SOL    HW1 6017   4.897   1.132   2.161
 1706SOL    HW2 6018   4.885   1.290   2.200
 1707SOL     OW 6019   5.158   1.957   2.404
 1707SOL    HW1 6020   5.251   1.974   2.439
 1707SOL    HW2 6021   5.113   1.888   2.460
 1708SOL     OW 6022   4.985   5.555   1.774
 1708SOL    HW1 6023   4.893   5.590   1.795
 1708SOL    HW2 6024   4.983   5.510   1.684
 1709SOL     OW 6025   3.583   6.164   2.583
 1709SOL    HW1 6026   3.540   6.076   2.600
 1709SOL    HW2 6027   3.556   6.229   2.655
 1710SOL     OW 6028   5.468   4.912   3.793
 1710SOL    HW1 6029   5.418   4.825   3.800
 1710SOL    HW2 6030   5.431   4.977   3.859
 1711SOL     OW 6031   1.414   4.421   4.293
 1711SOL    HW1 6032   1.375   4.471   4.370
 1711SOL    HW2 6033   1.408   4.477   4.210
 1712SOL     OW 6034   6.576   2.213   5.530
 1712SOL    HW1 6035   6.530   2.220   5.619
 1712SOL    HW2 6036   6.557   2.295   5.477
 1713SOL     OW 6037   4.372   2.732   1.256
 1713SOL    HW1 6038   4.389   2.634   1.249
 1713SOL    HW2 6039   4.283   2.753   1.216
 1714SOL     OW 6040   3.808   1.398   5.801
 1714SOL    HW1 6041   3.787   1.316   5.748
 1714SOL    HW2 6042   3.747   1.403   5.880
 1715SOL     OW 6043   0.529   5.177   3.454
 1715SOL    HW1 6044   0.460   5.231   3.503
 1715SOL    HW2 6045   0.487   5.092   3.421
 1716SOL     OW 6046   4.949   6.721   3.301
 1716SOL    HW1 6047   4.962   6.776   3.218
 1716SOL    HW2 6048   4.866   6.752   3.348
 1717SOL     OW 6049   2.667   6.260   5.774
 1717SOL    HW1 6050   2.603   6.274   5.849
 1717SOL    HW2 6051   2.720   6.177   5.790
 1718SOL     OW 6052   2.226   1.555   1.286
 1718SOL    HW1 6053   2.198   1.600   1.371
 1718SOL    HW2 6054   2.323   1.531   1.292
 1719SOL     OW 6055   1.513   3.541   1.029
 1719SOL    HW1 6056   1.542   3.601   0.955
 1719SOL    HW2 6057   1.413   3.530   1.025
 1720SOL     OW 6058   6.996   3.238   0.229
 1720SOL    HW1 6059   6.938   3.290   0.292
 1720SOL    HW2 6060   7.002   3.143   0.260
 1721SOL     OW 6061   1.735   6.682   1.296
 1721SOL    HW1 6062   1.781   6.594   1.310
 1721SOL    HW2 6063   1.657   6.688   1.358
 1722SOL     OW 6064   3.372   1.150   3.702
 1722SOL    HW1 6065   3.349   1.230   3.758
 1722SOL    HW2 6066   3.363   1.067   3.757
 1723SOL     OW 6067   5.999   1.968   2.364
 1723SOL    HW1 6068   6.011   1.988   2.267
 1723SOL    HW2 6069   5.909   2.002   2.394
 1724SOL     OW 6070   6.922   2.493   1.490
 1724SOL    HW1 6071   6.988   2.541   1.432
 1724SOL    HW2 6072   6.843   2.552   1.507
 1725SOL     OW 6073   1.997   5.313   6.559
 1725SOL    HW1 6074   2.078   5.365   6.583
 1725SOL    HW2 6075   1.988   5.308   6.459
 1726SOL     OW 6076   5.986   4.758   4.892
 1726SOL    HW1 6077   5.920   4.755   4.967
 1726SOL    HW2 6078   6.072   4.798   4.924
 1727SOL     OW 6079   3.374   2.968   4.162
 1727SOL    HW1 6080   3.413   3.060   4.153
 1727SOL    HW2 6081   3.293   2.961   4.103
 1728SOL     OW 6082   5.041   4.780   4.988
 1728SOL    HW1 6083   4.995   4.705   5.036
 1728SOL    HW2 6084   5.015   4.867   5.029
 1729SOL     OW 6085   1.993   4.274   2.984
 1729SOL    HW1 6086   1.942   4.352   2.947
 1729SOL    HW2 6087   2.002   4.203   2.914
 1730SOL     OW 6088   1.238   6.702   5.924
 1730SOL    HW1 6089   1.224   6.604   5.932
 1730SOL    HW2 6090   1.157   6.745   5.885
 1731SOL     OW 6091   6.850   3.917   3.292
 1731SOL    HW1 6092   6.913   3.994   3.299
 1731SOL    HW2 6093   6.799   3.908   3.377
 1732SOL     OW 6094   2.667   5.024   5.242
 1732SOL    HW1 6095   2.716   5.019   5.329
 1732SOL    HW2 6096   2.708   4.959   5.177
 1733SOL     OW 6097   1.903   4.897   1.740
 1733SOL    HW1 6098   1.921   4.960   1.816
 1733SOL    HW2 6099   1.942   4.934   1.656
 1734SOL     OW 6100   4.558   3.131   1.171
 1734SOL    HW1 6101   4.583   3.222   1.203
 1734SOL    HW2 6102   4.517   3.079   1.246
 1735SOL     OW 6103   5.056   6.025   0.229
 1735SOL    HW1 6104   5.020   5.975   0.307
 1735SOL    HW2 6105   4.989   6.023   0.154
 1736SOL     OW 6106   3.477   3.661   0.573
 1736SOL    HW1 6107   3.555   3.601   0.558
 1736SOL    HW2 6108   3.507   3.743   0.622
 1737SOL     OW 6109   3.310   1.212   4.425
 1737SOL    HW1 6110   3.358   1.273   4.489
 1737SOL    HW2 6111   3.254   1.147   4.477
 1738SOL     OW 6112   1.905   2.692   4.216
 1738SOL    HW1 6113   1.846   2.712   4.294
 1738SOL    HW2 6114   1.895   2.764   4.147
 1739SOL     OW 6115   0.331   2.151   5.280
 1739SOL    HW1 6116   0.345   2.119   5.373
 1739SOL    HW2 6117   0.396   2.106   5.219
 1740SOL     OW 6118   0.056   2.041   5.652
 1740SOL    HW1 6119   0.066   1.951   5.695
 1740SOL    HW2 6120   6.994   2.042   5.599
 1741SOL     OW 6121   2.014   0.326   3.457
 1741SOL    HW1 6122   1.948   0.346   3.529
 1741SOL    HW2 6123   2.093   0.387   3.465
 1742SOL     OW 6124   5.788   0.457   6.536
 1742SOL    HW1 6125   5.789   0.472   6.634
 1742SOL    HW2 6126   5.762   0.362   6.516
 1743SOL     OW 6127   0.945   2.087   1.545
 1743SOL    HW1 6128   0.855   2.101   1.587
 1743SOL    HW2 6129   0.971   2.170   1.494
 1744SOL     OW 6130   6.663   2.201   2.370
 1744SOL    HW1 6131   6.657   2.276   2.436
 1744SOL    HW2 6132   6.573   2.189   2.326
 1745SOL     OW 6133   5.637   5.977   2.256
 1745SOL    HW1 6134   5.605   5.885   2.235
 1745SOL    HW2 6135   5.727   5.991   2.215
 1746SOL     OW 6136   1.126   3.797   4.446
 1746SOL    HW1 6137   1.142   3.725   4.514
 1746SOL    HW2 6138   1.214   3.838   4.419
 1747SOL     OW 6139   4.708   1.623   3.062
 1747SOL    HW1 6140   4.791   1.662   3.102
 1747SOL    HW2 6141   4.724   1.528   3.036
 1748SOL     OW 6142   1.326   0.966   5.228
 1748SOL    HW1 6143   1.276   0.881   5.210
 1748SOL    HW2 6144   1.263   1.043   5.221
 1749SOL     OW 6145   2.541   0.553   4.817
 1749SOL    HW1 6146   2.602   0.515   4.748
 1749SOL    HW2 6147   2.488   0.479   4.859
 1750SOL     OW 6148   5.320   6.281   4.021
 1750SOL    HW1 6149   5.376   6.206   3.988
 1750SOL    HW2 6150   5.252   6.247   4.085
 1751SOL     OW 6151   3.846   6.354   4.318
 1751SOL    HW1 6152   3.894   6.283   4.370
 1751SOL    HW2 6153   3.909   6.393   4.251
 1752SOL     OW 6154   6.345   1.985   1.944
 1752SOL    HW1 6155   6.272   1.936   1.896
 1752SOL    HW2 6156   6.400   2.036   1.878
 1753SOL     OW 6157   6.893   1.257   1.178
 1753SOL    HW1 6158   6.875   1.170   1.226
 1753SOL    HW2 6159   6.867   1.333   1.237
 1754SOL     OW 6160   1.297   4.482   6.684
 1754SOL    HW1 6161   1.233   4.418   6.642
 1754SOL    HW2 6162   1.246   4.556   6.729
 1755SOL     OW 6163   6.886   5.953   1.968
 1755SOL    HW1 6164   6.945   6.027   1.936
 1755SOL    HW2 6165   6.942   5.880   2.007
 1756SOL     OW 6166   4.421   6.077   6.046
 1756SOL    HW1 6167   4.476   6.064   5.963
 1756SOL    HW2 6168   4.452   6.160   6.094
 1757SOL     OW 6169   2.235   5.115   4.886
 1757SOL    HW1 6170   2.162   5.100   4.953
 1757SOL    HW2 6171   2.311   5.053   4.904
 1758SOL     OW 6172   2.182   0.396   4.011
 1758SOL    HW1 6173   2.270   0.351   4.029
 1758SOL    HW2 6174   2.143   0.428   4.097
 1759SOL     OW 6175   1.669   6.446   5.962
 1759SOL    HW1 6176   1.666   6.464   5.863
 1759SOL    HW2 6177   1.737   6.376   5.981
 1760SOL     OW 6178   5.147   1.546   3.173
 1760SOL    HW1 6179   5.144   1.486   3.253
 1760SOL    HW2 6180   5.082   1.514   3.104
 1761SOL     OW 6181   0.194   0.628   0.809
 1761SOL    HW1 6182   0.139   0.708   0.830
 1761SOL    HW2 6183   0.219   0.580   0.893
 1762SOL     OW 6184   0.328   0.899   4.932
 1762SOL    HW1 6185   0.260   0.908   4.859
 1762SOL    HW2 6186   0.306   0.820   4.988
 1763SOL     OW 6187   1.413   3.856   4.048
 1763SOL    HW1 6188   1.317   3.860   4.019
 1763SOL    HW2 6189   1.451   3.948   4.046
 1764SOL     OW 6190   2.096   3.403   2.471
 1764SOL    HW1 6191   2.189   3.382   2.502
 1764SOL    HW2 6192   2.056   3.322   2.429
 1765SOL     OW 6193   3.782   0.678   0.815
 1765SOL    HW1 6194   3.814   0.686   0.909
 1765SOL    HW2 6195   3.857   0.647   0.756
 1766SOL     OW 6196   5.412   4.348   2.447
 1766SOL    HW1 6197   5.333   4.387   2.398
 1766SOL    HW2 6198   5.399   4.249   2.455
 1767SOL     OW 6199   0.363   3.641   2.580
 1767SOL    HW1 6200   0.452   3.681   2.600
 1767SOL    HW2 6201   0.374   3.542   2.566
 1768SOL     OW 6202   4.001   1.857   6.678
 1768SOL    HW1 6203   4.045   1.938   6.716
 1768SOL    HW2 6204   4.072   1.796   6.640
 1769SOL     OW 6205   4.670   1.769   6.073
 1769SOL    HW1 6206   4.632   1.853   6.112
 1769SOL    HW2 6207   4.688   1.783   5.975
 1770SOL     OW 6208   6.905   4.521   4.491
 1770SOL    HW1 6209   6.993   4.494   4.529
 1770SOL    HW2 6210   6.874   4.451   4.425
 1771SOL     OW 6211   2.162   5.384   0.390
 1771SOL    HW1 6212   2.209   5.463   0.429
 1771SOL    HW2 6213   2.115   5.411   0.306
 1772SOL     OW 6214   3.364   0.110   3.208
 1772SOL    HW1 6215   3.435   0.043   3.184
 1772SOL    HW2 6216   3.278   0.085   3.164
 1773SOL     OW 6217   2.972   3.744   6.499
 1773SOL    HW1 6218   2.944   3.695   6.416
 1773SOL    HW2 6219   3.067   3.775   6.489
 1774SOL     OW 6220   4.441   0.323   1.986
 1774SOL    HW1 6221   4.518   0.301   1.926
 1774SOL    HW2 6222   4.467   0.307   2.081
 1775SOL     OW 6223   1.834   5.023   5.286
 1775SOL    HW1 6224   1.888   5.043   5.368
 1775SOL    HW2 6225   1.754   4.968   5.311
 1776SOL     OW 6226   4.950   1.073   6.030
 1776SOL    HW1 6227   4.959   1.171   6.046
 1776SOL    HW2 6228   4.891   1.033   6.100
 1777SOL     OW 6229   3.057   5.671   5.645
 1777SOL    HW1 6230   3.027   5.704   5.555
 1777SOL    HW2 6231   3.009   5.587   5.667
 1778SOL     OW 6232   4.428   2.142   4.143
 1778SOL    HW1 6233   4.457   2.131   4.048
 1778SOL    HW2 6234   4.478   2.218   4.184
 1779SOL     OW 6235   3.496   1.446   5.128
 1779SOL    HW1 6236   3.451   1.534   5.113
 1779SOL    HW2 6237   3.500   1.395   5.042
 1780SOL     OW 6238   1.893   3.923   5.996
 1780SOL    HW1 6239   1.859   3.936   6.089
 1780SOL    HW2 6240   1.882   4.007   5.943
 1781SOL     OW 6241   5.094   4.636   3.389
 1781SOL    HW1 6242   5.147   4.708   3.434
 1781SOL    HW2 6243   5.027   4.599   3.453
 1782SOL     OW 6244   2.748   1.404   3.474
 1782SOL    HW1 6245   2.767   1.392   3.376
 1782SOL    HW2 6246   2.816   1.354   3.528
 1783SOL     OW 6247   2.471   3.638   6.198
 1783SOL    HW1 6248   2.464   3.547   6.156
 1783SOL    HW2 6249   2.393   3.694   6.169
 1784SOL     OW 6250   2.484   0.956   2.292
 1784SOL    HW1 6251   2.545   0.961   2.213
 1784SOL    HW2 6252   2.533   0.912   2.368
 1785SOL     OW 6253   5.409   5.671   3.691
 1785SOL    HW1 6254   5.407   5.677   3.592
 1785SOL    HW2 6255   5.318   5.688   3.727
 1786SOL     OW 6256   1.128   3.646   0.190
 1786SOL    HW1 6257   1.223   3.652   0.159
 1786SOL    HW2 6258   1.067   3.660   0.113
 1787SOL     OW 6259   2.215   0.779   5.442
 1787SOL    HW1 6260   2.307   0.741   5.445
 1787SOL    HW2 6261   2.186   0.804   5.535
 1788SOL     OW 6262   3.507   4.235   6.819
 1788SOL    HW1 6263   3.567   4.239   6.739
 1788SOL    HW2 6264   3.562   4.223   6.901
 1789SOL     OW 6265   5.748   2.336   2.209
 1789SOL    HW1 6266   5.707   2.266   2.150
 1789SOL    HW2 6267   5.727   2.426   2.172
 1790SOL     OW 6268   4.040   6.604   4.453
 1790SOL    HW1 6269   3.973   6.634   4.521
 1790SOL    HW2 6270   4.078   6.515   4.479
 1791SOL     OW 6271   0.256   1.480   4.527
 1791SOL    HW1 6272   0.233   1.562   4.579
 1791SOL    HW2 6273   0.331   1.432   4.572
 1792SOL     OW 6274   0.810   1.180   4.578
 1792SOL    HW1 6275   0.735   1.173   4.644
 1792SOL    HW2 6276   0.889   1.128   4.612
 1793SOL     OW 6277   6.253   0.475   3.672
 1793SOL    HW1 6278   6.251   0.426   3.584
 1793SOL    HW2 6279   6.209   0.419   3.742
 1794SOL     OW 6280   5.053   6.645   6.158
 1794SOL    HW1 6281   5.053   6.606   6.250
 1794SOL    HW2 6282   5.143   6.632   6.117
 1795SOL     OW 6283   6.355   4.798   1.909
 1795SOL    HW1 6284   6.444   4.819   1.868
 1795SOL    HW2 6285   6.312   4.883   1.939
 1796SOL     OW 6286   2.439   0.755   4.071
 1796SOL    HW1 6287   2.511   0.819   4.098
 1796SOL    HW2 6288   2.363   0.806   4.031
 1797SOL     OW 6289   1.442   6.852   6.015
 1797SOL    HW1 6290   1.445   6.951   6.007
 1797SOL    HW2 6291   1.358   6.817   5.973
 1798SOL     OW 6292   4.713   2.910   5.180
 1798SOL    HW1 6293   4.717   2.950   5.272
 1798SOL    HW2 6294   4.763   2.969   5.116
 1799SOL     OW 6295   5.687   2.342   6.466
 1799SOL    HW1 6296   5.754   2.330   6.392
 1799SOL    HW2 6297   5.595   2.347   6.427
 1800SOL     OW 6298   5.012   4.269   3.725
 1800SOL    HW1 6299   4.984   4.354   3.770
 1800SOL    HW2 6300   5.100   4.240   3.761
 1801SOL     OW 6301   1.014   1.407   3.211
 1801SOL    HW1 6302   1.064   1.348   3.147
 1801SOL    HW2 6303   0.976   1.351   3.284
 1802SOL     OW 6304   6.211   5.852   3.102
 1802SOL    HW1 6305   6.278   5.863   3.175
 1802SOL    HW2 6306   6.149   5.777   3.123
 1803SOL     OW 6307   6.986   6.355   1.531
 1803SOL    HW1 6308   0.025   6.407   1.473
 1803SOL    HW2 6309   6.892   6.383   1.511
 1804SOL     OW 6310   3.531   3.074   5.241
 1804SOL    HW1 6311   3.616   3.112   5.279
 1804SOL    HW2 6312   3.472   3.044   5.315
 1805SOL     OW 6313   0.982   4.222   6.170
 1805SOL    HW1 6314   0.989   4.209   6.071
 1805SOL    HW2 6315   1.030   4.307   6.195
 1806SOL     OW 6316   2.022   2.129   1.593
 1806SOL    HW1 6317   1.981   2.201   1.537
 1806SOL    HW2 6318   2.086   2.171   1.658
 1807SOL     OW 6319   6.036   2.486   6.217
 1807SOL    HW1 6320   6.064   2.468   6.122
 1807SOL    HW2 6321   6.003   2.402   6.259
 1808SOL     OW 6322   5.875   4.574   4.449
 1808SOL    HW1 6323   5.920   4.663   4.443
 1808SOL    HW2 6324   5.864   4.536   4.357
 1809SOL     OW 6325   2.536   2.563   4.723
 1809SOL    HW1 6326   2.621   2.580   4.772
 1809SOL    HW2 6327   2.475   2.508   4.780
 1810SOL     OW 6328   1.616   0.023   4.953
 1810SOL    HW1 6329   1.616   6.954   4.917
 1810SOL    HW2 6330   1.598   0.088   4.879
 1811SOL     OW 6331   4.568   4.809   2.957
 1811SOL    HW1 6332   4.537   4.720   2.924
 1811SOL    HW2 6333   4.667   4.808   2.971
 1812SOL     OW 6334   5.099   0.016   5.881
 1812SOL    HW1 6335   5.113   0.033   5.784
 1812SOL    HW2 6336   5.094   6.941   5.897
 1813SOL     OW 6337   4.913   5.370   1.207
 1813SOL    HW1 6338   4.823   5.344   1.171
 1813SOL    HW2 6339   4.947   5.448   1.156
 1814SOL     OW 6340   6.471   0.439   0.787
 1814SOL    HW1 6341   6.474   0.364   0.854
 1814SOL    HW2 6342   6.377   0.452   0.756
 1815SOL     OW 6343   6.089   0.815   2.814
 1815SOL    HW1 6344   6.157   0.821   2.887
 1815SOL    HW2 6345   6.123   0.862   2.733
 1816SOL     OW 6346   3.050   4.740   0.553
 1816SOL    HW1 6347   3.022   4.671   0.621
 1816SOL    HW2 6348   3.080   4.823   0.601
 1817SOL     OW 6349   3.864   0.075   3.246
 1817SOL    HW1 6350   3.855   0.172   3.222
 1817SOL    HW2 6351   3.894   0.024   3.166
 1818SOL     OW 6352   2.300   6.340   1.219
 1818SOL    HW1 6353   2.279   6.243   1.209
 1818SOL    HW2 6354   2.373   6.365   1.155
 1819SOL     OW 6355   1.104   6.170   1.887
 1819SOL    HW1 6356   1.048   6.110   1.830
 1819SOL    HW2 6357   1.132   6.250   1.835
 1820SOL     OW 6358   3.403   0.569   2.401
 1820SOL    HW1 6359   3.321   0.551   2.455
 1820SOL    HW2 6360   3.392   0.531   2.309
 1821SOL     OW 6361   2.919   0.628   1.074
 1821SOL    HW1 6362   3.016   0.615   1.096
 1821SOL    HW2 6363   2.877   0.684   1.145
 1822SOL     OW 6364   1.238   2.582   1.478
 1822SOL    HW1 6365   1.251   2.545   1.386
 1822SOL    HW2 6366   1.196   2.512   1.537
 1823SOL     OW 6367   3.356   5.878   2.769
 1823SOL    HW1 6368   3.403   5.842   2.687
 1823SOL    HW2 6369   3.423   5.895   2.841
 1824SOL     OW 6370   3.812   3.889   0.701
 1824SOL    HW1 6371   3.730   3.902   0.645
 1824SOL    HW2 6372   3.798   3.812   0.762
 1825SOL     OW 6373   1.378   2.519   4.963
 1825SOL    HW1 6374   1.413   2.432   4.998
 1825SOL    HW2 6375   1.442   2.592   4.984
 1826SOL     OW 6376   3.064   1.838   1.766
 1826SOL    HW1 6377   3.143   1.886   1.727
 1826SOL    HW2 6378   3.007   1.803   1.692
 1827SOL     OW 6379   6.723   5.347   1.213
 1827SOL    HW1 6380   6.697   5.289   1.291
 1827SOL    HW2 6381   6.766   5.290   1.143
 1828SOL     OW 6382   1.748   2.768   0.395
 1828SOL    HW1 6383   1.764   2.670   0.384
 1828SOL    HW2 6384   1.702   2.803   0.313
 1829SOL     OW 6385   3.484   0.680   3.138
 1829SOL    HW1 6386   3.423   0.733   3.079
 1829SOL    HW2 6387   3.520   0.602   3.087
 1830SOL     OW 6388   5.728   5.953   4.770
 1830SOL    HW1 6389   5.818   5.986   4.799
 1830SOL    HW2 6390   5.737   5.898   4.687
 1831SOL     OW 6391   5.691   6.727   1.728
 1831SOL    HW1 6392   5.786   6.729   1.698
 1831SOL    HW2 6393   5.655   6.634   1.716
 1832SOL     OW 6394   4.265   2.338   0.802
 1832SOL    HW1 6395   4.283   2.391   0.720
 1832SOL    HW2 6396   4.229   2.398   0.874
 1833SOL     OW 6397   5.267   0.923   1.379
 1833SOL    HW1 6398   5.351   0.918   1.433
 1833SOL    HW2 6399   5.226   0.832   1.373
 1834SOL     OW 6400   2.447   3.699   0.499
 1834SOL    HW1 6401   2.407   3.774   0.446
 1834SOL    HW2 6402   2.546   3.699   0.487
 1835SOL     OW 6403   0.147   4.835   1.929
 1835SOL    HW1 6404   0.206   4.912   1.903
 1835SOL    HW2 6405   0.130   4.838   2.028
 1836SOL     OW 6406   5.063   2.570   1.303
 1836SOL    HW1 6407   5.012   2.504   1.358
 1836SOL    HW2 6408   5.152   2.532   1.279
 1837SOL     OW 6409   0.721   6.548   5.075
 1837SOL    HW1 6410   0.630   6.504   5.078
 1837SOL    HW2 6411   0.733   6.592   4.986
 1838SOL     OW 6412   6.641   1.386   5.441
 1838SOL    HW1 6413   6.604   1.473   5.473
 1838SOL    HW2 6414   6.611   1.313   5.502
 1839SOL     OW 6415   0.247   1.428   5.454
 1839SOL    HW1 6416   0.344   1.414   5.473
 1839SOL    HW2 6417   0.192   1.372   5.516
 1840SOL     OW 6418   3.919   0.103   1.691
 1840SOL    HW1 6419   3.888   0.064   1.778
 1840SOL    HW2 6420   3.940   0.029   1.627
 1841SOL     OW 6421   2.173   1.333   3.242
 1841SOL    HW1 6422   2.143   1.311   3.150
 1841SOL    HW2 6423   2.207   1.251   3.288
 1842SOL     OW 6424   1.493   5.460   0.366
 1842SOL    HW1 6425   1.408   5.421   0.403
 1842SOL    HW2 6426   1.482   5.477   0.268
 1843SOL     OW 6427   6.228   1.112   4.676
 1843SOL    HW1 6428   6.300   1.182   4.681
 1843SOL    HW2 6429   6.150   1.148   4.626
 1844SOL     OW 6430   3.173   6.412   4.968
 1844SOL    HW1 6431   3.112   6.431   4.891
 1844SOL    HW2 6432   3.237   6.488   4.980
 1845SOL     OW 6433   3.022   6.760   4.775
 1845SOL    HW1 6434   2.930   6.800   4.781
 1845SOL    HW2 6435   3.082   6.824   4.727
 1846SOL     OW 6436   3.768   1.042   2.155
 1846SOL    HW1 6437   3.850   1.090   2.187
 1846SOL    HW2 6438   3.705   1.108   2.114
 1847SOL     OW 6439   1.190   0.498   5.944
 1847SOL    HW1 6440   1.172   0.575   5.882
 1847SOL    HW2 6441   1.287   0.475   5.940
 1848SOL     OW 6442   1.966   6.303   3.223
 1848SOL    HW1 6443   1.950   6.367   3.299
 1848SOL    HW2 6444   1.957   6.352   3.136
 1849SOL     OW 6445   4.371   2.680   1.742
 1849SOL    HW1 6446   4.462   2.716   1.762
 1849SOL    HW2 6447   4.379   2.588   1.704
 1850SOL     OW 6448   0.139   2.603   2.552
 1850SOL    HW1 6449   0.043   2.597   2.528
 1850SOL    HW2 6450   0.155   2.686   2.605
 1851SOL     OW 6451   0.842   3.561   6.783
 1851SOL    HW1 6452   0.867   3.476   6.737
 1851SOL    HW2 6453   0.825   3.543   6.880
 1852SOL     OW 6454   6.582   4.675   2.581
 1852SOL    HW1 6455   6.627   4.602   2.632
 1852SOL    HW2 6456   6.526   4.730   2.643
 1853SOL     OW 6457   0.547   2.366   3.544
 1853SOL    HW1 6458   0.475   2.323   3.489
 1853SOL    HW2 6459   0.538   2.337   3.639
 1854SOL     OW 6460   2.138   5.706   3.033
 1854SOL    HW1 6461   2.075   5.746   3.100
 1854SOL    HW2 6462   2.155   5.772   2.960
 1855SOL     OW 6463   5.308   4.020   5.260
 1855SOL    HW1 6464   5.284   3.967   5.341
 1855SOL    HW2 6465   5.290   3.966   5.178
 1856SOL     OW 6466   5.244   4.017   5.961
 1856SOL    HW1 6467   5.162   4.038   5.908
 1856SOL    HW2 6468   5.220   3.962   6.041
 1857SOL     OW 6469   3.979   2.155   6.866
 1857SOL    HW1 6470   3.991   2.198   6.777
 1857SOL    HW2 6471   3.962   2.224   6.936
 1858SOL     OW 6472   5.600   3.492   3.028
 1858SOL    HW1 6473   5.611   3.580   3.074
 1858SOL    HW2 6474   5.620   3.418   3.093
 1859SOL     OW 6475   4.909   1.949   4.051
 1859SOL    HW1 6476   4.986   1.961   4.114
 1859SOL    HW2 6477   4.863   2.037   4.038
 1860SOL     OW 6478   0.810   0.607   5.014
 1860SOL    HW1 6479   0.727   0.618   4.959
 1860SOL    HW2 6480   0.784   0.595   5.110
 1861SOL     OW 6481   6.080   7.019   2.542
 1861SOL    HW1 6482   6.165   0.028   2.584
 1861SOL    HW2 6483   6.098   6.933   2.494
 1862SOL     OW 6484   2.976   0.626   6.259
 1862SOL    HW1 6485   2.983   0.714   6.212
 1862SOL    HW2 6486   3.008   0.553   6.200
 1863SOL     OW 6487   0.090   2.495   3.613
 1863SOL    HW1 6488   0.017   2.560   3.635
 1863SOL    HW2 6489   0.109   2.498   3.515
 1864SOL     OW 6490   1.969   6.007   4.771
 1864SOL    HW1 6491   2.058   6.001   4.816
 1864SOL    HW2 6492   1.920   6.087   4.804
 1865SOL     OW 6493   3.997   0.168   0.223
 1865SOL    HW1 6494   4.038   0.235   0.161
 1865SOL    HW2 6495   3.974   0.212   0.309
 1866SOL     OW 6496   6.310   4.997   3.718
 1866SOL    HW1 6497   6.258   5.057   3.658
 1866SOL    HW2 6498   6.259   4.913   3.734
 1867SOL     OW 6499   1.318   3.890   0.522
 1867SOL    HW1 6500   1.222   3.911   0.538
 1867SOL    HW2 6501   1.326   3.795   0.493
 1868SOL     OW 6502   4.738   3.728   6.950
 1868SOL    HW1 6503   4.658   3.772   6.907
 1868SOL    HW2 6504   4.822   3.767   6.911
 1869SOL     OW 6505   0.106   3.643   4.797
 1869SOL    HW1 6506   0.186   3.616   4.744
 1869SOL    HW2 6507   0.032   3.577   4.781
 1870SOL     OW 6508   1.414   3.134   5.052
 1870SOL    HW1 6509   1.498   3.173   5.092
 1870SOL    HW2 6510   1.439   3.060   4.990
 1871SOL     OW 6511   0.388   0.622   6.772
 1871SOL    HW1 6512   0.391   0.537   6.719
 1871SOL    HW2 6513   0.437   0.609   6.858
 1872SOL     OW 6514   4.573   1.884   7.015
 1872SOL    HW1 6515   4.573   1.799   0.042
 1872SOL    HW2 6516   4.481   1.901   6.978
 1873SOL     OW 6517   6.399   1.068   5.723
 1873SOL    HW1 6518   6.454   1.077   5.805
 1873SOL    HW2 6519   6.426   0.986   5.673
 1874SOL     OW 6520   2.042   0.943   6.757
 1874SOL    HW1 6521   1.988   1.021   6.727
 1874SOL    HW2 6522   1.992   0.858   6.738
 1875SOL     OW 6523   6.520   0.654   0.613
 1875SOL    HW1 6524   6.528   0.626   0.709
 1875SOL    HW2 6525   6.612   0.667   0.575
 1876SOL     OW 6526   3.853   6.125   5.706
 1876SOL    HW1 6527   3.857   6.147   5.803
 1876SOL    HW2 6528   3.945   6.125   5.668
 1877SOL     OW 6529   0.670   1.493   3.459
 1877SOL    HW1 6530   0.698   1.559   3.529
 1877SOL    HW2 6531   0.683   1.400   3.493
 1878SOL     OW 6532   6.953   2.690   4.361
 1878SOL    HW1 6533   0.018   2.645   4.355
 1878SOL    HW2 6534   6.881   2.621   4.356
 1879SOL     OW 6535   2.148   5.479   3.469
 1879SOL    HW1 6536   2.218   5.463   3.539
 1879SOL    HW2 6537   2.085   5.402   3.466
 1880SOL     OW 6538   0.433   1.449   3.090
 1880SOL    HW1 6539   0.411   1.360   3.050
 1880SOL    HW2 6540   0.530   1.451   3.115
 1881SOL     OW 6541   1.513   2.202   3.573
 1881SOL    HW1 6542   1.530   2.287   3.523
 1881SOL    HW2 6543   1.479   2.133   3.509
 1882SOL     OW 6544   1.138   4.275   6.604
 1882SOL    HW1 6545   1.121   4.267   6.505
 1882SOL    HW2 6546   1.168   4.187   6.639
 1883SOL     OW 6547   0.777   3.472   3.483
 1883SOL    HW1 6548   0.853   3.440   3.427
 1883SOL    HW2 6549   0.779   3.572   3.487
 1884SOL     OW 6550   6.219   2.558   0.533
 1884SOL    HW1 6551   6.191   2.554   0.629
 1884SOL    HW2 6552   6.310   2.599   0.527
 1885SOL     OW 6553   0.002   2.010   6.710
 1885SOL    HW1 6554   0.089   2.058   6.719
 1885SOL    HW2 6555   6.956   2.057   6.764
 1886SOL     OW 6556   2.698   1.132   1.064
 1886SOL    HW1 6557   2.728   1.051   1.015
 1886SOL    HW2 6558   2.739   1.133   1.155
 1887SOL     OW 6559   0.317   5.401   6.451
 1887SOL    HW1 6560   0.221   5.384   6.430
 1887SOL    HW2 6561   0.338   5.498   6.436
 1888SOL     OW 6562   2.916   2.152   6.406
 1888SOL    HW1 6563   2.869   2.066   6.387
 1888SOL    HW2 6564   2.975   2.140   6.486
 1889SOL     OW 6565   5.603   2.639   6.215
 1889SOL    HW1 6566   5.549   2.598   6.142
 1889SOL    HW2 6567   5.547   2.706   6.264
 1890SOL     OW 6568   1.575   5.909   5.305
 1890SOL    HW1 6569   1.480   5.942   5.299
 1890SOL    HW2 6570   1.612   5.931   5.395
 1891SOL     OW 6571   5.273   3.097   3.909
 1891SOL    HW1 6572   5.343   3.027   3.894
 1891SOL    HW2 6573   5.227   3.117   3.822
 1892SOL     OW 6574   4.068   0.626   0.729
 1892SOL    HW1 6575   4.138   0.579   0.675
 1892SOL    HW2 6576   4.107   0.655   0.816
 1893SOL     OW 6577   3.318   1.917   5.938
 1893SOL    HW1 6578   3.271   1.930   6.025
 1893SOL    HW2 6579   3.275   1.973   5.868
 1894SOL     OW 6580   3.539   3.793   2.603
 1894SOL    HW1 6581   3.583   3.870   2.650
 1894SOL    HW2 6582   3.464   3.828   2.546
 1895SOL     OW 6583   5.416   1.133   2.615
 1895SOL    HW1 6584   5.322   1.146   2.583
 1895SOL    HW2 6585   5.417   1.066   2.689
 1896SOL     OW 6586   0.739   0.543   2.794
 1896SOL    HW1 6587   0.707   0.504   2.880
 1896SOL    HW2 6588   0.791   0.474   2.743
 1897SOL     OW 6589   0.768   5.019   2.633
 1897SOL    HW1 6590   0.829   5.018   2.554
 1897SOL    HW2 6591   0.743   5.113   2.655
 1898SOL     OW 6592   3.332   4.872   2.280
 1898SOL    HW1 6593   3.341   4.864   2.379
 1898SOL    HW2 6594   3.391   4.805   2.236
 1899SOL     OW 6595   0.487   2.124   2.506
 1899SOL    HW1 6596   0.584   2.145   2.521
 1899SOL    HW2 6597   0.435   2.148   2.587
 1900SOL     OW 6598   0.955   0.315   5.317
 1900SOL    HW1 6599   1.049   0.347   5.330
 1900SOL    HW2 6600   0.910   0.372   5.249
 1901SOL     OW 6601   2.069   1.154   1.343
 1901SOL    HW1 6602   2.112   1.184   1.258
 1901SOL    HW2 6603   1.970   1.169   1.337
 1902SOL     OW 6604   2.364   2.380   4.898
 1902SOL    HW1 6605   2.301   2.302   4.899
 1902SOL    HW2 6606   2.406   2.390   4.988
 1903SOL     OW 6607   6.357   3.110   3.940
 1903SOL    HW1 6608   6.372   3.012   3.953
 1903SOL    HW2 6609   6.290   3.142   4.007
 1904SOL     OW 6610   5.925   6.883   4.257
 1904SOL    HW1 6611   5.869   6.864   4.338
 1904SOL    HW2 6612   5.880   6.954   4.203
 1905SOL     OW 6613   1.926   1.019   4.108
 1905SOL    HW1 6614   1.937   0.920   4.114
 1905SOL    HW2 6615   1.921   1.046   4.012
 1906SOL     OW 6616   2.467   0.120   5.315
 1906SOL    HW1 6617   2.419   0.151   5.233
 1906SOL    HW2 6618   2.544   0.181   5.335
 1907SOL     OW 6619   3.596   6.982   3.089
 1907SOL    HW1 6620   3.565   6.889   3.066
 1907SOL    HW2 6621   3.682   6.976   3.140
 1908SOL     OW 6622   3.713   1.178   4.507
 1908SOL    HW1 6623   3.788   1.160   4.571
 1908SOL    HW2 6624   3.717   1.113   4.432
 1909SOL     OW 6625   1.087   3.952   2.652
 1909SOL    HW1 6626   1.183   3.982   2.651
 1909SOL    HW2 6627   1.082   3.859   2.689
 1910SOL     OW 6628   0.520   2.771   6.893
 1910SOL    HW1 6629   0.532   2.758   6.991
 1910SOL    HW2 6630   0.471   2.857   6.876
 1911SOL     OW 6631   5.659   3.444   5.296
 1911SOL    HW1 6632   5.641   3.503   5.375
 1911SOL    HW2 6633   5.717   3.493   5.230
 1912SOL     OW 6634   3.054   0.209   1.263
 1912SOL    HW1 6635   2.975   0.250   1.218
 1912SOL    HW2 6636   3.022   0.148   1.337
 1913SOL     OW 6637   0.980   5.604   5.311
 1913SOL    HW1 6638   0.940   5.674   5.370
 1913SOL    HW2 6639   1.041   5.646   5.245
 1914SOL     OW 6640   3.359   2.787   6.374
 1914SOL    HW1 6641   3.277   2.736   6.400
 1914SOL    HW2 6642   3.439   2.744   6.416
 1915SOL     OW 6643   3.706   2.078   5.662
 1915SOL    HW1 6644   3.619   2.104   5.703
 1915SOL    HW2 6645   3.755   2.015   5.722
 1916SOL     OW 6646   3.153   5.798   1.236
 1916SOL    HW1 6647   3.061   5.817   1.269
 1916SOL    HW2 6648   3.220   5.834   1.301
 1917SOL     OW 6649   3.050   3.116   4.810
 1917SOL    HW1 6650   3.035   3.091   4.715
 1917SOL    HW2 6651   3.114   3.053   4.853
 1918SOL     OW 6652   0.716   1.336   6.895
 1918SOL    HW1 6653   0.771   1.253   6.883
 1918SOL    HW2 6654   0.623   1.311   6.922
 1919SOL     OW 6655   2.651   0.607   1.314
 1919SOL    HW1 6656   2.557   0.610   1.348
 1919SOL    HW2 6657   2.694   0.696   1.328
 1920SOL     OW 6658   1.433   4.871   2.723
 1920SOL    HW1 6659   1.471   4.956   2.687
 1920SOL    HW2 6660   1.366   4.834   2.658
 1921SOL     OW 6661   1.815   4.786   0.393
 1921SOL    HW1 6662   1.837   4.811   0.298
 1921SOL    HW2 6663   1.855   4.853   0.455
 1922SOL     OW 6664   3.165   4.325   0.567
 1922SOL    HW1 6665   3.117   4.270   0.635
 1922SOL    HW2 6666   3.129   4.305   0.476
 1923SOL     OW 6667   3.156   0.535   5.799
 1923SOL    HW1 6668   3.073   0.570   5.757
 1923SOL    HW2 6669   3.228   0.605   5.794
 1924SOL     OW 6670   5.072   5.100   1.805
 1924SOL    HW1 6671   5.146   5.163   1.780
 1924SOL    HW2 6672   5.100   5.048   1.886
 1925SOL     OW 6673   1.900   4.165   0.789
 1925SOL    HW1 6674   1.948   4.233   0.845
 1925SOL    HW2 6675   1.947   4.155   0.702
 1926SOL     OW 6676   1.431   6.987   2.946
 1926SOL    HW1 6677   1.485   0.014   2.880
 1926SOL    HW2 6678   1.482   6.907   2.977
 1927SOL     OW 6679   3.455   4.113   6.081
 1927SOL    HW1 6680   3.481   4.114   5.984
 1927SOL    HW2 6681   3.470   4.204   6.120
 1928SOL     OW 6682   6.623   4.486   5.862
 1928SOL    HW1 6683   6.711   4.448   5.833
 1928SOL    HW2 6684   6.570   4.512   5.781
 1929SOL     OW 6685   1.224   5.291   1.694
 1929SOL    HW1 6686   1.232   5.288   1.794
 1929SOL    HW2 6687   1.207   5.199   1.658
 1930SOL     OW 6688   3.448   3.812   6.681
 1930SOL    HW1 6689   3.547   3.801   6.671
 1930SOL    HW2 6690   3.428   3.860   6.767
 1931SOL     OW 6691   0.460   3.034   2.452
 1931SOL    HW1 6692   0.538   3.092   2.474
 1931SOL    HW2 6693   0.492   2.942   2.428
 1932SOL     OW 6694   5.112   3.641   3.589
 1932SOL    HW1 6695   5.134   3.736   3.614
 1932SOL    HW2 6696   5.190   3.601   3.541
 1933SOL     OW 6697   2.580   4.575   0.737
 1933SOL    HW1 6698   2.543   4.585   0.644
 1933SOL    HW2 6699   2.664   4.629   0.745
 1934SOL     OW 6700   0.904   0.235   4.979
 1934SOL    HW1 6701   0.835   0.238   5.051
 1934SOL    HW2 6702   0.982   0.181   5.011
 1935SOL     OW 6703   3.644   6.480   4.009
 1935SOL    HW1 6704   3.606   6.507   4.097
 1935SOL    HW2 6705   3.643   6.380   4.002
 1936SOL     OW 6706   6.218   3.519   4.280
 1936SOL    HW1 6707   6.125   3.555   4.280
 1936SOL    HW2 6708   6.245   3.497   4.374
 1937SOL     OW 6709   4.243   0.356   0.827
 1937SOL    HW1 6710   4.257   0.380   0.730
 1937SOL    HW2 6711   4.255   0.437   0.883
 1938SOL     OW 6712   2.592   1.380   1.557
 1938SOL    HW1 6713   2.670   1.329   1.595
 1938SOL    HW2 6714   2.571   1.345   1.466
 1939SOL     OW 6715   6.605   0.551   5.066
 1939SOL    HW1 6716   6.521   0.572   5.016
 1939SOL    HW2 6717   6.678   0.614   5.038
 1940SOL     OW 6718   4.946   5.335   0.426
 1940SOL    HW1 6719   5.003   5.343   0.508
 1940SOL    HW2 6720   4.885   5.414   0.421
 1941SOL     OW 6721   7.023   4.429   3.709
 1941SOL    HW1 6722   0.006   4.344   3.762
 1941SOL    HW2 6723   6.927   4.459   3.707
 1942SOL     OW 6724   5.614   0.242   1.541
 1942SOL    HW1 6725   5.552   0.176   1.498
 1942SOL    HW2 6726   5.596   0.333   1.504
 1943SOL     OW 6727   2.985   6.306   2.434
 1943SOL    HW1 6728   3.011   6.252   2.354
 1943SOL    HW2 6729   2.935   6.248   2.499
 1944SOL     OW 6730   6.016   2.200   0.196
 1944SOL    HW1 6731   6.001   2.288   0.150
 1944SOL    HW2 6732   6.098   2.205   0.252
 1945SOL     OW 6733   3.119   5.790   1.646
 1945SOL    HW1 6734   3.098   5.708   1.592
 1945SOL    HW2 6735   3.127   5.869   1.586
 1946SOL     OW 6736   6.347   6.974   1.314
 1946SOL    HW1 6737   6.420   7.022   1.364
 1946SOL    HW2 6738   6.258   7.011   1.342
 1947SOL     OW 6739   5.374   6.671   4.798
 1947SOL    HW1 6740   5.297   6.734   4.809
 1947SOL    HW2 6741   5.347   6.579   4.828
 1948SOL     OW 6742   5.562   5.229   3.958
 1948SOL    HW1 6743   5.566   5.165   3.882
 1948SOL    HW2 6744   5.556   5.323   3.923
 1949SOL     OW 6745   3.230   4.308   6.573
 1949SOL    HW1 6746   3.248   4.394   6.525
 1949SOL    HW2 6747   3.315   4.256   6.582
 1950SOL     OW 6748   4.234   4.305   0.373
 1950SOL    HW1 6749   4.195   4.395   0.353
 1950SOL    HW2 6750   4.303   4.282   0.305
 1951SOL     OW 6751   5.818   3.327   6.893
 1951SOL    HW1 6752   5.876   3.314   6.812
 1951SOL    HW2 6753   5.800   3.238   6.935
 1952SOL     OW 6754   4.847   2.564   0.359
 1952SOL    HW1 6755   4.851   2.616   0.273
 1952SOL    HW2 6756   4.888   2.618   0.432
 1953SOL     OW 6757   6.277   1.671   6.355
 1953SOL    HW1 6758   6.328   1.591   6.323
 1953SOL    HW2 6759   6.218   1.645   6.430
 1954SOL     OW 6760   5.495   1.261   3.228
 1954SOL    HW1 6761   5.554   1.211   3.164
 1954SOL    HW2 6762   5.440   1.197   3.281
 1955SOL     OW 6763   0.936   1.892   2.669
 1955SOL    HW1 6764   0.942   1.853   2.760
 1955SOL    HW2 6765   0.845   1.875   2.631
 1956SOL     OW 6766   4.939   6.698   2.730
 1956SOL    HW1 6767   4.939   6.635   2.807
 1956SOL    HW2 6768   4.995   6.779   2.752
 1957SOL     OW 6769   5.980   5.069   4.237
 1957SOL    HW1 6770   5.950   5.162   4.218
 1957SOL    HW2 6771   5.918   5.004   4.194
 1958SOL     OW 6772   4.971   2.512   2.821
 1958SOL    HW1 6773   4.916   2.429   2.830
 1958SOL    HW2 6774   5.057   2.490   2.775
 1959SOL     OW 6775   0.508   1.084   4.975
 1959SOL    HW1 6776   0.453   1.150   5.025
 1959SOL    HW2 6777   0.458   0.998   4.968
 1960SOL     OW 6778   6.968   4.503   2.143
 1960SOL    HW1 6779   0.014   4.566   2.107
 1960SOL    HW2 6780   7.012   4.420   2.176
 1961SOL     OW 6781   5.838   4.353   4.259
 1961SOL    HW1 6782   5.763   4.339   4.324
 1961SOL    HW2 6783   5.827   4.292   4.181
 1962SOL     OW 6784   1.709   6.351   3.848
 1962SOL    HW1 6785   1.790   6.363   3.905
 1962SOL    HW2 6786   1.638   6.306   3.902
 1963SOL     OW 6787   0.935   1.858   1.321
 1963SOL    HW1 6788   0.947   1.912   1.405
 1963SOL    HW2 6789   0.850   1.805   1.328
 1964SOL     OW 6790   4.457   4.375   0.743
 1964SOL    HW1 6791   4.515   4.433   0.800
 1964SOL    HW2 6792   4.510   4.338   0.668
 1965SOL     OW 6793   1.598   3.156   4.582
 1965SOL    HW1 6794   1.633   3.066   4.557
 1965SOL    HW2 6795   1.580   3.210   4.500
 1966SOL     OW 6796   6.927   6.329   0.387
 1966SOL    HW1 6797   6.880   6.410   0.423
 1966SOL    HW2 6798   6.956   6.272   0.463
 1967SOL     OW 6799   5.318   2.304   5.741
 1967SOL    HW1 6800   5.227   2.269   5.722
 1967SOL    HW2 6801   5.327   2.397   5.704
 1968SOL     OW 6802   2.137   6.730   6.447
 1968SOL    HW1 6803   2.087   6.652   6.483
 1968SOL    HW2 6804   2.158   6.794   6.521
 1969SOL     OW 6805   0.906   1.489   2.378
 1969SOL    HW1 6806   0.936   1.396   2.358
 1969SOL    HW2 6807   0.942   1.551   2.308
 1970SOL     OW 6808   2.528   6.413   6.220
 1970SOL    HW1 6809   2.617   6.426   6.263
 1970SOL    HW2 6810   2.458   6.462   6.273
 1971SOL     OW 6811   0.067   0.426   5.549
 1971SOL    HW1 6812   0.088   0.331   5.571
 1971SOL    HW2 6813   0.038   0.433   5.454
 1972SOL     OW 6814   5.354   2.216   2.065
 1972SOL    HW1 6815   5.256   2.223   2.084
 1972SOL    HW2 6816   5.390   2.307   2.042
 1973SOL     OW 6817   3.138   2.133   0.193
 1973SOL    HW1 6818   3.213   2.199   0.190
 1973SOL    HW2 6819   3.175   2.040   0.198
 1974SOL     OW 6820   5.922   6.688   5.047
 1974SOL    HW1 6821   5.979   6.737   4.981
 1974SOL    HW2 6822   5.861   6.752   5.093
 1975SOL     OW 6823   2.032   1.731   3.791
 1975SOL    HW1 6824   2.009   1.639   3.758
 1975SOL    HW2 6825   2.088   1.724   3.874
 1976SOL     OW 6826   0.356   6.469   0.310
 1976SOL    HW1 6827   0.258   6.477   0.329
 1976SOL    HW2 6828   0.388   6.549   0.259
 1977SOL     OW 6829   0.632   3.067   4.790
 1977SOL    HW1 6830   0.585   3.024   4.713
 1977SOL    HW2 6831   0.618   3.014   4.873
 1978SOL     OW 6832   1.819   6.943   2.983
 1978SOL    HW1 6833   1.735   6.898   3.016
 1978SOL    HW2 6834   1.809   0.018   2.992
 1979SOL     OW 6835   6.557   4.349   6.188
 1979SOL    HW1 6836   6.643   4.390   6.219
 1979SOL    HW2 6837   6.573   4.302   6.101
 1980SOL     OW 6838   2.900   0.106   4.600
 1980SOL    HW1 6839   2.801   0.108   4.582
 1980SOL    HW2 6840   2.935   0.200   4.604
 1981SOL     OW 6841   6.910   2.133   2.226
 1981SOL    HW1 6842   6.825   2.147   2.277
 1981SOL    HW2 6843   6.921   2.035   2.206
 1982SOL     OW 6844   0.172   4.237   4.951
 1982SOL    HW1 6845   0.142   4.315   4.897
 1982SOL    HW2 6846   0.122   4.155   4.923
 1983SOL     OW 6847   1.189   1.216   2.651
 1983SOL    HW1 6848   1.229   1.241   2.563
 1983SOL    HW2 6849   1.154   1.297   2.696
 1984SOL     OW 6850   5.366   1.373   5.615
 1984SOL    HW1 6851   5.318   1.344   5.698
 1984SOL    HW2 6852   5.311   1.351   5.535
 1985SOL     OW 6853   1.334   6.269   2.671
 1985SOL    HW1 6854   1.383   6.181   2.675
 1985SOL    HW2 6855   1.236   6.252   2.676
 1986SOL     OW 6856   2.021   1.674   6.904
 1986SOL    HW1 6857   2.031   1.575   6.904
 1986SOL    HW2 6858   2.076   1.713   6.830
 1987SOL     OW 6859   1.758   2.471   2.392
 1987SOL    HW1 6860   1.819   2.548   2.407
 1987SOL    HW2 6861   1.771   2.435   2.299
 1988SOL     OW 6862   6.056   4.263   1.077
 1988SOL    HW1 6863   5.966   4.223   1.059
 1988SOL    HW2 6864   6.067   4.276   1.176
 1989SOL     OW 6865   2.691   5.525   5.047
 1989SOL    HW1 6866   2.597   5.531   5.080
 1989SOL    HW2 6867   2.709   5.600   4.984
 1990SOL     OW 6868   3.547   6.479   0.452
 1990SOL    HW1 6869   3.550   6.379   0.442
 1990SOL    HW2 6870   3.467   6.504   0.507
 1991SOL     OW 6871   3.327   5.082   6.891
 1991SOL    HW1 6872   3.251   5.021   6.915
 1991SOL    HW2 6873   3.405   5.028   6.860
 1992SOL     OW 6874   0.974   0.771   0.311
 1992SOL    HW1 6875   1.047   0.826   0.350
 1992SOL    HW2 6876   1.012   0.704   0.248
 1993SOL     OW 6877   3.800   2.814   5.224
 1993SOL    HW1 6878   3.772   2.807   5.320
 1993SOL    HW2 6879   3.720   2.828   5.166
 1994SOL     OW 6880   0.556   1.158   0.727
 1994SOL    HW1 6881   0.629   1.097   0.758
 1994SOL    HW2 6882   0.545   1.233   0.792
 1995SOL     OW 6883   5.158   2.333   3.653
 1995SOL    HW1 6884   5.124   2.273   3.726
 1995SOL    HW2 6885   5.226   2.283   3.598
 1996SOL     OW 6886   2.030   3.613   0.933
 1996SOL    HW1 6887   2.093   3.535   0.933
 1996SOL    HW2 6888   1.976   3.612   1.017
 1997SOL     OW 6889   3.390   1.422   4.577
 1997SOL    HW1 6890   3.455   1.383   4.643
 1997SOL    HW2 6891   3.438   1.485   4.517
 1998SOL     OW 6892   1.901   4.670   6.339
 1998SOL    HW1 6893   1.920   4.599   6.271
 1998SOL    HW2 6894   1.941   4.644   6.427
 1999SOL     OW 6895   2.288   6.748   0.163
 1999SOL    HW1 6896   2.349   6.721   0.089
 1999SOL    HW2 6897   2.196   6.712   0.145
 2000SOL     OW 6898   4.210   2.192   5.423
 2000SOL    HW1 6899   4.261   2.145   5.495
 2000SOL    HW2 6900   4.117   2.210   5.454
 2001SOL     OW 6901   3.258   0.660   1.798
 2001SOL    HW1 6902   3.203   0.666   1.881
 2001SOL    HW2 6903   3.289   0.751   1.772
 2002SOL     OW 6904   0.501   4.627   6.705
 2002SOL    HW1 6905   0.465   4.606   6.614
 2002SOL    HW2 6906   0.600   4.619   6.704
 2003SOL     OW 6907   6.247   5.796   2.595
 2003SOL    HW1 6908   6.298   5.710   2.595
 2003SOL    HW2 6909   6.251   5.838   2.504
 2004SOL     OW 6910   5.180   1.282   5.805
 2004SOL    HW1 6911   5.097   1.262   5.753
 2004SOL    HW2 6912   5.214   1.198   5.847
 2005SOL     OW 6913   0.698   5.193   0.502
 2005SOL    HW1 6914   0.650   5.159   0.583
 2005SOL    HW2 6915   0.653   5.276   0.469
 2006SOL     OW 6916   5.145   6.728   4.102
 2006SOL    HW1 6917   5.175   6.687   4.015
 2006SOL    HW2 6918   5.202   6.807   4.122
 2007SOL     OW 6919   4.916   4.944   1.094
 2007SOL    HW1 6920   4.848   4.874   1.116
 2007SOL    HW2 6921   4.877   5.010   1.030
 2008SOL     OW 6922   3.084   5.114   4.033
 2008SOL    HW1 6923   3.048   5.188   3.977
 2008SOL    HW2 6924   3.119   5.152   4.119
 2009SOL     OW 6925   5.926   1.057   2.075
 2009SOL    HW1 6926   5.985   0.977   2.072
 2009SOL    HW2 6927   5.923   1.100   1.984
 2010SOL     OW 6928   1.963   1.845   0.728
 2010SOL    HW1 6929   1.947   1.868   0.632
 2010SOL    HW2 6930   1.884   1.796   0.765
 2011SOL     OW 6931   6.866   6.434   4.592
 2011SOL    HW1 6932   6.863   6.530   4.561
 2011SOL    HW2 6933   6.791   6.418   4.656
 2012SOL     OW 6934   1.689   3.786   2.230
 2012SOL    HW1 6935   1.629   3.784   2.149
 2012SOL    HW2 6936   1.783   3.803   2.201
 2013SOL     OW 6937   6.251   2.406   3.281
 2013SOL    HW1 6938   6.160   2.365   3.267
 2013SOL    HW2 6939   6.318   2.356   3.226
 2014SOL     OW 6940   2.492   5.350   3.620
 2014SOL    HW1 6941   2.490   5.253   3.646
 2014SOL    HW2 6942   2.411   5.396   3.656
 2015SOL     OW 6943   2.007   0.786   6.464
 2015SOL    HW1 6944   2.031   0.693   6.491
 2015SOL    HW2 6945   1.911   0.803   6.484
 2016SOL     OW 6946   1.200   6.293   5.591
 2016SOL    HW1 6947   1.160   6.218   5.643
 2016SOL    HW2 6948   1.128   6.360   5.569
 2017SOL     OW 6949   3.627   6.712   4.733
 2017SOL    HW1 6950   3.597   6.620   4.756
 2017SOL    HW2 6951   3.548   6.772   4.726
 2018SOL     OW 6952   5.406   0.375   5.637
 2018SOL    HW1 6953   5.505   0.389   5.638
 2018SOL    HW2 6954   5.375   0.366   5.543
 2019SOL     OW 6955   5.206   2.787   6.466
 2019SOL    HW1 6956   5.251   2.721   6.527
 2019SOL    HW2 6957   5.195   2.874   6.514
 2020SOL     OW 6958   1.735   6.620   5.316
 2020SOL    HW1 6959   1.640   6.649   5.322
 2020SOL    HW2 6960   1.745   6.528   5.354
 2021SOL     OW 6961   0.506   5.697   4.454
 2021SOL    HW1 6962   0.449   5.719   4.376
 2021SOL    HW2 6963   0.460   5.724   4.539
 2022SOL     OW 6964   1.645   3.622   3.412
 2022SOL    HW1 6965   1.675   3.653   3.322
 2022SOL    HW2 6966   1.718   3.567   3.454
 2023SOL     OW 6967   6.650   0.958   6.705
 2023SOL    HW1 6968   6.659   1.057   6.714
 2023SOL    HW2 6969   6.731   0.914   6.745
 2024SOL     OW 6970   0.417   6.717   3.223
 2024SOL    HW1 6971   0.443   6.752   3.133
 2024SOL    HW2 6972   0.360   6.636   3.212
 2025SOL     OW 6973   2.745   1.955   2.965
 2025SOL    HW1 6974   2.691   2.019   3.021
 2025SOL    HW2 6975   2.837   1.991   2.954
 2026SOL     OW 6976   0.136   3.011   5.763
 2026SOL    HW1 6977   0.142   2.911   5.767
 2026SOL    HW2 6978   0.189   3.050   5.838
 2027SOL     OW 6979   1.077   6.853   0.085
 2027SOL    HW1 6980   1.058   6.839   0.182
 2027SOL    HW2 6981   1.015   6.923   0.049
 2028SOL     OW 6982   3.257   6.253   5.214
 2028SOL    HW1 6983   3.209   6.329   5.171
 2028SOL    HW2 6984   3.209   6.167   5.195
 2029SOL     OW 6985   6.487   0.990   0.574
 2029SOL    HW1 6986   6.466   1.018   0.481
 2029SOL    HW2 6987   6.527   0.898   0.573
 2030SOL     OW 6988   2.666   0.959   2.952
 2030SOL    HW1 6989   2.608   1.019   3.007
 2030SOL    HW2 6990   2.755   1.002   2.939
 2031SOL     OW 6991   6.204   5.676   1.098
 2031SOL    HW1 6992   6.219   5.577   1.103
 2031SOL    HW2 6993   6.262   5.722   1.165
 2032SOL     OW 6994   4.781   0.379   2.225
 2032SOL    HW1 6995   4.815   0.424   2.308
 2032SOL    HW2 6996   4.813   0.428   2.144
 2033SOL     OW 6997   3.062   3.952   5.935
 2033SOL    HW1 6998   3.047   4.049   5.915
 2033SOL    HW2 6999   3.060   3.900   5.850
 2034SOL     OW 7000   2.770   5.506   5.510
 2034SOL    HW1 7001   2.679   5.468   5.492
 2034SOL    HW2 7002   2.829   5.489   5.431
 2035SOL     OW 7003   0.224   6.999   3.322
 2035SOL    HW1 7004   0.204   6.918   3.266
 2035SOL    HW2 7005   0.321   7.022   3.314
 2036SOL     OW 7006   1.352   4.103   2.532
 2036SOL    HW1 7007   1.298   4.187   2.522
 2036SOL    HW2 7008   1.448   4.126   2.548
 2037SOL     OW 7009   6.701   3.345   5.695
 2037SOL    HW1 7010   6.724   3.408   5.622
 2037SOL    HW2 7011   6.719   3.251   5.666
 2038SOL     OW 7012   1.756   2.494   0.292
 2038SOL    HW1 7013   1.691   2.452   0.228
 2038SOL    HW2 7014   1.822   2.425   0.321
 2039SOL     OW 7015   0.031   5.113   3.418
 2039SOL    HW1 7016   6.962   5.108   3.454
 2039SOL    HW2 7017   0.095   5.079   3.487
 2040SOL     OW 7018   3.156   3.312   5.635
 2040SOL    HW1 7019   3.082   3.246   5.625
 2040SOL    HW2 7020   3.140   3.368   5.717
 2041SOL     OW 7021   0.574   5.960   5.921
 2041SOL    HW1 7022   0.482   5.999   5.930
 2041SOL    HW2 7023   0.580   5.875   5.973
 2042SOL     OW 7024   4.821   5.960   0.037
 2042SOL    HW1 7025   4.885   5.907   7.005
 2042SOL    HW2 7026   4.741   5.984   7.006
 2043SOL     OW 7027   6.848   3.449   3.322
 2043SOL    HW1 7028   6.801   3.450   3.410
 2043SOL    HW2 7029   6.783   3.471   3.249
 2044SOL     OW 7030   6.417   6.936   1.997
 2044SOL    HW1 7031   6.401   0.010   2.007
 2044SOL    HW2 7032   6.376   6.904   1.911
 2045SOL     OW 7033   2.018   5.141   3.987
 2045SOL    HW1 7034   1.996   5.119   3.892
 2045SOL    HW2 7035   2.109   5.107   4.008
 2046SOL     OW 7036   6.898   2.137   3.790
 2046SOL    HW1 7037   6.931   2.130   3.696
 2046SOL    HW2 7038   6.942   2.066   3.846
 2047SOL     OW 7039   6.711   2.745   6.963
 2047SOL    HW1 7040   6.736   2.650   6.945
 2047SOL    HW2 7041   6.674   2.786   6.880
 2048SOL     OW 7042   1.487   6.306   6.137
 2048SOL    HW1 7043   1.420   6.246   6.095
 2048SOL    HW2 7044   1.525   6.368   6.068
 2049SOL     OW 7045   6.243   1.391   5.134
 2049SOL    HW1 7046   6.254   1.480   5.090
 2049SOL    HW2 7047   6.183   1.333   5.078
 2050SOL     OW 7048   6.625   2.097   3.723
 2050SOL    HW1 7049   6.556   2.134   3.785
 2050SOL    HW2 7050   6.712   2.144   3.739
 2051SOL     OW 7051   1.186   5.661   0.196
 2051SOL    HW1 7052   1.138   5.648   0.283
 2051SOL    HW2 7053   1.173   5.755   0.165
 2052SOL     OW 7054   1.495   3.751   1.296
 2052SOL    HW1 7055   1.578   3.800   1.322
 2052SOL    HW2 7056   1.518   3.684   1.225
 2053SOL     OW 7057   6.027   6.417   4.219
 2053SOL    HW1 7058   6.071   6.450   4.303
 2053SOL    HW2 7059   5.943   6.469   4.203
 2054SOL     OW 7060   3.389   3.965   2.954
 2054SOL    HW1 7061   3.416   3.916   3.037
 2054SOL    HW2 7062   3.466   4.019   2.921
 2055SOL     OW 7063   6.207   3.336   3.608
 2055SOL    HW1 7064   6.136   3.320   3.540
 2055SOL    HW2 7065   6.167   3.330   3.700
 2056SOL     OW 7066   4.230   5.956   2.548
 2056SOL    HW1 7067   4.135   5.979   2.527
 2056SOL    HW2 7068   4.281   5.943   2.463
 2057SOL     OW 7069   5.403   4.294   5.760
 2057SOL    HW1 7070   5.444   4.207   5.787
 2057SOL    HW2 7071   5.475   4.362   5.749
 2058SOL     OW 7072   0.183   1.553   3.243
 2058SOL    HW1 7073   0.185   1.653   3.242
 2058SOL    HW2 7074   0.270   1.517   3.211
 2059SOL     OW 7075   1.949   5.858   6.935
 2059SOL    HW1 7076   1.982   5.951   6.916
 2059SOL    HW2 7077   1.874   5.836   6.871
 2060SOL     OW 7078   0.700   4.529   2.042
 2060SOL    HW1 7079   0.710   4.527   2.141
 2060SOL    HW2 7080   0.742   4.447   2.003
 2061SOL     OW 7081   1.278   2.192   2.812
 2061SOL    HW1 7082   1.312   2.118   2.871
 2061SOL    HW2 7083   1.193   2.162   2.768
 2062SOL     OW 7084   6.106   5.917   4.271
 2062SOL    HW1 7085   6.079   5.897   4.177
 2062SOL    HW2 7086   6.085   5.839   4.329
 2063SOL     OW 7087   1.730   6.546   6.341
 2063SOL    HW1 7088   1.752   6.629   6.391
 2063SOL    HW2 7089   1.665   6.566   6.268
 2064SOL     OW 7090   0.798   2.816   5.547
 2064SOL    HW1 7091   0.801   2.760   5.465
 2064SOL    HW2 7092   0.868   2.888   5.541
 2065SOL     OW 7093   6.193   2.572   5.303
 2065SOL    HW1 7094   6.244   2.658   5.307
 2065SOL    HW2 7095   6.254   2.499   5.270
 2066SOL     OW 7096   0.380   4.416   4.570
 2066SOL    HW1 7097   0.435   4.386   4.647
 2066SOL    HW2 7098   0.437   4.424   4.489
 2067SOL     OW 7099   6.180   5.395   1.126
 2067SOL    HW1 7100   6.147   5.304   1.151
 2067SOL    HW2 7101   6.269   5.411   1.168
 2068SOL     OW 7102   2.310   0.124   4.394
 2068SOL    HW1 7103   2.358   0.167   4.471
 2068SOL    HW2 7104   2.287   0.029   4.418
 2069SOL     OW 7105   0.032   1.870   3.823
 2069SOL    HW1 7106   0.048   1.819   3.739
 2069SOL    HW2 7107   0.094   1.949   3.827
 2070SOL     OW 7108   0.852   1.086   1.317
 2070SOL    HW1 7109   0.847   0.986   1.312
 2070SOL    HW2 7110   0.929   1.113   1.374
 2071SOL     OW 7111   6.635   0.472   6.181
 2071SOL    HW1 7112   6.656   0.374   6.185
 2071SOL    HW2 7113   6.697   0.517   6.116
 2072SOL     OW 7114   4.565   5.935   4.293
 2072SOL    HW1 7115   4.484   5.895   4.250
 2072SOL    HW2 7116   4.551   6.033   4.307
 2073SOL     OW 7117   4.355   0.128   5.206
 2073SOL    HW1 7118   4.266   0.168   5.183
 2073SOL    HW2 7119   4.344   0.031   5.225
 2074SOL     OW 7120   2.090   2.587   6.504
 2074SOL    HW1 7121   2.181   2.546   6.497
 2074SOL    HW2 7122   2.094   2.667   6.564
 2075SOL     OW 7123   6.730   2.695   3.211
 2075SOL    HW1 7124   6.814   2.641   3.200
 2075SOL    HW2 7125   6.734   2.744   3.298
 2076SOL     OW 7126   5.971   0.134   6.501
 2076SOL    HW1 7127   6.013   0.075   6.432
 2076SOL    HW2 7128   5.898   0.188   6.459
 2077SOL     OW 7129   5.558   2.083   3.618
 2077SOL    HW1 7130   5.654   2.075   3.644
 2077SOL    HW2 7131   5.528   2.177   3.632
 2078SOL     OW 7132   1.176   5.741   5.672
 2078SOL    HW1 7133   1.086   5.700   5.691
 2078SOL    HW2 7134   1.212   5.704   5.587
 2079SOL     OW 7135   5.595   2.004   3.320
 2079SOL    HW1 7136   5.602   2.069   3.395
 2079SOL    HW2 7137   5.547   2.046   3.243
 2080SOL     OW 7138   1.872   0.112   5.050
 2080SOL    HW1 7139   1.935   0.034   5.052
 2080SOL    HW2 7140   1.783   0.082   5.017
 2081SOL     OW 7141   1.423   5.651   4.745
 2081SOL    HW1 7142   1.331   5.682   4.719
 2081SOL    HW2 7143   1.489   5.683   4.677
 2082SOL     OW 7144   0.842   6.544   3.079
 2082SOL    HW1 7145   0.876   6.585   3.164
 2082SOL    HW2 7146   0.783   6.609   3.032
 2083SOL     OW 7147   6.900   4.802   5.768
 2083SOL    HW1 7148   6.934   4.869   5.833
 2083SOL    HW2 7149   6.804   4.820   5.749
 2084SOL     OW 7150   0.353   4.639   3.492
 2084SOL    HW1 7151   0.407   4.594   3.563
 2084SOL    HW2 7152   0.259   4.651   3.525
 2085SOL     OW 7153   4.569   0.694   0.204
 2085SOL    HW1 7154   4.504   0.663   0.135
 2085SOL    HW2 7155   4.575   0.626   0.277
 2086SOL     OW 7156   3.852   6.561   6.082
 2086SOL    HW1 7157   3.946   6.556   6.115
 2086SOL    HW2 7158   3.850   6.549   5.983
 2087SOL     OW 7159   4.844   0.803   1.173
 2087SOL    HW1 7160   4.795   0.750   1.241
 2087SOL    HW2 7161   4.809   0.897   1.172
 2088SOL     OW 7162   1.562   5.478   0.051
 2088SOL    HW1 7163   1.626   5.550   0.023
 2088SOL    HW2 7164   1.468   5.510   0.037
 2089SOL     OW 7165   5.258   3.151   6.105
 2089SOL    HW1 7166   5.299   3.239   6.082
 2089SOL    HW2 7167   5.316   3.077   6.071
 2090SOL     OW 7168   4.450   3.907   5.963
 2090SOL    HW1 7169   4.443   3.985   5.900
 2090SOL    HW2 7170   4.378   3.913   6.032
 2091SOL     OW 7171   0.568   5.124   0.710
 2091SOL    HW1 7172   0.628   5.106   0.788
 2091SOL    HW2 7173   0.489   5.178   0.740
 2092SOL     OW 7174   5.246   4.180   0.157
 2092SOL    HW1 7175   5.341   4.211   0.161
 2092SOL    HW2 7176   5.234   4.100   0.216
 2093SOL     OW 7177   2.482   2.045   1.093
 2093SOL    HW1 7178   2.468   2.141   1.067
 2093SOL    HW2 7179   2.484   1.988   1.010
 2094SOL     OW 7180   6.290   1.904   2.850
 2094SOL    HW1 7181   6.372   1.910   2.793
 2094SOL    HW2 7182   6.221   1.967   2.816
 2095SOL     OW 7183   6.166   0.062   5.540
 2095SOL    HW1 7184   6.257   0.022   5.525
 2095SOL    HW2 7185   6.176   0.151   5.584
 2096SOL     OW 7186   4.755   4.025   3.091
 2096SOL    HW1 7187   4.754   4.106   3.033
 2096SOL    HW2 7188   4.760   3.943   3.033
 2097SOL     OW 7189   2.612   3.787   6.629
 2097SOL    HW1 7190   2.685   3.736   6.675
 2097SOL    HW2 7191   2.651   3.863   6.578
 2098SOL     OW 7192   4.147   6.287   2.050
 2098SOL    HW1 7193   4.197   6.298   1.965
 2098SOL    HW2 7194   4.131   6.376   2.092
 2099SOL     OW 7195   3.499   2.235   6.451
 2099SOL    HW1 7196   3.599   2.232   6.452
 2099SOL    HW2 7197   3.468   2.308   6.512
 2100SOL     OW 7198   5.409   2.273   6.899
 2100SOL    HW1 7199   5.327   2.302   6.849
 2100SOL    HW2 7200   5.437   2.345   6.963
 2101SOL     OW 7201   1.008   6.813   1.504
 2101SOL    HW1 7202   0.997   6.818   1.603
 2101SOL    HW2 7203   0.918   6.822   1.460
 2102SOL     OW 7204   5.444   4.825   2.460
 2102SOL    HW1 7205   5.481   4.732   2.453
 2102SOL    HW2 7206   5.432   4.850   2.556
 2103SOL     OW 7207   3.074   4.097   6.859
 2103SOL    HW1 7208   3.016   4.019   6.836
 2103SOL    HW2 7209   3.170   4.067   6.864
 2104SOL     OW 7210   1.511   4.566   1.826
 2104SOL    HW1 7211   1.605   4.597   1.839
 2104SOL    HW2 7212   1.471   4.609   1.745
 2105SOL     OW 7213   5.662   5.139   5.955
 2105SOL    HW1 7214   5.653   5.043   5.980
 2105SOL    HW2 7215   5.663   5.148   5.856
 2106SOL     OW 7216   5.221   3.845   1.028
 2106SOL    HW1 7217   5.281   3.765   1.035
 2106SOL    HW2 7218   5.129   3.815   1.002
 2107SOL     OW 7219   6.411   2.366   5.238
 2107SOL    HW1 7220   6.455   2.413   5.314
 2107SOL    HW2 7221   6.375   2.278   5.270
 2108SOL     OW 7222   6.000   5.397   5.137
 2108SOL    HW1 7223   6.007   5.368   5.041
 2108SOL    HW2 7224   5.935   5.338   5.185
 2109SOL     OW 7225   4.575   5.773   2.079
 2109SOL    HW1 7226   4.608   5.866   2.093
 2109SOL    HW2 7227   4.529   5.767   1.991
 2110SOL     OW 7228   2.583   0.877   0.154
 2110SOL    HW1 7229   2.603   0.824   0.236
 2110SOL    HW2 7230   2.602   0.822   0.073
 2111SOL     OW 7231   2.177   3.048   0.066
 2111SOL    HW1 7232   2.263   3.098   0.076
 2111SOL    HW2 7233   2.167   3.019   6.995
 2112SOL     OW 7234   5.199   2.703   0.763
 2112SOL    HW1 7235   5.282   2.755   0.785
 2112SOL    HW2 7236   5.213   2.654   0.677
 2113SOL     OW 7237   2.801   2.003   4.158
 2113SOL    HW1 7238   2.731   2.022   4.227
 2113SOL    HW2 7239   2.759   1.954   4.081
 2114SOL     OW 7240   2.487   1.957   6.727
 2114SOL    HW1 7241   2.450   2.043   6.694
 2114SOL    HW2 7242   2.576   1.973   6.771
 2115SOL     OW 7243   0.872   4.421   3.165
 2115SOL    HW1 7244   0.871   4.515   3.130
 2115SOL    HW2 7245   0.824   4.418   3.252
 2116SOL     OW 7246   0.656   4.242   2.886
 2116SOL    HW1 7247   0.693   4.198   2.968
 2116SOL    HW2 7248   0.589   4.311   2.913
 2117SOL     OW 7249   6.713   4.746   1.743
 2117SOL    HW1 7250   6.736   4.720   1.836
 2117SOL    HW2 7251   6.795   4.739   1.685
 2118SOL     OW 7252   6.220   2.915   3.096
 2118SOL    HW1 7253   6.313   2.948   3.115
 2118SOL    HW2 7254   6.224   2.818   3.073
 2119SOL     OW 7255   1.462   0.090   0.969
 2119SOL    HW1 7256   1.372   0.130   0.984
 2119SOL    HW2 7257   1.453   7.016   0.952
 2120SOL     OW 7258   0.437   4.234   3.724
 2120SOL    HW1 7259   0.376   4.312   3.711
 2120SOL    HW2 7260   0.396   4.152   3.685
 2121SOL     OW 7261   1.144   3.016   5.844
 2121SOL    HW1 7262   1.222   2.962   5.873
 2121SOL    HW2 7263   1.121   2.993   5.749
 2122SOL     OW 7264   5.851   4.812   6.038
 2122SOL    HW1 7265   5.753   4.826   6.025
 2122SOL    HW2 7266   5.895   4.900   6.058
 2123SOL     OW 7267   6.545   4.909   2.157
 2123SOL    HW1 7268   6.551   4.901   2.257
 2123SOL    HW2 7269   6.454   4.942   2.132
 2124SOL     OW 7270   3.075   2.005   1.061
 2124SOL    HW1 7271   3.169   2.022   1.090
 2124SOL    HW2 7272   3.013   2.063   1.114
 2125SOL     OW 7273   2.043   0.280   2.465
 2125SOL    HW1 7274   2.027   0.192   2.510
 2125SOL    HW2 7275   2.141   0.299   2.462
 2126SOL     OW 7276   3.653   2.237   6.801
 2126SOL    HW1 7277   3.681   2.271   6.711
 2126SOL    HW2 7278   3.690   2.145   6.815
 2127SOL     OW 7279   1.069   2.038   5.304
 2127SOL    HW1 7280   1.043   2.049   5.400
 2127SOL    HW2 7281   1.165   2.011   5.299
 2128SOL     OW 7282   6.578   2.813   3.725
 2128SOL    HW1 7283   6.532   2.813   3.636
 2128SOL    HW2 7284   6.513   2.840   3.796
 2129SOL     OW 7285   4.914   3.406   5.432
 2129SOL    HW1 7286   4.842   3.347   5.467
 2129SOL    HW2 7287   4.877   3.496   5.412
 2130SOL     OW 7288   3.346   0.156   2.896
 2130SOL    HW1 7289   3.426   0.199   2.938
 2130SOL    HW2 7290   3.275   0.145   2.965
 2131SOL     OW 7291   4.587   1.671   0.179
 2131SOL    HW1 7292   4.643   1.690   0.259
 2131SOL    HW2 7293   4.494   1.706   0.194
 2132SOL     OW 7294   3.765   1.411   0.843
 2132SOL    HW1 7295   3.780   1.318   0.809
 2132SOL    HW2 7296   3.679   1.414   0.894
 2133SOL     OW 7297   3.259   2.923   1.193
 2133SOL    HW1 7298   3.249   2.901   1.290
 2133SOL    HW2 7299   3.179   2.973   1.161
 2134SOL     OW 7300   1.084   0.696   5.359
 2134SOL    HW1 7301   0.994   0.709   5.400
 2134SOL    HW2 7302   1.077   0.632   5.283
 2135SOL     OW 7303   1.723   3.145   4.857
 2135SOL    HW1 7304   1.809   3.094   4.862
 2135SOL    HW2 7305   1.703   3.168   4.761
 2136SOL     OW 7306   0.686   4.223   4.548
 2136SOL    HW1 7307   0.691   4.247   4.645
 2136SOL    HW2 7308   0.758   4.270   4.498
 2137SOL     OW 7309   0.197   5.988   4.063
 2137SOL    HW1 7310   0.112   5.937   4.075
 2137SOL    HW2 7311   0.198   6.065   4.127
 2138SOL     OW 7312   0.154   0.936   2.089
 2138SOL    HW1 7313   0.190   0.862   2.032
 2138SOL    HW2 7314   0.196   1.023   2.060
 2139SOL     OW 7315   3.294   1.179   2.496
 2139SOL    HW1 7316   3.243   1.160   2.580
 2139SOL    HW2 7317   3.296   1.097   2.439
 2140SOL     OW 7318   3.647   5.940   3.853
 2140SOL    HW1 7319   3.611   6.002   3.922
 2140SOL    HW2 7320   3.641   5.846   3.886
 2141SOL     OW 7321   6.368   4.717   1.467
 2141SOL    HW1 7322   6.406   4.645   1.524
 2141SOL    HW2 7323   6.272   4.731   1.491
 2142SOL     OW 7324   1.328   1.980   2.975
 2142SOL    HW1 7325   1.379   1.936   3.049
 2142SOL    HW2 7326   1.338   1.927   2.891
 2143SOL     OW 7327   2.946   4.268   1.299
 2143SOL    HW1 7328   2.864   4.210   1.289
 2143SOL    HW2 7329   3.027   4.214   1.276
 2144SOL     OW 7330   1.380   5.563   3.622
 2144SOL    HW1 7331   1.310   5.531   3.687
 2144SOL    HW2 7332   1.340   5.632   3.562
 2145SOL     OW 7333   3.696   6.050   4.232
 2145SOL    HW1 7334   3.763   6.034   4.305
 2145SOL    HW2 7335   3.604   6.038   4.269
 2146SOL     OW 7336   2.732   3.798   1.191
 2146SOL    HW1 7337   2.737   3.702   1.163
 2146SOL    HW2 7338   2.764   3.806   1.286
 2147SOL     OW 7339   7.023   1.263   6.875
 2147SOL    HW1 7340   6.939   1.315   6.887
 2147SOL    HW2 7341   7.010   1.195   6.802
 2148SOL     OW 7342   5.200   2.615   4.527
 2148SOL    HW1 7343   5.290   2.659   4.527
 2148SOL    HW2 7344   5.145   2.653   4.601
 2149SOL     OW 7345   3.917   1.757   1.485
 2149SOL    HW1 7346   4.004   1.805   1.495
 2149SOL    HW2 7347   3.904   1.732   1.388
 2150SOL     OW 7348   2.720   2.057   2.313
 2150SOL    HW1 7349   2.804   2.062   2.367
 2150SOL    HW2 7350   2.660   1.987   2.351
 2151SOL     OW 7351   2.094   1.147   4.254
 2151SOL    HW1 7352   2.112   1.226   4.195
 2151SOL    HW2 7353   2.009   1.102   4.225
 2152SOL     OW 7354   3.660   6.507   1.779
 2152SOL    HW1 7355   3.570   6.499   1.737
 2152SOL    HW2 7356   3.690   6.603   1.775
 2153SOL     OW 7357   3.626   0.845   3.301
 2153SOL    HW1 7358   3.588   0.801   3.220
 2153SOL    HW2 7359   3.714   0.887   3.279
 2154SOL     OW 7360   4.894   0.500   4.816
 2154SOL    HW1 7361   4.912   0.554   4.734
 2154SOL    HW2 7362   4.857   0.559   4.888
 2155SOL     OW 7363   1.757   5.995   0.230
 2155SOL    HW1 7364   1.714   6.000   0.140
 2155SOL    HW2 7365   1.787   5.901   0.247
 2156SOL     OW 7366   2.242   0.609   3.260
 2156SOL    HW1 7367   2.198   0.558   3.187
 2156SOL    HW2 7368   2.184   0.686   3.288
 2157SOL     OW 7369   6.116   1.047   3.181
 2157SOL    HW1 7370   6.204   1.044   3.229
 2157SOL    HW2 7371   6.077   1.139   3.189
 2158SOL     OW 7372   3.445   6.313   0.983
 2158SOL    HW1 7373   3.544   6.303   0.971
 2158SOL    HW2 7374   3.400   6.312   0.894
 2159SOL     OW 7375   2.398   6.066   5.273
 2159SOL    HW1 7376   2.447   6.062   5.186
 2159SOL    HW2 7377   2.446   6.127   5.335
 2160SOL     OW 7378   4.773   3.756   0.792
 2160SOL    HW1 7379   4.789   3.679   0.731
 2160SOL    HW2 7380   4.691   3.739   0.847
 2161SOL     OW 7381   5.091   4.075   3.152
 2161SOL    HW1 7382   5.075   4.174   3.149
 2161SOL    HW2 7383   5.010   4.027   3.120
 2162SOL     OW 7384   2.458   0.694   0.568
 2162SOL    HW1 7385   2.484   0.692   0.664
 2162SOL    HW2 7386   2.532   0.735   0.514
 2163SOL     OW 7387   6.804   3.947   6.516
 2163SOL    HW1 7388   6.862   3.919   6.592
 2163SOL    HW2 7389   6.855   3.940   6.431
 2164SOL     OW 7390   2.041   3.066   0.501
 2164SOL    HW1 7391   1.991   3.015   0.570
 2164SOL    HW2 7392   1.986   3.144   0.470
 2165SOL     OW 7393   0.592   1.491   2.758
 2165SOL    HW1 7394   0.660   1.537   2.702
 2165SOL    HW2 7395   0.571   1.547   2.838
 2166SOL     OW 7396   1.872   2.472   5.438
 2166SOL    HW1 7397   1.864   2.500   5.533
 2166SOL    HW2 7398   1.914   2.381   5.433
 2167SOL     OW 7399   1.474   1.222   3.686
 2167SOL    HW1 7400   1.375   1.234   3.687
 2167SOL    HW2 7401   1.512   1.248   3.775
 2168SOL     OW 7402   0.945   1.687   3.684
 2168SOL    HW1 7403   0.991   1.770   3.716
 2168SOL    HW2 7404   0.846   1.701   3.685
 2169SOL     OW 7405   5.414   2.048   5.438
 2169SOL    HW1 7406   5.440   2.095   5.522
 2169SOL    HW2 7407   5.486   2.061   5.370
 2170SOL     OW 7408   6.352   5.707   5.365
 2170SOL    HW1 7409   6.293   5.672   5.438
 2170SOL    HW2 7410   6.300   5.713   5.280
 2171SOL     OW 7411   6.917   3.624   1.491
 2171SOL    HW1 7412   6.832   3.621   1.544
 2171SOL    HW2 7413   6.896   3.626   1.394
 2172SOL     OW 7414   2.334   2.354   0.347
 2172SOL    HW1 7415   2.423   2.311   0.361
 2172SOL    HW2 7416   2.333   2.443   0.394
 2173SOL     OW 7417   4.220   0.468   4.999
 2173SOL    HW1 7418   4.139   0.494   4.947
 2173SOL    HW2 7419   4.192   0.438   5.091
 2174SOL     OW 7420   5.434   5.103   5.290
 2174SOL    HW1 7421   5.375   5.023   5.280
 2174SOL    HW2 7422   5.529   5.077   5.274
 2175SOL     OW 7423   2.603   2.054   4.347
 2175SOL    HW1 7424   2.589   2.003   4.432
 2175SOL    HW2 7425   2.523   2.111   4.328
 2176SOL     OW 7426   0.612   3.294   6.830
 2176SOL    HW1 7427   0.628   3.306   6.732
 2176SOL    HW2 7428   0.656   3.209   6.861
 2177SOL     OW 7429   6.493   1.072   3.647
 2177SOL    HW1 7430   6.483   0.977   3.676
 2177SOL    HW2 7431   6.546   1.076   3.563
 2178SOL     OW 7432   0.938   3.956   0.019
 2178SOL    HW1 7433   0.862   4.019   0.033
 2178SOL    HW2 7434   1.025   4.005   0.027
 2179SOL     OW 7435   1.604   5.522   4.909
 2179SOL    HW1 7436   1.656   5.601   4.940
 2179SOL    HW2 7437   1.539   5.550   4.838
 2180SOL     OW 7438   2.252   3.007   1.844
 2180SOL    HW1 7439   2.166   3.005   1.793
 2180SOL    HW2 7440   2.248   3.079   1.913
 2181SOL     OW 7441   4.914   4.498   5.592
 2181SOL    HW1 7442   4.911   4.589   5.635
 2181SOL    HW2 7443   5.007   4.477   5.565
 2182SOL     OW 7444   0.640   3.359   5.419
 2182SOL    HW1 7445   0.652   3.449   5.378
 2182SOL    HW2 7446   0.663   3.363   5.516
 2183SOL     OW 7447   3.420   4.180   5.557
 2183SOL    HW1 7448   3.439   4.271   5.521
 2183SOL    HW2 7449   3.324   4.157   5.541
 2184SOL     OW 7450   4.707   1.484   6.138
 2184SOL    HW1 7451   4.671   1.575   6.122
 2184SOL    HW2 7452   4.697   1.459   6.234
 2185SOL     OW 7453   1.517   1.520   1.108
 2185SOL    HW1 7454   1.533   1.524   1.207
 2185SOL    HW2 7455   1.467   1.601   1.079
 2186SOL     OW 7456   6.762   5.142   2.217
 2186SOL    HW1 7457   6.846   5.109   2.259
 2186SOL    HW2 7458   6.707   5.065   2.186
 2187SOL     OW 7459   6.738   1.289   1.669
 2187SOL    HW1 7460   6.746   1.200   1.713
 2187SOL    HW2 7461   6.652   1.332   1.697
 2188SOL     OW 7462   5.492   5.845   4.094
 2188SOL    HW1 7463   5.543   5.765   4.061
 2188SOL    HW2 7464   5.545   5.891   4.166
 2189SOL     OW 7465   1.781   6.340   0.127
 2189SOL    HW1 7466   1.739   6.288   0.053
 2189SOL    HW2 7467   1.780   6.438   0.104
 2190SOL     OW 7468   0.651   2.487   1.962
 2190SOL    HW1 7469   0.586   2.507   2.035
 2190SOL    HW2 7470   0.607   2.504   1.874
 2191SOL     OW 7471   2.826   1.916   6.285
 2191SOL    HW1 7472   2.895   1.856   6.245
 2191SOL    HW2 7473   2.776   1.867   6.356
 2192SOL     OW 7474   3.608   0.310   3.434
 2192SOL    HW1 7475   3.668   0.272   3.364
 2192SOL    HW2 7476   3.586   0.405   3.411
 2193SOL     OW 7477   6.773   5.647   6.151
 2193SOL    HW1 7478   6.779   5.635   6.052
 2193SOL    HW2 7479   6.706   5.582   6.188
 2194SOL     OW 7480   1.841   5.103   6.658
 2194SOL    HW1 7481   1.896   5.180   6.627
 2194SOL    HW2 7482   1.770   5.082   6.590
 2195SOL     OW 7483   0.206   0.129   3.798
 2195SOL    HW1 7484   0.295   0.123   3.753
 2195SOL    HW2 7485   0.148   0.052   3.768
 2196SOL     OW 7486   3.210   0.012   4.856
 2196SOL    HW1 7487   3.115   0.039   4.840
 2196SOL    HW2 7488   3.269   0.092   4.844
 2197SOL     OW 7489   3.463   3.277   1.650
 2197SOL    HW1 7490   3.373   3.300   1.613
 2197SOL    HW2 7491   3.465   3.180   1.674
 2198SOL     OW 7492   6.766   1.284   0.185
 2198SOL    HW1 7493   6.776   1.228   0.268
 2198SOL    HW2 7494   6.669   1.298   0.166
 2199SOL     OW 7495   4.818   1.179   3.242
 2199SOL    HW1 7496   4.748   1.120   3.282
 2199SOL    HW2 7497   4.892   1.192   3.307
 2200SOL     OW 7498   3.394   0.224   4.795
 2200SOL    HW1 7499   3.391   0.287   4.717
 2200SOL    HW2 7500   3.468   0.159   4.781
 2201SOL     OW 7501   6.336   2.308   3.050
 2201SOL    HW1 7502   6.321   2.319   2.952
 2201SOL    HW2 7503   6.350   2.211   3.071
 2202SOL     OW 7504   2.905   4.766   2.809
 2202SOL    HW1 7505   2.805   4.765   2.813
 2202SOL    HW2 7506   2.938   4.686   2.758
 2203SOL     OW 7507   2.581   2.753   1.517
 2203SOL    HW1 7508   2.571   2.657   1.546
 2203SOL    HW2 7509   2.677   2.774   1.501
 2204SOL     OW 7510   3.738   1.566   6.858
 2204SOL    HW1 7511   3.809   1.618   6.905
 2204SOL    HW2 7512   3.721   1.606   6.768
 2205SOL     OW 7513   1.753   6.859   6.209
 2205SOL    HW1 7514   1.734   6.923   6.134
 2205SOL    HW2 7515   1.672   6.803   6.227
 2206SOL     OW 7516   2.351   4.278   5.679
 2206SOL    HW1 7517   2.400   4.341   5.739
 2206SOL    HW2 7518   2.415   4.234   5.616
 2207SOL     OW 7519   2.210   3.445   7.002
 2207SOL    HW1 7520   2.133   3.509   7.004
 2207SOL    HW2 7521   2.176   3.351   7.009
 2208SOL     OW 7522   1.714   5.938   2.615
 2208SOL    HW1 7523   1.617   5.952   2.600
 2208SOL    HW2 7524   1.728   5.876   2.692
 2209SOL     OW 7525   0.932   5.548   5.701
 2209SOL    HW1 7526   0.972   5.479   5.760
 2209SOL    HW2 7527   0.842   5.518   5.669
 2210SOL     OW 7528   0.158   4.745   4.651
 2210SOL    HW1 7529   0.094   4.726   4.725
 2210SOL    HW2 7530   0.107   4.772   4.569
 2211SOL     OW 7531   5.656   0.754   0.460
 2211SOL    HW1 7532   5.646   0.777   0.364
 2211SOL    HW2 7533   5.606   0.670   0.480
 2212SOL     OW 7534   2.620   6.474   6.802
 2212SOL    HW1 7535   2.618   6.375   6.788
 2212SOL    HW2 7536   2.643   6.493   6.898
 2213SOL     OW 7537   4.052   2.768   5.322
 2213SOL    HW1 7538   4.079   2.684   5.275
 2213SOL    HW2 7539   3.956   2.786   5.305
 2214SOL     OW 7540   4.528   2.999   6.022
 2214SOL    HW1 7541   4.449   2.962   5.975
 2214SOL    HW2 7542   4.507   3.091   6.056
 2215SOL     OW 7543   6.242   1.932   6.698
 2215SOL    HW1 7544   6.319   1.874   6.670
 2215SOL    HW2 7545   6.253   1.959   6.793
 2216SOL     OW 7546   1.659   0.469   6.107
 2216SOL    HW1 7547   1.710   0.400   6.159
 2216SOL    HW2 7548   1.711   0.493   6.025
 2217SOL     OW 7549   3.754   0.167   1.178
 2217SOL    HW1 7550   3.752   0.205   1.270
 2217SOL    HW2 7551   3.825   0.097   1.172
 2218SOL     OW 7552   0.705   6.668   0.550
 2218SOL    HW1 7553   0.671   6.724   0.626
 2218SOL    HW2 7554   0.636   6.601   0.524
 2219SOL     OW 7555   0.467   2.550   2.145
 2219SOL    HW1 7556   0.477   2.507   2.235
 2219SOL    HW2 7557   0.373   2.537   2.112
 2220SOL     OW 7558   0.805   0.958   4.417
 2220SOL    HW1 7559   0.758   0.899   4.482
 2220SOL    HW2 7560   0.778   1.053   4.434
 2221SOL     OW 7561   6.463   0.420   5.599
 2221SOL    HW1 7562   6.552   0.374   5.596
 2221SOL    HW2 7563   6.470   0.502   5.656
 2222SOL     OW 7564   4.313   0.539   0.612
 2222SOL    HW1 7565   4.410   0.534   0.636
 2222SOL    HW2 7566   4.304   0.575   0.519
 2223SOL     OW 7567   6.170   0.319   3.862
 2223SOL    HW1 7568   6.179   0.350   3.957
 2223SOL    HW2 7569   6.191   0.222   3.857
 2224SOL     OW 7570   1.663   4.666   1.533
 2224SOL    HW1 7571   1.701   4.704   1.448
 2224SOL    HW2 7572   1.651   4.568   1.523
 2225SOL     OW 7573   6.536   5.796   2.928
 2225SOL    HW1 7574   6.479   5.878   2.932
 2225SOL    HW2 7575   6.529   5.755   2.837
 2226SOL     OW 7576   3.908   5.178   0.912
 2226SOL    HW1 7577   3.908   5.238   0.993
 2226SOL    HW2 7578   3.902   5.083   0.941
 2227SOL     OW 7579   5.393   3.827   0.659
 2227SOL    HW1 7580   5.426   3.804   0.751
 2227SOL    HW2 7581   5.372   3.743   0.609
 2228SOL     OW 7582   2.781   5.142   1.454
 2228SOL    HW1 7583   2.778   5.224   1.511
 2228SOL    HW2 7584   2.688   5.104   1.446
 2229SOL     OW 7585   4.283   1.458   4.527
 2229SOL    HW1 7586   4.275   1.556   4.510
 2229SOL    HW2 7587   4.291   1.410   4.440
 2230SOL     OW 7588   6.173   5.607   5.599
 2230SOL    HW1 7589   6.135   5.556   5.522
 2230SOL    HW2 7590   6.123   5.693   5.610
 2231SOL     OW 7591   0.520   0.904   1.337
 2231SOL    HW1 7592   0.536   0.990   1.384
 2231SOL    HW2 7593   0.488   0.921   1.244
 2232SOL     OW 7594   1.278   2.634   4.509
 2232SOL    HW1 7595   1.241   2.707   4.452
 2232SOL    HW2 7596   1.203   2.588   4.558
 2233SOL     OW 7597   2.298   4.380   1.519
 2233SOL    HW1 7598   2.385   4.366   1.470
 2233SOL    HW2 7599   2.247   4.453   1.475
 2234SOL     OW 7600   4.621   2.094   1.849
 2234SOL    HW1 7601   4.548   2.032   1.818
 2234SOL    HW2 7602   4.580   2.177   1.888
 2235SOL     OW 7603   1.797   0.634   1.292
 2235SOL    HW1 7604   1.845   0.633   1.380
 2235SOL    HW2 7605   1.788   0.541   1.258
 2236SOL     OW 7606   0.687   4.429   6.717
 2236SOL    HW1 7607   0.721   4.434   6.623
 2236SOL    HW2 7608   0.596   4.386   6.717
 2237SOL     OW 7609   5.509   4.426   3.942
 2237SOL    HW1 7610   5.606   4.450   3.952
 2237SOL    HW2 7611   5.454   4.485   4.001
 2238SOL     OW 7612   5.576   5.260   1.898
 2238SOL    HW1 7613   5.510   5.198   1.939
 2238SOL    HW2 7614   5.578   5.246   1.799
 2239SOL     OW 7615   3.658   5.301   3.312
 2239SOL    HW1 7616   3.564   5.336   3.318
 2239SOL    HW2 7617   3.683   5.288   3.217
 2240SOL     OW 7618   5.743   5.795   3.826
 2240SOL    HW1 7619   5.671   5.788   3.756
 2240SOL    HW2 7620   5.803   5.715   3.819
 2241SOL     OW 7621   0.336   0.112   2.145
 2241SOL    HW1 7622   0.259   0.175   2.148
 2241SOL    HW2 7623   0.320   0.043   2.074
 2242SOL     OW 7624   5.093   2.705   3.064
 2242SOL    HW1 7625   5.184   2.665   3.065
 2242SOL    HW2 7626   5.034   2.655   3.001
 2243SOL     OW 7627   2.937   6.198   5.364
 2243SOL    HW1 7628   2.904   6.156   5.448
 2243SOL    HW2 7629   2.926   6.297   5.369
 2244SOL     OW 7630   2.847   0.431   2.355
 2244SOL    HW1 7631   2.877   0.439   2.450
 2244SOL    HW2 7632   2.772   0.494   2.338
 2245SOL     OW 7633   0.516   1.611   2.016
 2245SOL    HW1 7634   0.560   1.573   2.098
 2245SOL    HW2 7635   0.543   1.707   2.006
 2246SOL     OW 7636   1.170   1.239   5.801
 2246SOL    HW1 7637   1.227   1.168   5.841
 2246SOL    HW2 7638   1.193   1.328   5.841
 2247SOL     OW 7639   2.670   2.813   5.485
 2247SOL    HW1 7640   2.664   2.719   5.517
 2247SOL    HW2 7641   2.599   2.868   5.530
 2248SOL     OW 7642   3.750   3.788   6.629
 2248SOL    HW1 7643   3.771   3.706   6.574
 2248SOL    HW2 7644   3.787   3.869   6.583
 2249SOL     OW 7645   6.105   6.030   2.251
 2249SOL    HW1 7646   6.190   6.080   2.240
 2249SOL    HW2 7647   6.053   6.068   2.327
 2250SOL     OW 7648   4.462   3.750   0.496
 2250SOL    HW1 7649   4.542   3.707   0.453
 2250SOL    HW2 7650   4.490   3.834   0.542
 2251SOL     OW 7651   5.194   1.223   0.150
 2251SOL    HW1 7652   5.214   1.305   0.096
 2251SOL    HW2 7653   5.098   1.200   0.140
 2252SOL     OW 7654   6.045   2.036   3.400
 2252SOL    HW1 7655   6.005   2.018   3.310
 2252SOL    HW2 7656   6.071   1.949   3.442
 2253SOL     OW 7657   1.030   3.718   6.947
 2253SOL    HW1 7658   0.997   3.810   6.968
 2253SOL    HW2 7659   0.965   3.671   6.887
 2254SOL     OW 7660   2.454   3.384   5.475
 2254SOL    HW1 7661   2.522   3.311   5.482
 2254SOL    HW2 7662   2.389   3.376   5.551
 2255SOL     OW 7663   4.676   2.461   0.170
 2255SOL    HW1 7664   4.765   2.500   0.148
 2255SOL    HW2 7665   4.644   2.495   0.258
 2256SOL     OW 7666   4.220   6.331   1.591
 2256SOL    HW1 7667   4.155   6.259   1.567
 2256SOL    HW2 7668   4.171   6.415   1.614
 2257SOL     OW 7669   0.098   2.311   4.022
 2257SOL    HW1 7670   0.152   2.229   4.040
 2257SOL    HW2 7671   0.137   2.360   3.945
 2258SOL     OW 7672   1.129   5.106   5.450
 2258SOL    HW1 7673   1.227   5.121   5.438
 2258SOL    HW2 7674   1.079   5.191   5.431
 2259SOL     OW 7675   4.666   4.578   6.562
 2259SOL    HW1 7676   4.650   4.644   6.489
 2259SOL    HW2 7677   4.764   4.570   6.579
 2260SOL     OW 7678   5.909   4.609   2.957
 2260SOL    HW1 7679   5.886   4.640   3.049
 2260SOL    HW2 7680   5.981   4.540   2.962
 2261SOL     OW 7681   6.419   6.684   0.970
 2261SOL    HW1 7682   6.355   6.651   0.901
 2261SOL    HW2 7683   6.378   6.762   1.017
 2262SOL     OW 7684   5.102   2.215   2.178
 2262SOL    HW1 7685   5.120   2.123   2.214
 2262SOL    HW2 7686   5.008   2.221   2.146
 2263SOL     OW 7687   2.547   6.136   6.145
 2263SOL    HW1 7688   2.529   6.234   6.152
 2263SOL    HW2 7689   2.644   6.121   6.122
 2264SOL     OW 7690   2.997   2.871   0.988
 2264SOL    HW1 7691   3.030   2.946   1.046
 2264SOL    HW2 7692   2.942   2.808   1.044
 2265SOL     OW 7693   0.768   0.168   3.493
 2265SOL    HW1 7694   0.838   0.171   3.421
 2265SOL    HW2 7695   0.679   0.189   3.454
 2266SOL     OW 7696   6.224   1.774   1.249
 2266SOL    HW1 7697   6.223   1.869   1.281
 2266SOL    HW2 7698   6.138   1.729   1.274
 2267SOL     OW 7699   4.794   2.506   5.009
 2267SOL    HW1 7700   4.722   2.549   5.063
 2267SOL    HW2 7701   4.851   2.577   4.967
 2268SOL     OW 7702   6.544   4.001   6.108
 2268SOL    HW1 7703   6.612   4.051   6.054
 2268SOL    HW2 7704   6.498   4.064   6.170
 2269SOL     OW 7705   5.595   5.801   4.956
 2269SOL    HW1 7706   5.534   5.770   4.883
 2269SOL    HW2 7707   5.649   5.879   4.924
 2270SOL     OW 7708   3.149   2.192   6.227
 2270SOL    HW1 7709   3.188   2.284   6.237
 2270SOL    HW2 7710   3.074   2.181   6.291
 2271SOL     OW 7711   6.342   3.766   0.490
 2271SOL    HW1 7712   6.435   3.761   0.453
 2271SOL    HW2 7713   6.347   3.771   0.590
 2272SOL     OW 7714   5.644   1.304   5.249
 2272SOL    HW1 7715   5.732   1.344   5.224
 2272SOL    HW2 7716   5.658   1.224   5.307
 2273SOL     OW 7717   1.499   0.742   2.163
 2273SOL    HW1 7718   1.536   0.749   2.256
 2273SOL    HW2 7719   1.549   0.671   2.112
 2274SOL     OW 7720   1.858   2.717   6.017
 2274SOL    HW1 7721   1.944   2.727   6.067
 2274SOL    HW2 7722   1.781   2.727   6.080
 2275SOL     OW 7723   5.903   0.647   4.608
 2275SOL    HW1 7724   5.998   0.632   4.578
 2275SOL    HW2 7725   5.880   0.581   4.679
 2276SOL     OW 7726   2.860   4.757   1.232
 2276SOL    HW1 7727   2.821   4.773   1.323
 2276SOL    HW2 7728   2.950   4.799   1.226
 2277SOL     OW 7729   3.785   3.327   5.080
 2277SOL    HW1 7730   3.695   3.336   5.122
 2277SOL    HW2 7731   3.852   3.298   5.148
 2278SOL     OW 7732   6.263   5.602   3.824
 2278SOL    HW1 7733   6.221   5.620   3.735
 2278SOL    HW2 7734   6.292   5.689   3.865
 2279SOL     OW 7735   4.758   5.743   4.373
 2279SOL    HW1 7736   4.674   5.692   4.394
 2279SOL    HW2 7737   4.738   5.812   4.304
 2280SOL     OW 7738   6.882   6.262   4.972
 2280SOL    HW1 7739   6.936   6.273   5.055
 2280SOL    HW2 7740   6.800   6.320   4.977
 2281SOL     OW 7741   3.664   1.132   1.702
 2281SOL    HW1 7742   3.652   1.230   1.683
 2281SOL    HW2 7743   3.642   1.114   1.798
 2282SOL     OW 7744   5.165   6.856   4.791
 2282SOL    HW1 7745   5.114   6.819   4.713
 2282SOL    HW2 7746   5.122   6.941   4.822
 2283SOL     OW 7747   6.513   4.569   1.634
 2283SOL    HW1 7748   6.579   4.637   1.664
 2283SOL    HW2 7749   6.553   4.478   1.638
 2284SOL     OW 7750   2.479   1.272   0.415
 2284SOL    HW1 7751   2.427   1.200   0.460
 2284SOL    HW2 7752   2.443   1.362   0.443
 2285SOL     OW 7753   1.431   2.439   0.550
 2285SOL    HW1 7754   1.336   2.411   0.561
 2285SOL    HW2 7755   1.476   2.441   0.640
 2286SOL     OW 7756   0.431   6.959   4.618
 2286SOL    HW1 7757   0.433   6.867   4.659
 2286SOL    HW2 7758   0.506   7.013   4.656
 2287SOL     OW 7759   1.916   2.216   2.007
 2287SOL    HW1 7760   1.997   2.187   1.956
 2287SOL    HW2 7761   1.841   2.151   1.990
 2288SOL     OW 7762   6.793   4.757   4.409
 2288SOL    HW1 7763   6.850   4.678   4.431
 2288SOL    HW2 7764   6.707   4.726   4.368
 2289SOL     OW 7765   6.233   4.335   2.541
 2289SOL    HW1 7766   6.330   4.313   2.556
 2289SOL    HW2 7767   6.190   4.355   2.629
 2290SOL     OW 7768   1.616   3.411   2.036
 2290SOL    HW1 7769   1.681   3.464   1.981
 2290SOL    HW2 7770   1.534   3.465   2.051
 2291SOL     OW 7771   1.972   2.466   0.111
 2291SOL    HW1 7772   2.005   2.417   0.192
 2291SOL    HW2 7773   1.885   2.509   0.131
 2292SOL     OW 7774   5.740   2.506   3.784
 2292SOL    HW1 7775   5.722   2.586   3.727
 2292SOL    HW2 7776   5.838   2.487   3.784
 2293SOL     OW 7777   6.410   6.476   1.140
 2293SOL    HW1 7778   6.418   6.543   1.214
 2293SOL    HW2 7779   6.419   6.522   1.052
 2294SOL     OW 7780   3.710   1.362   6.346
 2294SOL    HW1 7781   3.704   1.292   6.275
 2294SOL    HW2 7782   3.624   1.365   6.398
 2295SOL     OW 7783   0.578   1.746   2.898
 2295SOL    HW1 7784   0.482   1.744   2.925
 2295SOL    HW2 7785   0.585   1.769   2.801
 2296SOL     OW 7786   3.841   5.742   2.374
 2296SOL    HW1 7787   3.853   5.675   2.301
 2296SOL    HW2 7788   3.769   5.712   2.436
 2297SOL     OW 7789   5.042   4.519   5.910
 2297SOL    HW1 7790   5.112   4.564   5.855
 2297SOL    HW2 7791   5.067   4.423   5.924
 2298SOL     OW 7792   4.152   3.630   2.109
 2298SOL    HW1 7793   4.249   3.626   2.132
 2298SOL    HW2 7794   4.110   3.711   2.150
 2299SOL     OW 7795   4.892   4.703   5.366
 2299SOL    HW1 7796   4.838   4.787   5.359
 2299SOL    HW2 7797   4.971   4.719   5.425
 2300SOL     OW 7798   2.082   6.080   3.104
 2300SOL    HW1 7799   2.036   6.142   3.167
 2300SOL    HW2 7800   2.025   6.065   3.023
 2301SOL     OW 7801   3.674   2.862   3.204
 2301SOL    HW1 7802   3.670   2.905   3.294
 2301SOL    HW2 7803   3.699   2.766   3.215
 2302SOL     OW 7804   3.933   0.588   1.024
 2302SOL    HW1 7805   3.919   0.493   0.996
 2302SOL    HW2 7806   3.857   0.616   1.083
 2303SOL     OW 7807   2.734   3.455   0.414
 2303SOL    HW1 7808   2.825   3.439   0.453
 2303SOL    HW2 7809   2.709   3.379   0.354
 2304SOL     OW 7810   5.702   6.811   4.439
 2304SOL    HW1 7811   5.641   6.761   4.500
 2304SOL    HW2 7812   5.651   6.880   4.389
 2305SOL     OW 7813   1.885   0.586   3.006
 2305SOL    HW1 7814   1.975   0.560   3.039
 2305SOL    HW2 7815   1.819   0.515   3.028
 2306SOL     OW 7816   2.254   5.428   2.029
 2306SOL    HW1 7817   2.192   5.398   2.102
 2306SOL    HW2 7818   2.220   5.513   1.989
 2307SOL     OW 7819   0.301   2.783   4.496
 2307SOL    HW1 7820   0.232   2.803   4.566
 2307SOL    HW2 7821   0.306   2.684   4.482
 2308SOL     OW 7822   2.793   4.847   1.481
 2308SOL    HW1 7823   2.789   4.776   1.552
 2308SOL    HW2 7824   2.853   4.921   1.511
 2309SOL     OW 7825   1.938   0.630   5.490
 2309SOL    HW1 7826   1.941   0.727   5.514
 2309SOL    HW2 7827   1.968   0.618   5.396
 2310SOL     OW 7828   5.674   5.791   1.408
 2310SOL    HW1 7829   5.676   5.725   1.483
 2310SOL    HW2 7830   5.581   5.802   1.375
 2311SOL     OW 7831   2.224   6.484   0.965
 2311SOL    HW1 7832   2.173   6.477   1.050
 2311SOL    HW2 7833   2.321   6.497   0.985
 2312SOL     OW 7834   5.071   5.740   3.098
 2312SOL    HW1 7835   5.063   5.699   3.189
 2312SOL    HW2 7836   5.021   5.827   3.096
 2313SOL     OW 7837   4.960   5.971   2.046
 2313SOL    HW1 7838   4.959   5.987   1.948
 2313SOL    HW2 7839   4.957   6.059   2.094
 2314SOL     OW 7840   5.374   5.778   3.430
 2314SOL    HW1 7841   5.301   5.838   3.463
 2314SOL    HW2 7842   5.350   5.743   3.340
 2315SOL     OW 7843   5.039   2.773   6.236
 2315SOL    HW1 7844   4.976   2.695   6.243
 2315SOL    HW2 7845   5.093   2.780   6.320
 2316SOL     OW 7846   3.770   1.843   3.830
 2316SOL    HW1 7847   3.857   1.850   3.781
 2316SOL    HW2 7848   3.721   1.761   3.802
 2317SOL     OW 7849   0.666   5.731   3.217
 2317SOL    HW1 7850   0.676   5.830   3.215
 2317SOL    HW2 7851   0.569   5.707   3.218
 2318SOL     OW 7852   0.963   2.851   3.582
 2318SOL    HW1 7853   0.913   2.891   3.660
 2318SOL    HW2 7854   1.029   2.784   3.616
 2319SOL     OW 7855   2.033   5.122   3.299
 2319SOL    HW1 7856   1.936   5.137   3.318
 2319SOL    HW2 7857   2.072   5.064   3.370
 2320SOL     OW 7858   0.914   2.204   3.970
 2320SOL    HW1 7859   1.003   2.157   3.969
 2320SOL    HW2 7860   0.922   2.291   3.922
 2321SOL     OW 7861   3.065   0.297   5.616
 2321SOL    HW1 7862   2.995   0.227   5.631
 2321SOL    HW2 7863   3.124   0.304   5.696
 2322SOL     OW 7864   2.327   1.774   4.665
 2322SOL    HW1 7865   2.410   1.804   4.712
 2322SOL    HW2 7866   2.340   1.780   4.566
 2323SOL     OW 7867   2.795   4.985   2.058
 2323SOL    HW1 7868   2.760   4.895   2.085
 2323SOL    HW2 7869   2.882   4.974   2.010
 2324SOL     OW 7870   6.736   6.355   2.451
 2324SOL    HW1 7871   6.775   6.439   2.489
 2324SOL    HW2 7872   6.679   6.310   2.520
 2325SOL     OW 7873   0.818   4.535   1.356
 2325SOL    HW1 7874   0.820   4.630   1.325
 2325SOL    HW2 7875   0.912   4.505   1.375
 2326SOL     OW 7876   3.420   4.793   5.187
 2326SOL    HW1 7877   3.368   4.870   5.226
 2326SOL    HW2 7878   3.357   4.720   5.160
 2327SOL     OW 7879   5.910   3.532   4.610
 2327SOL    HW1 7880   5.949   3.608   4.662
 2327SOL    HW2 7881   5.888   3.564   4.517
 2328SOL     OW 7882   3.727   1.966   3.472
 2328SOL    HW1 7883   3.724   2.005   3.380
 2328SOL    HW2 7884   3.753   2.036   3.538
 2329SOL     OW 7885   1.558   4.905   5.320
 2329SOL    HW1 7886   1.531   4.986   5.374
 2329SOL    HW2 7887   1.540   4.923   5.223
 2330SOL     OW 7888   0.624   4.220   2.420
 2330SOL    HW1 7889   0.535   4.177   2.406
 2330SOL    HW2 7890   0.683   4.160   2.475
 2331SOL     OW 7891   6.458   4.161   0.101
 2331SOL    HW1 7892   6.400   4.187   0.024
 2331SOL    HW2 7893   6.486   4.066   0.091
 2332SOL     OW 7894   4.162   1.840   5.645
 2332SOL    HW1 7895   4.199   1.748   5.641
 2332SOL    HW2 7896   4.223   1.904   5.599
 2333SOL     OW 7897   6.827   5.306   3.015
 2333SOL    HW1 7898   6.801   5.380   3.077
 2333SOL    HW2 7899   6.927   5.302   3.009
 2334SOL     OW 7900   2.310   0.161   6.866
 2334SOL    HW1 7901   2.283   0.074   6.907
 2334SOL    HW2 7902   2.399   0.150   6.820
 2335SOL     OW 7903   5.686   1.153   3.066
 2335SOL    HW1 7904   5.756   1.092   3.103
 2335SOL    HW2 7905   5.729   1.239   3.037
 2336SOL     OW 7906   4.024   1.970   5.337
 2336SOL    HW1 7907   4.111   1.926   5.357
 2336SOL    HW2 7908   4.038   2.041   5.267
 2337SOL     OW 7909   4.321   1.217   3.477
 2337SOL    HW1 7910   4.231   1.191   3.443
 2337SOL    HW2 7911   4.322   1.316   3.493
 2338SOL     OW 7912   1.147   0.838   6.965
 2338SOL    HW1 7913   1.238   0.858   6.929
 2338SOL    HW2 7914   1.091   0.921   6.962
 2339SOL     OW 7915   3.878   3.215   4.857
 2339SOL    HW1 7916   3.841   3.265   4.936
 2339SOL    HW2 7917   3.805   3.163   4.813
 2340SOL     OW 7918   5.214   6.218   6.176
 2340SOL    HW1 7919   5.275   6.148   6.140
 2340SOL    HW2 7920   5.119   6.191   6.163
 2341SOL     OW 7921   4.953   3.712   1.202
 2341SOL    HW1 7922   5.031   3.735   1.260
 2341SOL    HW2 7923   4.940   3.785   1.134
 2342SOL     OW 7924   0.556   5.665   5.660
 2342SOL    HW1 7925   0.497   5.631   5.587
 2342SOL    HW2 7926   0.524   5.630   5.748
 2343SOL     OW 7927   2.025   6.362   1.848
 2343SOL    HW1 7928   2.101   6.409   1.804
 2343SOL    HW2 7929   1.990   6.291   1.787
 2344SOL     OW 7930   1.552   1.146   1.218
 2344SOL    HW1 7931   1.474   1.123   1.161
 2344SOL    HW2 7932   1.635   1.153   1.162
 2345SOL     OW 7933   2.143   5.707   5.444
 2345SOL    HW1 7934   2.118   5.704   5.541
 2345SOL    HW2 7935   2.224   5.765   5.432
 2346SOL     OW 7936   4.935   3.530   4.768
 2346SOL    HW1 7937   4.895   3.542   4.859
 2346SOL    HW2 7938   4.947   3.432   4.749
 2347SOL     OW 7939   2.147   4.098   1.425
 2347SOL    HW1 7940   2.201   4.179   1.449
 2347SOL    HW2 7941   2.050   4.116   1.440
 2348SOL     OW 7942   3.575   5.911   3.323
 2348SOL    HW1 7943   3.509   5.836   3.337
 2348SOL    HW2 7944   3.527   5.998   3.330
 2349SOL     OW 7945   0.809   5.494   6.848
 2349SOL    HW1 7946   0.834   5.410   6.800
 2349SOL    HW2 7947   0.891   5.543   6.876
 2350SOL     OW 7948   4.864   6.984   6.263
 2350SOL    HW1 7949   4.936   6.958   6.199
 2350SOL    HW2 7950   4.886   6.949   6.354
 2351SOL     OW 7951   3.434   4.912   2.802
 2351SOL    HW1 7952   3.380   4.964   2.868
 2351SOL    HW2 7953   3.530   4.912   2.831
 2352SOL     OW 7954   0.804   4.018   2.562
 2352SOL    HW1 7955   0.889   3.985   2.604
 2352SOL    HW2 7956   0.809   4.003   2.463
 2353SOL     OW 7957   2.924   4.832   4.320
 2353SOL    HW1 7958   2.896   4.756   4.379
 2353SOL    HW2 7959   2.891   4.918   4.357
 2354SOL     OW 7960   3.171   2.609   6.507
 2354SOL    HW1 7961   3.145   2.553   6.429
 2354SOL    HW2 7962   3.244   2.564   6.558
 2355SOL     OW 7963   0.754   4.827   6.525
 2355SOL    HW1 7964   0.847   4.790   6.516
 2355SOL    HW2 7965   0.691   4.753   6.547
 2356SOL     OW 7966   2.700   4.061   0.497
 2356SOL    HW1 7967   2.607   4.097   0.498
 2356SOL    HW2 7968   2.700   3.970   0.456
 2357SOL     OW 7969   3.758   5.158   3.999
 2357SOL    HW1 7970   3.728   5.207   4.081
 2357SOL    HW2 7971   3.712   5.069   3.995
 2358SOL     OW 7972   2.889   5.285   4.593
 2358SOL    HW1 7973   2.916   5.377   4.564
 2358SOL    HW2 7974   2.815   5.292   4.661
 2359SOL     OW 7975   0.936   1.693   5.822
 2359SOL    HW1 7976   0.960   1.788   5.839
 2359SOL    HW2 7977   0.905   1.682   5.728
 2360SOL     OW 7978   4.510   5.915   5.295
 2360SOL    HW1 7979   4.513   5.985   5.366
 2360SOL    HW2 7980   4.596   5.865   5.294
 2361SOL     OW 7981   2.363   0.307   4.206
 2361SOL    HW1 7982   2.337   0.245   4.280
 2361SOL    HW2 7983   2.323   0.397   4.223
 2362SOL     OW 7984   4.315   6.887   5.238
 2362SOL    HW1 7985   4.367   6.809   5.203
 2362SOL    HW2 7986   4.218   6.874   5.219
 2363SOL     OW 7987   4.577   2.189   4.967
 2363SOL    HW1 7988   4.550   2.142   4.883
 2363SOL    HW2 7989   4.540   2.282   4.967
 2364SOL     OW 7990   6.710   2.069   2.808
 2364SOL    HW1 7991   6.641   2.123   2.855
 2364SOL    HW2 7992   6.750   2.003   2.873
 2365SOL     OW 7993   5.792   3.713   5.600
 2365SOL    HW1 7994   5.741   3.628   5.585
 2365SOL    HW2 7995   5.889   3.692   5.613
 2366SOL     OW 7996   1.269   3.423   5.748
 2366SOL    HW1 7997   1.359   3.424   5.791
 2366SOL    HW2 7998   1.280   3.412   5.649
 2367SOL     OW 7999   1.787   3.852   6.587
 2367SOL    HW1 8000   1.825   3.760   6.591
 2367SOL    HW2 8001   1.699   3.854   6.634
 2368SOL     OW 8002   5.272   1.214   4.340
 2368SOL    HW1 8003   5.366   1.246   4.347
 2368SOL    HW2 8004   5.215   1.285   4.299
 2369SOL     OW 8005   2.169   2.910   3.944
 2369SOL    HW1 8006   2.225   2.881   4.021
 2369SOL    HW2 8007   2.075   2.878   3.957
 2370SOL     OW 8008   4.492   4.444   6.764
 2370SOL    HW1 8009   4.441   4.516   6.812
 2370SOL    HW2 8010   4.550   4.486   6.694
 2371SOL     OW 8011   1.774   5.790   2.385
 2371SOL    HW1 8012   1.874   5.792   2.383
 2371SOL    HW2 8013   1.741   5.853   2.456
 2372SOL     OW 8014   0.546   1.780   0.431
 2372SOL    HW1 8015   0.597   1.827   0.359
 2372SOL    HW2 8016   0.609   1.748   0.502
 2373SOL     OW 8017   6.360   1.386   6.919
 2373SOL    HW1 8018   6.339   1.291   6.943
 2373SOL    HW2 8019   6.282   1.444   6.942
 2374SOL     OW 8020   6.515   5.762   3.407
 2374SOL    HW1 8021   6.472   5.835   3.354
 2374SOL    HW2 8022   6.516   5.789   3.504
 2375SOL     OW 8023   1.033   6.404   4.417
 2375SOL    HW1 8024   1.097   6.426   4.343
 2375SOL    HW2 8025   0.948   6.454   4.402
 2376SOL     OW 8026   6.388   2.844   3.993
 2376SOL    HW1 8027   6.298   2.800   3.999
 2376SOL    HW2 8028   6.456   2.786   4.039
 2377SOL     OW 8029   3.204   3.617   4.055
 2377SOL    HW1 8030   3.122   3.635   4.002
 2377SOL    HW2 8031   3.188   3.642   4.151
 2378SOL     OW 8032   4.837   2.295   6.510
 2378SOL    HW1 8033   4.842   2.207   6.556
 2378SOL    HW2 8034   4.865   2.368   6.572
 2379SOL     OW 8035   6.769   2.482   6.886
 2379SOL    HW1 8036   6.788   2.395   6.839
 2379SOL    HW2 8037   6.685   2.472   6.940
 2380SOL     OW 8038   6.825   0.619   5.744
 2380SOL    HW1 8039   6.834   0.534   5.692
 2380SOL    HW2 8040   6.856   0.696   5.687
 2381SOL     OW 8041   1.959   4.253   4.423
 2381SOL    HW1 8042   1.869   4.294   4.434
 2381SOL    HW2 8043   1.964   4.205   4.336
 2382SOL     OW 8044   2.340   5.633   2.763
 2382SOL    HW1 8045   2.295   5.716   2.798
 2382SOL    HW2 8046   2.437   5.652   2.749
 2383SOL     OW 8047   5.724   6.332   6.896
 2383SOL    HW1 8048   5.626   6.325   6.877
 2383SOL    HW2 8049   5.751   6.428   6.894
 2384SOL     OW 8050   1.854   1.191   1.621
 2384SOL    HW1 8051   1.844   1.133   1.540
 2384SOL    HW2 8052   1.910   1.145   1.689
 2385SOL     OW 8053   6.375   6.935   1.047
 2385SOL    HW1 8054   6.380   6.949   1.146
 2385SOL    HW2 8055   6.298   6.987   1.010
 2386SOL     OW 8056   3.950   5.147   4.381
 2386SOL    HW1 8057   3.877   5.189   4.434
 2386SOL    HW2 8058   3.957   5.050   4.404
 2387SOL     OW 8059   6.725   2.316   4.815
 2387SOL    HW1 8060   6.736   2.405   4.773
 2387SOL    HW2 8061   6.763   2.245   4.756
 2388SOL     OW 8062   1.296   1.882   5.291
 2388SOL    HW1 8063   1.381   1.843   5.255
 2388SOL    HW2 8064   1.220   1.861   5.229
 2389SOL     OW 8065   4.577   4.336   3.821
 2389SOL    HW1 8066   4.617   4.245   3.830
 2389SOL    HW2 8067   4.541   4.366   3.909
 2390SOL     OW 8068   3.732   4.198   4.980
 2390SOL    HW1 8069   3.752   4.289   4.945
 2390SOL    HW2 8070   3.780   4.130   4.925
 2391SOL     OW 8071   3.386   4.626   5.628
 2391SOL    HW1 8072   3.300   4.653   5.670
 2391SOL    HW2 8073   3.454   4.698   5.643
 2392SOL     OW 8074   3.200   5.348   5.828
 2392SOL    HW1 8075   3.257   5.296   5.764
 2392SOL    HW2 8076   3.116   5.376   5.783
 2393SOL     OW 8077   4.060   5.318   1.337
 2393SOL    HW1 8078   4.003   5.329   1.418
 2393SOL    HW2 8079   4.099   5.226   1.336
 2394SOL     OW 8080   1.247   4.059   4.810
 2394SOL    HW1 8081   1.189   4.109   4.875
 2394SOL    HW2 8082   1.338   4.049   4.848
 2395SOL     OW 8083   6.912   2.316   6.549
 2395SOL    HW1 8084   6.849   2.239   6.563
 2395SOL    HW2 8085   6.944   2.315   6.454
 2396SOL     OW 8086   5.661   6.189   1.081
 2396SOL    HW1 8087   5.626   6.181   1.174
 2396SOL    HW2 8088   5.751   6.146   1.075
 2397SOL     OW 8089   6.437   5.034   0.657
 2397SOL    HW1 8090   6.431   5.130   0.681
 2397SOL    HW2 8091   6.397   4.979   0.731
 2398SOL     OW 8092   2.115   4.787   5.470
 2398SOL    HW1 8093   2.102   4.876   5.427
 2398SOL    HW2 8094   2.132   4.718   5.399
 2399SOL     OW 8095   4.561   1.690   2.591
 2399SOL    HW1 8096   4.488   1.729   2.535
 2399SOL    HW2 8097   4.532   1.688   2.687
 2400SOL     OW 8098   3.485   3.871   0.766
 2400SOL    HW1 8099   3.386   3.865   0.756
 2400SOL    HW2 8100   3.509   3.946   0.827
 2401SOL     OW 8101   3.254   0.637   5.408
 2401SOL    HW1 8102   3.215   0.703   5.473
 2401SOL    HW2 8103   3.345   0.609   5.439
 2402SOL     OW 8104   6.788   2.126   4.655
 2402SOL    HW1 8105   6.856   2.054   4.670
 2402SOL    HW2 8106   6.792   2.157   4.560
 2403SOL     OW 8107   3.142   3.146   0.451
 2403SOL    HW1 8108   3.086   3.110   0.525
 2403SOL    HW2 8109   3.198   3.073   0.412
 2404SOL     OW 8110   5.662   1.704   2.347
 2404SOL    HW1 8111   5.628   1.699   2.254
 2404SOL    HW2 8112   5.746   1.649   2.355
 2405SOL     OW 8113   3.933   3.517   5.403
 2405SOL    HW1 8114   3.954   3.478   5.313
 2405SOL    HW2 8115   4.011   3.571   5.434
 2406SOL     OW 8116   2.026   0.934   3.033
 2406SOL    HW1 8117   1.942   0.948   2.980
 2406SOL    HW2 8118   2.004   0.934   3.130
 2407SOL     OW 8119   4.395   2.168   3.038
 2407SOL    HW1 8120   4.375   2.155   3.135
 2407SOL    HW2 8121   4.326   2.227   2.997
 2408SOL     OW 8122   3.475   5.406   2.470
 2408SOL    HW1 8123   3.429   5.327   2.511
 2408SOL    HW2 8124   3.561   5.423   2.518
 2409SOL     OW 8125   2.327   2.434   2.010
 2409SOL    HW1 8126   2.377   2.486   2.079
 2409SOL    HW2 8127   2.337   2.479   1.921
 2410SOL     OW 8128   6.564   3.028   5.799
 2410SOL    HW1 8129   6.473   3.039   5.758
 2410SOL    HW2 8130   6.589   3.111   5.847
 2411SOL     OW 8131   3.721   4.533   5.547
 2411SOL    HW1 8132   3.702   4.577   5.460
 2411SOL    HW2 8133   3.816   4.503   5.550
 2412SOL     OW 8134   2.731   3.643   0.204
 2412SOL    HW1 8135   2.653   3.652   0.141
 2412SOL    HW2 8136   2.725   3.554   0.251
 2413SOL     OW 8137   6.352   3.453   6.886
 2413SOL    HW1 8138   6.351   3.353   6.887
 2413SOL    HW2 8139   6.266   3.487   6.926
 2414SOL     OW 8140   6.056   3.618   3.006
 2414SOL    HW1 8141   6.074   3.634   2.909
 2414SOL    HW2 8142   6.137   3.642   3.059
 2415SOL     OW 8143   1.629   0.174   1.164
 2415SOL    HW1 8144   1.637   0.126   1.251
 2415SOL    HW2 8145   1.551   0.138   1.113
 2416SOL     OW 8146   2.278   1.605   4.889
 2416SOL    HW1 8147   2.283   1.665   4.810
 2416SOL    HW2 8148   2.187   1.566   4.896
 2417SOL     OW 8149   5.104   2.456   6.958
 2417SOL    HW1 8150   5.065   2.422   6.872
 2417SOL    HW2 8151   5.133   2.378   7.014
 2418SOL     OW 8152   3.534   3.702   5.104
 2418SOL    HW1 8153   3.461   3.761   5.070
 2418SOL    HW2 8154   3.597   3.681   5.029
 2419SOL     OW 8155   0.463   6.703   4.699
 2419SOL    HW1 8156   0.409   6.675   4.779
 2419SOL    HW2 8157   0.548   6.650   4.696
 2420SOL     OW 8158   4.279   0.076   2.687
 2420SOL    HW1 8159   4.329   0.033   2.612
 2420SOL    HW2 8160   4.340   0.139   2.736
 2421SOL     OW 8161   2.952   0.971   4.368
 2421SOL    HW1 8162   2.862   1.016   4.368
 2421SOL    HW2 8163   3.013   1.019   4.431
 2422SOL     OW 8164   5.255   0.500   1.187
 2422SOL    HW1 8165   5.270   0.420   1.245
 2422SOL    HW2 8166   5.229   0.578   1.244
 2423SOL     OW 8167   1.460   6.005   2.618
 2423SOL    HW1 8168   1.397   5.928   2.623
 2423SOL    HW2 8169   1.486   6.033   2.711
 2424SOL     OW 8170   5.346   5.983   6.131
 2424SOL    HW1 8171   5.340   5.919   6.055
 2424SOL    HW2 8172   5.322   5.936   6.216
 2425SOL     OW 8173   6.145   6.789   4.570
 2425SOL    HW1 8174   6.208   6.768   4.644
 2425SOL    HW2 8175   6.125   6.887   4.569
 2426SOL     OW 8176   1.092   4.833   4.134
 2426SOL    HW1 8177   1.010   4.806   4.185
 2426SOL    HW2 8178   1.164   4.861   4.197
 2427SOL     OW 8179   5.869   5.668   6.697
 2427SOL    HW1 8180   5.918   5.603   6.755
 2427SOL    HW2 8181   5.774   5.674   6.727
 2428SOL     OW 8182   1.378   0.353   3.940
 2428SOL    HW1 8183   1.467   0.399   3.940
 2428SOL    HW2 8184   1.308   0.419   3.968
 2429SOL     OW 8185   6.340   5.253   3.519
 2429SOL    HW1 8186   6.418   5.199   3.487
 2429SOL    HW2 8187   6.261   5.236   3.460
 2430SOL     OW 8188   5.451   2.852   0.764
 2430SOL    HW1 8189   5.522   2.819   0.702
 2430SOL    HW2 8190   5.489   2.921   0.825
 2431SOL     OW 8191   4.067   0.532   2.057
 2431SOL    HW1 8192   4.161   0.539   2.024
 2431SOL    HW2 8193   4.006   0.581   1.996
 2432SOL     OW 8194   4.708   6.348   2.842
 2432SOL    HW1 8195   4.802   6.333   2.874
 2432SOL    HW2 8196   4.672   6.431   2.884
 2433SOL     OW 8197   2.465   6.946   0.014
 2433SOL    HW1 8198   2.544   7.007   0.020
 2433SOL    HW2 8199   2.402   6.964   0.089
 2434SOL     OW 8200   4.535   1.496   3.319
 2434SOL    HW1 8201   4.506   1.456   3.232
 2434SOL    HW2 8202   4.634   1.486   3.329
 2435SOL     OW 8203   4.576   5.143   0.195
 2435SOL    HW1 8204   4.510   5.195   0.142
 2435SOL    HW2 8205   4.543   5.049   0.207
 2436SOL     OW 8206   2.011   6.668   0.816
 2436SOL    HW1 8207   2.008   6.737   0.888
 2436SOL    HW2 8208   2.048   6.583   0.853
 2437SOL     OW 8209   5.052   5.866   1.210
 2437SOL    HW1 8210   5.020   5.912   1.293
 2437SOL    HW2 8211   5.028   5.920   1.130
 2438SOL     OW 8212   3.820   0.937   5.122
 2438SOL    HW1 8213   3.904   0.884   5.115
 2438SOL    HW2 8214   3.791   0.941   5.217
 2439SOL     OW 8215   1.153   4.096   0.029
 2439SOL    HW1 8216   1.231   4.053   0.074
 2439SOL    HW2 8217   1.125   4.177   0.081
 2440SOL     OW 8218   3.706   6.684   5.168
 2440SOL    HW1 8219   3.710   6.655   5.263
 2440SOL    HW2 8220   3.628   6.744   5.154
 2441SOL     OW 8221   6.168   1.102   0.641
 2441SOL    HW1 8222   6.095   1.164   0.668
 2441SOL    HW2 8223   6.214   1.138   0.559
 2442SOL     OW 8224   5.619   5.578   3.491
 2442SOL    HW1 8225   5.683   5.643   3.451
 2442SOL    HW2 8226   5.557   5.545   3.420
 2443SOL     OW 8227   3.461   0.574   6.121
 2443SOL    HW1 8228   3.399   0.644   6.086
 2443SOL    HW2 8229   3.415   0.519   6.190
 2444SOL     OW 8230   4.218   4.219   6.708
 2444SOL    HW1 8231   4.240   4.159   6.785
 2444SOL    HW2 8232   4.134   4.268   6.727
 2445SOL     OW 8233   6.707   0.874   2.178
 2445SOL    HW1 8234   6.713   0.794   2.119
 2445SOL    HW2 8235   6.781   0.937   2.157
 2446SOL     OW 8236   0.430   2.807   4.144
 2446SOL    HW1 8237   0.476   2.880   4.194
 2446SOL    HW2 8238   0.458   2.809   4.048
 2447SOL     OW 8239   2.832   0.920   0.974
 2447SOL    HW1 8240   2.869   0.996   0.920
 2447SOL    HW2 8241   2.820   0.840   0.915
 2448SOL     OW 8242   6.582   1.155   4.412
 2448SOL    HW1 8243   6.528   1.073   4.393
 2448SOL    HW2 8244   6.527   1.237   4.396
 2449SOL     OW 8245   7.022   4.121   3.218
 2449SOL    HW1 8246   0.000   4.150   3.122
 2449SOL    HW2 8247   6.985   4.195   3.273
 2450SOL     OW 8248   3.607   5.636   5.478
 2450SOL    HW1 8249   3.641   5.586   5.399
 2450SOL    HW2 8250   3.517   5.600   5.504
 2451SOL     OW 8251   1.451   0.531   3.678
 2451SOL    HW1 8252   1.527   0.551   3.617
 2451SOL    HW2 8253   1.485   0.515   3.770
 2452SOL     OW 8254   2.908   1.782   3.542
 2452SOL    HW1 8255   2.912   1.730   3.456
 2452SOL    HW2 8256   2.853   1.865   3.528
 2453SOL     OW 8257   6.930   3.857   0.783
 2453SOL    HW1 8258   6.863   3.929   0.804
 2453SOL    HW2 8259   6.887   3.768   0.791
 2454SOL     OW 8260   3.640   0.528   6.774
 2454SOL    HW1 8261   3.645   0.518   6.874
 2454SOL    HW2 8262   3.692   0.609   6.746
 2455SOL     OW 8263   4.228   0.200   0.570
 2455SOL    HW1 8264   4.145   0.254   0.582
 2455SOL    HW2 8265   4.280   0.200   0.656
 2456SOL     OW 8266   5.802   2.042   0.210
 2456SOL    HW1 8267   5.886   2.089   0.182
 2456SOL    HW2 8268   5.732   2.055   0.140
 2457SOL     OW 8269   6.766   0.192   6.474
 2457SOL    HW1 8270   6.689   0.218   6.532
 2457SOL    HW2 8271   6.737   0.192   6.378
 2458SOL     OW 8272   2.265   6.040   3.982
 2458SOL    HW1 8273   2.310   5.984   4.052
 2458SOL    HW2 8274   2.168   6.047   4.002
 2459SOL     OW 8275   2.434   5.984   5.938
 2459SOL    HW1 8276   2.378   6.044   5.881
 2459SOL    HW2 8277   2.473   6.037   6.013
 2460SOL     OW 8278   2.040   1.370   1.618
 2460SOL    HW1 8279   1.982   1.289   1.610
 2460SOL    HW2 8280   2.133   1.342   1.639
 2461SOL     OW 8281   4.769   1.211   2.960
 2461SOL    HW1 8282   4.800   1.208   3.055
 2461SOL    HW2 8283   4.675   1.176   2.955
 2462SOL     OW 8284   1.759   5.300   0.121
 2462SOL    HW1 8285   1.697   5.372   0.090
 2462SOL    HW2 8286   1.841   5.299   0.065
 2463SOL     OW 8287   6.401   2.199   6.006
 2463SOL    HW1 8288   6.374   2.202   5.910
 2463SOL    HW2 8289   6.397   2.292   6.044
 2464SOL     OW 8290   2.137   3.853   2.457
 2464SOL    HW1 8291   2.165   3.949   2.452
 2464SOL    HW2 8292   2.198   3.797   2.401
 2465SOL     OW 8293   0.873   0.246   0.865
 2465SOL    HW1 8294   0.869   0.338   0.825
 2465SOL    HW2 8295   0.954   0.199   0.830
 2466SOL     OW 8296   1.869   1.605   2.647
 2466SOL    HW1 8297   1.878   1.652   2.735
 2466SOL    HW2 8298   1.858   1.673   2.575
 2467SOL     OW 8299   4.969   1.288   5.528
 2467SOL    HW1 8300   4.927   1.233   5.600
 2467SOL    HW2 8301   4.954   1.385   5.547
 2468SOL     OW 8302   4.669   6.635   2.046
 2468SOL    HW1 8303   4.577   6.597   2.053
 2468SOL    HW2 8304   4.724   6.607   2.125
 2469SOL     OW 8305   4.009   4.372   5.813
 2469SOL    HW1 8306   4.099   4.359   5.855
 2469SOL    HW2 8307   3.980   4.287   5.769
 2470SOL     OW 8308   3.981   4.366   6.506
 2470SOL    HW1 8309   4.077   4.348   6.525
 2470SOL    HW2 8310   3.963   4.356   6.408
 2471SOL     OW 8311   2.652   6.456   0.611
 2471SOL    HW1 8312   2.722   6.447   0.541
 2471SOL    HW2 8313   2.681   6.406   0.693
 2472SOL     OW 8314   4.835   2.571   4.563
 2472SOL    HW1 8315   4.780   2.650   4.537
 2472SOL    HW2 8316   4.842   2.508   4.486
 2473SOL     OW 8317   2.174   3.956   4.781
 2473SOL    HW1 8318   2.136   4.038   4.737
 2473SOL    HW2 8319   2.243   3.983   4.848
 2474SOL     OW 8320   0.550   6.114   0.625
 2474SOL    HW1 8321   0.472   6.117   0.562
 2474SOL    HW2 8322   0.635   6.125   0.573
 2475SOL     OW 8323   4.525   1.073   2.677
 2475SOL    HW1 8324   4.468   1.150   2.647
 2475SOL    HW2 8325   4.515   0.997   2.613
 2476SOL     OW 8326   6.821   1.747   3.308
 2476SOL    HW1 8327   6.792   1.713   3.219
 2476SOL    HW2 8328   6.912   1.789   3.300
 2477SOL     OW 8329   4.685   1.323   1.931
 2477SOL    HW1 8330   4.755   1.294   1.996
 2477SOL    HW2 8331   4.665   1.420   1.945
 2478SOL     OW 8332   6.393   1.313   2.118
 2478SOL    HW1 8333   6.360   1.316   2.212
 2478SOL    HW2 8334   6.486   1.277   2.116
 2479SOL     OW 8335   1.382   3.949   1.552
 2479SOL    HW1 8336   1.472   3.906   1.554
 2479SOL    HW2 8337   1.339   3.941   1.642
 2480SOL     OW 8338   5.273   4.605   0.702
 2480SOL    HW1 8339   5.318   4.545   0.637
 2480SOL    HW2 8340   5.303   4.582   0.795
 2481SOL     OW 8341   2.304   0.897   6.830
 2481SOL    HW1 8342   2.339   0.815   6.783
 2481SOL    HW2 8343   2.224   0.932   6.781
 2482SOL     OW 8344   4.752   3.572   5.788
 2482SOL    HW1 8345   4.743   3.669   5.765
 2482SOL    HW2 8346   4.663   3.537   5.818
 2483SOL     OW 8347   1.616   1.962   6.641
 2483SOL    HW1 8348   1.692   2.008   6.596
 2483SOL    HW2 8349   1.537   2.023   6.643
 2484SOL     OW 8350   3.463   0.678   0.269
 2484SOL    HW1 8351   3.520   0.701   0.190
 2484SOL    HW2 8352   3.408   0.757   0.295
 2485SOL     OW 8353   5.922   4.090   1.344
 2485SOL    HW1 8354   5.859   4.039   1.285
 2485SOL    HW2 8355   5.869   4.145   1.409
 2486SOL     OW 8356   2.127   5.133   4.633
 2486SOL    HW1 8357   2.108   5.037   4.617
 2486SOL    HW2 8358   2.170   5.145   4.723
 2487SOL     OW 8359   3.515   6.154   6.827
 2487SOL    HW1 8360   3.571   6.084   6.783
 2487SOL    HW2 8361   3.497   6.228   6.762
 2488SOL     OW 8362   2.001   4.445   2.298
 2488SOL    HW1 8363   2.075   4.481   2.241
 2488SOL    HW2 8364   1.913   4.467   2.256
 2489SOL     OW 8365   1.034   5.834   3.032
 2489SOL    HW1 8366   0.950   5.804   2.986
 2489SOL    HW2 8367   1.092   5.883   2.966
 2490SOL     OW 8368   6.655   4.912   1.540
 2490SOL    HW1 8369   6.695   4.848   1.605
 2490SOL    HW2 8370   6.556   4.905   1.543
 2491SOL     OW 8371   2.989   5.406   1.060
 2491SOL    HW1 8372   2.965   5.500   1.035
 2491SOL    HW2 8373   2.937   5.342   1.004
 2492SOL     OW 8374   4.298   1.918   0.481
 2492SOL    HW1 8375   4.214   1.961   0.515
 2492SOL    HW2 8376   4.376   1.975   0.507
 2493SOL     OW 8377   6.194   0.836   2.533
 2493SOL    HW1 8378   6.256   0.896   2.483
 2493SOL    HW2 8379   6.111   0.821   2.479
 2494SOL     OW 8380   5.892   3.631   2.153
 2494SOL    HW1 8381   5.865   3.722   2.183
 2494SOL    HW2 8382   5.811   3.579   2.126
 2495SOL     OW 8383   5.248   0.420   4.277
 2495SOL    HW1 8384   5.331   0.466   4.248
 2495SOL    HW2 8385   5.169   0.460   4.229
 2496SOL     OW 8386   0.695   3.995   5.659
 2496SOL    HW1 8387   0.729   3.902   5.642
 2496SOL    HW2 8388   0.595   3.996   5.653
 2497SOL     OW 8389   0.251   0.420   1.060
 2497SOL    HW1 8390   0.338   0.414   1.010
 2497SOL    HW2 8391   0.259   0.370   1.146
 2498SOL     OW 8392   3.196   1.624   4.425
 2498SOL    HW1 8393   3.243   1.548   4.470
 2498SOL    HW2 8394   3.102   1.598   4.404
 2499SOL     OW 8395   5.725   1.989   4.355
 2499SOL    HW1 8396   5.694   1.894   4.361
 2499SOL    HW2 8397   5.824   1.993   4.370
 2500SOL     OW 8398   4.242   3.040   0.060
 2500SOL    HW1 8399   4.164   3.063   0.002
 2500SOL    HW2 8400   4.325   3.040   0.005
 2501SOL     OW 8401   6.166   5.716   6.971
 2501SOL    HW1 8402   6.206   5.753   6.888
 2501SOL    HW2 8403   6.188   5.618   6.979
 2502SOL     OW 8404   2.031   5.919   2.855
 2502SOL    HW1 8405   2.026   5.894   2.759
 2502SOL    HW2 8406   2.122   5.956   2.876
 2503SOL     OW 8407   3.282   5.423   4.614
 2503SOL    HW1 8408   3.209   5.354   4.610
 2503SOL    HW2 8409   3.280   5.478   4.530
 2504SOL     OW 8410   3.097   5.205   4.728
 2504SOL    HW1 8411   3.116   5.107   4.728
 2504SOL    HW2 8412   3.015   5.223   4.674
 2505SOL     OW 8413   1.572   5.963   3.791
 2505SOL    HW1 8414   1.495   6.014   3.830
 2505SOL    HW2 8415   1.631   6.024   3.739
 2506SOL     OW 8416   6.091   3.215   6.377
 2506SOL    HW1 8417   6.101   3.293   6.315
 2506SOL    HW2 8418   6.026   3.239   6.449
 2507SOL     OW 8419   1.099   4.717   0.526
 2507SOL    HW1 8420   1.027   4.767   0.575
 2507SOL    HW2 8421   1.056   4.648   0.468
 2508SOL     OW 8422   2.293   1.511   1.965
 2508SOL    HW1 8423   2.346   1.460   1.897
 2508SOL    HW2 8424   2.355   1.561   2.025
 2509SOL     OW 8425   6.454   2.718   2.156
 2509SOL    HW1 8426   6.451   2.787   2.228
 2509SOL    HW2 8427   6.467   2.628   2.197
 2510SOL     OW 8428   3.295   4.293   1.438
 2510SOL    HW1 8429   3.232   4.241   1.380
 2510SOL    HW2 8430   3.386   4.294   1.396
 2511SOL     OW 8431   3.046   1.451   3.525
 2511SOL    HW1 8432   3.006   1.492   3.443
 2511SOL    HW2 8433   3.146   1.464   3.524
 2512SOL     OW 8434   4.929   4.748   4.719
 2512SOL    HW1 8435   4.833   4.754   4.747
 2512SOL    HW2 8436   4.988   4.779   4.794
 2513SOL     OW 8437   1.222   3.361   4.868
 2513SOL    HW1 8438   1.174   3.280   4.901
 2513SOL    HW2 8439   1.303   3.377   4.924
 2514SOL     OW 8440   6.679   3.286   3.936
 2514SOL    HW1 8441   6.689   3.310   4.033
 2514SOL    HW2 8442   6.589   3.314   3.904
 2515SOL     OW 8443   1.300   6.514   0.576
 2515SOL    HW1 8444   1.384   6.459   0.567
 2515SOL    HW2 8445   1.258   6.496   0.664
 2516SOL     OW 8446   5.851   0.977   3.175
 2516SOL    HW1 8447   5.950   0.994   3.177
 2516SOL    HW2 8448   5.829   0.898   3.232
 2517SOL     OW 8449   0.535   4.857   5.992
 2517SOL    HW1 8450   0.444   4.820   6.014
 2517SOL    HW2 8451   0.525   4.948   5.952
 2518SOL     OW 8452   1.708   3.706   6.975
 2518SOL    HW1 8453   1.680   3.762   0.029
 2518SOL    HW2 8454   1.718   3.763   6.894
 2519SOL     OW 8455   5.424   6.492   3.839
 2519SOL    HW1 8456   5.400   6.436   3.918
 2519SOL    HW2 8457   5.397   6.444   3.755
 2520SOL     OW 8458   1.245   2.575   0.106
 2520SOL    HW1 8459   1.327   2.595   0.159
 2520SOL    HW2 8460   1.240   2.637   0.028
 2521SOL     OW 8461   1.345   6.417   5.354
 2521SOL    HW1 8462   1.306   6.355   5.287
 2521SOL    HW2 8463   1.320   6.387   5.446
 2522SOL     OW 8464   0.095   3.563   5.960
 2522SOL    HW1 8465   7.022   3.585   5.959
 2522SOL    HW2 8466   0.148   3.648   5.957
 2523SOL     OW 8467   0.598   2.789   2.066
 2523SOL    HW1 8468   0.656   2.742   2.000
 2523SOL    HW2 8469   0.554   2.721   2.126
 2524SOL     OW 8470   0.717   5.483   5.565
 2524SOL    HW1 8471   0.648   5.551   5.589
 2524SOL    HW2 8472   0.680   5.419   5.498
 2525SOL     OW 8473   0.805   2.758   4.225
 2525SOL    HW1 8474   0.730   2.769   4.290
 2525SOL    HW2 8475   0.793   2.823   4.150
 2526SOL     OW 8476   1.943   4.329   5.633
 2526SOL    HW1 8477   1.915   4.344   5.538
 2526SOL    HW2 8478   1.988   4.412   5.668
 2527SOL     OW 8479   5.363   6.020   4.900
 2527SOL    HW1 8480   5.277   6.015   4.850
 2527SOL    HW2 8481   5.436   6.049   4.837
 2528SOL     OW 8482   5.588   4.458   1.174
 2528SOL    HW1 8483   5.556   4.378   1.226
 2528SOL    HW2 8484   5.573   4.541   1.228
 2529SOL     OW 8485   0.056   6.118   6.715
 2529SOL    HW1 8486   0.098   6.060   6.785
 2529SOL    HW2 8487   6.981   6.118   6.726
 2530SOL     OW 8488   1.997   6.872   5.066
 2530SOL    HW1 8489   1.981   6.778   5.096
 2530SOL    HW2 8490   2.007   6.875   4.967
 2531SOL     OW 8491   4.916   5.999   4.268
 2531SOL    HW1 8492   4.954   5.954   4.186
 2531SOL    HW2 8493   4.943   5.948   4.349
 2532SOL     OW 8494   0.820   5.757   0.740
 2532SOL    HW1 8495   0.885   5.819   0.697
 2532SOL    HW2 8496   0.734   5.758   0.690
 2533SOL     OW 8497   3.260   6.834   3.043
 2533SOL    HW1 8498   3.354   6.800   3.043
 2533SOL    HW2 8499   3.227   6.843   2.949
 2534SOL     OW 8500   3.175   1.065   2.779
 2534SOL    HW1 8501   3.122   1.134   2.827
 2534SOL    HW2 8502   3.225   1.009   2.846
 2535SOL     OW 8503   2.955   2.964   6.363
 2535SOL    HW1 8504   2.921   2.870   6.350
 2535SOL    HW2 8505   3.021   2.986   6.291
 2536SOL     OW 8506   6.527   1.862   3.862
 2536SOL    HW1 8507   6.540   1.930   3.789
 2536SOL    HW2 8508   6.614   1.817   3.882
 2537SOL     OW 8509   4.938   6.666   6.777
 2537SOL    HW1 8510   4.913   6.571   6.801
 2537SOL    HW2 8511   4.855   6.721   6.774
 2538SOL     OW 8512   1.483   4.565   4.556
 2538SOL    HW1 8513   1.445   4.649   4.594
 2538SOL    HW2 8514   1.450   4.487   4.610
 2539SOL     OW 8515   5.610   0.649   5.965
 2539SOL    HW1 8516   5.527   0.656   5.911
 2539SOL    HW2 8517   5.632   0.739   6.005
 2540SOL     OW 8518   4.055   0.975   2.741
 2540SOL    HW1 8519   3.983   0.912   2.769
 2540SOL    HW2 8520   4.094   0.943   2.654
 2541SOL     OW 8521   2.033   6.379   5.418
 2541SOL    HW1 8522   2.075   6.466   5.445
 2541SOL    HW2 8523   1.937   6.379   5.448
 2542SOL     OW 8524   4.753   1.271   6.382
 2542SOL    HW1 8525   4.666   1.311   6.411
 2542SOL    HW2 8526   4.742   1.171   6.374
 2543SOL     OW 8527   2.173   2.032   2.680
 2543SOL    HW1 8528   2.185   2.113   2.738
 2543SOL    HW2 8529   2.075   2.012   2.672
 2544SOL     OW 8530   0.107   5.133   1.227
 2544SOL    HW1 8531   0.119   5.103   1.321
 2544SOL    HW2 8532   0.015   5.111   1.196
 2545SOL     OW 8533   2.180   0.479   1.341
 2545SOL    HW1 8534   2.164   0.465   1.243
 2545SOL    HW2 8535   2.100   0.522   1.382
 2546SOL     OW 8536   0.389   2.583   1.522
 2546SOL    HW1 8537   0.327   2.661   1.528
 2546SOL    HW2 8538   0.341   2.505   1.482
 2547SOL     OW 8539   6.092   4.636   0.166
 2547SOL    HW1 8540   6.145   4.706   0.214
 2547SOL    HW2 8541   6.150   4.558   0.146
 2548SOL     OW 8542   2.884   6.878   5.895
 2548SOL    HW1 8543   2.850   6.795   5.851
 2548SOL    HW2 8544   2.808   6.942   5.907
 2549SOL     OW 8545   1.898   0.882   1.194
 2549SOL    HW1 8546   1.952   0.879   1.109
 2549SOL    HW2 8547   1.857   0.792   1.210
 2550SOL     OW 8548   6.877   0.594   6.479
 2550SOL    HW1 8549   6.890   0.618   6.575
 2550SOL    HW2 8550   6.896   0.673   6.422
 2551SOL     OW 8551   3.005   5.515   0.318
 2551SOL    HW1 8552   3.065   5.466   0.381
 2551SOL    HW2 8553   2.977   5.454   0.245
 2552SOL     OW 8554   1.115   5.661   6.115
 2552SOL    HW1 8555   1.187   5.608   6.160
 2552SOL    HW2 8556   1.154   5.712   6.038
 2553SOL     OW 8557   3.659   3.523   6.792
 2553SOL    HW1 8558   3.691   3.430   6.810
 2553SOL    HW2 8559   3.690   3.552   6.702
 2554SOL     OW 8560   1.945   6.657   6.748
 2554SOL    HW1 8561   1.908   6.610   6.667
 2554SOL    HW2 8562   1.896   6.744   6.761
 2555SOL     OW 8563   6.311   6.478   6.426
 2555SOL    HW1 8564   6.304   6.430   6.339
 2555SOL    HW2 8565   6.327   6.412   6.500
 2556SOL     OW 8566   4.384   5.258   0.025
 2556SOL    HW1 8567   4.332   5.174   0.036
 2556SOL    HW2 8568   4.322   5.337   0.030
 2557SOL     OW 8569   2.513   2.497   6.324
 2557SOL    HW1 8570   2.572   2.576   6.338
 2557SOL    HW2 8571   2.477   2.498   6.231
 2558SOL     OW 8572   4.070   3.414   6.022
 2558SOL    HW1 8573   4.069   3.355   6.103
 2558SOL    HW2 8574   4.041   3.361   5.942
 2559SOL     OW 8575   6.418   3.266   4.741
 2559SOL    HW1 8576   6.384   3.174   4.756
 2559SOL    HW2 8577   6.419   3.317   4.827
 2560SOL     OW 8578   5.821   3.316   4.366
 2560SOL    HW1 8579   5.864   3.403   4.341
 2560SOL    HW2 8580   5.738   3.335   4.419
 2561SOL     OW 8581   2.978   0.216   3.823
 2561SOL    HW1 8582   2.881   0.199   3.808
 2561SOL    HW2 8583   3.024   0.225   3.735
 2562SOL     OW 8584   2.042   5.973   2.130
 2562SOL    HW1 8585   2.108   5.918   2.182
 2562SOL    HW2 8586   2.043   6.067   2.164
 2563SOL     OW 8587   4.341   1.896   6.897
 2563SOL    HW1 8588   4.341   1.801   6.865
 2563SOL    HW2 8589   4.247   1.925   6.915
 2564SOL     OW 8590   1.222   6.705   6.558
 2564SOL    HW1 8591   1.178   6.791   6.531
 2564SOL    HW2 8592   1.269   6.665   6.479
 2565SOL     OW 8593   0.506   1.259   0.452
 2565SOL    HW1 8594   0.438   1.332   0.447
 2565SOL    HW2 8595   0.501   1.214   0.541
 2566SOL     OW 8596   1.554   6.662   1.039
 2566SOL    HW1 8597   1.583   6.608   0.960
 2566SOL    HW2 8598   1.600   6.629   1.121
 2567SOL     OW 8599   1.375   1.348   1.651
 2567SOL    HW1 8600   1.404   1.253   1.666
 2567SOL    HW2 8601   1.437   1.390   1.584
 2568SOL     OW 8602   3.471   6.895   6.549
 2568SOL    HW1 8603   3.513   6.838   6.478
 2568SOL    HW2 8604   3.434   6.837   6.621
 2569SOL     OW 8605   2.924   0.565   1.901
 2569SOL    HW1 8606   2.898   0.619   1.981
 2569SOL    HW2 8607   2.856   0.577   1.829
 2570SOL     OW 8608   6.353   0.618   0.142
 2570SOL    HW1 8609   6.332   0.622   0.240
 2570SOL    HW2 8610   6.295   0.684   0.094
 2571SOL     OW 8611   2.273   3.622   5.582
 2571SOL    HW1 8612   2.262   3.707   5.531
 2571SOL    HW2 8613   2.187   3.571   5.581
 2572SOL     OW 8614   1.929   6.159   0.801
 2572SOL    HW1 8615   2.016   6.208   0.795
 2572SOL    HW2 8616   1.938   6.069   0.759
 2573SOL     OW 8617   6.748   1.581   2.075
 2573SOL    HW1 8618   6.846   1.596   2.064
 2573SOL    HW2 8619   6.720   1.609   2.167
 2574SOL     OW 8620   6.210   3.094   0.000
 2574SOL    HW1 8621   6.208   3.169   0.066
 2574SOL    HW2 8622   6.172   3.012   0.042
 2575SOL     OW 8623   4.741   5.430   0.205
 2575SOL    HW1 8624   4.760   5.468   0.296
 2575SOL    HW2 8625   4.664   5.367   0.211
 2576SOL     OW 8626   4.146   6.844   4.415
 2576SOL    HW1 8627   4.101   6.755   4.424
 2576SOL    HW2 8628   4.185   6.853   4.324
 2577SOL     OW 8629   4.029   6.547   2.141
 2577SOL    HW1 8630   4.075   6.537   2.229
 2577SOL    HW2 8631   3.932   6.566   2.157
 2578SOL     OW 8632   4.761   1.911   4.323
 2578SOL    HW1 8633   4.817   1.922   4.241
 2578SOL    HW2 8634   4.814   1.935   4.404
 2579SOL     OW 8635   0.993   0.278   3.030
 2579SOL    HW1 8636   1.084   0.240   3.011
 2579SOL    HW2 8637   0.942   0.286   2.944
 2580SOL     OW 8638   2.539   2.928   6.684
 2580SOL    HW1 8639   2.512   2.862   6.755
 2580SOL    HW2 8640   2.473   2.923   6.609
 2581SOL     OW 8641   6.828   4.282   1.227
 2581SOL    HW1 8642   6.789   4.373   1.217
 2581SOL    HW2 8643   6.754   4.214   1.232
 2582SOL     OW 8644   0.627   3.902   2.108
 2582SOL    HW1 8645   0.547   3.920   2.165
 2582SOL    HW2 8646   0.611   3.818   2.055
 2583SOL     OW 8647   0.691   1.715   1.328
 2583SOL    HW1 8648   0.658   1.620   1.327
 2583SOL    HW2 8649   0.638   1.768   1.393
 2584SOL     OW 8650   4.064   5.683   0.118
 2584SOL    HW1 8651   3.990   5.624   0.086
 2584SOL    HW2 8652   4.048   5.777   0.087
 2585SOL     OW 8653   3.965   2.711   0.869
 2585SOL    HW1 8654   3.993   2.791   0.817
 2585SOL    HW2 8655   3.999   2.628   0.824
 2586SOL     OW 8656   3.347   1.441   3.759
 2586SOL    HW1 8657   3.311   1.395   3.840
 2586SOL    HW2 8658   3.355   1.539   3.778
 2587SOL     OW 8659   0.425   0.387   3.813
 2587SOL    HW1 8660   0.465   0.306   3.770
 2587SOL    HW2 8661   0.325   0.377   3.815
 2588SOL     OW 8662   4.664   6.901   7.022
 2588SOL    HW1 8663   4.572   6.934   0.018
 2588SOL    HW2 8664   4.730   6.975   0.011
 2589SOL     OW 8665   0.144   6.129   6.433
 2589SOL    HW1 8666   0.190   6.206   6.388
 2589SOL    HW2 8667   0.120   6.155   6.527
 2590SOL     OW 8668   3.242   6.276   1.929
 2590SOL    HW1 8669   3.284   6.187   1.911
 2590SOL    HW2 8670   3.185   6.303   1.852
 2591SOL     OW 8671   6.889   5.998   2.302
 2591SOL    HW1 8672   6.794   6.008   2.332
 2591SOL    HW2 8673   6.907   5.902   2.280
 2592SOL     OW 8674   3.668   6.371   1.263
 2592SOL    HW1 8675   3.602   6.327   1.324
 2592SOL    HW2 8676   3.760   6.362   1.301
 2593SOL     OW 8677   2.949   5.989   0.944
 2593SOL    HW1 8678   2.896   5.983   1.029
 2593SOL    HW2 8679   3.037   6.033   0.963
 2594SOL     OW 8680   0.529   5.482   5.902
 2594SOL    HW1 8681   0.441   5.437   5.917
 2594SOL    HW2 8682   0.597   5.445   5.966
 2595SOL     OW 8683   6.256   1.939   4.675
 2595SOL    HW1 8684   6.206   1.871   4.729
 2595SOL    HW2 8685   6.279   1.901   4.586
 2596SOL     OW 8686   3.976   2.006   1.742
 2596SOL    HW1 8687   4.005   2.033   1.650
 2596SOL    HW2 8688   4.024   1.922   1.769
 2597SOL     OW 8689   1.244   3.938   6.146
 2597SOL    HW1 8690   1.207   3.893   6.065
 2597SOL    HW2 8691   1.170   3.983   6.196
 2598SOL     OW 8692   6.114   1.225   4.334
 2598SOL    HW1 8693   6.203   1.269   4.349
 2598SOL    HW2 8694   6.087   1.237   4.239
 2599SOL     OW 8695   2.481   6.934   0.754
 2599SOL    HW1 8696   2.573   6.966   0.777
 2599SOL    HW2 8697   2.486   6.871   0.677
 2600SOL     OW 8698   5.105   3.401   4.011
 2600SOL    HW1 8699   5.200   3.432   4.002
 2600SOL    HW2 8700   5.103   3.316   4.065
 2601SOL     OW 8701   1.917   2.075   0.114
 2601SOL    HW1 8702   1.972   1.992   0.110
 2601SOL    HW2 8703   1.925   2.125   0.027
 2602SOL     OW 8704   6.544   4.787   4.164
 2602SOL    HW1 8705   6.635   4.811   4.129
 2602SOL    HW2 8706   6.551   4.708   4.225
 2603SOL     OW 8707   2.410   1.757   1.809
 2603SOL    HW1 8708   2.365   1.674   1.843
 2603SOL    HW2 8709   2.448   1.739   1.718
 2604SOL     OW 8710   4.967   1.439   2.991
 2604SOL    HW1 8711   4.939   1.437   2.895
 2604SOL    HW2 8712   4.978   1.346   3.024
 2605SOL     OW 8713   2.371   4.582   2.881
 2605SOL    HW1 8714   2.433   4.627   2.945
 2605SOL    HW2 8715   2.280   4.623   2.890
 2606SOL     OW 8716   6.831   4.601   1.464
 2606SOL    HW1 8717   6.929   4.618   1.476
 2606SOL    HW2 8718   6.813   4.579   1.368
 2607SOL     OW 8719   0.484   1.125   6.766
 2607SOL    HW1 8720   0.465   1.088   6.857
 2607SOL    HW2 8721   0.548   1.065   6.718
 2608SOL     OW 8722   4.798   4.700   1.590
 2608SOL    HW1 8723   4.847   4.759   1.654
 2608SOL    HW2 8724   4.841   4.610   1.588
 2609SOL     OW 8725   7.006   1.848   1.438
 2609SOL    HW1 8726   7.017   1.919   1.367
 2609SOL    HW2 8727   6.911   1.818   1.440
 2610SOL     OW 8728   0.452   4.797   4.929
 2610SOL    HW1 8729   0.539   4.782   4.977
 2610SOL    HW2 8730   0.470   4.806   4.831
 2611SOL     OW 8731   4.531   6.462   1.061
 2611SOL    HW1 8732   4.474   6.434   0.983
 2611SOL    HW2 8733   4.504   6.411   1.142
 2612SOL     OW 8734   0.070   6.832   5.789
 2612SOL    HW1 8735   0.153   6.876   5.823
 2612SOL    HW2 8736   0.028   6.891   5.719
 2613SOL     OW 8737   2.675   6.852   6.839
 2613SOL    HW1 8738   2.740   6.787   6.799
 2613SOL    HW2 8739   2.680   6.847   6.938
 2614SOL     OW 8740   0.206   0.728   6.177
 2614SOL    HW1 8741   0.252   0.640   6.185
 2614SOL    HW2 8742   0.129   0.731   6.240
 2615SOL     OW 8743   0.098   2.451   3.345
 2615SOL    HW1 8744   0.021   2.389   3.359
 2615SOL    HW2 8745   0.119   2.456   3.247
 2616SOL     OW 8746   3.582   2.859   5.074
 2616SOL    HW1 8747   3.568   2.951   5.108
 2616SOL    HW2 8748   3.585   2.860   4.974
 2617SOL     OW 8749   3.314   6.265   0.735
 2617SOL    HW1 8750   3.321   6.358   0.697
 2617SOL    HW2 8751   3.317   6.199   0.660
 2618SOL     OW 8752   0.020   0.196   4.158
 2618SOL    HW1 8753   6.983   0.226   4.084
 2618SOL    HW2 8754   6.991   0.186   4.242
 2619SOL     OW 8755   4.243   1.741   3.482
 2619SOL    HW1 8756   4.175   1.667   3.477
 2619SOL    HW2 8757   4.273   1.765   3.389
 2620SOL     OW 8758   0.074   6.950   2.779
 2620SOL    HW1 8759   7.018   6.953   2.840
 2620SOL    HW2 8760   0.057   7.008   2.699
 2621SOL     OW 8761   1.524   5.994   3.105
 2621SOL    HW1 8762   1.622   6.009   3.116
 2621SOL    HW2 8763   1.499   5.906   3.144
 2622SOL     OW 8764   2.076   3.234   5.481
 2622SOL    HW1 8765   2.087   3.331   5.504
 2622SOL    HW2 8766   2.030   3.226   5.393
 2623SOL     OW 8767   2.014   1.693   5.406
 2623SOL    HW1 8768   2.015   1.648   5.316
 2623SOL    HW2 8769   1.969   1.782   5.398
 2624SOL     OW 8770   6.740   2.304   5.839
 2624SOL    HW1 8771   6.693   2.216   5.839
 2624SOL    HW2 8772   6.738   2.343   5.931
 2625SOL     OW 8773   2.307   2.662   5.191
 2625SOL    HW1 8774   2.228   2.720   5.171
 2625SOL    HW2 8775   2.389   2.718   5.202
 2626SOL     OW 8776   0.406   7.019   5.772
 2626SOL    HW1 8777   0.504   0.015   5.776
 2626SOL    HW2 8778   0.378   7.009   5.677
 2627SOL     OW 8779   1.733   1.355   5.588
 2627SOL    HW1 8780   1.633   1.358   5.595
 2627SOL    HW2 8781   1.762   1.412   5.511
 2628SOL     OW 8782   1.959   4.458   6.171
 2628SOL    HW1 8783   1.896   4.394   6.126
 2628SOL    HW2 8784   2.053   4.435   6.144
 2629SOL     OW 8785   2.986   3.088   1.406
 2629SOL    HW1 8786   3.011   3.170   1.458
 2629SOL    HW2 8787   2.947   3.020   1.468
 2630SOL     OW 8788   2.948   2.066   2.507
 2630SOL    HW1 8789   3.038   2.088   2.544
 2630SOL    HW2 8790   2.878   2.112   2.561
 2631SOL     OW 8791   5.316   1.017   5.526
 2631SOL    HW1 8792   5.354   0.972   5.446
 2631SOL    HW2 8793   5.351   0.973   5.609
 2632SOL     OW 8794   3.918   3.025   6.645
 2632SOL    HW1 8795   3.949   2.949   6.702
 2632SOL    HW2 8796   3.841   2.996   6.589
 2633SOL     OW 8797   0.333   1.031   4.594
 2633SOL    HW1 8798   0.268   1.078   4.653
 2633SOL    HW2 8799   0.337   1.077   4.505
 2634SOL     OW 8800   0.685   4.475   3.400
 2634SOL    HW1 8801   0.752   4.528   3.453
 2634SOL    HW2 8802   0.593   4.495   3.434
 2635SOL     OW 8803   6.387   6.444   5.444
 2635SOL    HW1 8804   6.354   6.538   5.449
 2635SOL    HW2 8805   6.374   6.408   5.351
 2636SOL     OW 8806   4.765   0.818   5.307
 2636SOL    HW1 8807   4.798   0.908   5.334
 2636SOL    HW2 8808   4.843   0.755   5.302
 2637SOL     OW 8809   4.558   1.742   3.528
 2637SOL    HW1 8810   4.639   1.700   3.568
 2637SOL    HW2 8811   4.551   1.716   3.432
 2638SOL     OW 8812   6.813   0.112   3.732
 2638SOL    HW1 8813   6.752   0.165   3.673
 2638SOL    HW2 8814   6.867   0.049   3.676
 2639SOL     OW 8815   0.149   5.995   0.675
 2639SOL    HW1 8816   0.148   6.086   0.717
 2639SOL    HW2 8817   0.074   5.940   0.712
 2640SOL     OW 8818   0.607   5.813   5.098
 2640SOL    HW1 8819   0.642   5.720   5.094
 2640SOL    HW2 8820   0.659   5.872   5.037
 2641SOL     OW 8821   5.135   3.251   2.686
 2641SOL    HW1 8822   5.096   3.228   2.597
 2641SOL    HW2 8823   5.199   3.326   2.676
 2642SOL     OW 8824   4.270   6.569   3.690
 2642SOL    HW1 8825   4.179   6.598   3.719
 2642SOL    HW2 8826   4.327   6.553   3.771
 2643SOL     OW 8827   0.384   4.199   3.263
 2643SOL    HW1 8828   0.318   4.124   3.266
 2643SOL    HW2 8829   0.338   4.285   3.286
 2644SOL     OW 8830   5.683   6.139   5.572
 2644SOL    HW1 8831   5.734   6.224   5.560
 2644SOL    HW2 8832   5.642   6.137   5.663
 2645SOL     OW 8833   4.409   5.833   4.638
 2645SOL    HW1 8834   4.420   5.737   4.610
 2645SOL    HW2 8835   4.321   5.867   4.604
 2646SOL     OW 8836   5.994   0.731   6.804
 2646SOL    HW1 8837   5.959   0.705   6.894
 2646SOL    HW2 8838   6.002   0.649   6.747
 2647SOL     OW 8839   6.653   0.195   2.328
 2647SOL    HW1 8840   6.740   0.236   2.303
 2647SOL    HW2 8841   6.647   0.103   2.291
 2648SOL     OW 8842   0.758   0.167   4.178
 2648SOL    HW1 8843   0.810   0.103   4.234
 2648SOL    HW2 8844   0.661   0.148   4.185
 2649SOL     OW 8845   5.503   2.900   6.953
 2649SOL    HW1 8846   5.535   2.819   6.904
 2649SOL    HW2 8847   5.531   2.983   6.903
 2650SOL     OW 8848   0.975   4.224   4.407
 2650SOL    HW1 8849   1.012   4.162   4.476
 2650SOL    HW2 8850   0.994   4.319   4.435
 2651SOL     OW 8851   1.186   0.941   0.415
 2651SOL    HW1 8852   1.196   0.996   0.498
 2651SOL    HW2 8853   1.274   0.936   0.368
 2652SOL     OW 8854   4.168   3.528   4.312
 2652SOL    HW1 8855   4.122   3.545   4.224
 2652SOL    HW2 8856   4.225   3.447   4.304
 2653SOL     OW 8857   4.884   0.110   5.026
 2653SOL    HW1 8858   4.787   0.107   5.000
 2653SOL    HW2 8859   4.905   0.202   5.059
 2654SOL     OW 8860   4.435   6.023   2.157
 2654SOL    HW1 8861   4.403   6.026   2.251
 2654SOL    HW2 8862   4.495   6.101   2.139
 2655SOL     OW 8863   4.497   6.203   4.317
 2655SOL    HW1 8864   4.473   6.211   4.414
 2655SOL    HW2 8865   4.517   6.294   4.280
 2656SOL     OW 8866   3.887   4.949   4.585
 2656SOL    HW1 8867   3.813   4.914   4.527
 2656SOL    HW2 8868   3.865   4.931   4.681
 2657SOL     OW 8869   0.739   3.959   6.185
 2657SOL    HW1 8870   0.653   3.913   6.165
 2657SOL    HW2 8871   0.813   3.916   6.133
 2658SOL     OW 8872   4.965   4.537   0.764
 2658SOL    HW1 8873   5.061   4.543   0.739
 2658SOL    HW2 8874   4.919   4.623   0.741
 2659SOL     OW 8875   5.469   3.068   4.401
 2659SOL    HW1 8876   5.436   3.140   4.463
 2659SOL    HW2 8877   5.452   2.979   4.442
 2660SOL     OW 8878   1.835   0.155   1.676
 2660SOL    HW1 8879   1.815   0.252   1.661
 2660SOL    HW2 8880   1.780   0.099   1.613
 2661SOL     OW 8881   2.406   6.776   0.997
 2661SOL    HW1 8882   2.415   6.838   1.075
 2661SOL    HW2 8883   2.440   6.821   0.914
 2662SOL     OW 8884   5.003   6.729   4.534
 2662SOL    HW1 8885   5.052   6.642   4.522
 2662SOL    HW2 8886   5.038   6.796   4.469
 2663SOL     OW 8887   2.853   4.210   6.732
 2663SOL    HW1 8888   2.942   4.175   6.764
 2663SOL    HW2 8889   2.794   4.229   6.810
 2664SOL     OW 8890   4.617   4.175   5.336
 2664SOL    HW1 8891   4.650   4.207   5.425
 2664SOL    HW2 8892   4.695   4.147   5.280
 2665SOL     OW 8893   2.545   2.768   5.250
 2665SOL    HW1 8894   2.574   2.778   5.345
 2665SOL    HW2 8895   2.498   2.851   5.221
 2666SOL     OW 8896   5.924   4.619   1.381
 2666SOL    HW1 8897   5.844   4.677   1.366
 2666SOL    HW2 8898   5.993   4.638   1.311
 2667SOL     OW 8899   0.338   6.531   3.848
 2667SOL    HW1 8900   0.420   6.502   3.897
 2667SOL    HW2 8901   0.354   6.526   3.749
 2668SOL     OW 8902   0.429   3.256   4.648
 2668SOL    HW1 8903   0.498   3.202   4.696
 2668SOL    HW2 8904   0.459   3.273   4.554
 2669SOL     OW 8905   2.790   4.672   5.388
 2669SOL    HW1 8906   2.836   4.646   5.303
 2669SOL    HW2 8907   2.795   4.596   5.453
 2670SOL     OW 8908   5.963   3.540   6.666
 2670SOL    HW1 8909   5.870   3.566   6.694
 2670SOL    HW2 8910   5.963   3.443   6.639
 2671SOL     OW 8911   4.359   5.779   5.908
 2671SOL    HW1 8912   4.446   5.773   5.860
 2671SOL    HW2 8913   4.376   5.806   6.003
 2672SOL     OW 8914   1.659   4.921   0.988
 2672SOL    HW1 8915   1.621   4.971   0.910
 2672SOL    HW2 8916   1.696   4.986   1.054
 2673SOL     OW 8917   5.657   0.666   3.087
 2673SOL    HW1 8918   5.719   0.613   3.145
 2673SOL    HW2 8919   5.709   0.705   3.010
 2674SOL     OW 8920   1.343   4.060   3.775
 2674SOL    HW1 8921   1.385   3.987   3.721
 2674SOL    HW2 8922   1.280   4.020   3.841
 2675SOL     OW 8923   6.654   5.543   3.495
 2675SOL    HW1 8924   6.607   5.624   3.460
 2675SOL    HW2 8925   6.605   5.508   3.575
 2676SOL     OW 8926   3.992   2.507   0.651
 2676SOL    HW1 8927   3.906   2.471   0.615
 2676SOL    HW2 8928   4.005   2.600   0.618
 2677SOL     OW 8929   2.999   3.761   0.473
 2677SOL    HW1 8930   3.038   3.851   0.453
 2677SOL    HW2 8931   3.043   3.692   0.414
 2678SOL     OW 8932   0.300   2.831   1.556
 2678SOL    HW1 8933   0.293   2.896   1.480
 2678SOL    HW2 8934   0.221   2.840   1.616
 2679SOL     OW 8935   3.436   4.347   0.554
 2679SOL    HW1 8936   3.343   4.326   0.584
 2679SOL    HW2 8937   3.435   4.431   0.499
 2680SOL     OW 8938   0.891   1.715   0.903
 2680SOL    HW1 8939   0.804   1.720   0.952
 2680SOL    HW2 8940   0.946   1.640   0.942
 2681SOL     OW 8941   1.331   2.702   4.170
 2681SOL    HW1 8942   1.278   2.744   4.244
 2681SOL    HW2 8943   1.273   2.640   4.118
 2682SOL     OW 8944   4.696   4.268   2.947
 2682SOL    HW1 8945   4.616   4.326   2.959
 2682SOL    HW2 8946   4.741   4.290   2.860
 2683SOL     OW 8947   2.545   4.918   1.385
 2683SOL    HW1 8948   2.480   4.890   1.455
 2683SOL    HW2 8949   2.637   4.892   1.413
 2684SOL     OW 8950   4.180   5.609   1.876
 2684SOL    HW1 8951   4.208   5.565   1.790
 2684SOL    HW2 8952   4.140   5.541   1.937
 2685SOL     OW 8953   6.204   6.621   6.657
 2685SOL    HW1 8954   6.133   6.687   6.630
 2685SOL    HW2 8955   6.266   6.605   6.580
 2686SOL     OW 8956   1.837   2.271   5.958
 2686SOL    HW1 8957   1.925   2.318   5.955
 2686SOL    HW2 8958   1.839   2.202   6.031
 2687SOL     OW 8959   4.978   4.690   1.823
 2687SOL    HW1 8960   5.011   4.758   1.757
 2687SOL    HW2 8961   5.045   4.617   1.832
 2688SOL     OW 8962   3.767   3.966   0.074
 2688SOL    HW1 8963   3.780   3.900   0.000
 2688SOL    HW2 8964   3.828   4.045   0.060
 2689SOL     OW 8965   1.418   3.826   3.654
 2689SOL    HW1 8966   1.392   3.731   3.670
 2689SOL    HW2 8967   1.444   3.837   3.558
 2690SOL     OW 8968   3.181   3.342   3.998
 2690SOL    HW1 8969   3.092   3.295   3.996
 2690SOL    HW2 8970   3.174   3.425   4.053
 2691SOL     OW 8971   1.719   5.503   2.403
 2691SOL    HW1 8972   1.814   5.472   2.414
 2691SOL    HW2 8973   1.718   5.598   2.371
 2692SOL     OW 8974   3.369   5.159   2.627
 2692SOL    HW1 8975   3.396   5.100   2.704
 2692SOL    HW2 8976   3.339   5.102   2.550
 2693SOL     OW 8977   2.359   5.585   3.130
 2693SOL    HW1 8978   2.280   5.641   3.105
 2693SOL    HW2 8979   2.432   5.645   3.163
 2694SOL     OW 8980   3.797   5.903   2.922
 2694SOL    HW1 8981   3.799   5.866   3.015
 2694SOL    HW2 8982   3.887   5.939   2.897
 2695SOL     OW 8983   5.789   0.215   2.233
 2695SOL    HW1 8984   5.691   0.219   2.216
 2695SOL    HW2 8985   5.821   0.304   2.266
 2696SOL     OW 8986   3.791   3.127   5.367
 2696SOL    HW1 8987   3.863   3.197   5.357
 2696SOL    HW2 8988   3.795   3.089   5.459
 2697SOL     OW 8989   3.279   1.891   2.613
 2697SOL    HW1 8990   3.376   1.869   2.597
 2697SOL    HW2 8991   3.222   1.841   2.548
 2698SOL     OW 8992   2.032   6.400   0.240
 2698SOL    HW1 8993   1.984   6.353   0.166
 2698SOL    HW2 8994   2.033   6.498   0.222
 2699SOL     OW 8995   2.617   6.709   0.314
 2699SOL    HW1 8996   2.671   6.788   0.286
 2699SOL    HW2 8997   2.580   6.725   0.405
 2700SOL     OW 8998   2.266   3.854   0.309
 2700SOL    HW1 8999   2.310   3.799   0.238
 2700SOL    HW2 9000   2.174   3.818   0.326
 2701SOL     OW 9001   5.868   1.787   5.768
 2701SOL    HW1 9002   5.796   1.838   5.722
 2701SOL    HW2 9003   5.828   1.720   5.830
 2702SOL     OW 9004   0.212   2.791   3.588
 2702SOL    HW1 9005   0.145   2.866   3.587
 2702SOL    HW2 9006   0.197   2.735   3.669
 2703SOL     OW 9007   1.015   0.084   1.245
 2703SOL    HW1 9008   0.960   0.048   1.170
 2703SOL    HW2 9009   1.084   0.017   1.272
 2704SOL     OW 9010   6.969   5.702   1.418
 2704SOL    HW1 9011   6.898   5.647   1.462
 2704SOL    HW2 9012   6.982   5.670   1.324
 2705SOL     OW 9013   0.121   5.708   4.545
 2705SOL    HW1 9014   0.025   5.701   4.571
 2705SOL    HW2 9015   0.131   5.694   4.447
 2706SOL     OW 9016   0.054   6.073   1.492
 2706SOL    HW1 9017   0.030   6.167   1.470
 2706SOL    HW2 9018   0.124   6.041   1.428
 2707SOL     OW 9019   3.827   6.673   4.227
 2707SOL    HW1 9020   3.887   6.612   4.278
 2707SOL    HW2 9021   3.843   6.767   4.256
 2708SOL     OW 9022   0.420   2.505   0.123
 2708SOL    HW1 9023   0.419   2.421   0.176
 2708SOL    HW2 9024   0.495   2.501   0.056
 2709SOL     OW 9025   5.633   0.238   6.940
 2709SOL    HW1 9026   5.579   0.159   6.968
 2709SOL    HW2 9027   5.715   0.208   6.891
 2710SOL     OW 9028   0.523   3.712   3.568
 2710SOL    HW1 9029   0.607   3.690   3.518
 2710SOL    HW2 9030   0.488   3.800   3.537
 2711SOL     OW 9031   2.747   0.379   3.241
 2711SOL    HW1 9032   2.795   0.458   3.201
 2711SOL    HW2 9033   2.767   0.374   3.339
 2712SOL     OW 9034   2.994   4.495   1.164
 2712SOL    HW1 9035   2.951   4.410   1.193
 2712SOL    HW2 9036   2.923   4.559   1.133
 2713SOL     OW 9037   2.680   2.411   4.539
 2713SOL    HW1 9038   2.603   2.348   4.540
 2713SOL    HW2 9039   2.647   2.504   4.555
 2714SOL     OW 9040   3.335   2.101   0.738
 2714SOL    HW1 9041   3.249   2.152   0.728
 2714SOL    HW2 9042   3.398   2.129   0.666
 2715SOL     OW 9043   5.264   1.783   0.725
 2715SOL    HW1 9044   5.225   1.869   0.756
 2715SOL    HW2 9045   5.257   1.715   0.798
 2716SOL     OW 9046   4.945   4.260   2.293
 2716SOL    HW1 9047   4.871   4.233   2.232
 2716SOL    HW2 9048   5.031   4.260   2.241
 2717SOL     OW 9049   0.814   6.331   2.384
 2717SOL    HW1 9050   0.766   6.245   2.395
 2717SOL    HW2 9051   0.749   6.403   2.359
 2718SOL     OW 9052   1.698   2.054   5.015
 2718SOL    HW1 9053   1.664   2.017   5.102
 2718SOL    HW2 9054   1.742   1.981   4.963
 2719SOL     OW 9055   7.022   5.327   1.033
 2719SOL    HW1 9056   6.997   5.343   0.938
 2719SOL    HW2 9057   6.973   5.246   1.067
 2720SOL     OW 9058   2.297   5.935   1.960
 2720SOL    HW1 9059   2.347   5.863   2.008
 2720SOL    HW2 9060   2.216   5.960   2.014
 2721SOL     OW 9061   2.767   6.741   3.270
 2721SOL    HW1 9062   2.745   6.687   3.352
 2721SOL    HW2 9063   2.828   6.687   3.211
 2722SOL     OW 9064   6.859   5.390   0.771
 2722SOL    HW1 9065   6.770   5.430   0.752
 2722SOL    HW2 9066   6.930   5.446   0.728
 2723SOL     OW 9067   0.766   0.088   6.406
 2723SOL    HW1 9068   0.783   0.186   6.406
 2723SOL    HW2 9069   0.843   0.041   6.449
 2724SOL     OW 9070   1.774   6.565   6.978
 2724SOL    HW1 9071   1.777   6.654   0.001
 2724SOL    HW2 9072   1.831   6.570   6.895
 2725SOL     OW 9073   5.144   5.132   4.535
 2725SOL    HW1 9074   5.142   5.074   4.617
 2725SOL    HW2 9075   5.118   5.225   4.560
 2726SOL     OW 9076   0.230   2.550   0.893
 2726SOL    HW1 9077   0.134   2.533   0.915
 2726SOL    HW2 9078   0.279   2.463   0.885
 2727SOL     OW 9079   0.577   5.342   3.180
 2727SOL    HW1 9080   0.636   5.261   3.189
 2727SOL    HW2 9081   0.527   5.356   3.265
 2728SOL     OW 9082   4.702   6.650   5.661
 2728SOL    HW1 9083   4.783   6.592   5.677
 2728SOL    HW2 9084   4.678   6.647   5.564
 2729SOL     OW 9085   6.909   5.738   0.924
 2729SOL    HW1 9086   6.968   5.678   0.978
 2729SOL    HW2 9087   6.949   5.753   0.834
 2730SOL     OW 9088   1.474   5.653   1.645
 2730SOL    HW1 9089   1.376   5.662   1.664
 2730SOL    HW2 9090   1.494   5.691   1.555
 2731SOL     OW 9091   3.975   3.919   3.044
 2731SOL    HW1 9092   3.989   3.863   3.126
 2731SOL    HW2 9093   4.054   3.910   2.984
 2732SOL     OW 9094   5.489   1.999   1.796
 2732SOL    HW1 9095   5.582   1.963   1.796
 2732SOL    HW2 9096   5.424   1.923   1.810
 2733SOL     OW 9097   6.499   1.253   4.754
 2733SOL    HW1 9098   6.578   1.304   4.719
 2733SOL    HW2 9099   6.506   1.245   4.853
 2734SOL     OW 9100   2.534   6.100   1.290
 2734SOL    HW1 9101   2.437   6.098   1.265
 2734SOL    HW2 9102   2.545   6.063   1.382
 2735SOL     OW 9103   1.154   3.629   2.368
 2735SOL    HW1 9104   1.083   3.579   2.418
 2735SOL    HW2 9105   1.207   3.685   2.431
 2736SOL     OW 9106   5.146   6.945   5.311
 2736SOL    HW1 9107   5.205   6.973   5.235
 2736SOL    HW2 9108   5.164   6.848   5.332
 2737SOL     OW 9109   3.116   3.441   6.343
 2737SOL    HW1 9110   3.194   3.436   6.281
 2737SOL    HW2 9111   3.084   3.536   6.349
 2738SOL     OW 9112   4.931   6.189   2.222
 2738SOL    HW1 9113   4.905   6.224   2.312
 2738SOL    HW2 9114   4.982   6.260   2.172
 2739SOL     OW 9115   0.072   5.069   1.506
 2739SOL    HW1 9116   0.008   5.084   1.581
 2739SOL    HW2 9117   0.165   5.077   1.540
 2740SOL     OW 9118   0.185   3.953   2.259
 2740SOL    HW1 9119   0.190   4.032   2.320
 2740SOL    HW2 9120   0.241   3.971   2.177
 2741SOL     OW 9121   6.185   0.492   4.692
 2741SOL    HW1 9122   6.280   0.464   4.705
 2741SOL    HW2 9123   6.175   0.541   4.606
 2742SOL     OW 9124   2.202   5.514   6.648
 2742SOL    HW1 9125   2.275   5.508   6.581
 2742SOL    HW2 9126   2.209   5.600   6.698
 2743SOL     OW 9127   6.477   4.539   2.269
 2743SOL    HW1 9128   6.460   4.557   2.366
 2743SOL    HW2 9129   6.567   4.573   2.243
 2744SOL     OW 9130   5.216   1.965   6.397
 2744SOL    HW1 9131   5.294   1.998   6.344
 2744SOL    HW2 9132   5.137   2.025   6.381
 2745SOL     OW 9133   6.700   0.171   6.222
 2745SOL    HW1 9134   6.678   0.188   6.126
 2745SOL    HW2 9135   6.631   0.111   6.262
 2746SOL     OW 9136   2.637   1.975   3.769
 2746SOL    HW1 9137   2.537   1.968   3.763
 2746SOL    HW2 9138   2.665   2.068   3.746
 2747SOL     OW 9139   6.428   3.808   6.875
 2747SOL    HW1 9140   6.497   3.855   6.929
 2747SOL    HW2 9141   6.462   3.791   6.783
 2748SOL     OW 9142   4.951   1.352   1.063
 2748SOL    HW1 9143   4.913   1.403   1.139
 2748SOL    HW2 9144   4.905   1.264   1.055
 2749SOL     OW 9145   0.005   4.904   2.431
 2749SOL    HW1 9146   6.960   4.896   2.504
 2749SOL    HW2 9147   0.096   4.906   2.472
 2750SOL     OW 9148   0.668   5.113   0.979
 2750SOL    HW1 9149   0.739   5.096   1.047
 2750SOL    HW2 9150   0.579   5.086   1.016
 2751SOL     OW 9151   1.171   5.090   1.535
 2751SOL    HW1 9152   1.264   5.064   1.508
 2751SOL    HW2 9153   1.107   5.018   1.505
 2752SOL     OW 9154   4.168   5.599   5.857
 2752SOL    HW1 9155   4.201   5.507   5.876
 2752SOL    HW2 9156   4.241   5.666   5.875
 2753SOL     OW 9157   0.441   6.037   5.546
 2753SOL    HW1 9158   0.438   6.017   5.449
 2753SOL    HW2 9159   0.522   5.994   5.587
 2754SOL     OW 9160   0.402   0.578   2.433
 2754SOL    HW1 9161   0.462   0.579   2.514
 2754SOL    HW2 9162   0.316   0.532   2.456
 2755SOL     OW 9163   2.220   6.859   3.250
 2755SOL    HW1 9164   2.260   6.768   3.247
 2755SOL    HW2 9165   2.176   6.880   3.163
 2756SOL     OW 9166   6.062   4.644   6.800
 2756SOL    HW1 9167   5.998   4.689   6.862
 2756SOL    HW2 9168   6.048   4.678   6.707
 2757SOL     OW 9169   2.535   0.518   6.761
 2757SOL    HW1 9170   2.475   0.462   6.704
 2757SOL    HW2 9171   2.533   0.485   6.855
 2758SOL     OW 9172   4.121   6.248   4.205
 2758SOL    HW1 9173   4.178   6.327   4.183
 2758SOL    HW2 9174   4.065   6.224   4.126
 2759SOL     OW 9175   5.324   5.943   5.171
 2759SOL    HW1 9176   5.311   5.928   5.073
 2759SOL    HW2 9177   5.245   5.992   5.207
 2760SOL     OW 9178   0.904   5.749   2.642
 2760SOL    HW1 9179   0.824   5.693   2.622
 2760SOL    HW2 9180   0.940   5.788   2.557
 2761SOL     OW 9181   1.771   4.797   5.103
 2761SOL    HW1 9182   1.736   4.806   5.010
 2761SOL    HW2 9183   1.869   4.816   5.104
 2762SOL     OW 9184   1.752   0.431   5.566
 2762SOL    HW1 9185   1.669   0.402   5.517
 2762SOL    HW2 9186   1.816   0.473   5.502
 2763SOL     OW 9187   4.782   2.413   3.702
 2763SOL    HW1 9188   4.757   2.317   3.697
 2763SOL    HW2 9189   4.700   2.469   3.692
 2764SOL     OW 9190   6.581   1.016   1.207
 2764SOL    HW1 9191   6.594   1.059   1.296
 2764SOL    HW2 9192   6.505   0.951   1.212
 2765SOL     OW 9193   6.707   0.061   0.181
 2765SOL    HW1 9194   6.801   0.095   0.191
 2765SOL    HW2 9195   6.666   0.100   0.099
 2766SOL     OW 9196   5.038   2.669   0.514
 2766SOL    HW1 9197   5.036   2.574   0.546
 2766SOL    HW2 9198   5.086   2.726   0.580
 2767SOL     OW 9199   6.474   5.094   0.390
 2767SOL    HW1 9200   6.469   5.192   0.368
 2767SOL    HW2 9201   6.491   5.084   0.488
 2768SOL     OW 9202   4.217   0.860   0.930
 2768SOL    HW1 9203   4.296   0.911   0.965
 2768SOL    HW2 9204   4.171   0.914   0.859
 2769SOL     OW 9205   1.898   4.844   5.622
 2769SOL    HW1 9206   1.965   4.842   5.548
 2769SOL    HW2 9207   1.932   4.902   5.696
 2770SOL     OW 9208   4.039   5.854   6.000
 2770SOL    HW1 9209   4.070   5.946   5.978
 2770SOL    HW2 9210   4.115   5.803   6.043
 2771SOL     OW 9211   6.409   0.809   3.723
 2771SOL    HW1 9212   6.323   0.860   3.713
 2771SOL    HW2 9213   6.440   0.814   3.818
 2772SOL     OW 9214   4.053   2.020   0.553
 2772SOL    HW1 9215   3.964   1.981   0.530
 2772SOL    HW2 9216   4.050   2.119   0.540
 2773SOL     OW 9217   6.065   1.767   4.773
 2773SOL    HW1 9218   5.992   1.803   4.832
 2773SOL    HW2 9219   6.063   1.667   4.775
 2774SOL     OW 9220   5.275   2.985   3.052
 2774SOL    HW1 9221   5.372   2.981   3.075
 2774SOL    HW2 9222   5.237   2.892   3.053
 2775SOL     OW 9223   6.824   4.622   5.482
 2775SOL    HW1 9224   6.801   4.717   5.501
 2775SOL    HW2 9225   6.740   4.568   5.474
 2776SOL     OW 9226   4.813   4.851   6.040
 2776SOL    HW1 9227   4.801   4.767   5.988
 2776SOL    HW2 9228   4.832   4.829   6.136
 2777SOL     OW 9229   2.825   1.756   1.047
 2777SOL    HW1 9230   2.850   1.715   1.135
 2777SOL    HW2 9231   2.792   1.849   1.062
 2778SOL     OW 9232   1.513   6.927   5.417
 2778SOL    HW1 9233   1.602   6.940   5.372
 2778SOL    HW2 9234   1.477   6.837   5.394
 2779SOL     OW 9235   5.196   6.868   2.175
 2779SOL    HW1 9236   5.193   6.932   2.098
 2779SOL    HW2 9237   5.290   6.838   2.190
 2780SOL     OW 9238   0.730   6.699   0.088
 2780SOL    HW1 9239   0.784   6.618   0.064
 2780SOL    HW2 9240   0.634   6.672   0.101
 2781SOL     OW 9241   5.923   0.268   1.912
 2781SOL    HW1 9242   5.966   0.180   1.894
 2781SOL    HW2 9243   5.988   0.328   1.958
 2782SOL     OW 9244   4.841   1.673   5.375
 2782SOL    HW1 9245   4.742   1.672   5.361
 2782SOL    HW2 9246   4.886   1.642   5.291
 2783SOL     OW 9247   5.215   4.148   2.870
 2783SOL    HW1 9248   5.265   4.071   2.829
 2783SOL    HW2 9249   5.196   4.128   2.966
 2784SOL     OW 9250   3.427   1.636   2.440
 2784SOL    HW1 9251   3.466   1.680   2.521
 2784SOL    HW2 9252   3.354   1.574   2.468
 2785SOL     OW 9253   5.527   2.570   0.775
 2785SOL    HW1 9254   5.559   2.477   0.758
 2785SOL    HW2 9255   5.518   2.586   0.873
 2786SOL     OW 9256   5.027   0.269   2.517
 2786SOL    HW1 9257   4.988   0.184   2.482
 2786SOL    HW2 9258   5.101   0.247   2.581
 2787SOL     OW 9259   5.507   0.334   6.252
 2787SOL    HW1 9260   5.486   0.417   6.201
 2787SOL    HW2 9261   5.422   0.288   6.278
 2788SOL     OW 9262   1.545   5.781   5.710
 2788SOL    HW1 9263   1.640   5.789   5.681
 2788SOL    HW2 9264   1.524   5.685   5.728
 2789SOL     OW 9265   1.198   2.301   4.147
 2789SOL    HW1 9266   1.281   2.253   4.174
 2789SOL    HW2 9267   1.221   2.375   4.084
 2790SOL     OW 9268   3.769   6.216   2.036
 2790SOL    HW1 9269   3.824   6.133   2.026
 2790SOL    HW2 9270   3.828   6.291   2.067
 2791SOL     OW 9271   0.735   2.630   2.955
 2791SOL    HW1 9272   0.779   2.541   2.967
 2791SOL    HW2 9273   0.673   2.648   3.032
 2792SOL     OW 9274   1.837   0.385   4.029
 2792SOL    HW1 9275   1.855   0.289   4.053
 2792SOL    HW2 9276   1.834   0.440   4.112
 2793SOL     OW 9277   5.283   4.042   1.599
 2793SOL    HW1 9278   5.331   3.975   1.542
 2793SOL    HW2 9279   5.222   4.097   1.542
 2794SOL     OW 9280   0.047   2.027   6.246
 2794SOL    HW1 9281   0.144   2.009   6.260
 2794SOL    HW2 9282   7.017   1.984   6.318
 2795SOL     OW 9283   1.007   3.159   0.810
 2795SOL    HW1 9284   1.016   3.201   0.900
 2795SOL    HW2 9285   1.065   3.078   0.804
 2796SOL     OW 9286   0.568   6.359   3.218
 2796SOL    HW1 9287   0.596   6.450   3.187
 2796SOL    HW2 9288   0.617   6.336   3.302
 2797SOL     OW 9289   4.995   5.475   4.775
 2797SOL    HW1 9290   4.903   5.437   4.786
 2797SOL    HW2 9291   5.027   5.455   4.682
 2798SOL     OW 9292   0.080   5.218   2.313
 2798SOL    HW1 9293   0.178   5.238   2.325
 2798SOL    HW2 9294   0.061   5.126   2.347
 2799SOL     OW 9295   6.048   5.784   5.970
 2799SOL    HW1 9296   6.003   5.870   5.992
 2799SOL    HW2 9297   6.142   5.786   6.004
 2800SOL     OW 9298   4.788   6.210   6.732
 2800SOL    HW1 9299   4.876   6.252   6.755
 2800SOL    HW2 9300   4.804   6.119   6.693
 2801SOL     OW 9301   6.848   5.868   5.762
 2801SOL    HW1 9302   6.856   5.901   5.668
 2801SOL    HW2 9303   6.918   5.913   5.819
 2802SOL     OW 9304   5.580   6.293   5.352
 2802SOL    HW1 9305   5.629   6.372   5.315
 2802SOL    HW2 9306   5.610   6.276   5.446
 2803SOL     OW 9307   4.337   5.871   6.179
 2803SOL    HW1 9308   4.398   5.826   6.245
 2803SOL    HW2 9309   4.375   5.959   6.153
 2804SOL     OW 9310   0.302   4.337   5.498
 2804SOL    HW1 9311   0.222   4.312   5.443
 2804SOL    HW2 9312   0.280   4.327   5.595
 2805SOL     OW 9313   6.253   3.624   2.314
 2805SOL    HW1 9314   6.197   3.703   2.290
 2805SOL    HW2 9315   6.336   3.624   2.258
 2806SOL     OW 9316   0.274   4.095   5.881
 2806SOL    HW1 9317   0.349   4.100   5.947
 2806SOL    HW2 9318   0.308   4.059   5.794
 2807SOL     OW 9319   3.600   6.886   4.378
 2807SOL    HW1 9320   3.532   6.912   4.310
 2807SOL    HW2 9321   3.692   6.903   4.342
 2808SOL     OW 9322   6.639   4.966   1.881
 2808SOL    HW1 9323   6.676   4.940   1.970
 2808SOL    HW2 9324   6.664   4.897   1.813
 2809SOL     OW 9325   5.452   2.600   1.082
 2809SOL    HW1 9326   5.449   2.683   1.026
 2809SOL    HW2 9327   5.451   2.626   1.179
 2810SOL     OW 9328   2.779   5.616   3.228
 2810SOL    HW1 9329   2.861   5.579   3.184
 2810SOL    HW2 9330   2.764   5.568   3.314
 2811SOL     OW 9331   0.929   2.314   4.258
 2811SOL    HW1 9332   1.023   2.301   4.227
 2811SOL    HW2 9333   0.929   2.330   4.357
 2812SOL     OW 9334   5.054   2.773   6.723
 2812SOL    HW1 9335   5.145   2.804   6.751
 2812SOL    HW2 9336   5.060   2.679   6.689
 2813SOL     OW 9337   0.898   0.306   6.369
 2813SOL    HW1 9338   0.954   0.264   6.298
 2813SOL    HW2 9339   0.941   0.393   6.397
 2814SOL     OW 9340   3.684   3.804   5.878
 2814SOL    HW1 9341   3.734   3.727   5.839
 2814SOL    HW2 9342   3.632   3.850   5.806
 2815SOL     OW 9343   6.636   6.068   6.463
 2815SOL    HW1 9344   6.608   6.142   6.402
 2815SOL    HW2 9345   6.558   6.007   6.478
 2816SOL     OW 9346   6.330   5.487   3.391
 2816SOL    HW1 9347   6.321   5.399   3.439
 2816SOL    HW2 9348   6.422   5.522   3.403
 2817SOL     OW 9349   2.928   0.079   1.768
 2817SOL    HW1 9350   2.905   0.021   1.847
 2817SOL    HW2 9351   2.953   0.170   1.800
 2818SOL     OW 9352   0.441   0.549   2.106
 2818SOL    HW1 9353   0.397   0.550   2.195
 2818SOL    HW2 9354   0.539   0.570   2.116
 2819SOL     OW 9355   1.978   0.598   1.846
 2819SOL    HW1 9356   2.045   0.574   1.776
 2819SOL    HW2 9357   1.911   0.662   1.807
 2820SOL     OW 9358   0.789   2.312   3.450
 2820SOL    HW1 9359   0.818   2.393   3.400
 2820SOL    HW2 9360   0.702   2.331   3.496
 2821SOL     OW 9361   3.739   4.155   6.142
 2821SOL    HW1 9362   3.763   4.133   6.047
 2821SOL    HW2 9363   3.664   4.096   6.172
 2822SOL     OW 9364   3.785   2.176   0.536
 2822SOL    HW1 9365   3.780   2.123   0.621
 2822SOL    HW2 9366   3.762   2.271   0.555
 2823SOL     OW 9367   5.039   0.829   0.970
 2823SOL    HW1 9368   4.968   0.839   1.040
 2823SOL    HW2 9369   5.048   0.915   0.919
 2824SOL     OW 9370   2.605   1.142   3.936
 2824SOL    HW1 9371   2.515   1.185   3.947
 2824SOL    HW2 9372   2.626   1.133   3.839
 2825SOL     OW 9373   5.052   6.316   6.668
 2825SOL    HW1 9374   5.106   6.313   6.752
 2825SOL    HW2 9375   5.071   6.401   6.619
 2826SOL     OW 9376   4.715   1.419   6.813
 2826SOL    HW1 9377   4.758   1.416   6.723
 2826SOL    HW2 9378   4.684   1.328   6.838
 2827SOL     OW 9379   0.955   1.611   6.551
 2827SOL    HW1 9380   0.909   1.559   6.479
 2827SOL    HW2 9381   1.052   1.618   6.529
 2828SOL     OW 9382   2.704   1.646   0.357
 2828SOL    HW1 9383   2.789   1.616   0.315
 2828SOL    HW2 9384   2.629   1.638   0.291
 2829SOL     OW 9385   2.894   3.348   4.739
 2829SOL    HW1 9386   2.945   3.271   4.777
 2829SOL    HW2 9387   2.796   3.329   4.743
 2830SOL     OW 9388   3.218   4.002   5.590
 2830SOL    HW1 9389   3.183   3.921   5.637
 2830SOL    HW2 9390   3.223   3.983   5.491
 2831SOL     OW 9391   1.157   4.276   3.169
 2831SOL    HW1 9392   1.200   4.304   3.083
 2831SOL    HW2 9393   1.068   4.320   3.178
 2832SOL     OW 9394   1.274   3.057   1.939
 2832SOL    HW1 9395   1.373   3.044   1.945
 2832SOL    HW2 9396   1.240   3.017   1.854
 2833SOL     OW 9397   2.824   1.566   2.066
 2833SOL    HW1 9398   2.759   1.554   1.990
 2833SOL    HW2 9399   2.783   1.626   2.135
 2834SOL     OW 9400   4.324   6.695   6.057
 2834SOL    HW1 9401   4.243   6.647   6.090
 2834SOL    HW2 9402   4.325   6.788   6.095
 2835SOL     OW 9403   0.464   5.827   1.396
 2835SOL    HW1 9404   0.394   5.808   1.465
 2835SOL    HW2 9405   0.554   5.799   1.432
 2836SOL     OW 9406   0.482   6.590   2.066
 2836SOL    HW1 9407   0.402   6.536   2.040
 2836SOL    HW2 9408   0.536   6.611   1.985
 2837SOL     OW 9409   4.534   4.431   2.252
 2837SOL    HW1 9410   4.535   4.376   2.168
 2837SOL    HW2 9411   4.621   4.419   2.300
 2838SOL     OW 9412   3.948   4.049   0.949
 2838SOL    HW1 9413   3.943   3.976   0.881
 2838SOL    HW2 9414   4.035   4.098   0.939
 2839SOL     OW 9415   6.700   1.950   2.549
 2839SOL    HW1 9416   6.710   2.017   2.475
 2839SOL    HW2 9417   6.737   1.988   2.633
 2840SOL     OW 9418   1.663   0.280   2.016
 2840SOL    HW1 9419   1.603   0.300   2.093
 2840SOL    HW2 9420   1.666   0.181   2.001
 2841SOL     OW 9421   0.161   1.279   6.240
 2841SOL    HW1 9422   0.257   1.261   6.260
 2841SOL    HW2 9423   0.152   1.315   6.147
 2842SOL     OW 9424   6.793   4.616   4.026
 2842SOL    HW1 9425   6.761   4.705   4.059
 2842SOL    HW2 9426   6.893   4.612   4.033
 2843SOL     OW 9427   2.157   1.807   3.028
 2843SOL    HW1 9428   2.105   1.779   3.108
 2843SOL    HW2 9429   2.162   1.907   3.025
 2844SOL     OW 9430   6.332   5.315   0.174
 2844SOL    HW1 9431   6.291   5.378   0.108
 2844SOL    HW2 9432   6.387   5.247   0.126
 2845SOL     OW 9433   5.768   3.450   2.425
 2845SOL    HW1 9434   5.831   3.493   2.360
 2845SOL    HW2 9435   5.704   3.392   2.376
 2846SOL     OW 9436   4.177   0.591   6.839
 2846SOL    HW1 9437   4.264   0.581   6.790
 2846SOL    HW2 9438   4.162   0.687   6.862
 2847SOL     OW 9439   5.514   4.201   3.071
 2847SOL    HW1 9440   5.450   4.135   3.110
 2847SOL    HW2 9441   5.596   4.153   3.040
 2848SOL     OW 9442   2.140   2.555   5.388
 2848SOL    HW1 9443   2.189   2.604   5.316
 2848SOL    HW2 9444   2.070   2.496   5.348
 2849SOL     OW 9445   4.665   0.292   1.258
 2849SOL    HW1 9446   4.714   0.358   1.201
 2849SOL    HW2 9447   4.585   0.259   1.208
 2850SOL     OW 9448   1.752   6.849   2.537
 2850SOL    HW1 9449   1.678   6.796   2.496
 2850SOL    HW2 9450   1.796   6.794   2.609
 2851SOL     OW 9451   5.736   2.254   5.946
 2851SOL    HW1 9452   5.812   2.218   6.000
 2851SOL    HW2 9453   5.770   2.286   5.858
 2852SOL     OW 9454   6.849   4.112   6.876
 2852SOL    HW1 9455   6.769   4.130   6.818
 2852SOL    HW2 9456   6.868   4.193   6.932
 2853SOL     OW 9457   1.981   1.847   6.312
 2853SOL    HW1 9458   1.953   1.943   6.298
 2853SOL    HW2 9459   2.004   1.806   6.224
 2854SOL     OW 9460   4.550   0.904   5.722
 2854SOL    HW1 9461   4.630   0.876   5.669
 2854SOL    HW2 9462   4.573   0.982   5.779
 2855SOL     OW 9463   1.904   1.944   5.724
 2855SOL    HW1 9464   1.850   2.019   5.685
 2855SOL    HW2 9465   2.001   1.966   5.717
 2856SOL     OW 9466   0.506   3.728   5.709
 2856SOL    HW1 9467   0.457   3.642   5.698
 2856SOL    HW2 9468   0.603   3.709   5.722
 2857SOL     OW 9469   1.879   2.711   1.733
 2857SOL    HW1 9470   1.925   2.665   1.809
 2857SOL    HW2 9471   1.822   2.785   1.768
 2858SOL     OW 9472   4.812   4.642   2.030
 2858SOL    HW1 9473   4.889   4.657   1.968
 2858SOL    HW2 9474   4.735   4.699   2.002
 2859SOL     OW 9475   5.875   6.997   0.125
 2859SOL    HW1 9476   5.852   0.058   0.173
 2859SOL    HW2 9477   5.808   6.926   0.149
 2860SOL     OW 9478   2.110   1.592   1.771
 2860SOL    HW1 9479   2.062   1.534   1.704
 2860SOL    HW2 9480   2.170   1.535   1.827
 2861SOL     OW 9481   3.306   4.979   6.049
 2861SOL    HW1 9482   3.285   4.881   6.047
 2861SOL    HW2 9483   3.301   5.012   6.143
 2862SOL     OW 9484   4.270   1.721   2.130
 2862SOL    HW1 9485   4.359   1.731   2.086
 2862SOL    HW2 9486   4.233   1.630   2.110
 2863SOL     OW 9487   4.786   2.063   6.642
 2863SOL    HW1 9488   4.857   2.064   6.713
 2863SOL    HW2 9489   4.785   1.974   6.597
 2864SOL     OW 9490   5.044   1.954   1.690
 2864SOL    HW1 9491   4.981   1.962   1.768
 2864SOL    HW2 9492   5.136   1.935   1.724
 2865SOL     OW 9493   4.375   6.223   4.769
 2865SOL    HW1 9494   4.285   6.227   4.812
 2865SOL    HW2 9495   4.395   6.310   4.725
 2866SOL     OW 9496   5.994   5.101   6.508
 2866SOL    HW1 9497   5.978   5.134   6.601
 2866SOL    HW2 9498   6.060   5.161   6.462
 2867SOL     OW 9499   6.144   6.395   2.974
 2867SOL    HW1 9500   6.116   6.471   3.033
 2867SOL    HW2 9501   6.072   6.375   2.908
 2868SOL     OW 9502   1.796   1.404   4.994
 2868SOL    HW1 9503   1.738   1.466   4.943
 2868SOL    HW2 9504   1.739   1.339   5.045
 2869SOL     OW 9505   6.858   0.912   3.207
 2869SOL    HW1 9506   6.936   0.953   3.254
 2869SOL    HW2 9507   6.826   0.833   3.258
 2870SOL     OW 9508   0.099   1.726   5.618
 2870SOL    HW1 9509   0.079   1.739   5.521
 2870SOL    HW2 9510   0.049   1.646   5.651
 2871SOL     OW 9511   6.793   1.457   6.844
 2871SOL    HW1 9512   6.726   1.531   6.857
 2871SOL    HW2 9513   6.828   1.461   6.750
 2872SOL     OW 9514   2.825   1.989   1.959
 2872SOL    HW1 9515   2.925   1.992   1.955
 2872SOL    HW2 9516   2.789   2.078   1.985
 2873SOL     OW 9517   6.828   5.854   2.744
 2873SOL    HW1 9518   6.901   5.877   2.808
 2873SOL    HW2 9519   6.740   5.883   2.781
 2874SOL     OW 9520   4.936   0.045   3.223
 2874SOL    HW1 9521   4.898   0.061   3.314
 2874SOL    HW2 9522   4.937   0.131   3.172
 2875SOL     OW 9523   5.271   0.235   1.788
 2875SOL    HW1 9524   5.232   0.262   1.700
 2875SOL    HW2 9525   5.351   0.293   1.807
 2876SOL     OW 9526   1.877   0.523   2.434
 2876SOL    HW1 9527   1.919   0.461   2.500
 2876SOL    HW2 9528   1.942   0.543   2.361
 2877SOL     OW 9529   2.023   1.569   5.152
 2877SOL    HW1 9530   2.122   1.579   5.145
 2877SOL    HW2 9531   1.987   1.530   5.067
 2878SOL     OW 9532   4.061   4.401   5.296
 2878SOL    HW1 9533   4.149   4.402   5.248
 2878SOL    HW2 9534   4.045   4.490   5.339
 2879SOL     OW 9535   5.091   4.723   6.470
 2879SOL    HW1 9536   5.160   4.665   6.514
 2879SOL    HW2 9537   5.069   4.800   6.530
 2880SOL     OW 9538   0.323   1.608   2.909
 2880SOL    HW1 9539   0.277   1.536   2.857
 2880SOL    HW2 9540   0.391   1.568   2.970
 2881SOL     OW 9541   4.450   6.007   6.489
 2881SOL    HW1 9542   4.525   6.066   6.459
 2881SOL    HW2 9543   4.362   6.052   6.471
 2882SOL     OW 9544   0.058   5.406   2.081
 2882SOL    HW1 9545   0.050   5.321   2.134
 2882SOL    HW2 9546   7.007   5.467   2.105
 2883SOL     OW 9547   6.115   0.590   3.293
 2883SOL    HW1 9548   6.157   0.676   3.321
 2883SOL    HW2 9549   6.143   0.517   3.356
 2884SOL     OW 9550   1.112   6.860   3.568
 2884SOL    HW1 9551   1.015   6.838   3.572
 2884SOL    HW2 9552   1.165   6.789   3.614
 2885SOL     OW 9553   1.816   4.148   3.821
 2885SOL    HW1 9554   1.898   4.191   3.782
 2885SOL    HW2 9555   1.784   4.202   3.899
 2886SOL     OW 9556   1.234   3.219   6.054
 2886SOL    HW1 9557   1.164   3.206   6.124
 2886SOL    HW2 9558   1.204   3.177   5.968
 2887SOL     OW 9559   0.471   0.634   5.590
 2887SOL    HW1 9560   0.523   0.655   5.672
 2887SOL    HW2 9561   0.379   0.603   5.616
 2888SOL     OW 9562   6.850   4.205   6.559
 2888SOL    HW1 9563   6.814   4.112   6.552
 2888SOL    HW2 9564   6.792   4.259   6.620
 2889SOL     OW 9565   2.649   6.449   2.413
 2889SOL    HW1 9566   2.729   6.397   2.445
 2889SOL    HW2 9567   2.679   6.538   2.379
 2890SOL     OW 9568   1.314   5.887   0.330
 2890SOL    HW1 9569   1.295   5.802   0.280
 2890SOL    HW2 9570   1.372   5.946   0.274
 2891SOL     OW 9571   0.630   4.615   3.172
 2891SOL    HW1 9572   0.711   4.629   3.115
 2891SOL    HW2 9573   0.654   4.560   3.252
 2892SOL     OW 9574   6.292   3.328   0.978
 2892SOL    HW1 9575   6.255   3.281   0.898
 2892SOL    HW2 9576   6.247   3.417   0.989
 2893SOL     OW 9577   0.148   5.187   4.206
 2893SOL    HW1 9578   0.127   5.278   4.240
 2893SOL    HW2 9579   0.125   5.181   4.109
 2894SOL     OW 9580   0.642   2.969   1.861
 2894SOL    HW1 9581   0.595   3.056   1.878
 2894SOL    HW2 9582   0.632   2.910   1.941
 2895SOL     OW 9583   5.186   1.667   5.485
 2895SOL    HW1 9584   5.251   1.636   5.416
 2895SOL    HW2 9585   5.103   1.611   5.481
 2896SOL     OW 9586   4.475   6.469   5.502
 2896SOL    HW1 9587   4.479   6.557   5.454
 2896SOL    HW2 9588   4.566   6.427   5.500
 2897SOL     OW 9589   3.690   4.902   2.919
 2897SOL    HW1 9590   3.733   4.813   2.910
 2897SOL    HW2 9591   3.630   4.902   3.000
 2898SOL     OW 9592   4.476   4.505   4.018
 2898SOL    HW1 9593   4.447   4.574   4.085
 2898SOL    HW2 9594   4.482   4.546   3.927
 2899SOL     OW 9595   0.659   1.950   0.263
 2899SOL    HW1 9596   0.755   1.925   0.249
 2899SOL    HW2 9597   0.617   1.974   0.176
 2900SOL     OW 9598   2.170   4.042   6.023
 2900SOL    HW1 9599   2.233   3.974   6.058
 2900SOL    HW2 9600   2.078   4.003   6.016
 2901SOL     OW 9601   2.162   4.808   3.169
 2901SOL    HW1 9602   2.096   4.833   3.240
 2901SOL    HW2 9603   2.141   4.717   3.134
 2902SOL     OW 9604   5.584   5.287   3.210
 2902SOL    HW1 9605   5.506   5.339   3.244
 2902SOL    HW2 9606   5.609   5.217   3.276
 2903SOL     OW 9607   3.776   0.318   0.424
 2903SOL    HW1 9608   3.791   0.400   0.370
 2903SOL    HW2 9609   3.704   0.262   0.381
 2904SOL     OW 9610   2.380   4.971   4.232
 2904SOL    HW1 9611   2.371   5.003   4.137
 2904SOL    HW2 9612   2.440   4.891   4.234
 2905SOL     OW 9613   1.195   2.984   4.572
 2905SOL    HW1 9614   1.151   3.072   4.553
 2905SOL    HW2 9615   1.127   2.922   4.612
 2906SOL     OW 9616   5.073   5.160   2.244
 2906SOL    HW1 9617   5.144   5.212   2.197
 2906SOL    HW2 9618   4.998   5.221   2.268
 2907SOL     OW 9619   0.330   1.159   3.951
 2907SOL    HW1 9620   0.336   1.197   4.044
 2907SOL    HW2 9621   0.235   1.153   3.923
 2908SOL     OW 9622   5.167   6.619   3.856
 2908SOL    HW1 9623   5.118   6.634   3.770
 2908SOL    HW2 9624   5.260   6.586   3.836
 2909SOL     OW 9625   1.508   5.434   4.255
 2909SOL    HW1 9626   1.533   5.465   4.347
 2909SOL    HW2 9627   1.565   5.355   4.230
 2910SOL     OW 9628   5.399   1.007   4.519
 2910SOL    HW1 9629   5.365   0.919   4.488
 2910SOL    HW2 9630   5.340   1.080   4.484
 2911SOL     OW 9631   1.099   5.764   3.695
 2911SOL    HW1 9632   1.071   5.744   3.601
 2911SOL    HW2 9633   1.050   5.703   3.758
 2912SOL     OW 9634   5.342   0.047   0.211
 2912SOL    HW1 9635   5.401   0.118   0.248
 2912SOL    HW2 9636   5.396   7.011   0.151
 2913SOL     OW 9637   3.305   5.078   2.087
 2913SOL    HW1 9638   3.214   5.075   2.046
 2913SOL    HW2 9639   3.316   5.000   2.149
 2914SOL     OW 9640   6.312   6.584   6.054
 2914SOL    HW1 9641   6.298   6.494   6.095
 2914SOL    HW2 9642   6.405   6.615   6.072
 2915SOL     OW 9643   3.421   1.998   3.995
 2915SOL    HW1 9644   3.423   2.007   3.895
 2915SOL    HW2 9645   3.345   2.051   4.031
 2916SOL     OW 9646   1.089   5.601   0.464
 2916SOL    HW1 9647   1.045   5.586   0.552
 2916SOL    HW2 9648   1.156   5.528   0.448
 2917SOL     OW 9649   2.605   0.421   3.010
 2917SOL    HW1 9650   2.640   0.406   3.102
 2917SOL    HW2 9651   2.576   0.517   3.000
 2918SOL     OW 9652   5.870   4.457   5.182
 2918SOL    HW1 9653   5.923   4.541   5.166
 2918SOL    HW2 9654   5.799   4.449   5.112
 2919SOL     OW 9655   5.438   0.927   2.399
 2919SOL    HW1 9656   5.435   1.003   2.464
 2919SOL    HW2 9657   5.445   0.841   2.450
 2920SOL     OW 9658   3.173   1.088   1.634
 2920SOL    HW1 9659   3.156   1.185   1.615
 2920SOL    HW2 9660   3.120   1.032   1.569
 2921SOL     OW 9661   0.906   6.926   4.738
 2921SOL    HW1 9662   0.913   6.844   4.682
 2921SOL    HW2 9663   0.996   6.966   4.751
 2922SOL     OW 9664   4.639   0.452   1.457
 2922SOL    HW1 9665   4.633   0.396   1.374
 2922SOL    HW2 9666   4.555   0.442   1.510
 2923SOL     OW 9667   6.086   5.117   2.801
 2923SOL    HW1 9668   6.070   5.018   2.803
 2923SOL    HW2 9669   6.058   5.157   2.888
 2924SOL     OW 9670   6.134   2.062   5.690
 2924SOL    HW1 9671   6.121   1.987   5.755
 2924SOL    HW2 9672   6.102   2.033   5.599
 2925SOL     OW 9673   4.640   1.589   2.359
 2925SOL    HW1 9674   4.602   1.645   2.433
 2925SOL    HW2 9675   4.571   1.523   2.328
 2926SOL     OW 9676   5.828   1.231   5.459
 2926SOL    HW1 9677   5.907   1.208   5.402
 2926SOL    HW2 9678   5.822   1.330   5.469
 2927SOL     OW 9679   1.604   4.107   1.332
 2927SOL    HW1 9680   1.606   4.146   1.240
 2927SOL    HW2 9681   1.519   4.134   1.378
 2928SOL     OW 9682   0.526   0.616   7.021
 2928SOL    HW1 9683   0.610   0.667   7.002
 2928SOL    HW2 9684   0.546   0.518   0.000
 2929SOL     OW 9685   1.184   2.009   6.613
 2929SOL    HW1 9686   1.134   1.966   6.688
 2929SOL    HW2 9687   1.120   2.048   6.547
 2930SOL     OW 9688   5.533   6.691   5.258
 2930SOL    HW1 9689   5.607   6.669   5.194
 2930SOL    HW2 9690   5.449   6.707   5.207
 2931SOL     OW 9691   5.440   4.526   6.999
 2931SOL    HW1 9692   5.391   4.444   6.970
 2931SOL    HW2 9693   5.536   4.503   7.015
 2932SOL     OW 9694   0.652   5.526   2.049
 2932SOL    HW1 9695   0.697   5.559   2.132
 2932SOL    HW2 9696   0.579   5.463   2.074
 2933SOL     OW 9697   0.994   5.507   2.941
 2933SOL    HW1 9698   0.897   5.527   2.951
 2933SOL    HW2 9699   1.031   5.478   3.030
 2934SOL     OW 9700   5.239   1.482   6.988
 2934SOL    HW1 9701   5.142   1.495   6.972
 2934SOL    HW2 9702   5.287   1.475   6.900
 2935SOL     OW 9703   0.148   2.846   6.715
 2935SOL    HW1 9704   0.224   2.904   6.748
 2935SOL    HW2 9705   0.062   2.880   6.753
 2936SOL     OW 9706   4.117   0.117   0.936
 2936SOL    HW1 9707   4.169   0.202   0.928
 2936SOL    HW2 9708   4.179   0.039   0.923
 2937SOL     OW 9709   5.286   4.434   1.335
 2937SOL    HW1 9710   5.330   4.522   1.355
 2937SOL    HW2 9711   5.341   4.385   1.267
 2938SOL     OW 9712   4.700   5.358   6.610
 2938SOL    HW1 9713   4.791   5.365   6.651
 2938SOL    HW2 9714   4.635   5.327   6.679
 2939SOL     OW 9715   2.197   0.642   2.720
 2939SOL    HW1 9716   2.252   0.607   2.795
 2939SOL    HW2 9717   2.219   0.591   2.636
 2940SOL     OW 9718   5.745   4.712   5.361
 2940SOL    HW1 9719   5.675   4.641   5.354
 2940SOL    HW2 9720   5.813   4.686   5.430
 2941SOL     OW 9721   1.014   2.237   4.532
 2941SOL    HW1 9722   0.942   2.259   4.599
 2941SOL    HW2 9723   1.101   2.228   4.580
 2942SOL     OW 9724   3.126   2.170   0.473
 2942SOL    HW1 9725   3.122   2.168   0.373
 2942SOL    HW2 9726   3.205   2.224   0.502
 2943SOL     OW 9727   5.376   4.096   3.414
 2943SOL    HW1 9728   5.406   4.080   3.320
 2943SOL    HW2 9729   5.375   4.194   3.433
 2944SOL     OW 9730   2.856   6.144   4.330
 2944SOL    HW1 9731   2.791   6.162   4.256
 2944SOL    HW2 9732   2.870   6.046   4.338
 2945SOL     OW 9733   3.075   3.627   3.161
 2945SOL    HW1 9734   3.032   3.587   3.242
 2945SOL    HW2 9735   3.055   3.725   3.158
 2946SOL     OW 9736   1.312   4.754   5.756
 2946SOL    HW1 9737   1.390   4.816   5.748
 2946SOL    HW2 9738   1.229   4.806   5.776
 2947SOL     OW 9739   0.723   4.276   1.197
 2947SOL    HW1 9740   0.768   4.227   1.121
 2947SOL    HW2 9741   0.739   4.374   1.187
 2948SOL     OW 9742   0.717   3.766   4.797
 2948SOL    HW1 9743   0.779   3.766   4.718
 2948SOL    HW2 9744   0.684   3.673   4.813
 2949SOL     OW 9745   2.507   5.718   0.562
 2949SOL    HW1 9746   2.422   5.667   0.544
 2949SOL    HW2 9747   2.546   5.750   0.476
 2950SOL     OW 9748   5.287   5.154   4.302
 2950SOL    HW1 9749   5.245   5.140   4.391
 2950SOL    HW2 9750   5.237   5.225   4.252
 2951SOL     OW 9751   5.166   1.344   1.994
 2951SOL    HW1 9752   5.223   1.387   2.065
 2951SOL    HW2 9753   5.181   1.392   1.907
 2952SOL     OW 9754   0.078   4.511   4.852
 2952SOL    HW1 9755   0.010   4.534   4.921
 2952SOL    HW2 9756   0.169   4.537   4.884
 2953SOL     OW 9757   5.407   3.837   2.456
 2953SOL    HW1 9758   5.430   3.751   2.503
 2953SOL    HW2 9759   5.474   3.907   2.480
 2954SOL     OW 9760   0.974   4.809   2.230
 2954SOL    HW1 9761   0.952   4.724   2.277
 2954SOL    HW2 9762   1.072   4.810   2.208
 2955SOL     OW 9763   0.640   3.652   1.987
 2955SOL    HW1 9764   0.641   3.609   2.077
 2955SOL    HW2 9765   0.733   3.656   1.950
 2956SOL     OW 9766   5.696   5.925   2.999
 2956SOL    HW1 9767   5.609   5.957   2.963
 2956SOL    HW2 9768   5.755   5.896   2.924
 2957SOL     OW 9769   5.665   4.159   1.739
 2957SOL    HW1 9770   5.706   4.077   1.698
 2957SOL    HW2 9771   5.684   4.161   1.837
 2958SOL     OW 9772   2.480   4.781   3.242
 2958SOL    HW1 9773   2.414   4.718   3.283
 2958SOL    HW2 9774   2.532   4.733   3.171
 2959SOL     OW 9775   5.328   3.608   0.528
 2959SOL    HW1 9776   5.400   3.547   0.563
 2959SOL    HW2 9777   5.318   3.594   0.429
 2960SOL     OW 9778   3.342   0.789   0.637
 2960SOL    HW1 9779   3.336   0.845   0.719
 2960SOL    HW2 9780   3.395   0.707   0.657
 2961SOL     OW 9781   5.588   3.935   2.987
 2961SOL    HW1 9782   5.505   3.962   3.035
 2961SOL    HW2 9783   5.570   3.933   2.889
 2962SOL     OW 9784   4.193   6.358   3.395
 2962SOL    HW1 9785   4.287   6.373   3.425
 2962SOL    HW2 9786   4.192   6.291   3.321
 2963SOL     OW 9787   1.925   1.014   6.068
 2963SOL    HW1 9788   1.870   1.097   6.057
 2963SOL    HW2 9789   1.869   0.935   6.044
 2964SOL     OW 9790   0.617   0.584   4.113
 2964SOL    HW1 9791   0.579   0.617   4.200
 2964SOL    HW2 9792   0.613   0.658   4.046
 2965SOL     OW 9793   0.098   0.552   4.353
 2965SOL    HW1 9794   0.097   0.599   4.264
 2965SOL    HW2 9795   0.123   0.456   4.339
 2966SOL     OW 9796   4.613   5.607   3.314
 2966SOL    HW1 9797   4.670   5.546   3.259
 2966SOL    HW2 9798   4.657   5.622   3.403
 2967SOL     OW 9799   6.482   0.760   5.331
 2967SOL    HW1 9800   6.571   0.782   5.293
 2967SOL    HW2 9801   6.412   0.821   5.293
 2968SOL     OW 9802   0.985   2.522   7.018
 2968SOL    HW1 9803   1.077   2.534   0.032
 2968SOL    HW2 9804   0.955   2.607   6.976
 2969SOL     OW 9805   5.161   2.177   4.170
 2969SOL    HW1 9806   5.197   2.188   4.262
 2969SOL    HW2 9807   5.157   2.265   4.124
 2970SOL     OW 9808   2.077   3.742   5.843
 2970SOL    HW1 9809   2.153   3.796   5.809
 2970SOL    HW2 9810   2.011   3.801   5.890
 2971SOL     OW 9811   5.093   4.606   0.127
 2971SOL    HW1 9812   5.032   4.684   0.138
 2971SOL    HW2 9813   5.171   4.615   0.189
 2972SOL     OW 9814   6.603   4.787   6.698
 2972SOL    HW1 9815   6.623   4.864   6.637
 2972SOL    HW2 9816   6.635   4.702   6.656
 2973SOL     OW 9817   5.361   6.515   2.104
 2973SOL    HW1 9818   5.384   6.582   2.175
 2973SOL    HW2 9819   5.432   6.515   2.034
 2974SOL     OW 9820   1.158   4.562   3.489
 2974SOL    HW1 9821   1.190   4.592   3.579
 2974SOL    HW2 9822   1.058   4.563   3.488
 2975SOL     OW 9823   5.359   3.375   3.690
 2975SOL    HW1 9824   5.387   3.279   3.694
 2975SOL    HW2 9825   5.259   3.381   3.697
 2976SOL     OW 9826   3.788   1.927   2.892
 2976SOL    HW1 9827   3.736   1.992   2.836
 2976SOL    HW2 9828   3.852   1.877   2.834
 2977SOL     OW 9829   2.308   6.759   2.264
 2977SOL    HW1 9830   2.364   6.690   2.311
 2977SOL    HW2 9831   2.303   6.841   2.321
 2978SOL     OW 9832   4.359   4.657   0.162
 2978SOL    HW1 9833   4.339   4.677   0.066
 2978SOL    HW2 9834   4.430   4.587   0.168
 2979SOL     OW 9835   3.214   0.475   4.059
 2979SOL    HW1 9836   3.308   0.440   4.060
 2979SOL    HW2 9837   3.157   0.418   4.118
 2980SOL     OW 9838   1.413   5.897   4.123
 2980SOL    HW1 9839   1.488   5.907   4.189
 2980SOL    HW2 9840   1.451   5.877   4.033
 2981SOL     OW 9841   2.756   1.156   5.731
 2981SOL    HW1 9842   2.717   1.073   5.772
 2981SOL    HW2 9843   2.684   1.224   5.720
 2982SOL     OW 9844   3.242   5.725   1.879
 2982SOL    HW1 9845   3.175   5.700   1.948
 2982SOL    HW2 9846   3.195   5.761   1.798
 2983SOL     OW 9847   0.449   1.307   2.623
 2983SOL    HW1 9848   0.450   1.221   2.675
 2983SOL    HW2 9849   0.504   1.375   2.670
 2984SOL     OW 9850   5.516   4.845   0.828
 2984SOL    HW1 9851   5.418   4.858   0.835
 2984SOL    HW2 9852   5.540   4.819   0.734
 2985SOL     OW 9853   1.710   2.969   5.350
 2985SOL    HW1 9854   1.704   3.059   5.307
 2985SOL    HW2 9855   1.799   2.929   5.332
 2986SOL     OW 9856   3.634   3.877   3.223
 2986SOL    HW1 9857   3.550   3.929   3.235
 2986SOL    HW2 9858   3.672   3.854   3.313
 2987SOL     OW 9859   0.661   1.448   4.089
 2987SOL    HW1 9860   0.679   1.368   4.146
 2987SOL    HW2 9861   0.748   1.492   4.065
 2988SOL     OW 9862   1.687   5.589   3.207
 2988SOL    HW1 9863   1.641   5.595   3.119
 2988SOL    HW2 9864   1.740   5.504   3.211
 2989SOL     OW 9865   5.414   5.920   5.719
 2989SOL    HW1 9866   5.466   5.994   5.763
 2989SOL    HW2 9867   5.457   5.898   5.631
 2990SOL     OW 9868   3.708   2.147   4.840
 2990SOL    HW1 9869   3.636   2.140   4.772
 2990SOL    HW2 9870   3.669   2.137   4.931
 2991SOL     OW 9871   6.820   3.763   5.477
 2991SOL    HW1 9872   6.780   3.847   5.516
 2991SOL    HW2 9873   6.893   3.730   5.536
 2992SOL     OW 9874   2.553   6.240   4.692
 2992SOL    HW1 9875   2.464   6.195   4.705
 2992SOL    HW2 9876   2.576   6.240   4.595
 2993SOL     OW 9877   0.707   4.772   1.258
 2993SOL    HW1 9878   0.626   4.808   1.211
 2993SOL    HW2 9879   0.721   4.822   1.343
 2994SOL     OW 9880   4.058   6.638   6.803
 2994SOL    HW1 9881   3.987   6.642   6.733
 2994SOL    HW2 9882   4.148   6.628   6.759
 2995SOL     OW 9883   2.741   1.697   5.838
 2995SOL    HW1 9884   2.772   1.732   5.750
 2995SOL    HW2 9885   2.703   1.606   5.826
 2996SOL     OW 9886   1.529   1.435   4.231
 2996SOL    HW1 9887   1.504   1.345   4.268
 2996SOL    HW2 9888   1.453   1.471   4.177
 2997SOL     OW 9889   5.738   0.065   3.191
 2997SOL    HW1 9890   5.678   0.060   3.112
 2997SOL    HW2 9891   5.826   0.023   3.169
 2998SOL     OW 9892   4.249   0.124   3.985
 2998SOL    HW1 9893   4.216   0.191   3.918
 2998SOL    HW2 9894   4.325   0.073   3.946
 2999SOL     OW 9895   2.400   5.602   4.787
 2999SOL    HW1 9896   2.395   5.692   4.744
 2999SOL    HW2 9897   2.420   5.613   4.884
 3000SOL     OW 9898   3.371   3.762   6.179
 3000SOL    HW1 9899   3.357   3.854   6.216
 3000SOL    HW2 9900   3.302   3.744   6.108
 3001SOL     OW 9901   0.006   0.436   6.132
 3001SOL    HW1 9902   0.008   0.405   6.227
 3001SOL    HW2 9903   0.025   0.359   6.071
 3002SOL     OW 9904   3.151   1.667   0.197
 3002SOL    HW1 9905   3.118   1.713   0.115
 3002SOL    HW2 9906   3.191   1.579   0.172
 3003SOL     OW 9907   1.523   6.706   0.649
 3003SOL    HW1 9908   1.462   6.666   0.581
 3003SOL    HW2 9909   1.607   6.736   0.604
 3004SOL     OW 9910   0.260   4.396   3.643
 3004SOL    HW1 9911   0.270   4.419   3.547
 3004SOL    HW2 9912   0.167   4.418   3.674
 3005SOL     OW 9913   1.927   1.807   0.457
 3005SOL    HW1 9914   1.898   1.865   0.381
 3005SOL    HW2 9915   1.857   1.738   0.476
 3006SOL     OW 9916   5.375   1.480   4.870
 3006SOL    HW1 9917   5.467   1.516   4.860
 3006SOL    HW2 9918   5.308   1.549   4.842
 3007SOL     OW 9919   5.222   4.383   0.513
 3007SOL    HW1 9920   5.182   4.318   0.578
 3007SOL    HW2 9921   5.179   4.373   0.424
 3008SOL     OW 9922   3.808   2.411   5.842
 3008SOL    HW1 9923   3.812   2.421   5.742
 3008SOL    HW2 9924   3.838   2.319   5.867
 3009SOL     OW 9925   7.012   1.802   3.019
 3009SOL    HW1 9926   6.995   1.718   2.966
 3009SOL    HW2 9927   6.925   1.850   3.034
 3010SOL     OW 9928   3.811   5.498   3.456
 3010SOL    HW1 9929   3.885   5.440   3.422
 3010SOL    HW2 9930   3.723   5.461   3.425
 3011SOL     OW 9931   6.305   1.478   2.330
 3011SOL    HW1 9932   6.387   1.535   2.320
 3011SOL    HW2 9933   6.226   1.528   2.296
 3012SOL     OW 9934   2.029   3.256   5.913
 3012SOL    HW1 9935   2.090   3.336   5.911
 3012SOL    HW2 9936   2.084   3.172   5.909
 3013SOL     OW 9937   5.220   5.362   3.676
 3013SOL    HW1 9938   5.235   5.439   3.738
 3013SOL    HW2 9939   5.189   5.283   3.728
 3014SOL     OW 9940   4.533   2.318   4.513
 3014SOL    HW1 9941   4.517   2.353   4.605
 3014SOL    HW2 9942   4.445   2.292   4.472
 3015SOL     OW 9943   3.031   1.651   0.448
 3015SOL    HW1 9944   3.037   1.656   0.348
 3015SOL    HW2 9945   3.000   1.739   0.484
 3016SOL     OW 9946   2.467   6.294   3.919
 3016SOL    HW1 9947   2.434   6.201   3.907
 3016SOL    HW2 9948   2.462   6.343   3.832
 3017SOL     OW 9949   6.453   5.061   2.454
 3017SOL    HW1 9950   6.547   5.029   2.442
 3017SOL    HW2 9951   6.406   5.002   2.520
 3018SOL     OW 9952   3.125   6.618   5.836
 3018SOL    HW1 9953   3.139   6.574   5.925
 3018SOL    HW2 9954   3.084   6.552   5.773
 3019SOL     OW 9955   0.967   6.618   0.610
 3019SOL    HW1 9956   0.871   6.645   0.604
 3019SOL    HW2 9957   1.007   6.655   0.693
 3020SOL     OW 9958   3.788   2.459   1.363
 3020SOL    HW1 9959   3.861   2.527   1.359
 3020SOL    HW2 9960   3.827   2.369   1.383
 3021SOL     OW 9961   2.934   0.183   5.861
 3021SOL    HW1 9962   2.905   0.278   5.876
 3021SOL    HW2 9963   2.856   0.129   5.828
 3022SOL     OW 9964   4.172   5.187   4.868
 3022SOL    HW1 9965   4.202   5.097   4.836
 3022SOL    HW2 9966   4.172   5.188   4.968
 3023SOL     OW 9967   4.129   6.622   2.730
 3023SOL    HW1 9968   4.058   6.692   2.740
 3023SOL    HW2 9969   4.185   6.619   2.812
 3024SOL     OW 9970   5.123   0.566   4.520
 3024SOL    HW1 9971   5.100   0.662   4.540
 3024SOL    HW2 9972   5.043   0.521   4.480
 3025SOL     OW 9973   3.639   6.793   0.757
 3025SOL    HW1 9974   3.618   6.695   0.768
 3025SOL    HW2 9975   3.696   6.822   0.833
 3026SOL     OW 9976   1.087   0.471   6.499
 3026SOL    HW1 9977   1.071   0.560   6.542
 3026SOL    HW2 9978   1.180   0.441   6.518
 3027SOL     OW 9979   4.039   1.112   2.981
 3027SOL    HW1 9980   4.066   1.042   2.915
 3027SOL    HW2 9981   4.116   1.132   3.041
 3028SOL     OW 9982   1.306   3.492   6.071
 3028SOL    HW1 9983   1.266   3.400   6.070
 3028SOL    HW2 9984   1.365   3.503   5.991
 3029SOL     OW 9985   0.095   2.452   5.475
 3029SOL    HW1 9986   0.067   2.386   5.545
 3029SOL    HW2 9987   0.179   2.499   5.504
 3030SOL     OW 9988   0.475   3.229   0.246
 3030SOL    HW1 9989   0.554   3.289   0.262
 3030SOL    HW2 9990   0.391   3.278   0.266
 3031SOL     OW 9991   0.182   4.366   1.487
 3031SOL    HW1 9992   0.172   4.309   1.569
 3031SOL    HW2 9993   0.147   4.316   1.408
 3032SOL     OW 9994   2.748   6.335   1.456
 3032SOL    HW1 9995   2.757   6.385   1.542
 3032SOL    HW2 9996   2.654   6.305   1.445
 3033SOL     OW 9997   5.834   1.861   1.244
 3033SOL    HW1 9998   5.898   1.838   1.171
 3033SOL    HW2 9999   5.749   1.896   1.205
 3034SOL     OW10000   1.815   6.241   2.652
 3034SOL    HW110001   1.909   6.222   2.626
 3034SOL    HW210002   1.755   6.170   2.613
 3035SOL     OW10003   0.395   2.984   6.783
 3035SOL    HW110004   0.379   3.068   6.835
 3035SOL    HW210005   0.415   3.008   6.688
 3036SOL     OW10006   2.265   1.966   6.443
 3036SOL    HW110007   2.332   2.032   6.478
 3036SOL    HW210008   2.173   2.001   6.458
 3037SOL     OW10009   5.925   6.014   6.000
 3037SOL    HW110010   5.895   6.051   6.088
 3037SOL    HW210011   5.924   6.086   5.931
 3038SOL     OW10012   4.987   5.761   5.723
 3038SOL    HW110013   5.027   5.710   5.647
 3038SOL    HW210014   4.924   5.703   5.774
 3039SOL     OW10015   6.904   3.272   0.736
 3039SOL    HW110016   6.837   3.224   0.678
 3039SOL    HW210017   6.996   3.256   0.700
 3040SOL     OW10018   3.672   3.713   6.177
 3040SOL    HW110019   3.697   3.617   6.172
 3040SOL    HW210020   3.581   3.727   6.137
 3041SOL     OW10021   2.211   3.078   4.554
 3041SOL    HW110022   2.245   3.004   4.613
 3041SOL    HW210023   2.194   3.159   4.610
 3042SOL     OW10024   5.003   5.697   2.613
 3042SOL    HW110025   4.993   5.673   2.710
 3042SOL    HW210026   5.007   5.614   2.558
 3043SOL     OW10027   2.327   4.004   1.851
 3043SOL    HW110028   2.423   4.006   1.821
 3043SOL    HW210029   2.277   3.934   1.800
 3044SOL     OW10030   3.865   4.846   5.605
 3044SOL    HW110031   3.894   4.751   5.614
 3044SOL    HW210032   3.931   4.906   5.651
 3045SOL     OW10033   4.759   6.807   3.474
 3045SOL    HW110034   4.765   6.859   3.559
 3045SOL    HW210035   4.673   6.829   3.428
 3046SOL     OW10036   2.176   0.909   6.002
 3046SOL    HW110037   2.246   0.980   5.986
 3046SOL    HW210038   2.087   0.952   6.012
 3047SOL     OW10039   5.538   0.411   1.756
 3047SOL    HW110040   5.595   0.474   1.808
 3047SOL    HW210041   5.593   0.364   1.687
 3048SOL     OW10042   3.850   2.330   1.702
 3048SOL    HW110043   3.761   2.346   1.745
 3048SOL    HW210044   3.915   2.295   1.769
 3049SOL     OW10045   1.273   0.168   2.612
 3049SOL    HW110046   1.334   0.111   2.667
 3049SOL    HW210047   1.293   0.264   2.629
 3050SOL     OW10048   3.647   1.246   2.039
 3050SOL    HW110049   3.707   1.319   2.071
 3050SOL    HW210050   3.557   1.283   2.017
 3051SOL     OW10051   1.571   5.454   6.117
 3051SOL    HW110052   1.631   5.451   6.198
 3051SOL    HW210053   1.548   5.361   6.090
 3052SOL     OW10054   5.159   5.553   1.975
 3052SOL    HW110055   5.126   5.616   2.045
 3052SOL    HW210056   5.097   5.555   1.896
 3053SOL     OW10057   6.748   2.265   0.652
 3053SOL    HW110058   6.813   2.216   0.593
 3053SOL    HW210059   6.798   2.328   0.711
 3054SOL     OW10060   6.665   2.448   0.960
 3054SOL    HW110061   6.624   2.463   1.050
 3054SOL    HW210062   6.592   2.435   0.893
 3055SOL     OW10063   4.710   0.600   4.991
 3055SOL    HW110064   4.695   0.697   5.011
 3055SOL    HW210065   4.625   0.560   4.957
 3056SOL     OW10066   6.703   0.025   5.290
 3056SOL    HW110067   6.691   0.006   5.387
 3056SOL    HW210068   6.660   0.112   5.267
 3057SOL     OW10069   4.538   5.816   2.648
 3057SOL    HW110070   4.474   5.839   2.721
 3057SOL    HW210071   4.496   5.836   2.559
 3058SOL     OW10072   0.026   4.812   1.050
 3058SOL    HW110073   0.115   4.775   1.078
 3058SOL    HW210074   7.009   4.862   1.127
 3059SOL     OW10075   2.680   2.398   4.269
 3059SOL    HW110076   2.682   2.424   4.365
 3059SOL    HW210077   2.750   2.330   4.250
 3060SOL     OW10078   1.445   5.046   0.314
 3060SOL    HW110079   1.467   5.120   0.250
 3060SOL    HW210080   1.469   5.075   0.407
 3061SOL     OW10081   0.244   6.753   5.480
 3061SOL    HW110082   0.337   6.728   5.509
 3061SOL    HW210083   0.204   6.678   5.427
 3062SOL     OW10084   1.812   0.072   0.358
 3062SOL    HW110085   1.784   7.020   0.418
 3062SOL    HW210086   1.878   0.040   0.291
 3063SOL     OW10087   2.465   4.859   2.027
 3063SOL    HW110088   2.367   4.853   2.009
 3063SOL    HW210089   2.512   4.784   1.981
 3064SOL     OW10090   4.909   3.783   1.927
 3064SOL    HW110091   4.989   3.837   1.900
 3064SOL    HW210092   4.938   3.702   1.978
 3065SOL     OW10093   1.912   1.406   0.070
 3065SOL    HW110094   1.944   1.326   0.020
 3065SOL    HW210095   1.990   1.462   0.096
 3066SOL     OW10096   4.607   4.892   0.513
 3066SOL    HW110097   4.589   4.846   0.600
 3066SOL    HW210098   4.700   4.872   0.483
 3067SOL     OW10099   4.086   1.314   5.734
 3067SOL    HW110100   4.027   1.386   5.771
 3067SOL    HW210101   4.044   1.225   5.751
 3068SOL     OW10102   6.406   0.069   0.667
 3068SOL    HW110103   6.448   0.142   0.613
 3068SOL    HW210104   6.400   0.098   0.763
 3069SOL     OW10105   6.541   5.763   1.662
 3069SOL    HW110106   6.567   5.835   1.598
 3069SOL    HW210107   6.485   5.802   1.735
 3070SOL     OW10108   2.710   1.232   6.652
 3070SOL    HW110109   2.688   1.162   6.720
 3070SOL    HW210110   2.791   1.282   6.682
 3071SOL     OW10111   6.666   6.416   3.132
 3071SOL    HW110112   6.706   6.463   3.211
 3071SOL    HW210113   6.689   6.319   3.137
 3072SOL     OW10114   2.921   6.260   6.457
 3072SOL    HW110115   2.994   6.260   6.389
 3072SOL    HW210116   2.952   6.308   6.539
 3073SOL     OW10117   6.107   3.313   4.622
 3073SOL    HW110118   6.113   3.313   4.722
 3073SOL    HW210119   6.040   3.381   4.593
 3074SOL     OW10120   6.167   3.560   1.061
 3074SOL    HW110121   6.199   3.648   1.027
 3074SOL    HW210122   6.196   3.548   1.156
 3075SOL     OW10123   2.656   5.367   1.701
 3075SOL    HW110124   2.622   5.428   1.772
 3075SOL    HW210125   2.707   5.419   1.633
 3076SOL     OW10126   6.586   0.274   4.043
 3076SOL    HW110127   6.680   0.241   4.034
 3076SOL    HW210128   6.549   0.294   3.952
 3077SOL     OW10129   6.147   4.743   1.229
 3077SOL    HW110130   6.212   4.670   1.251
 3077SOL    HW210131   6.196   4.823   1.194
 3078SOL     OW10132   0.554   2.688   3.148
 3078SOL    HW110133   0.581   2.650   3.236
 3078SOL    HW210134   0.477   2.751   3.161
 3079SOL     OW10135   2.529   2.542   2.704
 3079SOL    HW110136   2.430   2.556   2.698
 3079SOL    HW210137   2.559   2.486   2.626
 3080SOL     OW10138   5.255   5.338   2.102
 3080SOL    HW110139   5.223   5.421   2.057
 3080SOL    HW210140   5.309   5.284   2.038
 3081SOL     OW10141   0.525   2.509   5.338
 3081SOL    HW110142   0.468   2.513   5.255
 3081SOL    HW210143   0.479   2.557   5.412
 3082SOL     OW10144   2.483   5.723   3.683
 3082SOL    HW110145   2.512   5.757   3.594
 3082SOL    HW210146   2.561   5.723   3.746
 3083SOL     OW10147   2.959   6.355   4.134
 3083SOL    HW110148   2.961   6.263   4.174
 3083SOL    HW210149   3.027   6.413   4.178
 3084SOL     OW10150   6.285   3.727   4.586
 3084SOL    HW110151   6.307   3.747   4.682
 3084SOL    HW210152   6.318   3.635   4.563
 3085SOL     OW10153   5.802   4.580   0.465
 3085SOL    HW110154   5.890   4.549   0.502
 3085SOL    HW210155   5.811   4.675   0.435
 3086SOL     OW10156   4.778   1.514   1.293
 3086SOL    HW110157   4.749   1.427   1.333
 3086SOL    HW210158   4.750   1.517   1.197
 3087SOL     OW10159   1.669   5.980   4.199
 3087SOL    HW110160   1.682   5.916   4.124
 3087SOL    HW210161   1.756   5.994   4.246
 3088SOL     OW10162   2.154   4.853   4.939
 3088SOL    HW110163   2.104   4.776   4.901
 3088SOL    HW210164   2.251   4.844   4.919
 3089SOL     OW10165   2.075   2.999   5.669
 3089SOL    HW110166   2.059   3.070   5.600
 3089SOL    HW210167   2.041   2.911   5.636
 3090SOL     OW10168   2.574   2.183   1.546
 3090SOL    HW110169   2.502   2.130   1.592
 3090SOL    HW210170   2.635   2.121   1.498
 3091SOL     OW10171   1.917   7.010   1.434
 3091SOL    HW110172   1.966   6.985   1.351
 3091SOL    HW210173   1.934   6.941   1.505
 3092SOL     OW10174   5.207   1.714   0.467
 3092SOL    HW110175   5.226   1.757   0.555
 3092SOL    HW210176   5.292   1.693   0.420
 3093SOL     OW10177   5.147   6.517   6.436
 3093SOL    HW110178   5.138   6.615   6.452
 3093SOL    HW210179   5.203   6.502   6.354
 3094SOL     OW10180   1.873   6.839   4.122
 3094SOL    HW110181   1.889   6.743   4.097
 3094SOL    HW210182   1.942   6.897   4.079
 3095SOL     OW10183   2.310   5.068   5.209
 3095SOL    HW110184   2.337   5.026   5.296
 3095SOL    HW210185   2.377   5.045   5.139
 3096SOL     OW10186   0.589   5.306   5.368
 3096SOL    HW110187   0.581   5.273   5.274
 3096SOL    HW210188   0.562   5.233   5.431
 3097SOL     OW10189   5.560   2.108   0.052
 3097SOL    HW110190   5.506   2.156   7.008
 3097SOL    HW210191   5.499   2.066   0.119
 3098SOL     OW10192   2.377   2.757   1.901
 3098SOL    HW110193   2.344   2.838   1.851
 3098SOL    HW210194   2.353   2.766   1.997
 3099SOL     OW10195   0.775   6.918   3.636
 3099SOL    HW110196   0.763   6.836   3.581
 3099SOL    HW210197   0.809   6.992   3.577
 3100SOL     OW10198   0.016   6.063   3.421
 3100SOL    HW110199   7.007   6.096   3.333
 3100SOL    HW210200   0.026   5.964   3.418
 3101SOL     OW10201   6.054   6.046   0.158
 3101SOL    HW110202   6.097   6.107   0.092
 3101SOL    HW210203   6.112   6.038   0.239
 3102SOL     OW10204   6.419   5.555   2.652
 3102SOL    HW110205   6.443   5.468   2.695
 3102SOL    HW210206   6.469   5.564   2.565
 3103SOL     OW10207   4.453   0.903   2.201
 3103SOL    HW110208   4.513   0.956   2.141
 3103SOL    HW210209   4.432   0.816   2.158
 3104SOL     OW10210   5.236   1.264   5.394
 3104SOL    HW110211   5.265   1.173   5.423
 3104SOL    HW210212   5.139   1.276   5.413
 3105SOL     OW10213   5.358   4.457   0.914
 3105SOL    HW110214   5.335   4.401   0.994
 3105SOL    HW210215   5.437   4.418   0.867
 3106SOL     OW10216   4.553   0.835   3.795
 3106SOL    HW110217   4.628   0.887   3.752
 3106SOL    HW210218   4.486   0.898   3.832
 3107SOL     OW10219   4.342   1.844   4.777
 3107SOL    HW110220   4.401   1.925   4.780
 3107SOL    HW210221   4.255   1.867   4.735
 3108SOL     OW10222   2.038   6.194   4.182
 3108SOL    HW110223   1.995   6.184   4.271
 3108SOL    HW210224   2.003   6.125   4.119
 3109SOL     OW10225   5.468   6.074   3.921
 3109SOL    HW110226   5.535   6.080   3.846
 3109SOL    HW210227   5.497   6.006   3.988
 3110SOL     OW10228   0.793   2.852   2.795
 3110SOL    HW110229   0.782   2.761   2.835
 3110SOL    HW210230   0.773   2.921   2.864
 3111SOL     OW10231   0.364   4.954   3.398
 3111SOL    HW110232   0.399   4.878   3.452
 3111SOL    HW210233   0.271   4.976   3.428
 3112SOL     OW10234   3.981   3.049   6.953
 3112SOL    HW110235   3.935   3.128   6.912
 3112SOL    HW210236   3.992   2.977   6.884
 3113SOL     OW10237   2.575   4.936   3.453
 3113SOL    HW110238   2.599   5.029   3.425
 3113SOL    HW210239   2.540   4.885   3.375
 3114SOL     OW10240   3.896   2.098   0.294
 3114SOL    HW110241   3.832   2.051   0.233
 3114SOL    HW210242   3.845   2.159   0.355
 3115SOL     OW10243   4.191   4.542   6.238
 3115SOL    HW110244   4.252   4.584   6.305
 3115SOL    HW210245   4.150   4.460   6.278
 3116SOL     OW10246   0.096   2.902   0.576
 3116SOL    HW110247   0.024   2.836   0.597
 3116SOL    HW210248   0.183   2.869   0.612
 3117SOL     OW10249   4.562   3.813   5.298
 3117SOL    HW110250   4.592   3.724   5.261
 3117SOL    HW210251   4.641   3.874   5.305
 3118SOL     OW10252   0.618   5.272   2.313
 3118SOL    HW110253   0.678   5.349   2.292
 3118SOL    HW210254   0.673   5.195   2.346
 3119SOL     OW10255   2.553   3.089   6.375
 3119SOL    HW110256   2.521   3.129   6.461
 3119SOL    HW210257   2.623   3.147   6.335
 3120SOL     OW10258   3.344   0.541   5.160
 3120SOL    HW110259   3.292   0.570   5.241
 3120SOL    HW210260   3.441   0.562   5.174
 3121SOL     OW10261   0.351   1.061   3.666
 3121SOL    HW110262   0.337   1.130   3.738
 3121SOL    HW210263   0.287   0.986   3.679
 3122SOL     OW10264   3.934   5.602   6.179
 3122SOL    HW110265   3.944   5.697   6.150
 3122SOL    HW210266   3.911   5.545   6.099
 3123SOL     OW10267   1.732   1.794   2.975
 3123SOL    HW110268   1.659   1.788   2.908
 3123SOL    HW210269   1.817   1.756   2.936
 3124SOL     OW10270   5.192   0.184   4.443
 3124SOL    HW110271   5.242   0.231   4.515
 3124SOL    HW210272   5.251   0.176   4.362
 3125SOL     OW10273   0.592   2.690   4.564
 3125SOL    HW110274   0.573   2.787   4.553
 3125SOL    HW210275   0.614   2.671   4.660
 3126SOL     OW10276   5.676   4.218   5.534
 3126SOL    HW110277   5.743   4.189   5.465
 3126SOL    HW210278   5.698   4.174   5.622
 3127SOL     OW10279   0.885   3.089   5.651
 3127SOL    HW110280   0.861   3.131   5.738
 3127SOL    HW210281   0.984   3.100   5.635
 3128SOL     OW10282   3.257   0.432   6.473
 3128SOL    HW110283   3.202   0.512   6.496
 3128SOL    HW210284   3.230   0.398   6.383
 3129SOL     OW10285   6.345   3.493   0.255
 3129SOL    HW110286   6.334   3.505   0.354
 3129SOL    HW210287   6.368   3.581   0.213
 3130SOL     OW10288   1.636   4.400   1.487
 3130SOL    HW110289   1.720   4.382   1.435
 3130SOL    HW210290   1.612   4.320   1.541
 3131SOL     OW10291   0.623   3.456   2.209
 3131SOL    HW110292   0.566   3.374   2.202
 3131SOL    HW210293   0.651   3.468   2.305
 3132SOL     OW10294   3.751   6.026   6.113
 3132SOL    HW110295   3.737   5.935   6.073
 3132SOL    HW210296   3.733   6.096   6.045
 3133SOL     OW10297   3.187   1.269   3.270
 3133SOL    HW110298   3.254   1.344   3.274
 3133SOL    HW210299   3.197   1.211   3.350
 3134SOL     OW10300   4.676   4.132   1.723
 3134SOL    HW110301   4.600   4.180   1.766
 3134SOL    HW210302   4.661   4.033   1.728
 3135SOL     OW10303   4.273   1.107   4.651
 3135SOL    HW110304   4.232   1.198   4.643
 3135SOL    HW210305   4.249   1.067   4.739
 3136SOL     OW10306   5.475   0.671   2.105
 3136SOL    HW110307   5.506   0.738   2.038
 3136SOL    HW210308   5.389   0.702   2.146
 3137SOL     OW10309   6.665   0.805   2.443
 3137SOL    HW110310   6.686   0.823   2.347
 3137SOL    HW210311   6.709   0.720   2.471
 3138SOL     OW10312   6.207   4.690   3.650
 3138SOL    HW110313   6.187   4.601   3.610
 3138SOL    HW210314   6.168   4.762   3.591
 3139SOL     OW10315   4.739   6.348   0.900
 3139SOL    HW110316   4.663   6.384   0.955
 3139SOL    HW210317   4.755   6.252   0.924
 3140SOL     OW10318   6.311   6.872   0.239
 3140SOL    HW110319   6.253   6.856   0.159
 3140SOL    HW210320   6.407   6.863   0.213
 3141SOL     OW10321   0.495   6.940   6.618
 3141SOL    HW110322   0.443   6.912   6.698
 3141SOL    HW210323   0.592   6.921   6.634
 3142SOL     OW10324   3.473   0.089   2.176
 3142SOL    HW110325   3.529   0.171   2.189
 3142SOL    HW210326   3.530   0.013   2.146
 3143SOL     OW10327   6.579   2.376   0.069
 3143SOL    HW110328   6.538   2.315   0.137
 3143SOL    HW210329   6.577   2.331   7.003
 3144SOL     OW10330   3.761   3.886   1.738
 3144SOL    HW110331   3.729   3.964   1.683
 3144SOL    HW210332   3.794   3.814   1.677
 3145SOL     OW10333   1.959   5.952   1.241
 3145SOL    HW110334   2.008   5.990   1.162
 3145SOL    HW210335   2.003   5.983   1.325
 3146SOL     OW10336   1.276   0.917   4.014
 3146SOL    HW110337   1.243   0.856   4.087
 3146SOL    HW210338   1.214   0.995   4.005
 3147SOL     OW10339   3.412   5.441   1.359
 3147SOL    HW110340   3.483   5.473   1.422
 3147SOL    HW210341   3.451   5.427   1.268
 3148SOL     OW10342   6.361   6.156   3.786
 3148SOL    HW110343   6.390   6.189   3.876
 3148SOL    HW210344   6.274   6.198   3.761
 3149SOL     OW10345   2.691   1.199   5.124
 3149SOL    HW110346   2.642   1.265   5.067
 3149SOL    HW210347   2.754   1.247   5.184
 3150SOL     OW10348   5.990   5.349   4.105
 3150SOL    HW110349   6.057   5.280   4.078
 3150SOL    HW210350   5.987   5.421   4.036
 3151SOL     OW10351   6.743   1.279   5.185
 3151SOL    HW110352   6.694   1.350   5.235
 3151SOL    HW210353   6.840   1.300   5.183
 3152SOL     OW10354   1.362   5.449   0.850
 3152SOL    HW110355   1.396   5.367   0.895
 3152SOL    HW210356   1.417   5.468   0.768
 3153SOL     OW10357   5.938   5.055   0.630
 3153SOL    HW110358   5.868   5.004   0.580
 3153SOL    HW210359   5.974   5.129   0.573
 3154SOL     OW10360   6.478   1.821   6.613
 3154SOL    HW110361   6.495   1.846   6.518
 3154SOL    HW210362   6.552   1.855   6.670
 3155SOL     OW10363   6.628   4.357   0.461
 3155SOL    HW110364   6.681   4.276   0.435
 3155SOL    HW210365   6.561   4.331   0.530
 3156SOL     OW10366   3.368   3.120   3.304
 3156SOL    HW110367   3.382   3.135   3.402
 3156SOL    HW210368   3.270   3.110   3.286
 3157SOL     OW10369   2.836   2.103   5.195
 3157SOL    HW110370   2.865   2.194   5.225
 3157SOL    HW210371   2.905   2.066   5.132
 3158SOL     OW10372   3.644   1.431   3.413
 3158SOL    HW110373   3.701   1.431   3.330
 3158SOL    HW210374   3.659   1.516   3.463
 3159SOL     OW10375   6.237   1.497   0.262
 3159SOL    HW110376   6.227   1.540   0.172
 3159SOL    HW210377   6.331   1.508   0.294
 3160SOL     OW10378   0.046   5.955   5.493
 3160SOL    HW110379   0.097   6.026   5.443
 3160SOL    HW210380   6.975   5.985   5.504
 3161SOL     OW10381   2.345   2.381   3.059
 3161SOL    HW110382   2.303   2.294   3.033
 3161SOL    HW210383   2.283   2.456   3.039
 3162SOL     OW10384   1.228   6.405   2.109
 3162SOL    HW110385   1.294   6.330   2.104
 3162SOL    HW210386   1.137   6.368   2.130
 3163SOL     OW10387   4.691   3.053   6.265
 3163SOL    HW110388   4.678   3.016   6.173
 3163SOL    HW210389   4.688   3.153   6.262
 3164SOL     OW10390   4.392   5.306   1.016
 3164SOL    HW110391   4.359   5.218   0.980
 3164SOL    HW210392   4.313   5.362   1.042
 3165SOL     OW10393   0.543   6.395   1.055
 3165SOL    HW110394   0.522   6.476   1.000
 3165SOL    HW210395   0.538   6.314   0.997
 3166SOL     OW10396   4.035   1.889   4.353
 3166SOL    HW110397   4.132   1.874   4.337
 3166SOL    HW210398   4.001   1.958   4.289
 3167SOL     OW10399   6.667   4.884   1.141
 3167SOL    HW110400   6.731   4.878   1.064
 3167SOL    HW210401   6.602   4.958   1.124
 3168SOL     OW10402   4.525   2.855   6.586
 3168SOL    HW110403   4.511   2.777   6.525
 3168SOL    HW210404   4.461   2.849   6.663
 3169SOL     OW10405   2.118   3.392   4.295
 3169SOL    HW110406   2.162   3.415   4.208
 3169SOL    HW210407   2.162   3.310   4.333
 3170SOL     OW10408   4.250   6.865   1.399
 3170SOL    HW110409   4.252   6.786   1.338
 3170SOL    HW210410   4.326   6.927   1.376
 3171SOL     OW10411   0.288   0.727   1.973
 3171SOL    HW110412   0.350   0.681   2.037
 3171SOL    HW210413   0.252   0.661   1.908
 3172SOL     OW10414   6.390   5.380   0.527
 3172SOL    HW110415   6.360   5.323   0.604
 3172SOL    HW210416   6.473   5.429   0.554
 3173SOL     OW10417   2.276   1.493   0.524
 3173SOL    HW110418   2.234   1.522   0.611
 3173SOL    HW210419   2.223   1.532   0.448
 3174SOL     OW10420   2.579   2.262   0.546
 3174SOL    HW110421   2.548   2.353   0.573
 3174SOL    HW210422   2.503   2.197   0.553
 3175SOL     OW10423   6.511   0.754   1.624
 3175SOL    HW110424   6.494   0.739   1.527
 3175SOL    HW210425   6.601   0.718   1.648
 3176SOL     OW10426   1.651   3.912   5.336
 3176SOL    HW110427   1.689   3.889   5.425
 3176SOL    HW210428   1.612   4.004   5.338
 3177SOL     OW10429   4.886   3.657   4.067
 3177SOL    HW110430   4.883   3.596   4.147
 3177SOL    HW210431   4.865   3.750   4.095
 3178SOL     OW10432   6.305   2.144   0.903
 3178SOL    HW110433   6.227   2.169   0.960
 3178SOL    HW210434   6.334   2.051   0.924
 3179SOL     OW10435   0.769   2.873   2.253
 3179SOL    HW110436   0.704   2.847   2.182
 3179SOL    HW210437   0.762   2.972   2.269
 3180SOL     OW10438   4.298   1.085   0.252
 3180SOL    HW110439   4.341   1.068   0.164
 3180SOL    HW210440   4.351   1.041   0.325
 3181SOL     OW10441   0.041   1.797   3.507
 3181SOL    HW110442   0.094   1.832   3.429
 3181SOL    HW210443   6.986   1.856   3.522
 3182SOL     OW10444   3.324   0.291   5.807
 3182SOL    HW110445   3.331   0.242   5.894
 3182SOL    HW210446   3.294   0.385   5.824
 3183SOL     OW10447   4.154   3.893   1.651
 3183SOL    HW110448   4.158   3.892   1.751
 3183SOL    HW210449   4.225   3.955   1.616
 3184SOL     OW10450   0.767   3.227   2.786
 3184SOL    HW110451   0.729   3.176   2.863
 3184SOL    HW210452   0.866   3.234   2.795
 3185SOL     OW10453   5.681   5.884   6.923
 3185SOL    HW110454   5.690   5.939   6.840
 3185SOL    HW210455   5.772   5.868   6.962
 3186SOL     OW10456   3.818   1.656   1.770
 3186SOL    HW110457   3.819   1.671   1.671
 3186SOL    HW210458   3.755   1.720   1.813
 3187SOL     OW10459   4.602   4.591   7.000
 3187SOL    HW110460   4.671   4.591   6.927
 3187SOL    HW210461   4.584   4.497   0.004
 3188SOL     OW10462   2.118   0.469   4.289
 3188SOL    HW110463   2.117   0.565   4.316
 3188SOL    HW210464   2.124   0.412   4.371
 3189SOL     OW10465   1.495   0.977   1.430
 3189SOL    HW110466   1.514   1.045   1.358
 3189SOL    HW210467   1.468   0.891   1.387
 3190SOL     OW10468   6.809   5.997   0.536
 3190SOL    HW110469   6.846   6.007   0.443
 3190SOL    HW210470   6.878   6.024   0.603
 3191SOL     OW10471   5.320   6.394   0.824
 3191SOL    HW110472   5.237   6.354   0.782
 3191SOL    HW210473   5.382   6.424   0.752
 3192SOL     OW10474   6.931   2.233   1.440
 3192SOL    HW110475   6.908   2.214   1.344
 3192SOL    HW210476   6.929   2.332   1.456
 3193SOL     OW10477   3.446   1.405   6.502
 3193SOL    HW110478   3.367   1.350   6.472
 3193SOL    HW210479   3.427   1.443   6.592
 3194SOL     OW10480   1.536   2.403   6.208
 3194SOL    HW110481   1.543   2.349   6.292
 3194SOL    HW210482   1.601   2.479   6.212
 3195SOL     OW10483   2.833   2.330   3.498
 3195SOL    HW110484   2.850   2.367   3.407
 3195SOL    HW210485   2.770   2.390   3.547
 3196SOL     OW10486   0.429   1.284   6.277
 3196SOL    HW110487   0.469   1.340   6.204
 3196SOL    HW210488   0.472   1.308   6.364
 3197SOL     OW10489   2.573   6.377   3.439
 3197SOL    HW110490   2.595   6.471   3.465
 3197SOL    HW210491   2.516   6.378   3.357
 3198SOL     OW10492   5.639   2.723   4.974
 3198SOL    HW110493   5.587   2.643   4.947
 3198SOL    HW210494   5.666   2.715   5.070
 3199SOL     OW10495   4.852   3.114   2.461
 3199SOL    HW110496   4.895   3.203   2.470
 3199SOL    HW210497   4.882   3.071   2.376
 3200SOL     OW10498   6.248   3.202   1.872
 3200SOL    HW110499   6.304   3.274   1.832
 3200SOL    HW210500   6.172   3.180   1.811
 3201SOL     OW10501   5.578   4.634   4.506
 3201SOL    HW110502   5.667   4.600   4.537
 3201SOL    HW210503   5.581   4.734   4.498
 3202SOL     OW10504   6.999   4.753   1.722
 3202SOL    HW110505   0.040   4.702   1.666
 3202SOL    HW210506   0.024   4.799   1.796
 3203SOL     OW10507   6.168   2.610   0.155
 3203SOL    HW110508   6.097   2.539   0.160
 3203SOL    HW210509   6.257   2.566   0.142
 3204SOL     OW10510   4.887   6.831   2.079
 3204SOL    HW110511   4.877   6.899   2.151
 3204SOL    HW210512   4.855   6.870   1.992
 3205SOL     OW10513   6.577   3.216   6.331
 3205SOL    HW110514   6.510   3.244   6.400
 3205SOL    HW210515   6.656   3.174   6.376
 3206SOL     OW10516   0.735   6.163   5.837
 3206SOL    HW110517   0.664   6.098   5.866
 3206SOL    HW210518   0.825   6.130   5.865
 3207SOL     OW10519   0.830   0.712   5.745
 3207SOL    HW110520   0.827   0.811   5.756
 3207SOL    HW210521   0.740   0.673   5.766
 3208SOL     OW10522   5.138   6.383   5.463
 3208SOL    HW110523   5.060   6.325   5.488
 3208SOL    HW210524   5.150   6.454   5.533
 3209SOL     OW10525   4.301   6.130   2.990
 3209SOL    HW110526   4.283   6.143   3.087
 3209SOL    HW210527   4.334   6.216   2.950
 3210SOL     OW10528   1.067   4.365   1.359
 3210SOL    HW110529   1.094   4.351   1.454
 3210SOL    HW210530   1.130   4.315   1.299
 3211SOL     OW10531   1.419   3.972   0.770
 3211SOL    HW110532   1.374   3.941   0.687
 3211SOL    HW210533   1.485   4.044   0.747
 3212SOL     OW10534   3.216   0.653   0.950
 3212SOL    HW110535   3.211   0.555   0.932
 3212SOL    HW210536   3.272   0.697   0.880
 3213SOL     OW10537   0.446   5.776   1.968
 3213SOL    HW110538   0.447   5.688   1.922
 3213SOL    HW210539   0.366   5.828   1.940
 3214SOL     OW10540   4.795   5.577   0.445
 3214SOL    HW110541   4.882   5.608   0.484
 3214SOL    HW210542   4.722   5.639   0.474
 3215SOL     OW10543   6.673   3.694   1.027
 3215SOL    HW110544   6.748   3.710   1.092
 3215SOL    HW210545   6.594   3.658   1.076
 3216SOL     OW10546   6.123   5.120   0.827
 3216SOL    HW110547   6.061   5.077   0.763
 3216SOL    HW210548   6.123   5.069   0.913
 3217SOL     OW10549   0.329   5.287   2.400
 3217SOL    HW110550   0.409   5.249   2.446
 3217SOL    HW210551   0.298   5.369   2.449
 3218SOL     OW10552   4.072   1.052   3.525
 3218SOL    HW110553   3.981   1.025   3.555
 3218SOL    HW210554   4.067   1.091   3.433
 3219SOL     OW10555   6.971   1.522   3.353
 3219SOL    HW110556   6.929   1.612   3.346
 3219SOL    HW210557   0.036   1.523   3.307
 3220SOL     OW10558   6.187   6.083   6.312
 3220SOL    HW110559   6.109   6.056   6.367
 3220SOL    HW210560   6.186   6.033   6.225
 3221SOL     OW10561   3.878   0.596   1.462
 3221SOL    HW110562   3.885   0.573   1.365
 3221SOL    HW210563   3.895   0.514   1.517
 3222SOL     OW10564   3.923   1.703   2.591
 3222SOL    HW110565   3.883   1.631   2.648
 3222SOL    HW210566   3.926   1.672   2.496
 3223SOL     OW10567   1.765   5.469   6.306
 3223SOL    HW110568   1.785   5.488   6.402
 3223SOL    HW210569   1.846   5.427   6.264
 3224SOL     OW10570   4.545   3.850   6.810
 3224SOL    HW110571   4.462   3.794   6.815
 3224SOL    HW210572   4.552   3.890   6.719
 3225SOL     OW10573   4.730   3.664   6.605
 3225SOL    HW110574   4.786   3.720   6.666
 3225SOL    HW210575   4.698   3.719   6.529
 3226SOL     OW10576   2.034   1.443   3.788
 3226SOL    HW110577   2.055   1.425   3.692
 3226SOL    HW210578   2.116   1.427   3.843
 3227SOL     OW10579   3.917   2.296   0.072
 3227SOL    HW110580   3.874   2.207   0.088
 3227SOL    HW210581   3.913   2.351   0.155
 3228SOL     OW10582   6.484   4.300   2.854
 3228SOL    HW110583   6.415   4.244   2.900
 3228SOL    HW210584   6.486   4.276   2.757
 3229SOL     OW10585   3.859   0.483   5.492
 3229SOL    HW110586   3.838   0.437   5.406
 3229SOL    HW210587   3.905   0.418   5.554
 3230SOL     OW10588   1.855   3.317   4.582
 3230SOL    HW110589   1.795   3.383   4.628
 3230SOL    HW210590   1.818   3.294   4.492
 3231SOL     OW10591   2.390   0.603   1.438
 3231SOL    HW110592   2.379   0.588   1.537
 3231SOL    HW210593   2.322   0.549   1.389
 3232SOL     OW10594   4.739   5.261   5.266
 3232SOL    HW110595   4.772   5.168   5.249
 3232SOL    HW210596   4.743   5.314   5.182
 3233SOL     OW10597   1.155   2.966   1.713
 3233SOL    HW110598   1.215   2.886   1.712
 3233SOL    HW210599   1.060   2.936   1.706
 3234SOL     OW10600   0.118   1.808   6.845
 3234SOL    HW110601   0.154   1.730   6.795
 3234SOL    HW210602   0.093   1.880   6.781
 3235SOL     OW10603   5.444   0.980   1.564
 3235SOL    HW110604   5.379   0.953   1.636
 3235SOL    HW210605   5.446   1.079   1.557
 3236SOL     OW10606   1.113   3.513   1.015
 3236SOL    HW110607   1.180   3.494   0.943
 3236SOL    HW210608   1.157   3.505   1.104
 3237SOL     OW10609   4.724   1.781   3.943
 3237SOL    HW110610   4.760   1.688   3.944
 3237SOL    HW210611   4.790   1.843   3.987
 3238SOL     OW10612   0.134   4.660   0.613
 3238SOL    HW110613   0.167   4.723   0.684
 3238SOL    HW210614   0.188   4.672   0.530
 3239SOL     OW10615   6.635   1.490   1.854
 3239SOL    HW110616   6.685   1.518   1.936
 3239SOL    HW210617   6.571   1.562   1.827
 3240SOL     OW10618   1.278   0.178   6.101
 3240SOL    HW110619   1.199   0.231   6.133
 3240SOL    HW210620   1.351   0.239   6.072
 3241SOL     OW10621   4.519   1.996   5.395
 3241SOL    HW110622   4.502   2.034   5.304
 3241SOL    HW210623   4.618   1.985   5.409
 3242SOL     OW10624   3.650   4.473   0.022
 3242SOL    HW110625   3.555   4.494   0.045
 3242SOL    HW210626   3.693   4.423   0.096
 3243SOL     OW10627   4.542   4.494   0.290
 3243SOL    HW110628   4.525   4.396   0.302
 3243SOL    HW210629   4.591   4.529   0.370
 3244SOL     OW10630   5.289   5.865   0.130
 3244SOL    HW110631   5.190   5.875   0.120
 3244SOL    HW210632   5.335   5.906   0.052
 3245SOL     OW10633   4.844   3.093   5.024
 3245SOL    HW110634   4.823   3.124   4.931
 3245SOL    HW210635   4.847   3.173   5.084
 3246SOL     OW10636   5.481   0.672   2.467
 3246SOL    HW110637   5.433   0.585   2.455
 3246SOL    HW210638   5.569   0.667   2.420
 3247SOL     OW10639   5.928   4.281   2.472
 3247SOL    HW110640   5.913   4.265   2.374
 3247SOL    HW210641   6.026   4.294   2.489
 3248SOL     OW10642   6.819   3.597   0.807
 3248SOL    HW110643   6.801   3.498   0.810
 3248SOL    HW210644   6.785   3.639   0.891
 3249SOL     OW10645   3.976   3.163   4.139
 3249SOL    HW110646   3.972   3.079   4.085
 3249SOL    HW210647   3.946   3.241   4.083
 3250SOL     OW10648   6.179   6.586   2.283
 3250SOL    HW110649   6.198   6.544   2.372
 3250SOL    HW210650   6.238   6.545   2.214
 3251SOL     OW10651   2.955   0.980   2.608
 3251SOL    HW110652   2.970   1.038   2.527
 3251SOL    HW210653   3.026   0.999   2.675
 3252SOL     OW10654   2.427   2.066   2.747
 3252SOL    HW110655   2.501   2.000   2.753
 3252SOL    HW210656   2.339   2.018   2.746
 3253SOL     OW10657   5.445   3.078   2.018
 3253SOL    HW110658   5.385   3.157   2.029
 3253SOL    HW210659   5.390   2.994   2.016
 3254SOL     OW10660   5.052   5.420   5.273
 3254SOL    HW110661   4.991   5.403   5.351
 3254SOL    HW210662   5.015   5.493   5.216
 3255SOL     OW10663   5.269   5.339   0.292
 3255SOL    HW110664   5.237   5.433   0.284
 3255SOL    HW210665   5.202   5.277   0.250
 3256SOL     OW10666   3.740   0.514   0.004
 3256SOL    HW110667   3.822   0.460   7.005
 3256SOL    HW210668   3.697   0.476   0.085
 3257SOL     OW10669   1.794   1.505   1.326
 3257SOL    HW110670   1.813   1.487   1.422
 3257SOL    HW210671   1.767   1.600   1.314
 3258SOL     OW10672   4.177   4.665   1.812
 3258SOL    HW110673   4.256   4.639   1.868
 3258SOL    HW210674   4.174   4.608   1.730
 3259SOL     OW10675   4.685   5.319   3.665
 3259SOL    HW110676   4.704   5.289   3.571
 3259SOL    HW210677   4.730   5.258   3.729
 3260SOL     OW10678   1.720   2.087   0.788
 3260SOL    HW110679   1.734   2.022   0.863
 3260SOL    HW210680   1.774   2.060   0.709
 3261SOL     OW10681   4.764   6.959   0.817
 3261SOL    HW110682   4.811   6.886   0.865
 3261SOL    HW210683   4.739   6.928   0.725
 3262SOL     OW10684   3.297   2.115   2.181
 3262SOL    HW110685   3.204   2.126   2.146
 3262SOL    HW210686   3.324   2.197   2.231
 3263SOL     OW10687   2.618   0.949   3.314
 3263SOL    HW110688   2.715   0.923   3.315
 3263SOL    HW210689   2.603   1.021   3.246
 3264SOL     OW10690   1.553   4.431   0.681
 3264SOL    HW110691   1.620   4.474   0.621
 3264SOL    HW210692   1.580   4.337   0.701
 3265SOL     OW10693   4.694   1.004   6.427
 3265SOL    HW110694   4.738   0.975   6.512
 3265SOL    HW210695   4.706   0.933   6.357
 3266SOL     OW10696   0.903   3.619   0.574
 3266SOL    HW110697   0.846   3.553   0.624
 3266SOL    HW210698   0.914   3.701   0.629
 3267SOL     OW10699   3.749   1.124   0.779
 3267SOL    HW110700   3.659   1.119   0.737
 3267SOL    HW210701   3.819   1.100   0.711
 3268SOL     OW10702   1.513   4.199   0.183
 3268SOL    HW110703   1.574   4.203   0.262
 3268SOL    HW210704   1.427   4.155   0.210
 3269SOL     OW10705   4.260   5.039   2.390
 3269SOL    HW110706   4.267   5.082   2.479
 3269SOL    HW210707   4.186   4.972   2.391
 3270SOL     OW10708   0.729   4.218   5.280
 3270SOL    HW110709   0.727   4.118   5.289
 3270SOL    HW210710   0.692   4.243   5.190
 3271SOL     OW10711   6.073   3.352   2.339
 3271SOL    HW110712   6.150   3.289   2.330
 3271SOL    HW210713   6.107   3.444   2.358
 3272SOL     OW10714   3.293   4.014   6.273
 3272SOL    HW110715   3.345   4.056   6.199
 3272SOL    HW210716   3.196   4.026   6.257
 3273SOL     OW10717   0.699   6.071   1.551
 3273SOL    HW110718   0.677   6.169   1.554
 3273SOL    HW210719   0.617   6.018   1.574
 3274SOL     OW10720   4.614   1.732   1.438
 3274SOL    HW110721   4.674   1.664   1.397
 3274SOL    HW210722   4.531   1.688   1.471
 3275SOL     OW10723   7.002   1.245   6.440
 3275SOL    HW110724   6.992   1.325   6.500
 3275SOL    HW210725   0.071   1.243   6.403
 3276SOL     OW10726   2.256   5.900   0.392
 3276SOL    HW110727   2.249   5.897   0.492
 3276SOL    HW210728   2.320   5.972   0.365
 3277SOL     OW10729   4.402   6.810   0.648
 3277SOL    HW110730   4.303   6.819   0.641
 3277SOL    HW210731   4.446   6.875   0.586
 3278SOL     OW10732   0.863   0.886   6.341
 3278SOL    HW110733   0.816   0.814   6.391
 3278SOL    HW210734   0.796   0.948   6.301
 3279SOL     OW10735   5.937   1.073   0.178
 3279SOL    HW110736   5.902   1.164   0.157
 3279SOL    HW210737   5.896   1.040   0.263
 3280SOL     OW10738   3.809   5.344   5.052
 3280SOL    HW110739   3.786   5.441   5.056
 3280SOL    HW210740   3.815   5.315   4.956
 3281SOL     OW10741   2.143   5.821   1.615
 3281SOL    HW110742   2.220   5.840   1.675
 3281SOL    HW210743   2.146   5.725   1.587
 3282SOL     OW10744   0.545   5.069   5.534
 3282SOL    HW110745   0.626   5.076   5.592
 3282SOL    HW210746   0.506   4.978   5.542
 3283SOL     OW10747   4.639   1.097   1.253
 3283SOL    HW110748   4.631   1.132   1.346
 3283SOL    HW210749   4.729   1.122   1.216
 3284SOL     OW10750   6.641   5.454   7.001
 3284SOL    HW110751   6.616   5.365   0.014
 3284SOL    HW210752   6.649   5.520   0.052
 3285SOL     OW10753   5.030   2.867   3.920
 3285SOL    HW110754   5.042   2.964   3.899
 3285SOL    HW210755   4.957   2.830   3.863
 3286SOL     OW10756   4.031   3.531   2.525
 3286SOL    HW110757   3.941   3.574   2.530
 3286SOL    HW210758   4.037   3.475   2.443
 3287SOL     OW10759   1.298   6.445   6.949
 3287SOL    HW110760   1.267   6.382   6.879
 3287SOL    HW210761   1.390   6.479   6.925
 3288SOL     OW10762   0.190   5.409   5.938
 3288SOL    HW110763   0.147   5.428   6.026
 3288SOL    HW210764   0.179   5.488   5.878
 3289SOL     OW10765   2.533   6.273   5.403
 3289SOL    HW110766   2.536   6.363   5.447
 3289SOL    HW210767   2.558   6.202   5.470
 3290SOL     OW10768   0.578   0.220   1.735
 3290SOL    HW110769   0.535   0.245   1.822
 3290SOL    HW210770   0.580   0.120   1.726
 3291SOL     OW10771   1.735   6.289   1.093
 3291SOL    HW110772   1.781   6.351   1.029
 3291SOL    HW210773   1.713   6.203   1.046
 3292SOL     OW10774   0.628   0.676   1.076
 3292SOL    HW110775   0.589   0.683   0.985
 3292SOL    HW210776   0.557   0.650   1.141
 3293SOL     OW10777   0.692   3.666   3.215
 3293SOL    HW110778   0.642   3.582   3.192
 3293SOL    HW210779   0.647   3.744   3.173
 3294SOL     OW10780   6.790   1.658   5.724
 3294SOL    HW110781   6.862   1.723   5.751
 3294SOL    HW210782   6.732   1.637   5.803
 3295SOL     OW10783   1.532   3.014   1.867
 3295SOL    HW110784   1.542   3.024   1.768
 3295SOL    HW210785   1.573   2.928   1.897
 3296SOL     OW10786   1.589   6.441   2.307
 3296SOL    HW110787   1.644   6.410   2.229
 3296SOL    HW210788   1.558   6.362   2.360
 3297SOL     OW10789   3.244   0.521   4.477
 3297SOL    HW110790   3.173   0.548   4.542
 3297SOL    HW210791   3.259   0.595   4.412
 3298SOL     OW10792   5.749   1.609   4.544
 3298SOL    HW110793   5.658   1.607   4.587
 3298SOL    HW210794   5.798   1.691   4.574
 3299SOL     OW10795   2.543   5.504   4.001
 3299SOL    HW110796   2.447   5.477   4.007
 3299SOL    HW210797   2.588   5.486   4.089
 3300SOL     OW10798   6.943   1.056   5.527
 3300SOL    HW110799   7.000   0.977   5.503
 3300SOL    HW210800   6.906   1.097   5.443
 3301SOL     OW10801   2.111   3.315   3.545
 3301SOL    HW110802   2.097   3.220   3.517
 3301SOL    HW210803   2.134   3.371   3.465
 3302SOL     OW10804   0.257   5.407   5.087
 3302SOL    HW110805   0.232   5.504   5.084
 3302SOL    HW210806   0.336   5.395   5.148
 3303SOL     OW10807   3.355   3.243   2.118
 3303SOL    HW110808   3.338   3.247   2.217
 3303SOL    HW210809   3.416   3.166   2.098
 3304SOL     OW10810   1.230   5.367   4.212
 3304SOL    HW110811   1.330   5.366   4.218
 3304SOL    HW210812   1.193   5.413   4.293
 3305SOL     OW10813   1.756   1.767   3.269
 3305SOL    HW110814   1.786   1.674   3.290
 3305SOL    HW210815   1.697   1.765   3.189
 3306SOL     OW10816   2.128   5.628   4.835
 3306SOL    HW110817   2.201   5.573   4.874
 3306SOL    HW210818   2.157   5.664   4.746
 3307SOL     OW10819   6.818   5.664   0.119
 3307SOL    HW110820   6.872   5.680   0.037
 3307SOL    HW210821   6.799   5.751   0.165
 3308SOL     OW10822   3.812   6.290   0.011
 3308SOL    HW110823   3.756   6.223   0.060
 3308SOL    HW210824   3.839   6.253   6.946
 3309SOL     OW10825   6.800   5.614   2.580
 3309SOL    HW110826   6.771   5.534   2.632
 3309SOL    HW210827   6.831   5.685   2.642
 3310SOL     OW10828   0.383   3.960   5.612
 3310SOL    HW110829   0.434   3.874   5.615
 3310SOL    HW210830   0.358   3.980   5.517
 3311SOL     OW10831   2.279   3.655   1.469
 3311SOL    HW110832   2.209   3.696   1.411
 3311SOL    HW210833   2.370   3.683   1.438
 3312SOL     OW10834   4.491   4.411   5.888
 3312SOL    HW110835   4.402   4.374   5.915
 3312SOL    HW210836   4.479   4.476   5.813
 3313SOL     OW10837   0.711   5.054   3.625
 3313SOL    HW110838   0.654   5.079   3.546
 3313SOL    HW210839   0.654   5.010   3.694
 3314SOL     OW10840   2.640   1.652   3.542
 3314SOL    HW110841   2.662   1.730   3.483
 3314SOL    HW210842   2.704   1.577   3.524
 3315SOL     OW10843   6.300   3.053   4.837
 3315SOL    HW110844   6.290   3.021   4.931
 3315SOL    HW210845   6.352   2.987   4.783
 3316SOL     OW10846   4.607   2.164   5.948
 3316SOL    HW110847   4.619   2.214   5.862
 3316SOL    HW210848   4.511   2.135   5.957
 3317SOL     OW10849   4.752   3.125   1.671
 3317SOL    HW110850   4.836   3.178   1.679
 3317SOL    HW210851   4.725   3.093   1.762
 3318SOL     OW10852   3.097   0.869   0.192
 3318SOL    HW110853   3.023   0.932   0.218
 3318SOL    HW210854   3.175   0.881   0.254
 3319SOL     OW10855   6.147   0.790   4.043
 3319SOL    HW110856   6.234   0.741   4.046
 3319SOL    HW210857   6.161   0.882   4.006
 3320SOL     OW10858   5.790   0.504   5.055
 3320SOL    HW110859   5.857   0.431   5.042
 3320SOL    HW210860   5.731   0.482   5.133
 3321SOL     OW10861   4.100   2.283   0.534
 3321SOL    HW110862   4.198   2.295   0.551
 3321SOL    HW210863   4.048   2.350   0.587
 3322SOL     OW10864   5.509   3.715   0.891
 3322SOL    HW110865   5.600   3.756   0.881
 3322SOL    HW210866   5.517   3.615   0.889
 3323SOL     OW10867   3.310   2.926   0.362
 3323SOL    HW110868   3.370   2.879   0.427
 3323SOL    HW210869   3.327   2.890   0.270
 3324SOL     OW10870   1.824   4.252   6.017
 3324SOL    HW110871   1.835   4.190   6.095
 3324SOL    HW210872   1.797   4.200   5.936
 3325SOL     OW10873   2.004   3.282   6.540
 3325SOL    HW110874   1.920   3.238   6.570
 3325SOL    HW210875   2.082   3.225   6.565
 3326SOL     OW10876   5.399   2.105   2.765
 3326SOL    HW110877   5.416   2.065   2.675
 3326SOL    HW210878   5.335   2.048   2.816
 3327SOL     OW10879   2.723   5.840   1.952
 3327SOL    HW110880   2.744   5.810   2.045
 3327SOL    HW210881   2.789   5.800   1.889
 3328SOL     OW10882   4.597   1.769   1.070
 3328SOL    HW110883   4.588   1.816   0.982
 3328SOL    HW210884   4.598   1.670   1.055
 3329SOL     OW10885   5.263   0.241   4.873
 3329SOL    HW110886   5.203   0.164   4.849
 3329SOL    HW210887   5.294   0.285   4.790
 3330SOL     OW10888   6.395   5.513   1.280
 3330SOL    HW110889   6.356   5.498   1.371
 3330SOL    HW210890   6.453   5.595   1.282
 3331SOL     OW10891   1.203   3.900   1.293
 3331SOL    HW110892   1.284   3.879   1.348
 3331SOL    HW210893   1.226   3.893   1.196
 3332SOL     OW10894   6.929   4.488   0.170
 3332SOL    HW110895   6.839   4.530   0.155
 3332SOL    HW210896   6.938   4.464   0.267
 3333SOL     OW10897   2.979   4.242   6.479
 3333SOL    HW110898   3.074   4.255   6.509
 3333SOL    HW210899   2.919   4.249   6.559
 3334SOL     OW10900   2.427   3.958   1.480
 3334SOL    HW110901   2.336   3.996   1.462
 3334SOL    HW210902   2.446   3.885   1.414
 3335SOL     OW10903   4.898   0.212   5.883
 3335SOL    HW110904   4.971   0.145   5.898
 3335SOL    HW210905   4.926   0.275   5.810
 3336SOL     OW10906   1.913   6.570   4.415
 3336SOL    HW110907   1.884   6.508   4.488
 3336SOL    HW210908   1.975   6.522   4.354
 3337SOL     OW10909   2.748   4.145   1.608
 3337SOL    HW110910   2.711   4.126   1.517
 3337SOL    HW210911   2.846   4.164   1.601
 3338SOL     OW10912   6.174   2.959   2.090
 3338SOL    HW110913   6.224   2.922   2.011
 3338SOL    HW210914   6.077   2.970   2.065
 3339SOL     OW10915   1.205   6.938   6.436
 3339SOL    HW110916   1.284   6.989   6.469
 3339SOL    HW210917   1.191   6.957   6.339
 3340SOL     OW10918   3.417   2.120   3.365
 3340SOL    HW110919   3.509   2.153   3.346
 3340SOL    HW210920   3.420   2.024   3.393
 3341SOL     OW10921   0.445   4.288   4.013
 3341SOL    HW110922   0.415   4.205   4.058
 3341SOL    HW210923   0.450   4.273   3.914
 3342SOL     OW10924   1.327   6.198   4.053
 3342SOL    HW110925   1.240   6.149   4.051
 3342SOL    HW210926   1.309   6.295   4.073
 3343SOL     OW10927   5.039   3.814   0.030
 3343SOL    HW110928   5.091   3.892   0.062
 3343SOL    HW210929   5.042   3.741   0.098
 3344SOL     OW10930   6.044   3.308   3.405
 3344SOL    HW110931   6.004   3.343   3.320
 3344SOL    HW210932   6.000   3.221   3.429
 3345SOL     OW10933   1.369   2.986   6.262
 3345SOL    HW110934   1.410   3.050   6.197
 3345SOL    HW210935   1.277   3.017   6.286
 3346SOL     OW10936   0.972   1.063   6.910
 3346SOL    HW110937   1.013   1.146   6.948
 3346SOL    HW210938   0.894   1.035   6.967
 3347SOL     OW10939   1.164   2.663   4.995
 3347SOL    HW110940   1.170   2.703   5.087
 3347SOL    HW210941   1.248   2.611   4.977
 3348SOL     OW10942   4.076   3.730   4.498
 3348SOL    HW110943   4.119   3.702   4.583
 3348SOL    HW210944   4.118   3.681   4.421
 3349SOL     OW10945   1.929   5.464   2.955
 3349SOL    HW110946   1.906   5.491   2.862
 3349SOL    HW210947   2.028   5.472   2.969
 3350SOL     OW10948   7.018   2.317   5.688
 3350SOL    HW110949   0.020   2.221   5.687
 3350SOL    HW210950   6.929   2.328   5.733
 3351SOL     OW10951   5.146   1.041   2.779
 3351SOL    HW110952   5.113   1.008   2.867
 3351SOL    HW210953   5.170   0.964   2.721
 3352SOL     OW10954   6.583   3.317   0.917
 3352SOL    HW110955   6.489   3.297   0.942
 3352SOL    HW210956   6.641   3.238   0.936
 3353SOL     OW10957   3.106   5.989   2.033
 3353SOL    HW110958   3.191   6.004   1.983
 3353SOL    HW210959   3.081   5.892   2.029
 3354SOL     OW10960   4.640   2.354   5.735
 3354SOL    HW110961   4.677   2.411   5.808
 3354SOL    HW210962   4.635   2.408   5.651
 3355SOL     OW10963   2.235   2.254   6.197
 3355SOL    HW110964   2.328   2.288   6.184
 3355SOL    HW210965   2.229   2.159   6.165
 3356SOL     OW10966   0.396   5.255   5.687
 3356SOL    HW110967   0.436   5.190   5.623
 3356SOL    HW210968   0.297   5.241   5.692
 3357SOL     OW10969   2.032   3.689   1.934
 3357SOL    HW110970   2.081   3.730   1.857
 3357SOL    HW210971   2.090   3.620   1.977
 3358SOL     OW10972   4.473   2.297   1.137
 3358SOL    HW110973   4.446   2.210   1.098
 3358SOL    HW210974   4.535   2.344   1.074
 3359SOL     OW10975   0.844   6.317   2.813
 3359SOL    HW110976   0.826   6.397   2.870
 3359SOL    HW210977   0.759   6.287   2.770
 3360SOL     OW10978   1.765   0.878   6.877
 3360SOL    HW110979   1.717   0.963   6.854
 3360SOL    HW210980   1.841   0.897   6.939
 3361SOL     OW10981   0.070   5.397   4.587
 3361SOL    HW110982   0.007   5.394   4.665
 3361SOL    HW210983   0.163   5.413   4.621
 3362SOL     OW10984   3.574   1.842   2.606
 3362SOL    HW110985   3.612   1.931   2.582
 3362SOL    HW210986   3.603   1.816   2.698
 3363SOL     OW10987   7.008   1.160   2.330
 3363SOL    HW110988   6.973   1.223   2.400
 3363SOL    HW210989   6.931   1.122   2.279
 3364SOL     OW10990   1.740   4.901   3.631
 3364SOL    HW110991   1.663   4.909   3.695
 3364SOL    HW210992   1.712   4.846   3.553
 3365SOL     OW10993   0.302   2.115   4.677
 3365SOL    HW110994   0.368   2.077   4.742
 3365SOL    HW210995   0.341   2.198   4.636
 3366SOL     OW10996   5.684   5.254   4.499
 3366SOL    HW110997   5.711   5.257   4.403
 3366SOL    HW210998   5.586   5.238   4.507
 3367SOL     OW10999   3.942   3.021   2.380
 3367SOL    HW111000   4.032   3.005   2.341
 3367SOL    HW211001   3.942   3.106   2.431
 3368SOL     OW11002   0.337   6.001   6.813
 3368SOL    HW111003   0.304   6.003   6.908
 3368SOL    HW211004   0.358   5.907   6.787
 3369SOL     OW11005   3.707   1.771   0.769
 3369SOL    HW111006   3.622   1.808   0.806
 3369SOL    HW211007   3.760   1.729   0.843
 3370SOL     OW11008   7.024   6.252   0.662
 3370SOL    HW111009   6.954   6.259   0.733
 3370SOL    HW211010   0.090   6.248   0.705
 3371SOL     OW11011   2.120   2.499   1.558
 3371SOL    HW111012   2.044   2.555   1.526
 3371SOL    HW211013   2.090   2.442   1.635
 3372SOL     OW11014   6.731   2.040   0.061
 3372SOL    HW111015   6.643   2.049   0.107
 3372SOL    HW211016   6.767   1.948   0.074
 3373SOL     OW11017   0.826   1.644   3.957
 3373SOL    HW111018   0.847   1.740   3.937
 3373SOL    HW211019   0.891   1.585   3.908
 3374SOL     OW11020   1.239   6.745   4.690
 3374SOL    HW111021   1.331   6.706   4.697
 3374SOL    HW211022   1.241   6.841   4.717
 3375SOL     OW11023   0.283   4.854   0.064
 3375SOL    HW111024   0.184   4.857   0.057
 3375SOL    HW211025   0.317   4.942   0.100
 3376SOL     OW11026   4.107   3.505   4.043
 3376SOL    HW111027   4.130   3.572   3.973
 3376SOL    HW211028   4.020   3.462   4.020
 3377SOL     OW11029   6.236   5.860   6.171
 3377SOL    HW111030   6.202   5.786   6.229
 3377SOL    HW211031   6.333   5.846   6.152
 3378SOL     OW11032   1.054   0.802   0.767
 3378SOL    HW111033   1.100   0.714   0.782
 3378SOL    HW211034   1.072   0.832   0.673
 3379SOL     OW11035   0.901   1.199   5.742
 3379SOL    HW111036   0.868   1.290   5.717
 3379SOL    HW211037   0.999   1.204   5.762
 3380SOL     OW11038   5.763   6.460   4.451
 3380SOL    HW111039   5.829   6.491   4.520
 3380SOL    HW211040   5.772   6.516   4.369
 3381SOL     OW11041   0.724   2.705   1.221
 3381SOL    HW111042   0.789   2.760   1.275
 3381SOL    HW211043   0.631   2.726   1.250
 3382SOL     OW11044   0.495   2.834   0.147
 3382SOL    HW111045   0.537   2.860   0.235
 3382SOL    HW211046   0.396   2.849   0.153
 3383SOL     OW11047   3.839   6.076   1.302
 3383SOL    HW111048   3.817   6.046   1.209
 3383SOL    HW211049   3.758   6.067   1.359
 3384SOL     OW11050   2.966   3.136   0.215
 3384SOL    HW111051   3.032   3.138   0.290
 3384SOL    HW211052   2.901   3.061   0.229
 3385SOL     OW11053   0.001   3.329   4.968
 3385SOL    HW111054   6.983   3.245   5.002
 3385SOL    HW211055   0.070   3.360   5.033
 3386SOL     OW11056   5.549   4.770   0.542
 3386SOL    HW111057   5.529   4.673   0.533
 3386SOL    HW211058   5.475   4.824   0.502
 3387SOL     OW11059   2.908   0.719   2.580
 3387SOL    HW111060   2.938   0.812   2.599
 3387SOL    HW211061   2.816   0.705   2.616
 3388SOL     OW11062   5.392   3.245   2.468
 3388SOL    HW111063   5.456   3.181   2.509
 3388SOL    HW211064   5.352   3.303   2.539
 3389SOL     OW11065   6.067   5.787   6.546
 3389SOL    HW111066   6.017   5.853   6.490
 3389SOL    HW211067   6.005   5.746   6.613
 3390SOL     OW11068   5.657   6.976   6.289
 3390SOL    HW111069   5.632   7.020   6.203
 3390SOL    HW211070   5.582   6.986   6.354
 3391SOL     OW11071   4.773   2.252   4.450
 3391SOL    HW111072   4.681   2.286   4.471
 3391SOL    HW211073   4.799   2.280   4.358
 3392SOL     OW11074   2.287   0.197   3.449
 3392SOL    HW111075   2.199   0.239   3.470
 3392SOL    HW211076   2.354   0.222   3.519
 3393SOL     OW11077   6.599   5.980   1.207
 3393SOL    HW111078   6.620   6.076   1.227
 3393SOL    HW211079   6.683   5.932   1.183
 3394SOL     OW11080   5.347   3.288   1.649
 3394SOL    HW111081   5.269   3.242   1.691
 3394SOL    HW211082   5.432   3.247   1.683
 3395SOL     OW11083   5.724   3.301   3.176
 3395SOL    HW111084   5.814   3.344   3.181
 3395SOL    HW211085   5.720   3.223   3.238
 3396SOL     OW11086   4.804   1.521   3.389
 3396SOL    HW111087   4.843   1.609   3.359
 3396SOL    HW211088   4.873   1.450   3.381
 3397SOL     OW11089   3.105   5.984   5.983
 3397SOL    HW111090   3.203   5.966   5.991
 3397SOL    HW211091   3.055   5.935   6.055
 3398SOL     OW11092   0.672   6.953   5.135
 3398SOL    HW111093   0.759   6.927   5.093
 3398SOL    HW211094   0.624   7.017   5.076
 3399SOL     OW11095   5.736   4.331   3.555
 3399SOL    HW111096   5.729   4.293   3.647
 3399SOL    HW211097   5.800   4.277   3.501
 3400SOL     OW11098   4.819   3.212   0.053
 3400SOL    HW111099   4.867   3.300   0.060
 3400SOL    HW211100   4.866   3.144   0.109
 3401SOL     OW11101   0.070   3.145   7.012
 3401SOL    HW111102   0.168   3.157   7.001
 3401SOL    HW211103   0.038   3.198   0.067
 3402SOL     OW11104   4.340   5.752   6.680
 3402SOL    HW111105   4.381   5.734   6.769
 3402SOL    HW211106   4.323   5.851   6.671
 3403SOL     OW11107   3.433   5.398   5.964
 3403SOL    HW111108   3.350   5.386   5.910
 3403SOL    HW211109   3.506   5.341   5.925
 3404SOL     OW11110   5.583   2.302   0.738
 3404SOL    HW111111   5.500   2.248   0.751
 3404SOL    HW211112   5.611   2.297   0.642
 3405SOL     OW11113   6.675   4.167   5.948
 3405SOL    HW111114   6.613   4.166   5.870
 3405SOL    HW211115   6.748   4.234   5.932
 3406SOL     OW11116   1.020   3.190   2.089
 3406SOL    HW111117   1.051   3.106   2.044
 3406SOL    HW211118   1.099   3.245   2.115
 3407SOL     OW11119   1.244   4.342   6.336
 3407SOL    HW111120   1.246   4.390   6.249
 3407SOL    HW211121   1.290   4.396   6.406
 3408SOL     OW11122   5.176   3.711   4.590
 3408SOL    HW111123   5.193   3.808   4.607
 3408SOL    HW211124   5.083   3.700   4.555
 3409SOL     OW11125   3.526   6.362   6.596
 3409SOL    HW111126   3.608   6.313   6.567
 3409SOL    HW211127   3.546   6.460   6.601
 3410SOL     OW11128   6.847   6.827   1.293
 3410SOL    HW111129   6.771   6.791   1.240
 3410SOL    HW211130   6.813   6.890   1.363
 3411SOL     OW11131   0.489   3.190   0.906
 3411SOL    HW111132   0.512   3.140   0.989
 3411SOL    HW211133   0.564   3.252   0.882
 3412SOL     OW11134   4.800   2.817   0.915
 3412SOL    HW111135   4.812   2.843   1.010
 3412SOL    HW211136   4.828   2.722   0.902
 3413SOL     OW11137   5.916   1.985   0.733
 3413SOL    HW111138   5.948   2.061   0.677
 3413SOL    HW211139   5.817   1.990   0.744
 3414SOL     OW11140   3.681   1.862   5.998
 3414SOL    HW111141   3.660   1.956   6.026
 3414SOL    HW211142   3.699   1.860   5.899
 3415SOL     OW11143   1.874   3.419   4.126
 3415SOL    HW111144   1.935   3.461   4.059
 3415SOL    HW211145   1.928   3.383   4.202
 3416SOL     OW11146   5.823   6.363   0.784
 3416SOL    HW111147   5.773   6.398   0.864
 3416SOL    HW211148   5.897   6.426   0.762
 3417SOL     OW11149   0.116   5.780   3.730
 3417SOL    HW111150   0.208   5.810   3.707
 3417SOL    HW211151   0.114   5.744   3.823
 3418SOL     OW11152   3.039   6.073   3.356
 3418SOL    HW111153   2.978   6.014   3.304
 3418SOL    HW211154   3.128   6.029   3.365
 3419SOL     OW11155   2.953   5.832   6.175
 3419SOL    HW111156   3.024   5.763   6.182
 3419SOL    HW211157   2.864   5.788   6.164
 3420SOL     OW11158   6.151   2.551   3.851
 3420SOL    HW111159   6.243   2.558   3.812
 3420SOL    HW211160   6.084   2.549   3.777
 3421SOL     OW11161   4.818   1.593   4.249
 3421SOL    HW111162   4.725   1.629   4.238
 3421SOL    HW211163   4.813   1.494   4.263
 3422SOL     OW11164   2.191   0.272   0.287
 3422SOL    HW111165   2.176   0.214   0.367
 3422SOL    HW211166   2.233   0.358   0.316
 3423SOL     OW11167   0.065   4.315   6.786
 3423SOL    HW111168   0.029   4.274   6.702
 3423SOL    HW211169   7.023   4.303   6.860
 3424SOL     OW11170   1.876   6.493   0.988
 3424SOL    HW111171   1.860   6.568   1.052
 3424SOL    HW211172   1.874   6.527   0.894
 3425SOL     OW11173   5.072   5.018   2.465
 3425SOL    HW111174   5.065   5.061   2.375
 3425SOL    HW211175   5.039   4.924   2.461
 3426SOL     OW11176   4.447   2.315   0.421
 3426SOL    HW111177   4.522   2.258   0.456
 3426SOL    HW211178   4.406   2.269   0.342
 3427SOL     OW11179   0.133   1.236   1.057
 3427SOL    HW111180   0.171   1.154   1.100
 3427SOL    HW211181   0.036   1.244   1.082
 3428SOL     OW11182   2.327   5.133   0.026
 3428SOL    HW111183   2.340   5.232   0.027
 3428SOL    HW211184   2.400   5.090   0.079
 3429SOL     OW11185   0.331   1.700   0.585
 3429SOL    HW111186   0.330   1.742   0.676
 3429SOL    HW211187   0.413   1.729   0.536
 3430SOL     OW11188   1.714   6.541   5.678
 3430SOL    HW111189   1.772   6.622   5.690
 3430SOL    HW211190   1.618   6.569   5.680
 3431SOL     OW11191   1.440   0.012   1.396
 3431SOL    HW111192   1.529   6.994   1.375
 3431SOL    HW211193   1.367   6.980   1.356
 3432SOL     OW11194   1.490   3.228   5.920
 3432SOL    HW111195   1.580   3.188   5.939
 3432SOL    HW211196   1.424   3.195   5.987
 3433SOL     OW11197   1.473   6.516   4.979
 3433SOL    HW111198   1.394   6.512   5.039
 3433SOL    HW211199   1.442   6.509   4.884
 3434SOL     OW11200   4.347   1.139   2.329
 3434SOL    HW111201   4.249   1.120   2.335
 3434SOL    HW211202   4.395   1.054   2.307
 3435SOL     OW11203   1.780   0.735   0.947
 3435SOL    HW111204   1.753   0.650   0.901
 3435SOL    HW211205   1.699   0.782   0.981
 3436SOL     OW11206   4.026   6.449   0.196
 3436SOL    HW111207   3.967   6.406   0.128
 3436SOL    HW211208   3.984   6.533   0.229
 3437SOL     OW11209   2.339   0.261   5.663
 3437SOL    HW111210   2.367   0.166   5.678
 3437SOL    HW211211   2.328   0.307   5.751
 3438SOL     OW11212   0.988   3.023   0.131
 3438SOL    HW111213   0.975   3.098   0.066
 3438SOL    HW211214   1.060   3.047   0.196
 3439SOL     OW11215   2.582   6.460   4.844
 3439SOL    HW111216   2.649   6.431   4.913
 3439SOL    HW211217   2.579   6.393   4.771
 3440SOL     OW11218   2.788   3.108   1.749
 3440SOL    HW111219   2.825   3.073   1.835
 3440SOL    HW211220   2.791   3.208   1.750
 3441SOL     OW11221   6.331   5.187   5.694
 3441SOL    HW111222   6.359   5.195   5.790
 3441SOL    HW211223   6.341   5.275   5.649
 3442SOL     OW11224   2.404   4.584   1.713
 3442SOL    HW111225   2.401   4.484   1.709
 3442SOL    HW211226   2.468   4.612   1.784
 3443SOL     OW11227   3.582   6.442   2.053
 3443SOL    HW111228   3.548   6.362   2.102
 3443SOL    HW211229   3.621   6.413   1.966
 3444SOL     OW11230   4.900   5.716   6.397
 3444SOL    HW111231   4.987   5.673   6.418
 3444SOL    HW211232   4.886   5.796   6.456
 3445SOL     OW11233   5.801   5.470   2.817
 3445SOL    HW111234   5.770   5.394   2.761
 3445SOL    HW211235   5.745   5.551   2.799
 3446SOL     OW11236   6.188   1.317   1.751
 3446SOL    HW111237   6.158   1.377   1.826
 3446SOL    HW211238   6.285   1.297   1.761
 3447SOL     OW11239   5.057   5.680   0.526
 3447SOL    HW111240   5.086   5.613   0.595
 3447SOL    HW211241   5.072   5.772   0.562
 3448SOL     OW11242   3.843   0.914   6.614
 3448SOL    HW111243   3.858   0.844   6.543
 3448SOL    HW211244   3.894   0.996   6.590
 3449SOL     OW11245   5.666   5.664   4.329
 3449SOL    HW111246   5.633   5.616   4.248
 3449SOL    HW211247   5.654   5.762   4.317
 3450SOL     OW11248   0.317   2.398   6.783
 3450SOL    HW111249   0.286   2.493   6.779
 3450SOL    HW211250   0.411   2.395   6.816
 3451SOL     OW11251   2.293   6.390   0.065
 3451SOL    HW111252   2.234   6.311   0.080
 3451SOL    HW211253   2.253   6.449   7.019
 3452SOL     OW11254   5.777   1.060   6.792
 3452SOL    HW111255   5.780   1.012   6.704
 3452SOL    HW211256   5.870   1.080   6.823
 3453SOL     OW11257   6.493   5.827   6.260
 3453SOL    HW111258   6.562   5.889   6.224
 3453SOL    HW211259   6.441   5.874   6.331
 3454SOL     OW11260   0.908   2.858   4.719
 3454SOL    HW111261   0.870   2.766   4.720
 3454SOL    HW211262   0.902   2.895   4.626
 3455SOL     OW11263   2.344   2.115   4.244
 3455SOL    HW111264   2.255   2.084   4.278
 3455SOL    HW211265   2.374   2.195   4.296
 3456SOL     OW11266   5.552   5.227   1.627
 3456SOL    HW111267   5.524   5.271   1.541
 3456SOL    HW211268   5.506   5.139   1.636
 3457SOL     OW11269   2.957   5.345   3.459
 3457SOL    HW111270   2.885   5.412   3.444
 3457SOL    HW211271   2.916   5.256   3.479
 3458SOL     OW11272   4.769   0.791   1.965
 3458SOL    HW111273   4.736   0.864   2.025
 3458SOL    HW211274   4.800   0.831   1.878
 3459SOL     OW11275   5.449   3.027   2.756
 3459SOL    HW111276   5.476   3.077   2.839
 3459SOL    HW211277   5.507   3.056   2.680
 3460SOL     OW11278   2.135   2.375   6.895
 3460SOL    HW111279   2.085   2.413   6.972
 3460SOL    HW211280   2.224   2.342   6.927
 3461SOL     OW11281   5.209   4.300   5.970
 3461SOL    HW111282   5.276   4.312   5.897
 3461SOL    HW211283   5.220   4.210   6.012
 3462SOL     OW11284   0.295   3.947   4.678
 3462SOL    HW111285   0.286   3.969   4.775
 3462SOL    HW211286   0.391   3.948   4.651
 3463SOL     OW11287   1.057   4.218   2.072
 3463SOL    HW111288   1.118   4.217   1.993
 3463SOL    HW211289   0.975   4.165   2.052
 3464SOL     OW11290   6.914   4.837   4.956
 3464SOL    HW111291   6.869   4.832   4.866
 3464SOL    HW211292   7.009   4.809   4.947
 3465SOL     OW11293   1.352   2.008   2.226
 3465SOL    HW111294   1.334   1.995   2.323
 3465SOL    HW211295   1.365   1.918   2.182
 3466SOL     OW11296   6.502   5.166   6.616
 3466SOL    HW111297   6.544   5.250   6.582
 3466SOL    HW211298   6.543   5.087   6.570
 3467SOL     OW11299   2.020   3.053   6.841
 3467SOL    HW111300   1.994   2.957   6.832
 3467SOL    HW211301   1.978   3.091   6.924
 3468SOL     OW11302   4.663   6.399   3.252
 3468SOL    HW111303   4.610   6.335   3.197
 3468SOL    HW211304   4.612   6.484   3.263
 3469SOL     OW11305   5.126   0.096   3.466
 3469SOL    HW111306   5.205   0.127   3.519
 3469SOL    HW211307   5.106   0.163   3.394
 3470SOL     OW11308   6.431   3.681   1.195
 3470SOL    HW111309   6.344   3.637   1.216
 3470SOL    HW211310   6.415   3.761   1.139
 3471SOL     OW11311   4.002   5.452   4.051
 3471SOL    HW111312   4.003   5.441   3.952
 3471SOL    HW211313   3.909   5.476   4.080
 3472SOL     OW11314   2.183   0.819   2.367
 3472SOL    HW111315   2.162   0.896   2.307
 3472SOL    HW211316   2.262   0.842   2.425
 3473SOL     OW11317   0.311   2.311   0.782
 3473SOL    HW111318   0.304   2.347   0.689
 3473SOL    HW211319   0.393   2.346   0.826
 3474SOL     OW11320   2.043   4.890   2.174
 3474SOL    HW111321   2.081   4.938   2.254
 3474SOL    HW211322   2.005   4.956   2.110
 3475SOL     OW11323   1.110   5.273   4.635
 3475SOL    HW111324   1.096   5.354   4.578
 3475SOL    HW211325   1.028   5.256   4.690
 3476SOL     OW11326   3.223   2.068   3.175
 3476SOL    HW111327   3.137   2.095   3.218
 3476SOL    HW211328   3.299   2.087   3.238
 3477SOL     OW11329   3.419   5.075   1.248
 3477SOL    HW111330   3.341   5.109   1.195
 3477SOL    HW211331   3.498   5.066   1.188
 3478SOL     OW11332   2.289   6.031   4.406
 3478SOL    HW111333   2.336   5.944   4.397
 3478SOL    HW211334   2.195   6.023   4.373
 3479SOL     OW11335   1.550   0.874   2.829
 3479SOL    HW111336   1.536   0.873   2.928
 3479SOL    HW211337   1.588   0.786   2.800
 3480SOL     OW11338   0.185   0.023   5.261
 3480SOL    HW111339   0.240   7.006   5.188
 3480SOL    HW211340   0.088   0.004   5.244
 3481SOL     OW11341   4.851   0.441   0.528
 3481SOL    HW111342   4.902   0.457   0.444
 3481SOL    HW211343   4.915   0.412   0.600
 3482SOL     OW11344   5.941   1.726   1.467
 3482SOL    HW111345   5.970   1.653   1.405
 3482SOL    HW211346   5.894   1.797   1.414
 3483SOL     OW11347   4.663   1.551   1.667
 3483SOL    HW111348   4.716   1.469   1.644
 3483SOL    HW211349   4.581   1.555   1.610
 3484SOL     OW11350   2.715   3.505   1.179
 3484SOL    HW111351   2.711   3.437   1.252
 3484SOL    HW211352   2.628   3.505   1.129
 3485SOL     OW11353   1.604   0.508   3.915
 3485SOL    HW111354   1.695   0.471   3.934
 3485SOL    HW211355   1.601   0.604   3.940
 3486SOL     OW11356   2.812   1.668   2.472
 3486SOL    HW111357   2.739   1.713   2.420
 3486SOL    HW211358   2.895   1.724   2.468
 3487SOL     OW11359   5.600   2.805   5.791
 3487SOL    HW111360   5.540   2.880   5.818
 3487SOL    HW211361   5.691   2.819   5.829
 3488SOL     OW11362   5.999   1.824   5.095
 3488SOL    HW111363   6.077   1.762   5.091
 3488SOL    HW211364   6.030   1.918   5.080
 3489SOL     OW11365   3.385   6.912   0.524
 3489SOL    HW111366   3.460   6.960   0.570
 3489SOL    HW211367   3.385   6.936   0.427
 3490SOL     OW11368   4.037   4.652   6.830
 3490SOL    HW111369   3.965   4.665   6.761
 3490SOL    HW211370   4.010   4.698   6.914
 3491SOL     OW11371   5.783   2.306   5.493
 3491SOL    HW111372   5.826   2.367   5.426
 3491SOL    HW211373   5.738   2.361   5.563
 3492SOL     OW11374   1.285   5.708   1.001
 3492SOL    HW111375   1.326   5.743   0.917
 3492SOL    HW211376   1.288   5.608   1.000
 3493SOL     OW11377   5.919   4.638   6.404
 3493SOL    HW111378   6.005   4.684   6.423
 3493SOL    HW211379   5.850   4.705   6.378
 3494SOL     OW11380   3.916   0.646   1.852
 3494SOL    HW111381   3.833   0.592   1.839
 3494SOL    HW211382   3.893   0.743   1.854
 3495SOL     OW11383   4.757   5.678   1.852
 3495SOL    HW111384   4.698   5.606   1.887
 3495SOL    HW211385   4.761   5.753   1.918
 3496SOL     OW11386   0.094   4.201   0.875
 3496SOL    HW111387   0.134   4.248   0.953
 3496SOL    HW211388   0.077   4.266   0.801
 3497SOL     OW11389   3.635   0.082   3.582
 3497SOL    HW111390   3.621   0.175   3.550
 3497SOL    HW211391   3.693   0.033   3.517
 3498SOL     OW11392   1.853   2.501   0.893
 3498SOL    HW111393   1.874   2.479   0.798
 3498SOL    HW211394   1.913   2.574   0.925
 3499SOL     OW11395   4.651   2.786   4.537
 3499SOL    HW111396   4.681   2.816   4.627
 3499SOL    HW211397   4.559   2.748   4.543
 3500SOL     OW11398   1.315   3.693   4.922
 3500SOL    HW111399   1.378   3.619   4.899
 3500SOL    HW211400   1.366   3.778   4.935
 3501SOL     OW11401   1.992   5.286   4.243
 3501SOL    HW111402   1.962   5.227   4.169
 3501SOL    HW211403   2.075   5.249   4.284
 3502SOL     OW11404   6.075   2.645   2.081
 3502SOL    HW111405   6.065   2.655   2.180
 3502SOL    HW211406   6.008   2.577   2.048
 3503SOL     OW11407   6.408   6.183   5.039
 3503SOL    HW111408   6.366   6.103   5.081
 3503SOL    HW211409   6.452   6.156   4.953
 3504SOL     OW11410   2.263   1.367   0.950
 3504SOL    HW111411   2.201   1.296   0.984
 3504SOL    HW211412   2.215   1.455   0.948
 3505SOL     OW11413   5.140   4.965   4.736
 3505SOL    HW111414   5.122   5.019   4.819
 3505SOL    HW211415   5.178   4.877   4.763
 3506SOL     OW11416   4.791   6.174   5.943
 3506SOL    HW111417   4.712   6.130   5.900
 3506SOL    HW211418   4.760   6.245   6.005
 3507SOL     OW11419   2.413   0.410   7.022
 3507SOL    HW111420   2.408   0.455   0.087
 3507SOL    HW211421   2.327   0.425   6.973
 3508SOL     OW11422   2.985   2.336   5.989
 3508SOL    HW111423   3.033   2.360   5.905
 3508SOL    HW211424   3.052   2.302   6.056
 3509SOL     OW11425   5.729   0.212   6.385
 3509SOL    HW111426   5.701   0.128   6.339
 3509SOL    HW211427   5.669   0.287   6.357
 3510SOL     OW11428   1.974   2.315   1.238
 3510SOL    HW111429   1.939   2.316   1.145
 3510SOL    HW211430   2.046   2.247   1.247
 3511SOL     OW11431   2.530   4.989   0.211
 3511SOL    HW111432   2.569   4.994   0.303
 3511SOL    HW211433   2.549   4.899   0.171
 3512SOL     OW11434   6.889   4.459   0.450
 3512SOL    HW111435   6.883   4.519   0.530
 3512SOL    HW211436   6.803   4.408   0.441
 3513SOL     OW11437   6.132   3.925   0.391
 3513SOL    HW111438   6.040   3.907   0.425
 3513SOL    HW211439   6.198   3.867   0.439
 3514SOL     OW11440   6.731   1.057   1.837
 3514SOL    HW111441   6.642   1.011   1.836
 3514SOL    HW211442   6.804   0.991   1.820
 3515SOL     OW11443   4.667   6.177   3.406
 3515SOL    HW111444   4.689   6.260   3.355
 3515SOL    HW211445   4.609   6.118   3.350
 3516SOL     OW11446   4.462   0.214   1.091
 3516SOL    HW111447   4.395   0.288   1.086
 3516SOL    HW211448   4.490   0.188   0.999
 3517SOL     OW11449   0.793   2.148   0.634
 3517SOL    HW111450   0.836   2.085   0.698
 3517SOL    HW211451   0.862   2.207   0.592
 3518SOL     OW11452   5.922   4.206   4.779
 3518SOL    HW111453   5.970   4.259   4.709
 3518SOL    HW211454   5.882   4.125   4.737
 3519SOL     OW11455   1.733   1.057   6.334
 3519SOL    HW111456   1.744   1.017   6.424
 3519SOL    HW211457   1.771   1.150   6.334
 3520SOL     OW11458   2.924   4.706   6.458
 3520SOL    HW111459   2.963   4.677   6.370
 3520SOL    HW211460   2.990   4.693   6.531
 3521SOL     OW11461   5.573   3.448   0.916
 3521SOL    HW111462   5.585   3.381   0.989
 3521SOL    HW211463   5.545   3.402   0.832
 3522SOL     OW11464   5.606   4.939   2.262
 3522SOL    HW111465   5.666   4.872   2.219
 3522SOL    HW211466   5.548   4.893   2.330
 3523SOL     OW11467   3.189   4.822   5.697
 3523SOL    HW111468   3.194   4.818   5.797
 3523SOL    HW211469   3.100   4.788   5.667
 3524SOL     OW11470   2.972   1.147   0.870
 3524SOL    HW111471   3.036   1.120   0.942
 3524SOL    HW211472   2.935   1.237   0.890
 3525SOL     OW11473   0.601   4.033   1.821
 3525SOL    HW111474   0.670   4.042   1.892
 3525SOL    HW211475   0.642   3.994   1.739
 3526SOL     OW11476   2.677   6.042   3.653
 3526SOL    HW111477   2.587   6.064   3.691
 3526SOL    HW211478   2.667   6.017   3.557
 3527SOL     OW11479   6.177   3.804   5.877
 3527SOL    HW111480   6.118   3.884   5.887
 3527SOL    HW211481   6.272   3.834   5.875
 3528SOL     OW11482   1.135   5.223   4.006
 3528SOL    HW111483   1.169   5.272   4.087
 3528SOL    HW211484   1.163   5.272   3.924
 3529SOL     OW11485   4.823   6.877   5.674
 3529SOL    HW111486   4.757   6.932   5.622
 3529SOL    HW211487   4.780   6.792   5.703
 3530SOL     OW11488   2.144   4.532   3.081
 3530SOL    HW111489   2.074   4.529   3.153
 3530SOL    HW211490   2.163   4.440   3.049
 3531SOL     OW11491   4.980   4.234   0.913
 3531SOL    HW111492   4.941   4.249   0.822
 3531SOL    HW211493   4.981   4.321   0.963
 3532SOL     OW11494   2.234   0.033   0.143
 3532SOL    HW111495   2.192   6.988   0.203
 3532SOL    HW211496   2.198   0.123   0.166
 3533SOL     OW11497   1.095   2.118   2.613
 3533SOL    HW111498   1.063   2.175   2.538
 3533SOL    HW211499   1.031   2.042   2.627
 3534SOL     OW11500   6.395   1.019   5.136
 3534SOL    HW111501   6.348   1.059   5.215
 3534SOL    HW211502   6.328   0.974   5.077
 3535SOL     OW11503   7.004   5.754   0.674
 3535SOL    HW111504   6.928   5.751   0.609
 3535SOL    HW211505   0.033   5.670   0.667
 3536SOL     OW11506   2.079   2.365   3.687
 3536SOL    HW111507   2.047   2.309   3.764
 3536SOL    HW211508   2.139   2.437   3.720
 3537SOL     OW11509   2.740   5.128   0.098
 3537SOL    HW111510   2.654   5.076   0.105
 3537SOL    HW211511   2.774   5.122   0.004
 3538SOL     OW11512   2.590   0.377   4.487
 3538SOL    HW111513   2.574   0.405   4.392
 3538SOL    HW211514   2.654   0.441   4.530
 3539SOL     OW11515   5.712   3.642   6.723
 3539SOL    HW111516   5.697   3.620   6.819
 3539SOL    HW211517   5.625   3.641   6.675
 3540SOL     OW11518   1.807   1.868   4.827
 3540SOL    HW111519   1.760   1.926   4.760
 3540SOL    HW211520   1.893   1.835   4.789
 3541SOL     OW11521   2.776   2.614   6.775
 3541SOL    HW111522   2.773   2.523   6.736
 3541SOL    HW211523   2.871   2.640   6.794
 3542SOL     OW11524   0.427   3.408   1.419
 3542SOL    HW111525   0.352   3.410   1.354
 3542SOL    HW211526   0.423   3.489   1.478
 3543SOL     OW11527   0.997   3.347   5.140
 3543SOL    HW111528   0.981   3.327   5.237
 3543SOL    HW211529   1.016   3.262   5.091
 3544SOL     OW11530   2.295   4.404   6.139
 3544SOL    HW111531   2.341   4.450   6.215
 3544SOL    HW211532   2.243   4.326   6.174
 3545SOL     OW11533   3.626   5.347   6.474
 3545SOL    HW111534   3.662   5.430   6.431
 3545SOL    HW211535   3.575   5.372   6.557
 3546SOL     OW11536   6.745   4.284   2.995
 3546SOL    HW111537   6.674   4.313   2.930
 3546SOL    HW211538   6.772   4.362   3.051
 3547SOL     OW11539   6.178   3.788   3.941
 3547SOL    HW111540   6.199   3.800   3.844
 3547SOL    HW211541   6.250   3.734   3.984
 3548SOL     OW11542   5.229   0.121   5.638
 3548SOL    HW111543   5.219   0.031   5.596
 3548SOL    HW211544   5.161   0.184   5.600
 3549SOL     OW11545   0.805   4.958   5.955
 3549SOL    HW111546   0.812   5.047   6.000
 3549SOL    HW211547   0.722   4.911   5.985
 3550SOL     OW11548   5.806   2.194   5.020
 3550SOL    HW111549   5.901   2.164   5.030
 3550SOL    HW211550   5.800   2.261   4.945
 3551SOL     OW11551   3.896   1.600   4.258
 3551SOL    HW111552   3.902   1.682   4.201
 3551SOL    HW211553   3.899   1.625   4.354
 3552SOL     OW11554   6.011   6.807   2.282
 3552SOL    HW111555   5.972   6.817   2.191
 3552SOL    HW211556   6.053   6.716   2.290
 3553SOL     OW11557   3.680   5.746   6.967
 3553SOL    HW111558   3.753   5.707   6.911
 3553SOL    HW211559   3.599   5.762   6.911
 3554SOL     OW11560   4.088   2.685   0.456
 3554SOL    HW111561   4.001   2.703   0.411
 3554SOL    HW211562   4.137   2.772   0.470
 3555SOL     OW11563   0.642   3.472   4.203
 3555SOL    HW111564   0.730   3.475   4.156
 3555SOL    HW211565   0.575   3.524   4.150
 3556SOL     OW11566   3.750   0.718   4.411
 3556SOL    HW111567   3.845   0.688   4.406
 3556SOL    HW211568   3.730   0.780   4.335
 3557SOL     OW11569   1.422   0.143   4.118
 3557SOL    HW111570   1.387   0.160   4.210
 3557SOL    HW211571   1.370   0.198   4.052
 3558SOL     OW11572   1.754   5.135   2.138
 3558SOL    HW111573   1.760   5.142   2.238
 3558SOL    HW211574   1.688   5.202   2.104
 3559SOL     OW11575   0.765   5.976   4.950
 3559SOL    HW111576   0.853   5.967   4.996
 3559SOL    HW211577   0.779   5.994   4.853
 3560SOL     OW11578   2.314   5.240   2.337
 3560SOL    HW111579   2.297   5.322   2.391
 3560SOL    HW211580   2.404   5.203   2.360
 3561SOL     OW11581   5.213   4.400   5.588
 3561SOL    HW111582   5.280   4.369   5.656
 3561SOL    HW211583   5.181   4.321   5.535
 3562SOL     OW11584   2.815   1.469   3.165
 3562SOL    HW111585   2.737   1.526   3.141
 3562SOL    HW211586   2.850   1.424   3.083
 3563SOL     OW11587   6.502   2.264   6.845
 3563SOL    HW111588   6.454   2.314   6.774
 3563SOL    HW211589   6.437   2.210   6.898
 3564SOL     OW11590   0.997   4.602   2.684
 3564SOL    HW111591   0.948   4.515   2.693
 3564SOL    HW211592   0.942   4.675   2.724
 3565SOL     OW11593   3.233   6.128   4.195
 3565SOL    HW111594   3.191   6.165   4.278
 3565SOL    HW211595   3.315   6.181   4.173
 3566SOL     OW11596   6.050   2.855   6.745
 3566SOL    HW111597   6.112   2.810   6.680
 3566SOL    HW211598   6.079   2.950   6.759
 3567SOL     OW11599   0.564   2.406   6.922
 3567SOL    HW111600   0.632   2.345   6.961
 3567SOL    HW211601   0.589   2.428   6.828
 3568SOL     OW11602   5.592   4.422   4.689
 3568SOL    HW111603   5.640   4.418   4.776
 3568SOL    HW211604   5.606   4.336   4.639
 3569SOL     OW11605   2.712   2.659   6.385
 3569SOL    HW111606   2.715   2.699   6.476
 3569SOL    HW211607   2.762   2.572   6.385
 3570SOL     OW11608   5.307   0.296   5.902
 3570SOL    HW111609   5.379   0.364   5.886
 3570SOL    HW211610   5.264   0.273   5.815
 3571SOL     OW11611   0.307   5.190   6.082
 3571SOL    HW111612   0.281   5.266   6.022
 3571SOL    HW211613   0.387   5.144   6.044
 3572SOL     OW11614   5.890   4.200   3.204
 3572SOL    HW111615   5.855   4.215   3.112
 3572SOL    HW211616   5.828   4.140   3.255
 3573SOL     OW11617   0.470   4.679   4.214
 3573SOL    HW111618   0.455   4.580   4.218
 3573SOL    HW211619   0.510   4.710   4.301
 3574SOL     OW11620   0.398   4.221   0.976
 3574SOL    HW111621   0.485   4.209   0.929
 3574SOL    HW211622   0.403   4.178   1.066
 3575SOL     OW11623   5.402   4.695   2.956
 3575SOL    HW111624   5.403   4.714   3.054
 3575SOL    HW211625   5.405   4.596   2.940
 3576SOL     OW11626   0.742   1.782   6.030
 3576SOL    HW111627   0.732   1.683   6.016
 3576SOL    HW211628   0.823   1.814   5.982
 3577SOL     OW11629   1.660   2.653   6.218
 3577SOL    HW111630   1.615   2.717   6.280
 3577SOL    HW211631   1.748   2.625   6.256
 3578SOL     OW11632   2.466   2.299   0.982
 3578SOL    HW111633   2.562   2.304   0.956
 3578SOL    HW211634   2.409   2.286   0.901
 3579SOL     OW11635   5.848   3.314   4.994
 3579SOL    HW111636   5.805   3.282   5.078
 3579SOL    HW211637   5.796   3.280   4.915
 3580SOL     OW11638   5.795   2.959   1.634
 3580SOL    HW111639   5.789   3.016   1.551
 3580SOL    HW211640   5.818   2.865   1.609
 3581SOL     OW11641   0.911   5.972   3.838
 3581SOL    HW111642   0.962   5.916   3.904
 3581SOL    HW211643   0.960   6.058   3.823
 3582SOL     OW11644   0.539   2.313   5.565
 3582SOL    HW111645   0.495   2.379   5.504
 3582SOL    HW211646   0.608   2.359   5.621
 3583SOL     OW11647   1.567   3.481   6.811
 3583SOL    HW111648   1.506   3.548   6.854
 3583SOL    HW211649   1.658   3.521   6.798
 3584SOL     OW11650   5.898   5.047   6.768
 3584SOL    HW111651   5.845   5.128   6.792
 3584SOL    HW211652   5.838   4.968   6.765
 3585SOL     OW11653   4.270   6.779   4.809
 3585SOL    HW111654   4.363   6.771   4.846
 3585SOL    HW211655   4.266   6.857   4.746
 3586SOL     OW11656   0.411   2.214   4.999
 3586SOL    HW111657   0.459   2.158   4.933
 3586SOL    HW211658   0.312   2.207   4.984
 3587SOL     OW11659   2.902   5.430   6.390
 3587SOL    HW111660   2.829   5.432   6.323
 3587SOL    HW211661   2.990   5.414   6.344
 3588SOL     OW11662   1.088   2.539   5.489
 3588SOL    HW111663   1.024   2.590   5.432
 3588SOL    HW211664   1.038   2.494   5.564
 3589SOL     OW11665   3.716   1.583   5.195
 3589SOL    HW111666   3.644   1.513   5.187
 3589SOL    HW211667   3.777   1.559   5.270
 3590SOL     OW11668   1.202   2.312   0.107
 3590SOL    HW111669   1.224   2.410   0.112
 3590SOL    HW211670   1.266   2.260   0.163
 3591SOL     OW11671   5.113   3.591   6.503
 3591SOL    HW111672   5.137   3.569   6.597
 3591SOL    HW211673   5.031   3.540   6.477
 3592SOL     OW11674   6.811   4.348   1.565
 3592SOL    HW111675   6.801   4.446   1.545
 3592SOL    HW211676   6.895   4.334   1.618
 3593SOL     OW11677   1.263   5.922   5.312
 3593SOL    HW111678   1.300   5.852   5.374
 3593SOL    HW211679   1.240   5.879   5.224
 3594SOL     OW11680   4.843   0.452   3.250
 3594SOL    HW111681   4.824   0.548   3.272
 3594SOL    HW211682   4.764   0.396   3.272
 3595SOL     OW11683   2.536   5.829   6.886
 3595SOL    HW111684   2.629   5.796   6.868
 3595SOL    HW211685   2.530   5.861   6.981
 3596SOL     OW11686   6.871   2.367   3.362
 3596SOL    HW111687   6.818   2.401   3.440
 3596SOL    HW211688   6.824   2.390   3.277
 3597SOL     OW11689   1.913   1.956   4.049
 3597SOL    HW111690   1.848   1.891   4.009
 3597SOL    HW211691   1.929   2.031   3.986
 3598SOL     OW11692   0.681   5.367   6.109
 3598SOL    HW111693   0.750   5.296   6.127
 3598SOL    HW211694   0.675   5.427   6.189
 3599SOL     OW11695   0.464   1.682   6.103
 3599SOL    HW111696   0.561   1.707   6.110
 3599SOL    HW211697   0.416   1.750   6.049
 3600SOL     OW11698   0.849   3.922   0.497
 3600SOL    HW111699   0.762   3.920   0.546
 3600SOL    HW211700   0.842   3.868   0.414
 3601SOL     OW11701   5.474   4.688   6.366
 3601SOL    HW111702   5.394   4.629   6.352
 3601SOL    HW211703   5.471   4.727   6.458
 3602SOL     OW11704   1.567   2.180   1.019
 3602SOL    HW111705   1.557   2.179   0.919
 3602SOL    HW211706   1.658   2.145   1.043
 3603SOL     OW11707   3.316   0.298   3.378
 3603SOL    HW111708   3.328   0.219   3.318
 3603SOL    HW211709   3.405   0.326   3.415
 3604SOL     OW11710   6.771   4.544   3.086
 3604SOL    HW111711   6.701   4.547   3.157
 3604SOL    HW211712   6.836   4.618   3.100
 3605SOL     OW11713   6.382   4.134   5.284
 3605SOL    HW111714   6.365   4.154   5.187
 3605SOL    HW211715   6.392   4.036   5.296
 3606SOL     OW11716   6.735   6.686   5.607
 3606SOL    HW111717   6.716   6.668   5.510
 3606SOL    HW211718   6.658   6.654   5.662
 3607SOL     OW11719   5.348   6.052   1.975
 3607SOL    HW111720   5.255   6.085   1.990
 3607SOL    HW211721   5.349   5.988   1.898
 3608SOL     OW11722   5.847   1.690   3.260
 3608SOL    HW111723   5.786   1.670   3.184
 3608SOL    HW211724   5.813   1.647   3.343
 3609SOL     OW11725   1.168   6.913   4.231
 3609SOL    HW111726   1.191   6.931   4.135
 3609SOL    HW211727   1.194   6.991   4.287
 3610SOL     OW11728   1.372   0.087   5.812
 3610SOL    HW111729   1.274   0.068   5.814
 3610SOL    HW211730   1.390   0.173   5.861
 3611SOL     OW11731   4.681   5.948   5.648
 3611SOL    HW111732   4.640   6.007   5.579
 3611SOL    HW211733   4.758   5.898   5.609
 3612SOL     OW11734   6.679   0.155   6.948
 3612SOL    HW111735   6.599   0.215   6.944
 3612SOL    HW211736   6.760   0.206   6.918
 3613SOL     OW11737   4.808   5.210   1.786
 3613SOL    HW111738   4.784   5.187   1.692
 3613SOL    HW211739   4.907   5.204   1.798
 3614SOL     OW11740   3.966   3.200   1.627
 3614SOL    HW111741   4.055   3.223   1.587
 3614SOL    HW211742   3.900   3.271   1.605
 3615SOL     OW11743   4.880   5.305   7.006
 3615SOL    HW111744   4.865   5.206   7.003
 3615SOL    HW211745   4.854   5.339   0.072
 3616SOL     OW11746   0.728   2.675   6.749
 3616SOL    HW111747   0.811   2.670   6.803
 3616SOL    HW211748   0.653   2.710   6.806
 3617SOL     OW11749   4.099   1.958   6.978
 3617SOL    HW111750   4.043   2.036   6.950
 3617SOL    HW211751   4.106   1.955   0.053
 3618SOL     OW11752   2.496   2.241   5.672
 3618SOL    HW111753   2.592   2.266   5.659
 3618SOL    HW211754   2.477   2.155   5.625
 3619SOL     OW11755   5.867   2.395   4.260
 3619SOL    HW111756   5.782   2.445   4.279
 3619SOL    HW211757   5.852   2.331   4.185
 3620SOL     OW11758   5.923   6.308   6.025
 3620SOL    HW111759   5.931   6.304   5.926
 3620SOL    HW211760   5.975   6.386   6.059
 3621SOL     OW11761   3.467   2.747   5.303
 3621SOL    HW111762   3.520   2.760   5.220
 3621SOL    HW211763   3.529   2.723   5.378
 3622SOL     OW11764   1.991   1.526   4.861
 3622SOL    HW111765   1.961   1.613   4.823
 3622SOL    HW211766   1.913   1.477   4.899
 3623SOL     OW11767   6.020   5.830   4.020
 3623SOL    HW111768   6.074   5.833   3.935
 3623SOL    HW211769   5.937   5.885   4.008
 3624SOL     OW11770   1.753   6.441   1.882
 3624SOL    HW111771   1.732   6.425   1.786
 3624SOL    HW211772   1.851   6.431   1.897
 3625SOL     OW11773   6.135   2.884   0.196
 3625SOL    HW111774   6.145   2.785   0.193
 3625SOL    HW211775   6.223   2.927   0.213
 3626SOL     OW11776   1.315   2.729   6.340
 3626SOL    HW111777   1.322   2.682   6.252
 3626SOL    HW211778   1.331   2.827   6.327
 3627SOL     OW11779   3.498   2.934   3.013
 3627SOL    HW111780   3.442   2.994   3.071
 3627SOL    HW211781   3.580   2.907   3.063
 3628SOL     OW11782   1.523   1.398   1.357
 3628SOL    HW111783   1.593   1.410   1.429
 3628SOL    HW211784   1.525   1.304   1.324
 3629SOL     OW11785   6.923   1.720   5.211
 3629SOL    HW111786   6.932   1.776   5.129
 3629SOL    HW211787   7.013   1.709   5.254
 3630SOL     OW11788   5.183   2.740   4.113
 3630SOL    HW111789   5.268   2.729   4.063
 3630SOL    HW211790   5.111   2.771   4.050
 3631SOL     OW11791   2.007   6.861   3.658
 3631SOL    HW111792   1.938   6.918   3.702
 3631SOL    HW211793   2.017   6.775   3.708
 3632SOL     OW11794   5.007   5.921   1.479
 3632SOL    HW111795   4.921   5.971   1.486
 3632SOL    HW211796   5.066   5.945   1.555
 3633SOL     OW11797   3.926   1.659   5.978
 3633SOL    HW111798   3.858   1.703   5.920
 3633SOL    HW211799   4.012   1.710   5.973
 3634SOL     OW11800   1.004   4.767   4.557
 3634SOL    HW111801   0.915   4.811   4.548
 3634SOL    HW211802   1.030   4.766   4.654
 3635SOL     OW11803   3.339   0.117   6.063
 3635SOL    HW111804   3.356   0.081   6.155
 3635SOL    HW211805   3.290   0.049   6.009
 3636SOL     OW11806   0.293   5.627   0.392
 3636SOL    HW111807   0.348   5.623   0.308
 3636SOL    HW211808   0.312   5.546   0.448
 3637SOL     OW11809   6.676   1.255   2.054
 3637SOL    HW111810   6.698   1.336   1.999
 3637SOL    HW211811   6.718   1.174   2.011
 3638SOL     OW11812   0.259   3.878   3.784
 3638SOL    HW111813   0.344   3.848   3.826
 3638SOL    HW211814   0.226   3.808   3.720
 3639SOL     OW11815   3.639   4.045   0.913
 3639SOL    HW111816   3.613   4.120   0.852
 3639SOL    HW211817   3.738   4.045   0.926
 3640SOL     OW11818   3.984   1.568   0.792
 3640SOL    HW111819   4.001   1.578   0.694
 3640SOL    HW211820   3.896   1.522   0.806
 3641SOL     OW11821   5.302   3.507   2.976
 3641SOL    HW111822   5.259   3.478   3.061
 3641SOL    HW211823   5.393   3.543   2.995
 3642SOL     OW11824   5.291   1.190   6.858
 3642SOL    HW111825   5.387   1.164   6.870
 3642SOL    HW211826   5.286   1.288   6.838
 3643SOL     OW11827   2.955   5.647   4.712
 3643SOL    HW111828   2.943   5.746   4.699
 3643SOL    HW211829   3.049   5.629   4.740
 3644SOL     OW11830   6.926   1.053   1.529
 3644SOL    HW111831   6.952   1.004   1.613
 3644SOL    HW211832   6.979   1.138   1.523
 3645SOL     OW11833   0.621   2.646   3.424
 3645SOL    HW111834   0.632   2.721   3.489
 3645SOL    HW211835   0.576   2.569   3.469
 3646SOL     OW11836   0.817   3.944   6.437
 3646SOL    HW111837   0.785   3.943   6.343
 3646SOL    HW211838   0.856   4.034   6.458
 3647SOL     OW11839   2.609   4.828   6.147
 3647SOL    HW111840   2.640   4.843   6.241
 3647SOL    HW211841   2.681   4.856   6.083
 3648SOL     OW11842   3.867   4.891   1.924
 3648SOL    HW111843   3.816   4.977   1.918
 3648SOL    HW211844   3.804   4.817   1.949
 3649SOL     OW11845   5.140   2.651   1.758
 3649SOL    HW111846   5.094   2.711   1.693
 3649SOL    HW211847   5.150   2.559   1.720
 3650SOL     OW11848   0.055   5.591   1.129
 3650SOL    HW111849   0.040   5.506   1.079
 3650SOL    HW211850   0.153   5.607   1.140
 3651SOL     OW11851   0.619   6.282   4.760
 3651SOL    HW111852   0.573   6.211   4.708
 3651SOL    HW211853   0.718   6.276   4.744
 3652SOL     OW11854   5.321   6.414   3.576
 3652SOL    HW111855   5.361   6.330   3.540
 3652SOL    HW211856   5.293   6.473   3.500
 3653SOL     OW11857   0.450   0.869   3.942
 3653SOL    HW111858   0.360   0.913   3.929
 3653SOL    HW211859   0.459   0.793   3.877
 3654SOL     OW11860   3.054   4.189   0.991
 3654SOL    HW111861   3.139   4.170   1.041
 3654SOL    HW211862   2.984   4.122   1.017
 3655SOL     OW11863   1.678   5.762   4.056
 3655SOL    HW111864   1.731   5.678   4.073
 3655SOL    HW211865   1.621   5.749   3.975
 3656SOL     OW11866   0.611   3.976   1.525
 3656SOL    HW111867   0.529   4.028   1.504
 3656SOL    HW211868   0.692   4.030   1.502
 3657SOL     OW11869   5.013   5.346   5.561
 3657SOL    HW111870   4.926   5.393   5.575
 3657SOL    HW211871   5.030   5.283   5.637
 3658SOL     OW11872   1.667   4.980   5.587
 3658SOL    HW111873   1.682   5.079   5.595
 3658SOL    HW211874   1.755   4.934   5.576
 3659SOL     OW11875   1.760   3.520   5.458
 3659SOL    HW111876   1.775   3.459   5.536
 3659SOL    HW211877   1.826   3.594   5.460
 3660SOL     OW11878   6.124   6.576   4.026
 3660SOL    HW111879   6.073   6.511   4.082
 3660SOL    HW211880   6.162   6.648   4.084
 3661SOL     OW11881   5.410   0.911   5.311
 3661SOL    HW111882   5.496   0.861   5.303
 3661SOL    HW211883   5.404   0.981   5.240
 3662SOL     OW11884   3.793   0.000   3.878
 3662SOL    HW111885   3.742   0.012   3.793
 3662SOL    HW211886   3.800   6.927   3.900
 3663SOL     OW11887   2.163   1.463   0.172
 3663SOL    HW111888   2.122   1.405   0.242
 3663SOL    HW211889   2.222   1.407   0.113
 3664SOL     OW11890   4.809   2.783   1.574
 3664SOL    HW111891   4.908   2.783   1.562
 3664SOL    HW211892   4.770   2.865   1.530
 3665SOL     OW11893   1.760   6.384   5.454
 3665SOL    HW111894   1.738   6.426   5.542
 3665SOL    HW211895   1.753   6.284   5.462
 3666SOL     OW11896   1.085   3.950   3.144
 3666SOL    HW111897   1.142   3.979   3.066
 3666SOL    HW211898   1.142   3.904   3.211
 3667SOL     OW11899   0.805   0.809   2.739
 3667SOL    HW111900   0.792   0.719   2.780
 3667SOL    HW211901   0.895   0.813   2.696
 3668SOL     OW11902   1.522   0.736   1.242
 3668SOL    HW111903   1.609   0.714   1.287
 3668SOL    HW211904   1.539   0.762   1.147
 3669SOL     OW11905   4.741   0.997   3.665
 3669SOL    HW111906   4.699   1.085   3.644
 3669SOL    HW211907   4.815   0.979   3.601
 3670SOL     OW11908   2.119   5.007   6.925
 3670SOL    HW111909   2.164   5.081   6.976
 3670SOL    HW211910   2.030   4.988   6.966
 3671SOL     OW11911   6.377   1.322   4.269
 3671SOL    HW111912   6.467   1.343   4.232
 3671SOL    HW211913   6.312   1.392   4.241
 3672SOL     OW11914   5.208   1.605   0.917
 3672SOL    HW111915   5.235   1.536   0.850
 3672SOL    HW211916   5.122   1.577   0.960
 3673SOL     OW11917   4.095   6.022   6.555
 3673SOL    HW111918   4.083   5.927   6.584
 3673SOL    HW211919   4.031   6.042   6.481
 3674SOL     OW11920   0.979   6.036   5.789
 3674SOL    HW111921   0.934   5.947   5.794
 3674SOL    HW211922   1.029   6.044   5.703
 3675SOL     OW11923   2.012   3.253   3.801
 3675SOL    HW111924   2.077   3.271   3.727
 3675SOL    HW211925   2.061   3.244   3.888
 3676SOL     OW11926   5.032   4.340   3.136
 3676SOL    HW111927   5.077   4.407   3.078
 3676SOL    HW211928   4.939   4.371   3.157
 3677SOL     OW11929   2.273   6.002   3.494
 3677SOL    HW111930   2.218   6.084   3.477
 3677SOL    HW211931   2.214   5.921   3.490
 3678SOL     OW11932   0.532   2.019   4.826
 3678SOL    HW111933   0.555   1.952   4.897
 3678SOL    HW211934   0.613   2.038   4.771
 3679SOL     OW11935   1.059   0.656   3.486
 3679SOL    HW111936   1.103   0.741   3.515
 3679SOL    HW211937   1.003   0.673   3.405
 3680SOL     OW11938   5.396   3.401   4.023
 3680SOL    HW111939   5.373   3.332   4.091
 3680SOL    HW211940   5.444   3.358   3.947
 3681SOL     OW11941   0.686   0.125   6.767
 3681SOL    HW111942   0.784   0.127   6.788
 3681SOL    HW211943   0.672   0.082   6.678
 3682SOL     OW11944   5.355   2.066   0.480
 3682SOL    HW111945   5.349   2.159   0.518
 3682SOL    HW211946   5.327   2.000   0.551
 3683SOL     OW11947   6.553   0.584   3.134
 3683SOL    HW111948   6.486   0.618   3.068
 3683SOL    HW211949   6.622   0.654   3.152
 3684SOL     OW11950   1.940   4.939   0.582
 3684SOL    HW111951   1.901   5.024   0.618
 3684SOL    HW211952   1.925   4.865   0.648
 3685SOL     OW11953   0.613   6.008   6.884
 3685SOL    HW111954   0.619   5.910   6.903
 3685SOL    HW211955   0.522   6.029   6.848
 3686SOL     OW11956   5.047   5.848   3.517
 3686SOL    HW111957   4.948   5.855   3.533
 3686SOL    HW211958   5.086   5.783   3.582
 3687SOL     OW11959   3.511   5.966   5.083
 3687SOL    HW111960   3.544   5.993   4.992
 3687SOL    HW211961   3.533   6.037   5.149
 3688SOL     OW11962   6.983   3.894   6.753
 3688SOL    HW111963   6.945   3.969   6.806
 3688SOL    HW211964   6.934   3.810   6.775
 3689SOL     OW11965   2.113   6.854   5.709
 3689SOL    HW111966   2.124   6.930   5.773
 3689SOL    HW211967   2.124   6.888   5.615
 3690SOL     OW11968   4.224   6.134   0.819
 3690SOL    HW111969   4.179   6.194   0.752
 3690SOL    HW211970   4.303   6.089   0.775
 3691SOL     OW11971   2.656   1.706   6.758
 3691SOL    HW111972   2.602   1.622   6.752
 3691SOL    HW211973   2.619   1.764   6.831
 3692SOL     OW11974   6.378   5.916   5.118
 3692SOL    HW111975   6.316   5.881   5.048
 3692SOL    HW211976   6.332   5.917   5.206
 3693SOL     OW11977   2.132   3.752   3.175
 3693SOL    HW111978   2.145   3.810   3.095
 3693SOL    HW211979   2.136   3.807   3.258
 3694SOL     OW11980   1.841   6.459   3.007
 3694SOL    HW111981   1.893   6.542   3.025
 3694SOL    HW211982   1.790   6.469   2.922
 3695SOL     OW11983   6.610   3.138   1.568
 3695SOL    HW111984   6.526   3.155   1.517
 3695SOL    HW211985   6.623   3.210   1.636
 3696SOL     OW11986   3.582   6.445   5.068
 3696SOL    HW111987   3.585   6.372   5.136
 3696SOL    HW211988   3.648   6.516   5.093
 3697SOL     OW11989   0.615   6.210   2.731
 3697SOL    HW111990   0.591   6.113   2.732
 3697SOL    HW211991   0.570   6.254   2.653
 3698SOL     OW11992   2.483   0.285   3.962
 3698SOL    HW111993   2.471   0.275   4.061
 3698SOL    HW211994   2.490   0.381   3.939
 3699SOL     OW11995   1.305   2.173   3.742
 3699SOL    HW111996   1.218   2.185   3.695
 3699SOL    HW211997   1.381   2.190   3.679
 3700SOL     OW11998   0.356   5.792   4.652
 3700SOL    HW111999   0.258   5.778   4.642
 3700SOL    HW212000   0.381   5.789   4.749
 3701SOL     OW12001   1.479   0.956   3.776
 3701SOL    HW112002   1.402   0.937   3.836
 3701SOL    HW212003   1.465   1.044   3.730
 3702SOL     OW12004   5.605   6.526   3.299
 3702SOL    HW112005   5.540   6.598   3.327
 3702SOL    HW212006   5.554   6.450   3.259
 3703SOL     OW12007   5.576   1.205   5.740
 3703SOL    HW112008   5.529   1.278   5.690
 3703SOL    HW212009   5.534   1.192   5.829
 3704SOL     OW12010   3.525   1.823   1.385
 3704SOL    HW112011   3.527   1.886   1.307
 3704SOL    HW212012   3.570   1.866   1.463
 3705SOL     OW12013   4.219   4.718   3.928
 3705SOL    HW112014   4.220   4.725   4.027
 3705SOL    HW212015   4.297   4.663   3.898
 3706SOL     OW12016   1.885   3.426   0.188
 3706SOL    HW112017   1.868   3.418   0.286
 3706SOL    HW212018   1.933   3.512   0.170
 3707SOL     OW12019   5.347   4.673   3.770
 3707SOL    HW112020   5.375   4.578   3.767
 3707SOL    HW212021   5.257   4.680   3.813
 3708SOL     OW12022   0.111   0.582   6.796
 3708SOL    HW112023   0.134   0.484   6.795
 3708SOL    HW212024   0.192   0.635   6.770
 3709SOL     OW12025   3.665   0.808   0.591
 3709SOL    HW112026   3.616   0.723   0.571
 3709SOL    HW212027   3.689   0.809   0.688
 3710SOL     OW12028   6.049   5.508   5.392
 3710SOL    HW112029   5.949   5.518   5.383
 3710SOL    HW212030   6.088   5.484   5.303
 3711SOL     OW12031   1.039   6.393   4.091
 3711SOL    HW112032   0.954   6.445   4.080
 3711SOL    HW212033   1.108   6.451   4.133
 3712SOL     OW12034   6.890   5.087   6.819
 3712SOL    HW112035   6.877   5.183   6.797
 3712SOL    HW212036   6.940   5.042   6.745
 3713SOL     OW12037   1.228   6.425   5.984
 3713SOL    HW112038   1.227   6.326   5.991
 3713SOL    HW212039   1.139   6.462   6.011
 3714SOL     OW12040   5.179   6.411   5.988
 3714SOL    HW112041   5.120   6.350   5.935
 3714SOL    HW212042   5.194   6.372   6.079
 3715SOL     OW12043   0.459   4.050   2.828
 3715SOL    HW112044   0.546   4.099   2.823
 3715SOL    HW212045   0.411   4.075   2.912
 3716SOL     OW12046   6.378   6.758   4.761
 3716SOL    HW112047   6.405   6.689   4.829
 3716SOL    HW212048   6.410   6.848   4.791
 3717SOL     OW12049   6.571   6.819   6.916
 3717SOL    HW112050   6.570   6.913   6.881
 3717SOL    HW212051   6.502   6.809   6.987
 3718SOL     OW12052   1.383   0.915   6.880
 3718SOL    HW112053   1.450   0.969   6.931
 3718SOL    HW212054   1.429   0.841   6.832
 3719SOL     OW12055   5.156   4.002   1.833
 3719SOL    HW112056   5.086   4.071   1.850
 3719SOL    HW212057   5.208   4.027   1.752
 3720SOL     OW12058   6.175   2.704   6.396
 3720SOL    HW112059   6.131   2.667   6.315
 3720SOL    HW212060   6.191   2.802   6.384
 3721SOL     OW12061   6.547   4.289   1.613
 3721SOL    HW112062   6.639   4.311   1.580
 3721SOL    HW212063   6.535   4.190   1.614
 3722SOL     OW12064   6.424   6.011   0.842
 3722SOL    HW112065   6.448   5.919   0.873
 3722SOL    HW212066   6.466   6.078   0.903
 3723SOL     OW12067   6.031   5.413   1.514
 3723SOL    HW112068   6.127   5.417   1.540
 3723SOL    HW212069   5.976   5.389   1.593
 3724SOL     OW12070   1.864   4.516   4.575
 3724SOL    HW112071   1.811   4.539   4.657
 3724SOL    HW212072   1.812   4.450   4.521
 3725SOL     OW12073   6.620   5.552   0.662
 3725SOL    HW112074   6.674   5.568   0.579
 3725SOL    HW212075   6.577   5.637   0.692
 3726SOL     OW12076   5.922   3.469   0.653
 3726SOL    HW112077   6.019   3.486   0.635
 3726SOL    HW212078   5.898   3.377   0.623
 3727SOL     OW12079   6.689   1.479   4.680
 3727SOL    HW112080   6.632   1.523   4.612
 3727SOL    HW212081   6.700   1.541   4.759
 3728SOL     OW12082   1.632   3.973   6.853
 3728SOL    HW112083   1.604   4.068   6.868
 3728SOL    HW212084   1.560   3.924   6.803
 3729SOL     OW12085   1.053   2.414   3.730
 3729SOL    HW112086   1.050   2.347   3.656
 3729SOL    HW212087   0.960   2.442   3.753
 3730SOL     OW12088   2.376   5.536   5.943
 3730SOL    HW112089   2.362   5.461   6.007
 3730SOL    HW212090   2.473   5.540   5.917
 3731SOL     OW12091   0.016   1.859   0.763
 3731SOL    HW112092   0.002   1.952   0.796
 3731SOL    HW212093   0.061   1.861   0.674
 3732SOL     OW12094   3.226   1.412   0.379
 3732SOL    HW112095   3.309   1.444   0.425
 3732SOL    HW212096   3.149   1.471   0.404
 3733SOL     OW12097   1.310   3.534   2.761
 3733SOL    HW112098   1.322   3.477   2.680
 3733SOL    HW212099   1.265   3.481   2.832
 3734SOL     OW12100   4.850   0.401   1.783
 3734SOL    HW112101   4.841   0.434   1.877
 3734SOL    HW212102   4.863   0.479   1.722
 3735SOL     OW12103   2.048   1.330   3.543
 3735SOL    HW112104   2.088   1.245   3.510
 3735SOL    HW212105   2.083   1.407   3.489
 3736SOL     OW12106   6.954   2.107   0.893
 3736SOL    HW112107   6.866   2.090   0.936
 3736SOL    HW212108   6.955   2.198   0.852
 3737SOL     OW12109   5.434   1.282   3.628
 3737SOL    HW112110   5.413   1.368   3.583
 3737SOL    HW212111   5.455   1.299   3.725
 3738SOL     OW12112   0.253   0.328   2.492
 3738SOL    HW112113   0.193   0.320   2.571
 3738SOL    HW212114   0.327   0.262   2.500
 3739SOL     OW12115   2.239   4.797   1.320
 3739SOL    HW112116   2.203   4.848   1.242
 3739SOL    HW212117   2.327   4.756   1.295
 3740SOL     OW12118   5.696   1.324   1.608
 3740SOL    HW112119   5.660   1.407   1.564
 3740SOL    HW212120   5.791   1.311   1.579
 3741SOL     OW12121   5.245   2.845   0.013
 3741SOL    HW112122   5.344   2.842   7.019
 3741SOL    HW212123   5.225   2.786   0.092
 3742SOL     OW12124   2.488   2.018   0.102
 3742SOL    HW112125   2.420   1.945   0.100
 3742SOL    HW212126   2.446   2.104   0.074
 3743SOL     OW12127   5.525   4.216   0.469
 3743SOL    HW112128   5.577   4.279   0.526
 3743SOL    HW212129   5.442   4.187   0.517
 3744SOL     OW12130   1.567   6.150   2.410
 3744SOL    HW112131   1.661   6.124   2.388
 3744SOL    HW212132   1.536   6.099   2.491
 3745SOL     OW12133   4.265   4.989   1.671
 3745SOL    HW112134   4.244   5.070   1.615
 3745SOL    HW212135   4.361   4.966   1.662
 3746SOL     OW12136   5.414   0.644   3.009
 3746SOL    HW112137   5.510   0.655   3.035
 3746SOL    HW212138   5.405   0.652   2.910
 3747SOL     OW12139   2.701   6.431   5.090
 3747SOL    HW112140   2.768   6.498   5.124
 3747SOL    HW212141   2.613   6.447   5.135
 3748SOL     OW12142   5.431   1.266   1.564
 3748SOL    HW112143   5.531   1.260   1.563
 3748SOL    HW212144   5.401   1.317   1.645
 3749SOL     OW12145   1.897   5.461   3.821
 3749SOL    HW112146   1.873   5.371   3.784
 3749SOL    HW212147   1.868   5.532   3.756
 3750SOL     OW12148   0.447   4.595   1.293
 3750SOL    HW112149   0.479   4.533   1.364
 3750SOL    HW212150   0.525   4.642   1.251
 3751SOL     OW12151   6.555   3.423   1.569
 3751SOL    HW112152   6.529   3.407   1.474
 3751SOL    HW212153   6.587   3.517   1.581
 3752SOL     OW12154   5.522   0.425   1.125
 3752SOL    HW112155   5.470   0.510   1.112
 3752SOL    HW212156   5.479   0.352   1.072
 3753SOL     OW12157   6.286   0.061   4.560
 3753SOL    HW112158   6.214   0.125   4.586
 3753SOL    HW212159   6.271   0.030   4.466
 3754SOL     OW12160   3.097   1.139   1.138
 3754SOL    HW112161   3.181   1.101   1.177
 3754SOL    HW212162   3.018   1.085   1.168
 3755SOL     OW12163   4.872   5.026   4.047
 3755SOL    HW112164   4.871   5.054   4.143
 3755SOL    HW212165   4.950   4.966   4.031
 3756SOL     OW12166   3.169   5.074   6.631
 3756SOL    HW112167   3.210   5.071   6.723
 3756SOL    HW212168   3.237   5.107   6.566
 3757SOL     OW12169   5.140   6.031   6.954
 3757SOL    HW112170   5.105   6.124   6.964
 3757SOL    HW212171   5.240   6.032   6.960
 3758SOL     OW12172   2.367   0.997   4.826
 3758SOL    HW112173   2.356   1.082   4.776
 3758SOL    HW212174   2.436   1.008   4.898
 3759SOL     OW12175   4.420   6.987   6.686
 3759SOL    HW112176   4.476   7.001   6.604
 3759SOL    HW212177   4.444   0.032   6.755
 3760SOL     OW12178   1.939   1.421   4.452
 3760SOL    HW112179   1.898   1.412   4.362
 3760SOL    HW212180   1.932   1.517   4.482
 3761SOL     OW12181   1.085   1.332   4.549
 3761SOL    HW112182   1.031   1.414   4.570
 3761SOL    HW212183   1.115   1.289   4.635
 3762SOL     OW12184   1.635   4.677   1.102
 3762SOL    HW112185   1.634   4.771   1.068
 3762SOL    HW212186   1.697   4.621   1.046
 3763SOL     OW12187   6.849   4.201   0.944
 3763SOL    HW112188   6.832   4.206   1.043
 3763SOL    HW212189   6.948   4.194   0.928
 3764SOL     OW12190   1.663   0.358   2.424
 3764SOL    HW112191   1.704   0.272   2.395
 3764SOL    HW212192   1.733   0.429   2.429
 3765SOL     OW12193   5.030   1.629   1.267
 3765SOL    HW112194   4.984   1.662   1.185
 3765SOL    HW212195   4.984   1.547   1.301
 3766SOL     OW12196   2.189   1.483   4.341
 3766SOL    HW112197   2.101   1.460   4.382
 3766SOL    HW212198   2.251   1.405   4.348
 3767SOL     OW12199   2.048   4.657   6.820
 3767SOL    HW112200   2.055   4.742   6.768
 3767SOL    HW212201   1.988   4.670   6.898
 3768SOL     OW12202   0.801   6.251   4.198
 3768SOL    HW112203   0.888   6.299   4.205
 3768SOL    HW212204   0.798   6.200   4.113
 3769SOL     OW12205   6.167   6.088   4.468
 3769SOL    HW112206   6.127   6.032   4.396
 3769SOL    HW212207   6.103   6.095   4.545
 3770SOL     OW12208   1.411   0.926   6.188
 3770SOL    HW112209   1.501   0.884   6.195
 3770SOL    HW212210   1.414   1.018   6.228
 3771SOL     OW12211   5.208   2.706   0.254
 3771SOL    HW112212   5.208   2.617   0.209
 3771SOL    HW212213   5.147   2.704   0.333
 3772SOL     OW12214   0.148   1.561   7.022
 3772SOL    HW112215   0.058   1.525   0.022
 3772SOL    HW212216   0.165   1.548   6.924
 3773SOL     OW12217   5.791   3.289   5.878
 3773SOL    HW112218   5.738   3.369   5.848
 3773SOL    HW212219   5.767   3.210   5.822
 3774SOL     OW12220   6.381   5.829   1.264
 3774SOL    HW112221   6.448   5.894   1.228
 3774SOL    HW212222   6.313   5.878   1.319
 3775SOL     OW12223   4.633   5.215   2.075
 3775SOL    HW112224   4.547   5.178   2.109
 3775SOL    HW212225   4.665   5.158   1.999
 3776SOL     OW12226   4.537   2.145   6.701
 3776SOL    HW112227   4.632   2.114   6.701
 3776SOL    HW212228   4.503   2.145   6.795
 3777SOL     OW12229   3.443   5.894   3.677
 3777SOL    HW112230   3.486   5.932   3.759
 3777SOL    HW212231   3.504   5.908   3.599
 3778SOL     OW12232   3.034   4.997   2.590
 3778SOL    HW112233   2.935   5.006   2.581
 3778SOL    HW212234   3.058   4.988   2.687
 3779SOL     OW12235   1.336   4.612   0.605
 3779SOL    HW112236   1.253   4.662   0.579
 3779SOL    HW212237   1.417   4.664   0.577
 3780SOL     OW12238   5.855   5.086   4.924
 3780SOL    HW112239   5.904   5.117   4.842
 3780SOL    HW212240   5.914   5.027   4.978
 3781SOL     OW12241   0.583   6.401   4.408
 3781SOL    HW112242   0.590   6.310   4.369
 3781SOL    HW212243   0.489   6.435   4.399
 3782SOL     OW12244   2.274   0.235   3.183
 3782SOL    HW112245   2.343   0.184   3.131
 3782SOL    HW212246   2.289   0.222   3.281
 3783SOL     OW12247   5.464   5.228   3.637
 3783SOL    HW112248   5.375   5.265   3.662
 3783SOL    HW212249   5.535   5.296   3.657
 3784SOL     OW12250   4.634   2.663   2.920
 3784SOL    HW112251   4.558   2.687   2.859
 3784SOL    HW212252   4.694   2.741   2.931
 3785SOL     OW12253   1.791   3.382   5.935
 3785SOL    HW112254   1.798   3.444   6.013
 3785SOL    HW212255   1.873   3.325   5.930
 3786SOL     OW12256   2.368   5.167   2.932
 3786SOL    HW112257   2.354   5.127   3.022
 3786SOL    HW212258   2.332   5.261   2.932
 3787SOL     OW12259   5.813   1.401   2.994
 3787SOL    HW112260   5.913   1.403   2.985
 3787SOL    HW212261   5.773   1.457   2.921
 3788SOL     OW12262   0.070   5.097   4.691
 3788SOL    HW112263   6.997   5.112   4.710
 3788SOL    HW212264   0.086   5.096   4.593
 3789SOL     OW12265   6.893   2.951   4.446
 3789SOL    HW112266   6.801   2.939   4.484
 3789SOL    HW212267   6.922   2.864   4.405
 3790SOL     OW12268   1.246   4.354   5.879
 3790SOL    HW112269   1.293   4.266   5.872
 3790SOL    HW212270   1.147   4.339   5.881
 3791SOL     OW12271   5.500   1.305   6.512
 3791SOL    HW112272   5.476   1.215   6.474
 3791SOL    HW212273   5.438   1.374   6.476
 3792SOL     OW12274   0.854   2.529   4.123
 3792SOL    HW112275   0.869   2.453   4.186
 3792SOL    HW212276   0.835   2.613   4.175
 3793SOL     OW12277   4.863   6.276   1.858
 3793SOL    HW112278   4.921   6.328   1.921
 3793SOL    HW212279   4.833   6.336   1.783
 3794SOL     OW12280   2.212   3.001   1.138
 3794SOL    HW112281   2.282   2.938   1.105
 3794SOL    HW212282   2.247   3.051   1.218
 3795SOL     OW12283   4.055   6.278   0.616
 3795SOL    HW112284   4.062   6.371   0.653
 3795SOL    HW212285   4.097   6.275   0.525
 3796SOL     OW12286   3.361   2.083   1.750
 3796SOL    HW112287   3.430   2.142   1.709
 3796SOL    HW212288   3.390   2.057   1.842
 3797SOL     OW12289   0.387   3.122   1.881
 3797SOL    HW112290   0.335   3.192   1.931
 3797SOL    HW212291   0.339   3.035   1.887
 3798SOL     OW12292   2.665   5.053   3.085
 3798SOL    HW112293   2.639   5.135   3.136
 3798SOL    HW212294   2.587   4.991   3.079
 3799SOL     OW12295   6.890   2.406   3.797
 3799SOL    HW112296   6.888   2.306   3.796
 3799SOL    HW212297   6.975   2.437   3.839
 3800SOL     OW12298   5.904   3.075   4.256
 3800SOL    HW112299   5.836   3.021   4.206
 3800SOL    HW212300   5.874   3.170   4.260
 3801SOL     OW12301   6.115   0.070   1.927
 3801SOL    HW112302   6.055   0.007   1.878
 3801SOL    HW212303   6.090   0.072   2.024
 3802SOL     OW12304   1.325   2.239   1.616
 3802SOL    HW112305   1.404   2.240   1.677
 3802SOL    HW212306   1.356   2.233   1.521
 3803SOL     OW12307   4.071   3.174   2.087
 3803SOL    HW112308   3.979   3.190   2.049
 3803SOL    HW212309   4.119   3.107   2.030
 3804SOL     OW12310   4.494   1.831   3.778
 3804SOL    HW112311   4.571   1.800   3.835
 3804SOL    HW212312   4.507   1.799   3.685
 3805SOL     OW12313   2.528   2.843   1.259
 3805SOL    HW112314   2.534   2.839   1.359
 3805SOL    HW212315   2.491   2.757   1.224
 3806SOL     OW12316   3.338   3.452   6.174
 3806SOL    HW112317   3.355   3.535   6.122
 3806SOL    HW212318   3.426   3.411   6.201
 3807SOL     OW12319   1.511   6.116   2.865
 3807SOL    HW112320   1.477   6.209   2.882
 3807SOL    HW212321   1.529   6.071   2.953
 3808SOL     OW12322   4.858   1.059   0.912
 3808SOL    HW112323   4.773   1.009   0.894
 3808SOL    HW212324   4.874   1.124   0.838
 3809SOL     OW12325   5.592   2.571   1.776
 3809SOL    HW112326   5.675   2.626   1.788
 3809SOL    HW212327   5.522   2.626   1.731
 3810SOL     OW12328   4.721   2.702   3.456
 3810SOL    HW112329   4.808   2.751   3.450
 3810SOL    HW212330   4.717   2.632   3.384
 3811SOL     OW12331   1.340   5.394   4.832
 3811SOL    HW112332   1.367   5.465   4.767
 3811SOL    HW212333   1.257   5.349   4.799
 3812SOL     OW12334   4.918   5.569   5.090
 3812SOL    HW112335   4.996   5.552   5.029
 3812SOL    HW212336   4.840   5.514   5.061
 3813SOL     OW12337   4.377   3.379   0.852
 3813SOL    HW112338   4.444   3.394   0.779
 3813SOL    HW212339   4.386   3.286   0.888
 3814SOL     OW12340   0.366   0.161   6.588
 3814SOL    HW112341   0.426   0.088   6.556
 3814SOL    HW212342   0.289   0.120   6.637
 3815SOL     OW12343   4.308   2.498   0.570
 3815SOL    HW112344   4.386   2.445   0.536
 3815SOL    HW212345   4.244   2.515   0.496
 3816SOL     OW12346   1.163   5.407   6.771
 3816SOL    HW112347   1.128   5.460   6.848
 3816SOL    HW212348   1.138   5.452   6.685
 3817SOL     OW12349   4.892   3.414   2.817
 3817SOL    HW112350   4.879   3.316   2.829
 3817SOL    HW212351   4.935   3.432   2.729
 3818SOL     OW12352   6.060   1.019   6.820
 3818SOL    HW112353   6.031   0.924   6.805
 3818SOL    HW212354   6.071   1.064   6.731
 3819SOL     OW12355   5.423   5.599   1.908
 3819SOL    HW112356   5.324   5.585   1.913
 3819SOL    HW212357   5.457   5.629   1.997
 3820SOL     OW12358   4.903   6.955   4.178
 3820SOL    HW112359   4.963   6.885   4.215
 3820SOL    HW212360   4.930   0.021   4.212
 3821SOL     OW12361   2.568   1.341   0.926
 3821SOL    HW112362   2.611   1.265   0.976
 3821SOL    HW212363   2.469   1.337   0.938
 3822SOL     OW12364   2.138   0.104   1.089
 3822SOL    HW112365   2.146   0.100   0.990
 3822SOL    HW212366   2.068   0.170   1.114
 3823SOL     OW12367   3.537   3.133   5.958
 3823SOL    HW112368   3.574   3.192   5.886
 3823SOL    HW212369   3.437   3.135   5.954
 3824SOL     OW12370   6.768   2.592   0.401
 3824SOL    HW112371   6.834   2.521   0.379
 3824SOL    HW212372   6.779   2.620   0.496
 3825SOL     OW12373   0.490   5.818   0.828
 3825SOL    HW112374   0.584   5.838   0.799
 3825SOL    HW212375   0.430   5.820   0.748
 3826SOL     OW12376   1.155   3.302   6.516
 3826SOL    HW112377   1.185   3.397   6.505
 3826SOL    HW212378   1.185   3.268   6.605
 3827SOL     OW12379   1.524   1.363   2.008
 3827SOL    HW112380   1.614   1.389   2.044
 3827SOL    HW212381   1.500   1.421   1.931
 3828SOL     OW12382   3.535   3.540   2.510
 3828SOL    HW112383   3.496   3.528   2.418
 3828SOL    HW212384   3.586   3.458   2.535
 3829SOL     OW12385   1.787   4.876   3.032
 3829SOL    HW112386   1.748   4.938   3.100
 3829SOL    HW212387   1.856   4.925   2.979
 3830SOL     OW12388   0.554   1.652   4.747
 3830SOL    HW112389   0.548   1.557   4.714
 3830SOL    HW212390   0.463   1.693   4.745
 3831SOL     OW12391   4.522   2.543   2.352
 3831SOL    HW112392   4.593   2.604   2.315
 3831SOL    HW212393   4.462   2.513   2.278
 3832SOL     OW12394   5.554   0.931   2.761
 3832SOL    HW112395   5.516   0.986   2.835
 3832SOL    HW212396   5.648   0.905   2.783
 3833SOL     OW12397   0.478   6.596   6.303
 3833SOL    HW112398   0.458   6.649   6.221
 3833SOL    HW212399   0.440   6.643   6.383
 3834SOL     OW12400   4.522   4.604   1.462
 3834SOL    HW112401   4.619   4.605   1.487
 3834SOL    HW212402   4.475   4.531   1.512
 3835SOL     OW12403   3.681   5.528   4.427
 3835SOL    HW112404   3.715   5.494   4.514
 3835SOL    HW212405   3.632   5.614   4.442
 3836SOL     OW12406   1.759   3.937   6.226
 3836SOL    HW112407   1.808   4.011   6.272
 3836SOL    HW212408   1.665   3.934   6.260
 3837SOL     OW12409   4.689   5.154   6.432
 3837SOL    HW112410   4.709   5.219   6.506
 3837SOL    HW212411   4.634   5.199   6.362
 3838SOL     OW12412   0.500   3.902   4.940
 3838SOL    HW112413   0.476   3.808   4.964
 3838SOL    HW212414   0.574   3.901   4.872
 3839SOL     OW12415   4.884   0.959   3.895
 3839SOL    HW112416   4.978   0.967   3.863
 3839SOL    HW212417   4.821   0.969   3.817
 3840SOL     OW12418   2.334   0.554   6.127
 3840SOL    HW112419   2.349   0.559   6.226
 3840SOL    HW212420   2.237   0.567   6.107
 3841SOL     OW12421   0.189   3.088   4.456
 3841SOL    HW112422   0.219   3.088   4.551
 3841SOL    HW212423   0.210   3.000   4.414
 3842SOL     OW12424   2.018   3.283   0.828
 3842SOL    HW112425   2.091   3.330   0.876
 3842SOL    HW212426   2.037   3.185   0.827
 3843SOL     OW12427   5.952   4.194   2.225
 3843SOL    HW112428   6.040   4.180   2.179
 3843SOL    HW212429   5.878   4.175   2.160
 3844SOL     OW12430   0.788   2.744   6.160
 3844SOL    HW112431   0.847   2.801   6.103
 3844SOL    HW212432   0.835   2.658   6.182
 3845SOL     OW12433   3.369   3.213   5.045
 3845SOL    HW112434   3.420   3.276   4.988
 3845SOL    HW212435   3.431   3.162   5.104
 3846SOL     OW12436   0.452   5.388   3.769
 3846SOL    HW112437   0.387   5.385   3.692
 3846SOL    HW212438   0.529   5.447   3.745
 3847SOL     OW12439   5.377   1.091   5.076
 3847SOL    HW112440   5.292   1.128   5.038
 3847SOL    HW212441   5.448   1.160   5.071
 3848SOL     OW12442   4.325   5.495   3.352
 3848SOL    HW112443   4.413   5.527   3.386
 3848SOL    HW212444   4.288   5.561   3.287
 3849SOL     OW12445   1.459   1.315   5.597
 3849SOL    HW112446   1.403   1.233   5.588
 3849SOL    HW212447   1.424   1.386   5.535
 3850SOL     OW12448   2.180   3.055   0.854
 3850SOL    HW112449   2.236   3.137   0.863
 3850SOL    HW212450   2.194   2.996   0.933
 3851SOL     OW12451   1.144   4.402   2.226
 3851SOL    HW112452   1.125   4.312   2.186
 3851SOL    HW212453   1.225   4.442   2.182
 3852SOL     OW12454   3.952   6.495   4.003
 3852SOL    HW112455   3.980   6.420   3.942
 3852SOL    HW212456   3.854   6.512   3.992
 3853SOL     OW12457   1.340   4.186   3.355
 3853SOL    HW112458   1.268   4.217   3.292
 3853SOL    HW212459   1.380   4.265   3.402
 3854SOL     OW12460   1.983   3.191   2.338
 3854SOL    HW112461   1.905   3.243   2.304
 3854SOL    HW212462   1.953   3.130   2.411
 3855SOL     OW12463   5.123   6.773   6.448
 3855SOL    HW112464   5.045   6.828   6.477
 3855SOL    HW212465   5.206   6.804   6.493
 3856SOL     OW12466   0.100   0.252   5.907
 3856SOL    HW112467   0.190   0.290   5.928
 3856SOL    HW212468   0.105   0.152   5.908
 3857SOL     OW12469   0.432   5.750   6.799
 3857SOL    HW112470   0.351   5.696   6.780
 3857SOL    HW212471   0.481   5.711   6.877
 3858SOL     OW12472   1.454   6.622   5.731
 3858SOL    HW112473   1.389   6.616   5.655
 3858SOL    HW212474   1.458   6.716   5.765
 3859SOL     OW12475   6.546   1.893   3.118
 3859SOL    HW112476   6.510   1.802   3.100
 3859SOL    HW212477   6.471   1.957   3.133
 3860SOL     OW12478   2.525   0.413   5.581
 3860SOL    HW112479   2.488   0.501   5.613
 3860SOL    HW212480   2.457   0.341   5.596
 3861SOL     OW12481   4.692   4.712   3.291
 3861SOL    HW112482   4.616   4.759   3.247
 3861SOL    HW212483   4.697   4.740   3.387
 3862SOL     OW12484   1.196   0.389   5.419
 3862SOL    HW112485   1.254   0.468   5.402
 3862SOL    HW212486   1.253   0.306   5.424
 3863SOL     OW12487   4.498   3.100   6.466
 3863SOL    HW112488   4.544   3.099   6.378
 3863SOL    HW212489   4.511   3.012   6.511
 3864SOL     OW12490   2.384   0.615   5.684
 3864SOL    HW112491   2.380   0.710   5.654
 3864SOL    HW212492   2.292   0.576   5.685
 3865SOL     OW12493   3.271   6.838   6.952
 3865SOL    HW112494   3.296   6.934   6.968
 3865SOL    HW212495   3.339   6.778   6.994
 3866SOL     OW12496   3.784   0.908   1.917
 3866SOL    HW112497   3.761   0.944   2.008
 3866SOL    HW212498   3.861   0.959   1.880
 3867SOL     OW12499   1.229   4.173   4.209
 3867SOL    HW112500   1.294   4.100   4.186
 3867SOL    HW212501   1.280   4.256   4.232
 3868SOL     OW12502   3.736   6.786   7.020
 3868SOL    HW112503   3.756   6.837   0.080
 3868SOL    HW212504   3.790   6.702   7.018
 3869SOL     OW12505   5.943   3.943   5.013
 3869SOL    HW112506   5.993   3.866   5.052
 3869SOL    HW212507   5.997   4.026   5.021
 3870SOL     OW12508   4.219   5.503   6.947
 3870SOL    HW112509   4.293   5.559   6.911
 3870SOL    HW212510   4.162   5.559   7.007
 3871SOL     OW12511   3.777   0.543   2.855
 3871SOL    HW112512   3.861   0.496   2.828
 3871SOL    HW212513   3.733   0.581   2.774
 3872SOL     OW12514   3.595   3.268   2.869
 3872SOL    HW112515   3.521   3.269   2.937
 3872SOL    HW212516   3.675   3.221   2.907
 3873SOL     OW12517   5.748   3.063   2.225
 3873SOL    HW112518   5.807   3.081   2.304
 3873SOL    HW212519   5.686   2.988   2.247
 3874SOL     OW12520   3.735   5.889   6.649
 3874SOL    HW112521   3.830   5.870   6.676
 3874SOL    HW212522   3.692   5.805   6.618
 3875SOL     OW12523   1.688   2.552   1.555
 3875SOL    HW112524   1.746   2.580   1.632
 3875SOL    HW212525   1.631   2.629   1.526
 3876SOL     OW12526   5.008   5.191   0.773
 3876SOL    HW112527   4.993   5.111   0.714
 3876SOL    HW212528   5.085   5.172   0.834
 3877SOL     OW12529   6.887   2.817   0.174
 3877SOL    HW112530   6.929   2.728   0.192
 3877SOL    HW212531   6.837   2.813   0.087
 3878SOL     OW12532   2.740   6.624   4.681
 3878SOL    HW112533   2.752   6.717   4.715
 3878SOL    HW212534   2.689   6.570   4.748
 3879SOL     OW12535   4.594   6.264   1.658
 3879SOL    HW112536   4.559   6.353   1.627
 3879SOL    HW212537   4.526   6.219   1.714
 3880SOL     OW12538   6.475   4.777   3.702
 3880SOL    HW112539   6.472   4.873   3.730
 3880SOL    HW212540   6.385   4.737   3.711
 3881SOL     OW12541   1.120   4.391   0.782
 3881SOL    HW112542   1.182   4.414   0.857
 3881SOL    HW212543   1.036   4.444   0.790
 3882SOL     OW12544   0.790   1.785   4.660
 3882SOL    HW112545   0.746   1.850   4.597
 3882SOL    HW212546   0.721   1.726   4.701
 3883SOL     OW12547   4.187   0.843   3.650
 3883SOL    HW112548   4.154   0.807   3.737
 3883SOL    HW212549   4.137   0.927   3.627
 3884SOL     OW12550   1.170   5.367   3.470
 3884SOL    HW112551   1.259   5.332   3.441
 3884SOL    HW212552   1.099   5.338   3.406
 3885SOL     OW12553   6.235   0.363   2.858
 3885SOL    HW112554   6.210   0.428   2.786
 3885SOL    HW212555   6.166   0.366   2.931
 3886SOL     OW12556   6.558   6.165   4.795
 3886SOL    HW112557   6.549   6.262   4.775
 3886SOL    HW212558   6.480   6.116   4.756
 3887SOL     OW12559   6.848   1.067   6.318
 3887SOL    HW112560   6.890   1.120   6.392
 3887SOL    HW212561   6.821   1.128   6.244
 3888SOL     OW12562   1.118   0.219   6.603
 3888SOL    HW112563   1.068   0.284   6.546
 3888SOL    HW212564   1.216   0.238   6.598
 3889SOL     OW12565   6.280   3.393   6.145
 3889SOL    HW112566   6.340   3.437   6.212
 3889SOL    HW212567   6.221   3.462   6.103
 3890SOL     OW12568   5.813   5.888   2.750
 3890SOL    HW112569   5.803   5.981   2.715
 3890SOL    HW212570   5.906   5.855   2.732
 3891SOL     OW12571   5.518   4.820   4.163
 3891SOL    HW112572   5.473   4.857   4.082
 3891SOL    HW212573   5.538   4.895   4.226
 3892SOL     OW12574   0.275   2.254   1.404
 3892SOL    HW112575   0.207   2.232   1.473
 3892SOL    HW212576   0.296   2.173   1.350
 3893SOL     OW12577   3.133   5.476   1.289
 3893SOL    HW112578   3.110   5.471   1.192
 3893SOL    HW212579   3.229   5.453   1.302
 3894SOL     OW12580   2.453   1.574   0.976
 3894SOL    HW112581   2.452   1.630   0.893
 3894SOL    HW212582   2.466   1.478   0.951
 3895SOL     OW12583   1.576   0.351   5.389
 3895SOL    HW112584   1.519   0.272   5.410
 3895SOL    HW212585   1.541   0.395   5.305
 3896SOL     OW12586   0.387   2.113   6.365
 3896SOL    HW112587   0.440   2.117   6.450
 3896SOL    HW212588   0.359   2.019   6.348
 3897SOL     OW12589   3.396   6.662   2.102
 3897SOL    HW112590   3.408   6.654   2.201
 3897SOL    HW212591   3.464   6.603   2.056
 3898SOL     OW12592   3.438   3.770   4.027
 3898SOL    HW112593   3.356   3.740   4.077
 3898SOL    HW212594   3.497   3.691   4.010
 3899SOL     OW12595   5.037   0.817   4.386
 3899SOL    HW112596   5.006   0.907   4.418
 3899SOL    HW212597   4.999   0.800   4.296
 3900SOL     OW12598   5.174   2.413   3.967
 3900SOL    HW112599   5.210   2.398   3.875
 3900SOL    HW212600   5.086   2.461   3.961
 3901SOL     OW12601   3.241   6.241   5.531
 3901SOL    HW112602   3.233   6.141   5.531
 3901SOL    HW212603   3.258   6.273   5.438
 3902SOL     OW12604   6.025   3.763   1.780
 3902SOL    HW112605   6.081   3.711   1.845
 3902SOL    HW212606   5.949   3.705   1.748
 3903SOL     OW12607   4.928   4.531   6.605
 3903SOL    HW112608   4.967   4.600   6.544
 3903SOL    HW212609   4.972   4.443   6.588
 3904SOL     OW12610   2.236   6.391   5.760
 3904SOL    HW112611   2.280   6.476   5.731
 3904SOL    HW212612   2.137   6.405   5.762
 3905SOL     OW12613   5.884   6.878   5.945
 3905SOL    HW112614   5.935   6.800   5.911
 3905SOL    HW212615   5.809   6.847   6.003
 3906SOL     OW12616   2.021   5.401   5.490
 3906SOL    HW112617   2.027   5.390   5.590
 3906SOL    HW212618   2.084   5.472   5.460
 3907SOL     OW12619   6.291   6.787   4.103
 3907SOL    HW112620   6.361   6.858   4.112
 3907SOL    HW212621   6.247   6.774   4.192
 3908SOL     OW12622   1.689   0.938   6.591
 3908SOL    HW112623   1.722   0.894   6.675
 3908SOL    HW212624   1.598   0.977   6.608
 3909SOL     OW12625   7.003   4.639   6.586
 3909SOL    HW112626   6.972   4.620   6.679
 3909SOL    HW212627   0.004   4.553   6.541
 3910SOL     OW12628   3.850   4.002   1.972
 3910SOL    HW112629   3.830   3.980   1.877
 3910SOL    HW212630   3.805   4.088   1.996
 3911SOL     OW12631   4.767   1.644   6.981
 3911SOL    HW112632   4.722   1.569   6.933
 3911SOL    HW212633   4.722   1.658   0.046
 3912SOL     OW12634   3.871   1.527   6.469
 3912SOL    HW112635   3.818   1.462   6.414
 3912SOL    HW212636   3.968   1.519   6.447
 3913SOL     OW12637   2.974   6.385   6.675
 3913SOL    HW112638   2.990   6.481   6.698
 3913SOL    HW212639   2.949   6.335   6.758
 3914SOL     OW12640   5.081   0.711   1.312
 3914SOL    HW112641   5.037   0.627   1.345
 3914SOL    HW212642   5.017   0.762   1.255
 3915SOL     OW12643   4.368   6.410   0.861
 3915SOL    HW112644   4.343   6.314   0.850
 3915SOL    HW212645   4.292   6.468   0.829
 3916SOL     OW12646   2.050   6.722   2.370
 3916SOL    HW112647   1.977   6.698   2.306
 3916SOL    HW212648   2.136   6.736   2.320
 3917SOL     OW12649   1.501   4.366   1.062
 3917SOL    HW112650   1.498   4.383   1.161
 3917SOL    HW212651   1.584   4.314   1.040
 3918SOL     OW12652   4.477   6.445   2.097
 3918SOL    HW112653   4.429   6.405   2.019
 3918SOL    HW212654   4.547   6.381   2.129
 3919SOL     OW12655   3.609   0.162   6.379
 3919SOL    HW112656   3.564   0.232   6.434
 3919SOL    HW212657   3.540   0.106   6.333
 3920SOL     OW12658   2.652   2.142   6.228
 3920SOL    HW112659   2.644   2.199   6.147
 3920SOL    HW212660   2.698   2.056   6.203
 3921SOL     OW12661   6.741   2.873   0.377
 3921SOL    HW112662   6.803   2.860   0.299
 3921SOL    HW212663   6.712   2.783   0.411
 3922SOL     OW12664   4.121   5.190   0.754
 3922SOL    HW112665   4.197   5.151   0.806
 3922SOL    HW212666   4.051   5.224   0.816
 3923SOL     OW12667   6.216   1.870   0.447
 3923SOL    HW112668   6.170   1.818   0.519
 3923SOL    HW212669   6.260   1.951   0.487
 3924SOL     OW12670   0.373   4.649   3.061
 3924SOL    HW112671   0.461   4.649   3.109
 3924SOL    HW212672   0.376   4.584   2.986
 3925SOL     OW12673   4.225   4.549   0.975
 3925SOL    HW112674   4.252   4.455   0.993
 3925SOL    HW212675   4.128   4.561   0.998
 3926SOL     OW12676   0.200   0.036   4.507
 3926SOL    HW112677   0.206   0.031   4.407
 3926SOL    HW212678   0.284   0.001   4.547
 3927SOL     OW12679   0.087   2.465   4.577
 3927SOL    HW112680   0.140   2.469   4.662
 3927SOL    HW212681   0.115   2.386   4.523
 3928SOL     OW12682   3.859   5.765   4.432
 3928SOL    HW112683   3.906   5.811   4.356
 3928SOL    HW212684   3.917   5.692   4.467
 3929SOL     OW12685   6.923   1.441   6.591
 3929SOL    HW112686   6.981   1.521   6.573
 3929SOL    HW212687   6.835   1.453   6.545
 3930SOL     OW12688   1.022   2.180   3.575
 3930SOL    HW112689   0.932   2.201   3.536
 3930SOL    HW212690   1.041   2.082   3.564
 3931SOL     OW12691   1.745   1.465   2.133
 3931SOL    HW112692   1.770   1.456   2.229
 3931SOL    HW212693   1.828   1.468   2.077
 3932SOL     OW12694   1.754   4.285   4.056
 3932SOL    HW112695   1.799   4.234   4.130
 3932SOL    HW212696   1.757   4.383   4.076
 3933SOL     OW12697   1.564   6.677   0.337
 3933SOL    HW112698   1.503   6.756   0.332
 3933SOL    HW212699   1.532   6.607   0.272
 3934SOL     OW12700   0.295   1.097   2.344
 3934SOL    HW112701   0.210   1.141   2.316
 3934SOL    HW212702   0.319   1.026   2.278
 3935SOL     OW12703   1.414   0.946   5.646
 3935SOL    HW112704   1.464   0.998   5.715
 3935SOL    HW212705   1.440   0.978   5.555
 3936SOL     OW12706   6.638   6.337   5.550
 3936SOL    HW112707   6.541   6.348   5.529
 3936SOL    HW212708   6.686   6.305   5.469
 3937SOL     OW12709   6.953   6.499   2.368
 3937SOL    HW112710   6.872   6.530   2.318
 3937SOL    HW212711   0.011   6.537   2.325
 3938SOL     OW12712   6.248   3.282   4.157
 3938SOL    HW112713   6.270   3.362   4.213
 3938SOL    HW212714   6.240   3.202   4.216
 3939SOL     OW12715   2.641   1.830   3.284
 3939SOL    HW112716   2.681   1.918   3.258
 3939SOL    HW212717   2.553   1.819   3.239
 3940SOL     OW12718   3.015   4.815   1.948
 3940SOL    HW112719   3.113   4.798   1.941
 3940SOL    HW212720   2.970   4.736   1.988
 3941SOL     OW12721   5.776   0.454   4.771
 3941SOL    HW112722   5.820   0.364   4.773
 3941SOL    HW212723   5.761   0.485   4.865
 3942SOL     OW12724   0.850   6.233   5.603
 3942SOL    HW112725   0.778   6.221   5.672
 3942SOL    HW212726   0.896   6.145   5.589
 3943SOL     OW12727   0.143   3.220   2.387
 3943SOL    HW112728   0.154   3.140   2.329
 3943SOL    HW212729   0.103   3.192   2.474
 3944SOL     OW12730   5.641   3.936   5.629
 3944SOL    HW112731   5.661   4.001   5.702
 3944SOL    HW212732   5.707   3.861   5.632
 3945SOL     OW12733   0.962   2.299   2.425
 3945SOL    HW112734   0.962   2.272   2.329
 3945SOL    HW212735   0.962   2.399   2.432
 3946SOL     OW12736   6.975   3.902   6.281
 3946SOL    HW112737   6.925   3.818   6.258
 3946SOL    HW212738   0.033   3.879   6.333
 3947SOL     OW12739   5.568   5.569   0.765
 3947SOL    HW112740   5.638   5.616   0.819
 3947SOL    HW212741   5.481   5.616   0.777
 3948SOL     OW12742   0.971   4.660   0.090
 3948SOL    HW112743   0.909   4.614   0.027
 3948SOL    HW212744   1.066   4.639   0.064
 3949SOL     OW12745   5.713   6.605   2.884
 3949SOL    HW112746   5.638   6.628   2.946
 3949SOL    HW212747   5.781   6.678   2.885
 3950SOL     OW12748   3.675   4.053   1.557
 3950SOL    HW112749   3.680   4.033   1.459
 3950SOL    HW212750   3.717   4.142   1.575
 3951SOL     OW12751   0.732   1.022   0.024
 3951SOL    HW112752   0.719   1.035   0.123
 3951SOL    HW212753   0.644   1.029   7.001
 3952SOL     OW12754   6.115   3.311   4.893
 3952SOL    HW112755   6.192   3.291   4.954
 3952SOL    HW212756   6.035   3.338   4.947
 3953SOL     OW12757   3.942   4.259   6.798
 3953SOL    HW112758   3.939   4.256   6.898
 3953SOL    HW212759   3.854   4.292   6.763
 3954SOL     OW12760   5.701   5.032   5.259
 3954SOL    HW112761   5.785   4.986   5.287
 3954SOL    HW212762   5.707   5.129   5.282
 3955SOL     OW12763   4.681   6.827   6.741
 3955SOL    HW112764   4.587   6.803   6.717
 3955SOL    HW212765   4.685   6.851   6.838
 3956SOL     OW12766   1.334   1.886   4.719
 3956SOL    HW112767   1.355   1.979   4.747
 3956SOL    HW212768   1.252   1.886   4.661
 3957SOL     OW12769   4.448   6.786   3.683
 3957SOL    HW112770   4.384   6.713   3.660
 3957SOL    HW212771   4.451   6.853   3.609
 3958SOL     OW12772   5.852   6.747   6.405
 3958SOL    HW112773   5.798   6.825   6.373
 3958SOL    HW212774   5.931   6.780   6.456
 3959SOL     OW12775   3.295   6.473   1.163
 3959SOL    HW112776   3.350   6.424   1.096
 3959SOL    HW212777   3.345   6.480   1.249
 3960SOL     OW12778   5.884   2.234   6.283
 3960SOL    HW112779   5.906   2.204   6.190
 3960SOL    HW212780   5.928   2.173   6.349
 3961SOL     OW12781   5.345   2.710   2.327
 3961SOL    HW112782   5.273   2.753   2.380
 3961SOL    HW212783   5.408   2.662   2.389
 3962SOL     OW12784   1.078   5.585   6.946
 3962SOL    HW112785   1.086   5.574   0.021
 3962SOL    HW212786   1.060   5.681   6.924
 3963SOL     OW12787   5.419   4.361   3.491
 3963SOL    HW112788   5.394   4.402   3.403
 3963SOL    HW212789   5.519   4.350   3.496
 3964SOL     OW12790   4.397   4.628   4.727
 3964SOL    HW112791   4.385   4.594   4.821
 3964SOL    HW212792   4.344   4.711   4.715
 3965SOL     OW12793   4.085   4.128   6.113
 3965SOL    HW112794   3.989   4.118   6.088
 3965SOL    HW212795   4.094   4.132   6.212
 3966SOL     OW12796   6.688   5.075   0.241
 3966SOL    HW112797   6.600   5.069   0.289
 3966SOL    HW212798   6.735   5.159   0.267
 3967SOL     OW12799   1.524   4.483   2.736
 3967SOL    HW112800   1.545   4.577   2.762
 3967SOL    HW212801   1.454   4.483   2.665
 3968SOL     OW12802   6.626   0.524   0.996
 3968SOL    HW112803   6.635   0.437   1.045
 3968SOL    HW212804   6.570   0.511   0.914
 3969SOL     OW12805   0.263   3.811   3.005
 3969SOL    HW112806   0.362   3.813   2.988
 3969SOL    HW212807   0.246   3.782   3.099
 3970SOL     OW12808   4.583   5.008   3.462
 3970SOL    HW112809   4.633   5.094   3.464
 3970SOL    HW212810   4.538   4.998   3.373
 3971SOL     OW12811   2.285   4.643   2.354
 3971SOL    HW112812   2.344   4.723   2.342
 3971SOL    HW212813   2.221   4.637   2.278
 3972SOL     OW12814   1.742   5.636   1.620
 3972SOL    HW112815   1.648   5.639   1.654
 3972SOL    HW212816   1.794   5.712   1.659
 3973SOL     OW12817   2.409   3.827   5.381
 3973SOL    HW112818   2.415   3.898   5.310
 3973SOL    HW212819   2.499   3.785   5.393
 3974SOL     OW12820   1.954   0.912   5.536
 3974SOL    HW112821   1.966   1.008   5.510
 3974SOL    HW212822   1.865   0.900   5.578
 3975SOL     OW12823   5.816   0.113   6.735
 3975SOL    HW112824   5.856   0.098   6.644
 3975SOL    HW212825   5.886   0.148   6.796
 3976SOL     OW12826   2.109   5.197   0.892
 3976SOL    HW112827   2.032   5.250   0.856
 3976SOL    HW212828   2.136   5.234   0.981
 3977SOL     OW12829   3.382   4.999   5.635
 3977SOL    HW112830   3.304   4.941   5.656
 3977SOL    HW212831   3.466   4.946   5.640
 3978SOL     OW12832   5.647   0.731   4.963
 3978SOL    HW112833   5.710   0.805   4.937
 3978SOL    HW212834   5.698   0.663   5.015
 3979SOL     OW12835   2.548   5.926   1.484
 3979SOL    HW112836   2.515   5.915   1.578
 3979SOL    HW212837   2.517   5.849   1.428
 3980SOL     OW12838   0.151   4.503   5.942
 3980SOL    HW112839   0.193   4.559   6.013
 3980SOL    HW212840   0.222   4.456   5.890
 3981SOL     OW12841   1.637   2.077   6.320
 3981SOL    HW112842   1.624   2.158   6.377
 3981SOL    HW212843   1.569   2.008   6.344
 3982SOL     OW12844   2.608   0.528   4.224
 3982SOL    HW112845   2.571   0.617   4.198
 3982SOL    HW212846   2.669   0.495   4.152
 3983SOL     OW12847   3.197   5.807   4.601
 3983SOL    HW112848   3.266   5.860   4.651
 3983SOL    HW212849   3.241   5.734   4.551
 3984SOL     OW12850   2.249   0.350   2.227
 3984SOL    HW112851   2.331   0.356   2.172
 3984SOL    HW212852   2.198   0.267   2.203
 3985SOL     OW12853   2.531   4.391   0.252
 3985SOL    HW112854   2.601   4.461   0.263
 3985SOL    HW212855   2.458   4.426   0.193
 3986SOL     OW12856   6.977   1.300   3.195
 3986SOL    HW112857   6.969   1.365   3.270
 3986SOL    HW212858   6.887   1.264   3.172
 3987SOL     OW12859   1.337   5.556   5.074
 3987SOL    HW112860   1.422   5.576   5.122
 3987SOL    HW212861   1.357   5.532   4.979
 3988SOL     OW12862   3.667   2.696   5.469
 3988SOL    HW112863   3.645   2.746   5.554
 3988SOL    HW212864   3.712   2.610   5.492
 3989SOL     OW12865   6.489   1.366   0.140
 3989SOL    HW112866   6.496   1.460   0.173
 3989SOL    HW212867   6.445   1.365   0.050
 3990SOL     OW12868   6.188   1.614   3.779
 3990SOL    HW112869   6.201   1.696   3.835
 3990SOL    HW212870   6.111   1.562   3.813
 3991SOL     OW12871   6.435   1.904   2.598
 3991SOL    HW112872   6.366   1.940   2.535
 3991SOL    HW212873   6.526   1.933   2.569
 3992SOL     OW12874   4.265   2.281   6.240
 3992SOL    HW112875   4.348   2.259   6.291
 3992SOL    HW212876   4.189   2.293   6.304
 3993SOL     OW12877   1.409   2.080   3.353
 3993SOL    HW112878   1.337   2.137   3.315
 3993SOL    HW212879   1.392   1.984   3.331
 3994SOL     OW12880   1.535   2.743   5.312
 3994SOL    HW112881   1.522   2.759   5.214
 3994SOL    HW212882   1.571   2.826   5.355
 3995SOL     OW12883   2.085   3.774   4.314
 3995SOL    HW112884   1.987   3.791   4.299
 3995SOL    HW212885   2.096   3.706   4.387
 3996SOL     OW12886   1.691   0.731   5.206
 3996SOL    HW112887   1.675   0.742   5.304
 3996SOL    HW212888   1.641   0.801   5.155
 3997SOL     OW12889   4.861   3.148   3.187
 3997SOL    HW112890   4.913   3.172   3.104
 3997SOL    HW212891   4.896   3.201   3.264
 3998SOL     OW12892   4.912   1.740   2.303
 3998SOL    HW112893   4.852   1.661   2.320
 3998SOL    HW212894   4.909   1.764   2.206
 3999SOL     OW12895   5.580   3.543   3.603
 3999SOL    HW112896   5.490   3.511   3.631
 3999SOL    HW212897   5.650   3.490   3.651
 4000SOL     OW12898   3.530   5.758   2.589
 4000SOL    HW112899   3.500   5.719   2.502
 4000SOL    HW212900   3.614   5.713   2.618
 4001SOL     OW12901   2.206   2.620   4.737
 4001SOL    HW112902   2.182   2.632   4.641
 4001SOL    HW212903   2.243   2.528   4.751
 4002SOL     OW12904   2.924   3.115   6.587
 4002SOL    HW112905   3.020   3.137   6.573
 4002SOL    HW212906   2.899   3.034   6.534
 4003SOL     OW12907   2.701   0.081   5.939
 4003SOL    HW112908   2.715   0.176   5.967
 4003SOL    HW212909   2.606   0.055   5.958
 4004SOL     OW12910   6.109   2.541   4.127
 4004SOL    HW112911   6.038   2.472   4.142
 4004SOL    HW212912   6.119   2.557   4.028
 4005SOL     OW12913   5.537   5.077   1.098
 4005SOL    HW112914   5.510   4.981   1.110
 4005SOL    HW212915   5.609   5.082   1.028
 4006SOL     OW12916   4.579   4.755   1.869
 4006SOL    HW112917   4.548   4.783   1.960
 4006SOL    HW212918   4.657   4.811   1.841
 4007SOL     OW12919   0.872   2.713   1.551
 4007SOL    HW112920   0.813   2.636   1.529
 4007SOL    HW212921   0.930   2.735   1.472
 4008SOL     OW12922   3.878   1.603   5.440
 4008SOL    HW112923   3.818   1.594   5.520
 4008SOL    HW212924   3.957   1.659   5.464
 4009SOL     OW12925   4.692   2.705   0.603
 4009SOL    HW112926   4.679   2.614   0.642
 4009SOL    HW212927   4.636   2.772   0.652
 4010SOL     OW12928   1.874   3.488   1.146
 4010SOL    HW112929   1.883   3.389   1.141
 4010SOL    HW212930   1.871   3.516   1.242
 4011SOL     OW12931   1.278   6.582   1.903
 4011SOL    HW112932   1.282   6.512   1.975
 4011SOL    HW212933   1.220   6.658   1.934
 4012SOL     OW12934   4.525   4.878   1.626
 4012SOL    HW112935   4.551   4.814   1.698
 4012SOL    HW212936   4.518   4.830   1.539
 4013SOL     OW12937   2.968   0.449   0.686
 4013SOL    HW112938   2.976   0.350   0.700
 4013SOL    HW212939   3.056   0.486   0.657
 4014SOL     OW12940   4.150   5.554   3.732
 4014SOL    HW112941   4.173   5.599   3.645
 4014SOL    HW212942   4.154   5.455   3.720
 4015SOL     OW12943   4.541   5.263   6.256
 4015SOL    HW112944   4.562   5.261   6.159
 4015SOL    HW212945   4.503   5.352   6.281
 4016SOL     OW12946   0.797   5.286   6.624
 4016SOL    HW112947   0.798   5.364   6.562
 4016SOL    HW212948   0.703   5.270   6.655
 4017SOL     OW12949   0.737   6.479   0.286
 4017SOL    HW112950   0.683   6.563   0.289
 4017SOL    HW212951   0.782   6.471   0.197
 4018SOL     OW12952   6.110   6.573   1.952
 4018SOL    HW112953   6.076   6.643   2.016
 4018SOL    HW212954   6.161   6.504   2.003
 4019SOL     OW12955   6.129   3.903   2.269
 4019SOL    HW112956   6.140   3.968   2.345
 4019SOL    HW212957   6.168   3.943   2.186
 4020SOL     OW12958   6.553   2.782   5.941
 4020SOL    HW112959   6.475   2.763   6.000
 4020SOL    HW212960   6.533   2.863   5.886
 4021SOL     OW12961   3.221   3.944   5.319
 4021SOL    HW112962   3.283   4.004   5.269
 4021SOL    HW212963   3.190   3.870   5.260
 4022SOL     OW12964   4.673   0.182   6.651
 4022SOL    HW112965   4.658   0.122   6.573
 4022SOL    HW212966   4.586   0.209   6.691
 4023SOL     OW12967   6.915   0.621   4.504
 4023SOL    HW112968   6.995   0.602   4.448
 4023SOL    HW212969   6.889   0.540   4.556
 4024SOL     OW12970   3.096   5.154   4.311
 4024SOL    HW112971   3.003   5.128   4.337
 4024SOL    HW212972   3.101   5.253   4.298
 4025SOL     OW12973   6.954   5.994   4.529
 4025SOL    HW112974   6.874   5.961   4.480
 4025SOL    HW212975   6.955   5.955   4.621
 4026SOL     OW12976   6.054   0.189   3.234
 4026SOL    HW112977   6.045   0.103   3.184
 4026SOL    HW212978   6.005   0.262   3.185
 4027SOL     OW12979   2.690   2.502   1.279
 4027SOL    HW112980   2.669   2.506   1.377
 4027SOL    HW212981   2.612   2.537   1.227
 4028SOL     OW12982   2.546   2.254   2.907
 4028SOL    HW112983   2.506   2.196   2.836
 4028SOL    HW212984   2.475   2.314   2.945
 4029SOL     OW12985   2.899   4.707   6.120
 4029SOL    HW112986   2.924   4.610   6.131
 4029SOL    HW212987   2.974   4.764   6.153
 4030SOL     OW12988   1.080   1.536   1.021
 4030SOL    HW112989   1.115   1.452   1.063
 4030SOL    HW212990   1.119   1.544   0.929
 4031SOL     OW12991   4.987   6.332   3.522
 4031SOL    HW112992   4.928   6.376   3.591
 4031SOL    HW212993   4.977   6.380   3.435
 4032SOL     OW12994   6.277   0.199   2.623
 4032SOL    HW112995   6.371   0.208   2.589
 4032SOL    HW212996   6.265   0.260   2.702
 4033SOL     OW12997   3.036   3.793   1.851
 4033SOL    HW112998   3.008   3.888   1.834
 4033SOL    HW212999   2.973   3.731   1.803
 4034SOL     OW13000   6.976   1.480   4.360
 4034SOL    HW113001   6.939   1.398   4.404
 4034SOL    HW213002   6.961   1.560   4.418
 4035SOL     OW13003   6.142   2.519   0.801
 4035SOL    HW113004   6.096   2.432   0.820
 4035SOL    HW213005   6.106   2.590   0.861
 4036SOL     OW13006   4.882   6.619   2.486
 4036SOL    HW113007   4.909   6.644   2.579
 4036SOL    HW213008   4.866   6.520   2.482
 4037SOL     OW13009   2.477   0.963   0.788
 4037SOL    HW113010   2.490   0.868   0.815
 4037SOL    HW213011   2.565   1.002   0.759
 4038SOL     OW13012   4.369   4.055   1.590
 4038SOL    HW113013   4.403   4.111   1.514
 4038SOL    HW213014   4.399   4.094   1.677
 4039SOL     OW13015   4.749   4.228   1.486
 4039SOL    HW113016   4.668   4.228   1.427
 4039SOL    HW213017   4.735   4.165   1.562
 4040SOL     OW13018   3.726   6.873   5.911
 4040SOL    HW113019   3.727   6.972   5.927
 4040SOL    HW213020   3.820   6.841   5.895
 4041SOL     OW13021   1.749   5.070   1.190
 4041SOL    HW113022   1.679   5.091   1.258
 4041SOL    HW213023   1.840   5.092   1.227
 4042SOL     OW13024   6.537   5.285   3.014
 4042SOL    HW113025   6.504   5.377   3.033
 4042SOL    HW213026   6.626   5.271   3.057
 4043SOL     OW13027   5.250   1.703   4.235
 4043SOL    HW113028   5.277   1.786   4.186
 4043SOL    HW213029   5.193   1.728   4.313
 4044SOL     OW13030   4.762   0.162   3.452
 4044SOL    HW113031   4.703   0.165   3.372
 4044SOL    HW213032   4.719   0.108   3.524
 4045SOL     OW13033   2.785   5.253   5.858
 4045SOL    HW113034   2.685   5.259   5.853
 4045SOL    HW213035   2.813   5.157   5.849
 4046SOL     OW13036   1.004   1.447   3.897
 4046SOL    HW113037   0.973   1.441   3.802
 4046SOL    HW213038   1.095   1.408   3.905
 4047SOL     OW13039   1.291   2.143   0.779
 4047SOL    HW113040   1.261   2.060   0.826
 4047SOL    HW213041   1.347   2.198   0.841
 4048SOL     OW13042   5.410   2.020   2.514
 4048SOL    HW113043   5.432   2.089   2.445
 4048SOL    HW213044   5.471   1.941   2.504
 4049SOL     OW13045   6.301   5.419   6.016
 4049SOL    HW113046   6.369   5.432   6.088
 4049SOL    HW213047   6.307   5.495   5.951
 4050SOL     OW13048   1.196   6.518   0.826
 4050SOL    HW113049   1.108   6.527   0.874
 4050SOL    HW213050   1.262   6.472   0.887
 4051SOL     OW13051   3.713   2.450   6.980
 4051SOL    HW113052   3.697   2.377   6.915
 4051SOL    HW213053   3.788   2.425   0.018
 4052SOL     OW13054   6.774   0.588   2.531
 4052SOL    HW113055   6.862   0.563   2.489
 4052SOL    HW213056   6.776   0.565   2.628
 4053SOL     OW13057   3.640   4.914   4.431
 4053SOL    HW113058   3.579   4.928   4.508
 4053SOL    HW213059   3.591   4.864   4.359
 4054SOL     OW13060   6.876   3.403   2.112
 4054SOL    HW113061   6.949   3.464   2.142
 4054SOL    HW213062   6.837   3.357   2.192
 4055SOL     OW13063   3.475   3.230   6.525
 4055SOL    HW113064   3.381   3.244   6.556
 4055SOL    HW213065   3.530   3.310   6.550
 4056SOL     OW13066   3.579   3.850   1.095
 4056SOL    HW113067   3.612   3.916   1.028
 4056SOL    HW213068   3.479   3.852   1.097
 4057SOL     OW13069   5.334   2.208   1.744
 4057SOL    HW113070   5.389   2.132   1.780
 4057SOL    HW213071   5.260   2.229   1.808
 4058SOL     OW13072   1.847   0.053   3.748
 4058SOL    HW113073   1.751   0.074   3.768
 4058SOL    HW213074   1.902   0.135   3.760
 4059SOL     OW13075   1.146   2.668   3.655
 4059SOL    HW113076   1.116   2.584   3.700
 4059SOL    HW213077   1.195   2.645   3.570
 4060SOL     OW13078   4.797   5.298   4.476
 4060SOL    HW113079   4.728   5.367   4.452
 4060SOL    HW213080   4.791   5.221   4.413
 4061SOL     OW13081   3.054   5.066   1.422
 4061SOL    HW113082   3.054   5.051   1.521
 4061SOL    HW213083   2.965   5.099   1.393
 4062SOL     OW13084   2.369   2.126   2.466
 4062SOL    HW113085   2.313   2.045   2.447
 4062SOL    HW213086   2.400   2.124   2.560
 4063SOL     OW13087   6.044   6.316   5.488
 4063SOL    HW113088   6.106   6.384   5.527
 4063SOL    HW213089   6.096   6.251   5.432
 4064SOL     OW13090   1.636   6.732   3.763
 4064SOL    HW113091   1.553   6.682   3.736
 4064SOL    HW213092   1.673   6.780   3.683
 4065SOL     OW13093   6.991   6.799   0.426
 4065SOL    HW113094   0.059   6.783   0.461
 4065SOL    HW213095   6.979   6.897   0.408
 4066SOL     OW13096   5.470   5.988   2.883
 4066SOL    HW113097   5.410   5.926   2.833
 4066SOL    HW213098   5.487   6.070   2.828
 4067SOL     OW13099   6.457   3.342   3.329
 4067SOL    HW113100   6.397   3.351   3.249
 4067SOL    HW213101   6.445   3.252   3.370
 4068SOL     OW13102   3.016   0.351   4.584
 4068SOL    HW113103   3.079   0.288   4.539
 4068SOL    HW213104   3.069   0.416   4.639
 4069SOL     OW13105   3.926   4.992   6.444
 4069SOL    HW113106   3.950   4.906   6.400
 4069SOL    HW213107   3.854   5.038   6.391
 4070SOL     OW13108   0.276   3.536   2.036
 4070SOL    HW113109   0.270   3.520   2.134
 4070SOL    HW213110   0.263   3.450   1.987
 4071SOL     OW13111   1.140   0.922   5.530
 4071SOL    HW113112   1.215   0.921   5.597
 4071SOL    HW213113   1.154   0.850   5.463
 4072SOL     OW13114   0.728   5.623   4.263
 4072SOL    HW113115   0.673   5.546   4.231
 4072SOL    HW213116   0.668   5.698   4.292
 4073SOL     OW13117   2.618   5.741   6.480
 4073SOL    HW113118   2.681   5.812   6.508
 4073SOL    HW213119   2.634   5.718   6.383
 4074SOL     OW13120   0.263   2.889   1.977
 4074SOL    HW113121   0.183   2.869   1.920
 4074SOL    HW213122   0.341   2.835   1.945
 4075SOL     OW13123   4.230   2.059   2.740
 4075SOL    HW113124   4.179   2.094   2.661
 4075SOL    HW213125   4.179   1.983   2.781
 4076SOL     OW13126   3.557   3.439   5.185
 4076SOL    HW113127   3.523   3.419   5.277
 4076SOL    HW213128   3.543   3.536   5.166
 4077SOL     OW13129   3.341   0.096   0.054
 4077SOL    HW113130   3.435   0.098   0.018
 4077SOL    HW213131   3.278   0.133   7.009
 4078SOL     OW13132   6.184   5.607   2.241
 4078SOL    HW113133   6.224   5.695   2.268
 4078SOL    HW213134   6.251   5.534   2.253
 4079SOL     OW13135   0.682   1.561   3.734
 4079SOL    HW113136   0.708   1.572   3.830
 4079SOL    HW213137   0.584   1.575   3.725
 4080SOL     OW13138   2.473   3.695   0.057
 4080SOL    HW113139   2.443   3.694   6.985
 4080SOL    HW213140   2.447   3.609   0.101
 4081SOL     OW13141   1.932   2.172   3.865
 4081SOL    HW113142   1.885   2.130   3.787
 4081SOL    HW213143   1.869   2.234   3.912
 4082SOL     OW13144   1.366   2.731   1.015
 4082SOL    HW113145   1.378   2.785   1.098
 4082SOL    HW213146   1.289   2.668   1.027
 4083SOL     OW13147   6.755   4.279   2.187
 4083SOL    HW113148   6.662   4.269   2.222
 4083SOL    HW213149   6.754   4.275   2.087
 4084SOL     OW13150   4.418   2.439   2.967
 4084SOL    HW113151   4.385   2.448   3.061
 4084SOL    HW213152   4.513   2.468   2.962
 4085SOL     OW13153   2.633   5.629   0.807
 4085SOL    HW113154   2.684   5.698   0.859
 4085SOL    HW213155   2.570   5.675   0.745
 4086SOL     OW13156   0.262   4.651   1.078
 4086SOL    HW113157   0.255   4.587   1.001
 4086SOL    HW213158   0.304   4.605   1.156
 4087SOL     OW13159   1.549   1.652   3.543
 4087SOL    HW113160   1.581   1.747   3.545
 4087SOL    HW213161   1.620   1.592   3.579
 4088SOL     OW13162   6.404   0.853   6.757
 4088SOL    HW113163   6.348   0.905   6.692
 4088SOL    HW213164   6.500   0.882   6.749
 4089SOL     OW13165   6.163   4.887   3.929
 4089SOL    HW113166   6.206   4.797   3.937
 4089SOL    HW213167   6.065   4.878   3.946
 4090SOL     OW13168   1.359   5.699   5.450
 4090SOL    HW113169   1.392   5.616   5.405
 4090SOL    HW213170   1.413   5.715   5.533
 4091SOL     OW13171   0.694   6.168   0.095
 4091SOL    HW113172   0.637   6.132   0.021
 4091SOL    HW213173   0.689   6.107   0.174
 4092SOL     OW13174   5.704   2.772   4.034
 4092SOL    HW113175   5.698   2.687   3.980
 4092SOL    HW213176   5.744   2.844   3.977
 4093SOL     OW13177   5.026   6.586   1.617
 4093SOL    HW113178   4.947   6.605   1.675
 4093SOL    HW213179   5.024   6.646   1.537
 4094SOL     OW13180   1.400   4.649   6.004
 4094SOL    HW113181   1.390   4.668   5.906
 4094SOL    HW213182   1.474   4.706   6.041
 4095SOL     OW13183   0.335   4.085   0.720
 4095SOL    HW113184   0.329   3.991   0.752
 4095SOL    HW213185   0.361   4.145   0.795
 4096SOL     OW13186   5.027   0.870   6.669
 4096SOL    HW113187   5.091   0.809   6.715
 4096SOL    HW213188   5.071   0.959   6.656
 4097SOL     OW13189   4.709   4.363   4.523
 4097SOL    HW113190   4.722   4.332   4.617
 4097SOL    HW213191   4.791   4.410   4.491
 4098SOL     OW13192   0.812   1.916   1.888
 4098SOL    HW113193   0.811   1.989   1.819
 4098SOL    HW213194   0.893   1.926   1.946
 4099SOL     OW13195   3.984   5.394   1.108
 4099SOL    HW113196   4.028   5.377   1.196
 4099SOL    HW213197   4.051   5.430   1.044
 4100SOL     OW13198   0.323   6.462   4.340
 4100SOL    HW113199   0.324   6.528   4.264
 4100SOL    HW213200   0.285   6.506   4.421
 4101SOL     OW13201   0.379   1.455   0.658
 4101SOL    HW113202   0.440   1.485   0.731
 4101SOL    HW213203   0.355   1.532   0.600
 4102SOL     OW13204   1.283   0.642   0.789
 4102SOL    HW113205   1.327   0.651   0.699
 4102SOL    HW213206   1.354   0.629   0.859
 4103SOL     OW13207   0.548   6.989   0.557
 4103SOL    HW113208   0.593   6.939   0.483
 4103SOL    HW213209   0.528   0.058   0.527
 4104SOL     OW13210   6.937   4.813   3.356
 4104SOL    HW113211   6.995   4.737   3.330
 4104SOL    HW213212   6.947   4.831   3.454
 4105SOL     OW13213   5.606   0.316   2.855
 4105SOL    HW113214   5.664   0.332   2.775
 4105SOL    HW213215   5.529   0.379   2.853
 4106SOL     OW13216   6.720   2.828   3.443
 4106SOL    HW113217   6.722   2.928   3.446
 4106SOL    HW213218   6.628   2.796   3.462
 4107SOL     OW13219   1.511   5.431   1.398
 4107SOL    HW113220   1.435   5.464   1.454
 4107SOL    HW213221   1.551   5.507   1.347
 4108SOL     OW13222   6.565   4.984   4.656
 4108SOL    HW113223   6.544   4.930   4.574
 4108SOL    HW213224   6.521   5.074   4.648
 4109SOL     OW13225   6.544   0.050   4.698
 4109SOL    HW113226   6.569   0.146   4.711
 4109SOL    HW213227   6.463   0.044   4.639
 4110SOL     OW13228   4.488   3.779   5.568
 4110SOL    HW113229   4.533   3.769   5.479
 4110SOL    HW213230   4.409   3.840   5.558
 4111SOL     OW13231   5.717   4.784   6.320
 4111SOL    HW113232   5.622   4.759   6.339
 4111SOL    HW213233   5.729   4.790   6.221
 4112SOL     OW13234   4.935   6.381   4.661
 4112SOL    HW113235   4.975   6.429   4.739
 4112SOL    HW213236   4.837   6.368   4.676
 4113SOL     OW13237   5.715   5.366   4.934
 4113SOL    HW113238   5.771   5.285   4.915
 4113SOL    HW213239   5.649   5.345   5.006
 4114SOL     OW13240   3.919   2.086   4.180
 4114SOL    HW113241   3.841   2.119   4.127
 4114SOL    HW213242   3.998   2.145   4.164
 4115SOL     OW13243   3.009   5.225   2.404
 4115SOL    HW113244   2.997   5.316   2.443
 4115SOL    HW213245   3.043   5.163   2.474
 4116SOL     OW13246   3.820   1.512   2.728
 4116SOL    HW113247   3.783   1.451   2.659
 4116SOL    HW213248   3.746   1.559   2.775
 4117SOL     OW13249   1.105   3.703   2.692
 4117SOL    HW113250   1.180   3.647   2.727
 4117SOL    HW213251   1.039   3.645   2.646
 4118SOL     OW13252   4.992   6.787   0.589
 4118SOL    HW113253   4.978   6.701   0.637
 4118SOL    HW213254   5.011   6.769   0.493
 4119SOL     OW13255   3.154   1.722   3.981
 4119SOL    HW113256   3.123   1.792   4.046
 4119SOL    HW213257   3.078   1.698   3.920
 4120SOL     OW13258   4.016   0.748   5.530
 4120SOL    HW113259   3.965   0.770   5.613
 4120SOL    HW213260   3.976   0.667   5.486
 4121SOL     OW13261   6.522   0.068   3.398
 4121SOL    HW113262   6.585   0.001   3.357
 4121SOL    HW213263   6.468   0.023   3.469
 4122SOL     OW13264   1.422   0.243   4.628
 4122SOL    HW113265   1.431   0.150   4.591
 4122SOL    HW213266   1.453   0.309   4.559
 4123SOL     OW13267   4.342   4.725   5.337
 4123SOL    HW113268   4.381   4.817   5.339
 4123SOL    HW213269   4.301   4.704   5.426
 4124SOL     OW13270   6.683   6.231   0.796
 4124SOL    HW113271   6.705   6.147   0.844
 4124SOL    HW213272   6.674   6.306   0.862
 4125SOL     OW13273   4.501   2.010   2.828
 4125SOL    HW113274   4.473   2.056   2.913
 4125SOL    HW213275   4.430   2.023   2.759
 4126SOL     OW13276   1.894   3.247   3.263
 4126SOL    HW113277   1.868   3.336   3.302
 4126SOL    HW213278   1.934   3.262   3.172
 4127SOL     OW13279   5.685   3.454   5.557
 4127SOL    HW113280   5.587   3.435   5.548
 4127SOL    HW213281   5.737   3.379   5.517
 4128SOL     OW13282   1.052   3.042   1.421
 4128SOL    HW113283   1.047   3.114   1.351
 4128SOL    HW213284   1.006   3.074   1.504
 4129SOL     OW13285   3.460   1.091   0.045
 4129SOL    HW113286   3.385   1.028   0.021
 4129SOL    HW213287   3.526   1.094   6.994
 4130SOL     OW13288   6.432   3.044   0.907
 4130SOL    HW113289   6.350   3.101   0.901
 4130SOL    HW213290   6.464   3.021   0.815
 4131SOL     OW13291   7.016   1.198   3.670
 4131SOL    HW113292   0.066   1.234   3.612
 4131SOL    HW213293   6.928   1.216   3.626
 4132SOL     OW13294   4.808   3.955   3.358
 4132SOL    HW113295   4.863   3.872   3.350
 4132SOL    HW213296   4.764   3.974   3.270
 4133SOL     OW13297   3.155   5.998   1.490
 4133SOL    HW113298   3.237   6.055   1.496
 4133SOL    HW213299   3.078   6.054   1.459
 4134SOL     OW13300   2.463   3.795   1.279
 4134SOL    HW113301   2.557   3.788   1.244
 4134SOL    HW213302   2.399   3.772   1.206
 4135SOL     OW13303   0.427   2.150   2.006
 4135SOL    HW113304   0.361   2.218   1.975
 4135SOL    HW213305   0.511   2.159   1.953
 4136SOL     OW13306   1.017   3.175   2.873
 4136SOL    HW113307   1.062   3.208   2.956
 4136SOL    HW213308   1.040   3.078   2.860
 4137SOL     OW13309   1.739   3.846   1.343
 4137SOL    HW113310   1.811   3.803   1.397
 4137SOL    HW213311   1.709   3.930   1.388
 4138SOL     OW13312   4.146   5.796   2.753
 4138SOL    HW113313   4.174   5.841   2.668
 4138SOL    HW213314   4.219   5.803   2.820
 4139SOL     OW13315   1.699   1.755   5.243
 4139SOL    HW113316   1.690   1.847   5.281
 4139SOL    HW213317   1.620   1.735   5.185
 4140SOL     OW13318   3.408   0.838   5.165
 4140SOL    HW113319   3.373   0.807   5.076
 4140SOL    HW213320   3.490   0.785   5.188
 4141SOL     OW13321   5.098   6.272   1.260
 4141SOL    HW113322   5.094   6.301   1.355
 4141SOL    HW213323   5.145   6.342   1.206
 4142SOL     OW13324   6.417   5.177   1.117
 4142SOL    HW113325   6.432   5.209   1.210
 4142SOL    HW213326   6.505   5.176   1.067
 4143SOL     OW13327   5.745   2.302   0.951
 4143SOL    HW113328   5.691   2.301   0.867
 4143SOL    HW213329   5.693   2.257   1.024
 4144SOL     OW13330   5.036   1.671   6.895
 4144SOL    HW113331   4.943   1.636   6.913
 4144SOL    HW213332   5.049   1.681   6.797
 4145SOL     OW13333   0.471   6.466   1.324
 4145SOL    HW113334   0.474   6.426   1.233
 4145SOL    HW213335   0.464   6.566   1.317
 4146SOL     OW13336   6.030   0.371   3.029
 4146SOL    HW113337   6.043   0.470   3.030
 4146SOL    HW213338   5.953   0.348   2.970
 4147SOL     OW13339   4.969   5.098   6.024
 4147SOL    HW113340   5.065   5.104   6.053
 4147SOL    HW213341   4.932   5.008   6.049
 4148SOL     OW13342   2.403   0.277   4.625
 4148SOL    HW113343   2.474   0.332   4.582
 4148SOL    HW213344   2.443   0.226   4.702
 4149SOL     OW13345   0.221   4.089   1.245
 4149SOL    HW113346   0.172   4.175   1.234
 4149SOL    HW213347   0.186   4.022   1.179
 4150SOL     OW13348   1.433   0.348   5.924
 4150SOL    HW113349   1.495   0.406   5.976
 4150SOL    HW213350   1.453   0.357   5.826
 4151SOL     OW13351   3.366   5.864   5.609
 4151SOL    HW113352   3.379   5.765   5.604
 4151SOL    HW213353   3.285   5.889   5.555
 4152SOL     OW13354   4.182   5.848   1.242
 4152SOL    HW113355   4.172   5.911   1.319
 4152SOL    HW213356   4.134   5.763   1.263
 4153SOL     OW13357   5.733   5.160   0.788
 4153SOL    HW113358   5.774   5.071   0.807
 4153SOL    HW213359   5.789   5.210   0.723
 4154SOL     OW13360   6.799   5.075   3.518
 4154SOL    HW113361   6.795   4.992   3.573
 4154SOL    HW213362   6.790   5.155   3.577
 4155SOL     OW13363   0.290   1.152   2.007
 4155SOL    HW113364   0.381   1.112   2.015
 4155SOL    HW213365   0.281   1.228   2.072
 4156SOL     OW13366   5.852   6.276   4.815
 4156SOL    HW113367   5.800   6.248   4.896
 4156SOL    HW213368   5.824   6.368   4.787
 4157SOL     OW13369   4.757   5.827   3.923
 4157SOL    HW113370   4.788   5.916   3.891
 4157SOL    HW213371   4.832   5.761   3.920
 4158SOL     OW13372   0.445   3.180   1.619
 4158SOL    HW113373   0.439   3.160   1.716
 4158SOL    HW213374   0.396   3.265   1.599
 4159SOL     OW13375   2.166   2.943   2.959
 4159SOL    HW113376   2.148   3.026   3.012
 4159SOL    HW213377   2.216   2.878   3.016
 4160SOL     OW13378   5.595   0.926   0.675
 4160SOL    HW113379   5.649   0.863   0.619
 4160SOL    HW213380   5.651   0.961   0.750
 4161SOL     OW13381   0.953   1.980   0.820
 4161SOL    HW113382   0.933   1.882   0.820
 4161SOL    HW213383   1.042   1.996   0.863
 4162SOL     OW13384   6.551   5.788   0.275
 4162SOL    HW113385   6.620   5.853   0.243
 4162SOL    HW213386   6.556   5.781   0.375
 4163SOL     OW13387   4.734   0.482   2.879
 4163SOL    HW113388   4.787   0.399   2.865
 4163SOL    HW213389   4.663   0.465   2.947
 4164SOL     OW13390   1.922   6.683   5.788
 4164SOL    HW113391   1.987   6.735   5.732
 4164SOL    HW213392   1.957   6.675   5.881
 4165SOL     OW13393   4.403   0.674   5.860
 4165SOL    HW113394   4.312   0.635   5.865
 4165SOL    HW213395   4.413   0.728   5.776
 4166SOL     OW13396   5.515   1.800   0.458
 4166SOL    HW113397   5.594   1.777   0.402
 4166SOL    HW213398   5.483   1.892   0.436
 4167SOL     OW13399   2.350   4.598   0.540
 4167SOL    HW113400   2.314   4.509   0.568
 4167SOL    HW213401   2.280   4.648   0.489
 4168SOL     OW13402   0.127   4.623   1.506
 4168SOL    HW113403   0.202   4.683   1.480
 4168SOL    HW213404   0.155   4.528   1.495
 4169SOL     OW13405   5.582   5.028   5.005
 4169SOL    HW113406   5.571   5.004   4.909
 4169SOL    HW213407   5.679   5.039   5.026
 4170SOL     OW13408   4.539   3.495   6.337
 4170SOL    HW113409   4.442   3.480   6.320
 4170SOL    HW213410   4.552   3.585   6.377
 4171SOL     OW13411   6.498   5.752   0.899
 4171SOL    HW113412   6.513   5.714   0.990
 4171SOL    HW213413   6.435   5.693   0.848
 4172SOL     OW13414   1.306   1.874   6.116
 4172SOL    HW113415   1.364   1.830   6.047
 4172SOL    HW213416   1.215   1.888   6.077
 4173SOL     OW13417   5.176   4.293   4.574
 4173SOL    HW113418   5.159   4.289   4.476
 4173SOL    HW213419   5.109   4.353   4.618
 4174SOL     OW13420   4.775   1.561   2.702
 4174SOL    HW113421   4.715   1.604   2.634
 4174SOL    HW213422   4.754   1.463   2.708
 4175SOL     OW13423   2.060   5.441   4.609
 4175SOL    HW113424   1.970   5.450   4.652
 4175SOL    HW213425   2.111   5.369   4.655
 4176SOL     OW13426   3.627   6.073   1.797
 4176SOL    HW113427   3.671   6.129   1.867
 4176SOL    HW213428   3.694   6.009   1.758
 4177SOL     OW13429   6.087   4.998   5.097
 4177SOL    HW113430   6.051   4.961   5.183
 4177SOL    HW213431   6.128   5.088   5.116
 4178SOL     OW13432   4.295   6.881   4.165
 4178SOL    HW113433   4.271   6.840   4.077
 4178SOL    HW213434   4.289   6.980   4.159
 4179SOL     OW13435   5.879   3.196   2.919
 4179SOL    HW113436   5.875   3.252   3.002
 4179SOL    HW213437   5.899   3.254   2.841
 4180SOL     OW13438   4.690   4.117   0.801
 4180SOL    HW113439   4.718   4.211   0.781
 4180SOL    HW213440   4.684   4.105   0.900
 4181SOL     OW13441   3.573   0.985   0.412
 4181SOL    HW113442   3.620   0.917   0.468
 4181SOL    HW213443   3.485   0.948   0.382
 4182SOL     OW13444   1.275   0.015   3.686
 4182SOL    HW113445   1.223   6.967   3.640
 4182SOL    HW213446   1.213   0.087   3.716
 4183SOL     OW13447   2.915   1.237   0.029
 4183SOL    HW113448   2.895   1.142   0.052
 4183SOL    HW213449   2.831   1.284   0.002
 4184SOL     OW13450   4.218   6.212   2.304
 4184SOL    HW113451   4.134   6.235   2.354
 4184SOL    HW213452   4.202   6.224   2.206
 4185SOL     OW13453   0.503   4.710   2.631
 4185SOL    HW113454   0.577   4.758   2.677
 4185SOL    HW213455   0.517   4.612   2.637
 4186SOL     OW13456   3.095   4.898   6.873
 4186SOL    HW113457   3.146   4.812   6.868
 4186SOL    HW213458   3.006   4.886   6.830
 4187SOL     OW13459   3.646   3.224   5.733
 4187SOL    HW113460   3.717   3.163   5.698
 4187SOL    HW213461   3.663   3.317   5.700
 4188SOL     OW13462   5.114   0.456   4.954
 4188SOL    HW113463   5.030   0.470   4.901
 4188SOL    HW213464   5.153   0.367   4.931
 4189SOL     OW13465   3.320   5.025   5.294
 4189SOL    HW113466   3.297   5.015   5.391
 4189SOL    HW213467   3.321   5.122   5.270
 4190SOL     OW13468   0.937   0.626   0.548
 4190SOL    HW113469   0.951   0.658   0.454
 4190SOL    HW213470   0.868   0.683   0.592
 4191SOL     OW13471   4.772   4.509   3.149
 4191SOL    HW113472   4.759   4.586   3.211
 4191SOL    HW213473   4.809   4.541   3.062
 4192SOL     OW13474   0.940   0.910   3.940
 4192SOL    HW113475   0.963   0.815   3.918
 4192SOL    HW213476   0.848   0.930   3.907
 4193SOL     OW13477   0.618   1.096   1.809
 4193SOL    HW113478   0.557   1.106   1.887
 4193SOL    HW213479   0.623   1.182   1.759
 4194SOL     OW13480   5.964   0.571   4.077
 4194SOL    HW113481   5.992   0.660   4.042
 4194SOL    HW213482   6.045   0.517   4.101
 4195SOL     OW13483   3.917   6.406   1.658
 4195SOL    HW113484   3.832   6.448   1.691
 4195SOL    HW213485   3.995   6.453   1.700
 4196SOL     OW13486   6.294   1.965   3.115
 4196SOL    HW113487   6.199   1.957   3.147
 4196SOL    HW213488   6.298   1.938   3.018
 4197SOL     OW13489   4.597   5.739   5.799
 4197SOL    HW113490   4.625   5.816   5.742
 4197SOL    HW213491   4.539   5.678   5.746
 4198SOL     OW13492   5.689   2.450   0.141
 4198SOL    HW113493   5.679   2.351   0.144
 4198SOL    HW213494   5.602   2.491   0.115
 4199SOL     OW13495   1.876   2.536   6.354
 4199SOL    HW113496   1.963   2.562   6.396
 4199SOL    HW213497   1.884   2.445   6.312
 4200SOL     OW13498   3.861   0.119   5.850
 4200SOL    HW113499   3.929   0.136   5.921
 4200SOL    HW213500   3.769   0.128   5.889
 4201SOL     OW13501   6.034   6.678   3.612
 4201SOL    HW113502   6.102   6.716   3.550
 4201SOL    HW213503   6.077   6.612   3.674
 4202SOL     OW13504   3.946   5.656   5.318
 4202SOL    HW113505   3.883   5.724   5.280
 4202SOL    HW213506   3.977   5.686   5.408
 4203SOL     OW13507   4.207   5.304   0.531
 4203SOL    HW113508   4.168   5.288   0.621
 4203SOL    HW213509   4.277   5.375   0.537
 4204SOL     OW13510   3.817   3.736   2.801
 4204SOL    HW113511   3.780   3.829   2.795
 4204SOL    HW213512   3.915   3.739   2.784
 4205SOL     OW13513   4.060   5.391   3.373
 4205SOL    HW113514   4.137   5.452   3.386
 4205SOL    HW213515   4.072   5.309   3.428
 4206SOL     OW13516   6.899   0.334   5.771
 4206SOL    HW113517   6.910   0.299   5.678
 4206SOL    HW213518   6.987   0.333   5.817
 4207SOL     OW13519   1.755   1.525   0.985
 4207SOL    HW113520   1.673   1.510   1.040
 4207SOL    HW213521   1.819   1.584   1.035
 4208SOL     OW13522   0.080   2.649   6.009
 4208SOL    HW113523   0.118   2.707   5.938
 4208SOL    HW213524   7.005   2.645   5.999
 4209SOL     OW13525   0.220   0.323   4.284
 4209SOL    HW113526   0.301   0.316   4.225
 4209SOL    HW213527   0.144   0.273   4.242
 4210SOL     OW13528   3.697   3.508   2.179
 4210SOL    HW113529   3.732   3.600   2.161
 4210SOL    HW213530   3.598   3.508   2.167
 4211SOL     OW13531   4.609   6.252   6.418
 4211SOL    HW113532   4.578   6.301   6.499
 4211SOL    HW213533   4.701   6.282   6.394
 4212SOL     OW13534   6.058   2.037   2.777
 4212SOL    HW113535   5.999   1.960   2.752
 4212SOL    HW213536   6.001   2.112   2.811
 4213SOL     OW13537   1.782   1.114   1.053
 4213SOL    HW113538   1.812   1.023   1.082
 4213SOL    HW213539   1.856   1.180   1.067
 4214SOL     OW13540   1.292   5.342   5.231
 4214SOL    HW113541   1.313   5.416   5.167
 4214SOL    HW213542   1.376   5.313   5.277
 4215SOL     OW13543   5.622   6.982   5.539
 4215SOL    HW113544   5.571   6.908   5.582
 4215SOL    HW213545   5.624   0.037   5.601
 4216SOL     OW13546   1.082   1.201   3.047
 4216SOL    HW113547   1.066   1.104   3.067
 4216SOL    HW213548   1.179   1.215   3.029
 4217SOL     OW13549   0.811   0.440   2.115
 4217SOL    HW113550   0.801   0.376   2.039
 4217SOL    HW213551   0.817   0.533   2.080
 4218SOL     OW13552   4.390   0.938   1.795
 4218SOL    HW113553   4.301   0.898   1.773
 4218SOL    HW213554   4.378   1.034   1.822
 4219SOL     OW13555   3.484   5.493   3.931
 4219SOL    HW113556   3.412   5.538   3.879
 4219SOL    HW213557   3.454   5.478   4.025
 4220SOL     OW13558   5.532   2.770   4.320
 4220SOL    HW113559   5.503   2.710   4.245
 4220SOL    HW213560   5.606   2.829   4.288
 4221SOL     OW13561   6.061   5.450   6.756
 4221SOL    HW113562   6.117   5.425   6.677
 4221SOL    HW213563   5.980   5.391   6.760
 4222SOL     OW13564   6.307   2.255   2.778
 4222SOL    HW113565   6.234   2.312   2.816
 4222SOL    HW213566   6.279   2.220   2.689
 4223SOL     OW13567   3.839   3.080   6.016
 4223SOL    HW113568   3.892   3.001   5.985
 4223SOL    HW213569   3.750   3.080   5.971
 4224SOL     OW13570   5.251   3.672   3.926
 4224SOL    HW113571   5.224   3.733   3.852
 4224SOL    HW213572   5.280   3.584   3.889
 4225SOL     OW13573   3.885   0.811   5.792
 4225SOL    HW113574   3.785   0.815   5.801
 4225SOL    HW213575   3.924   0.765   5.871
 4226SOL     OW13576   0.739   0.213   2.325
 4226SOL    HW113577   0.669   0.259   2.379
 4226SOL    HW213578   0.767   0.273   2.249
 4227SOL     OW13579   3.887   4.664   1.299
 4227SOL    HW113580   3.866   4.582   1.351
 4227SOL    HW213581   3.867   4.648   1.202
 4228SOL     OW13582   0.642   4.287   5.050
 4228SOL    HW113583   0.553   4.241   5.059
 4228SOL    HW213584   0.705   4.229   4.999
 4229SOL     OW13585   5.128   5.597   5.520
 4229SOL    HW113586   5.162   5.617   5.428
 4229SOL    HW213587   5.107   5.500   5.527
 4230SOL     OW13588   1.238   6.903   2.750
 4230SOL    HW113589   1.290   6.938   2.828
 4230SOL    HW213590   1.297   6.846   2.694
 4231SOL     OW13591   5.711   6.686   5.516
 4231SOL    HW113592   5.782   6.756   5.526
 4231SOL    HW213593   5.646   6.715   5.446
 4232SOL     OW13594   6.966   4.622   2.538
 4232SOL    HW113595   6.925   4.538   2.573
 4232SOL    HW213596   7.009   4.672   2.613
 4233SOL     OW13597   6.973   0.834   6.327
 4233SOL    HW113598   6.909   0.910   6.313
 4233SOL    HW213599   0.032   0.867   6.370
 4234SOL     OW13600   2.535   6.535   5.491
 4234SOL    HW113601   2.482   6.575   5.565
 4234SOL    HW213602   2.542   6.601   5.416
 4235SOL     OW13603   6.139   4.130   5.686
 4235SOL    HW113604   6.199   4.069   5.634
 4235SOL    HW213605   6.100   4.081   5.764
 4236SOL     OW13606   6.952   3.690   3.221
 4236SOL    HW113607   6.961   3.619   3.290
 4236SOL    HW213608   6.899   3.766   3.258
 4237SOL     OW13609   5.465   5.632   2.498
 4237SOL    HW113610   5.469   5.532   2.508
 4237SOL    HW213611   5.369   5.660   2.491
 4238SOL     OW13612   2.868   5.213   3.022
 4238SOL    HW113613   2.814   5.131   3.038
 4238SOL    HW213614   2.963   5.197   3.050
 4239SOL     OW13615   5.401   1.962   3.109
 4239SOL    HW113616   5.462   1.970   3.031
 4239SOL    HW213617   5.380   1.866   3.127
 4240SOL     OW13618   2.227   6.917   6.913
 4240SOL    HW113619   2.297   6.857   6.874
 4240SOL    HW213620   2.235   6.918   7.013
 4241SOL     OW13621   6.150   1.294   0.391
 4241SOL    HW113622   6.050   1.303   0.385
 4241SOL    HW213623   6.193   1.367   0.339
 4242SOL     OW13624   2.377   0.863   3.647
 4242SOL    HW113625   2.444   0.789   3.636
 4242SOL    HW213626   2.285   0.824   3.651
 4243SOL     OW13627   6.429   2.996   3.262
 4243SOL    HW113628   6.411   3.020   3.357
 4243SOL    HW213629   6.516   3.036   3.233
 4244SOL     OW13630   4.504   4.459   1.208
 4244SOL    HW113631   4.493   4.529   1.279
 4244SOL    HW213632   4.591   4.474   1.161
 4245SOL     OW13633   0.019   1.001   6.022
 4245SOL    HW113634   0.020   1.053   6.107
 4245SOL    HW213635   6.953   0.957   6.012
 4246SOL     OW13636   6.882   3.549   2.735
 4246SOL    HW113637   6.935   3.564   2.818
 4246SOL    HW213638   6.943   3.546   2.656
 4247SOL     OW13639   2.883   4.898   3.223
 4247SOL    HW113640   2.809   4.928   3.164
 4247SOL    HW213641   2.961   4.959   3.213
 4248SOL     OW13642   2.005   1.991   3.674
 4248SOL    HW113643   1.921   1.967   3.626
 4248SOL    HW213644   2.035   1.913   3.729
 4249SOL     OW13645   5.640   2.398   4.016
 4249SOL    HW113646   5.676   2.438   3.931
 4249SOL    HW213647   5.696   2.320   4.043
 4250SOL     OW13648   6.992   5.786   3.493
 4250SOL    HW113649   7.012   5.688   3.486
 4250SOL    HW213650   7.013   5.818   3.585
 4251SOL     OW13651   5.331   3.980   1.225
 4251SOL    HW113652   5.347   3.910   1.295
 4251SOL    HW213653   5.286   3.937   1.146
 4252SOL     OW13654   6.117   6.865   6.518
 4252SOL    HW113655   6.134   6.909   6.607
 4252SOL    HW213656   6.203   6.853   6.470
 4253SOL     OW13657   3.183   6.835   1.254
 4253SOL    HW113658   3.239   6.800   1.179
 4253SOL    HW213659   3.098   6.873   1.217
 4254SOL     OW13660   1.331   3.671   1.894
 4254SOL    HW113661   1.286   3.697   1.809
 4254SOL    HW213662   1.264   3.667   1.968
 4255SOL     OW13663   6.936   4.005   4.235
 4255SOL    HW113664   6.893   3.997   4.325
 4255SOL    HW213665   0.012   3.997   4.245
 4256SOL     OW13666   1.456   6.105   0.697
 4256SOL    HW113667   1.361   6.075   0.707
 4256SOL    HW213668   1.458   6.205   0.694
 4257SOL     OW13669   2.889   0.543   4.258
 4257SOL    HW113670   2.941   0.611   4.310
 4257SOL    HW213671   2.794   0.541   4.290
 4258SOL     OW13672   3.354   5.715   1.013
 4258SOL    HW113673   3.326   5.620   0.999
 4258SOL    HW213674   3.274   5.772   1.031
 4259SOL     OW13675   2.451   0.546   1.057
 4259SOL    HW113676   2.464   0.471   0.993
 4259SOL    HW213677   2.530   0.553   1.118
 4260SOL     OW13678   5.882   0.373   1.634
 4260SOL    HW113679   5.942   0.323   1.696
 4260SOL    HW213680   5.859   0.462   1.674
 4261SOL     OW13681   2.448   0.285   2.604
 4261SOL    HW113682   2.409   0.207   2.556
 4261SOL    HW213683   2.545   0.268   2.623
 4262SOL     OW13684   0.554   4.325   6.351
 4262SOL    HW113685   0.461   4.324   6.389
 4262SOL    HW213686   0.620   4.312   6.425
 4263SOL     OW13687   3.020   0.605   2.224
 4263SOL    HW113688   2.968   0.522   2.243
 4263SOL    HW213689   2.965   0.685   2.248
 4264SOL     OW13690   6.510   1.702   3.607
 4264SOL    HW113691   6.529   1.758   3.527
 4264SOL    HW213692   6.480   1.761   3.682
 4265SOL     OW13693   4.333   1.681   0.737
 4265SOL    HW113694   4.278   1.757   0.772
 4265SOL    HW213695   4.365   1.703   0.645
 4266SOL     OW13696   1.442   5.794   6.196
 4266SOL    HW113697   1.388   5.721   6.155
 4266SOL    HW213698   1.535   5.793   6.158
 4267SOL     OW13699   1.981   3.901   3.799
 4267SOL    HW113700   1.918   3.976   3.820
 4267SOL    HW213701   2.051   3.933   3.735
 4268SOL     OW13702   0.979   5.482   6.325
 4268SOL    HW113703   0.880   5.480   6.334
 4268SOL    HW213704   1.004   5.517   6.234
 4269SOL     OW13705   2.658   0.624   2.281
 4269SOL    HW113706   2.649   0.695   2.351
 4269SOL    HW213707   2.651   0.665   2.191
 4270SOL     OW13708   4.033   3.669   3.194
 4270SOL    HW113709   3.941   3.659   3.158
 4270SOL    HW213710   4.099   3.629   3.129
 4271SOL     OW13711   6.617   1.255   6.872
 4271SOL    HW113712   6.527   1.298   6.884
 4271SOL    HW213713   6.688   1.323   6.891
 4272SOL     OW13714   6.610   2.019   4.369
 4272SOL    HW113715   6.686   2.083   4.381
 4272SOL    HW213716   6.626   1.938   4.425
 4273SOL     OW13717   4.664   6.878   5.141
 4273SOL    HW113718   4.668   6.818   5.061
 4273SOL    HW213719   4.630   6.968   5.113
 4274SOL     OW13720   0.850   0.292   1.330
 4274SOL    HW113721   0.912   0.221   1.295
 4274SOL    HW213722   0.885   0.381   1.303
 4275SOL     OW13723   6.319   2.321   4.700
 4275SOL    HW113724   6.371   2.284   4.623
 4275SOL    HW213725   6.238   2.264   4.716
 4276SOL     OW13726   2.152   5.427   3.917
 4276SOL    HW113727   2.065   5.448   3.873
 4276SOL    HW213728   2.154   5.330   3.942
 4277SOL     OW13729   6.172   4.927   3.207
 4277SOL    HW113730   6.261   4.931   3.253
 4277SOL    HW213731   6.103   4.893   3.270
 4278SOL     OW13732   0.150   6.726   5.216
 4278SOL    HW113733   0.130   6.822   5.199
 4278SOL    HW213734   0.125   6.671   5.136
 4279SOL     OW13735   3.320   0.953   3.882
 4279SOL    HW113736   3.340   0.965   3.980
 4279SOL    HW213737   3.222   0.955   3.867
 4280SOL     OW13738   5.205   0.814   6.404
 4280SOL    HW113739   5.214   0.904   6.362
 4280SOL    HW213740   5.143   0.820   6.482
 4281SOL     OW13741   6.733   4.525   3.438
 4281SOL    HW113742   6.633   4.527   3.435
 4281SOL    HW213743   6.767   4.608   3.481
 4282SOL     OW13744   3.920   4.361   6.248
 4282SOL    HW113745   3.926   4.418   6.166
 4282SOL    HW213746   3.883   4.272   6.225
 4283SOL     OW13747   1.810   0.935   2.852
 4283SOL    HW113748   1.866   0.856   2.828
 4283SOL    HW213749   1.721   0.928   2.807
 4284SOL     OW13750   4.162   4.876   1.008
 4284SOL    HW113751   4.220   4.794   0.999
 4284SOL    HW213752   4.202   4.950   0.955
 4285SOL     OW13753   1.739   0.438   5.828
 4285SOL    HW113754   1.717   0.418   5.733
 4285SOL    HW213755   1.834   0.412   5.846
 4286SOL     OW13756   5.162   6.626   5.652
 4286SOL    HW113757   5.166   6.719   5.616
 4286SOL    HW213758   5.251   6.601   5.691
 4287SOL     OW13759   5.817   1.163   5.897
 4287SOL    HW113760   5.742   1.190   5.837
 4287SOL    HW213761   5.900   1.148   5.843
 4288SOL     OW13762   0.692   5.779   3.718
 4288SOL    HW113763   0.702   5.823   3.628
 4288SOL    HW213764   0.758   5.819   3.782
 4289SOL     OW13765   0.313   2.981   6.226
 4289SOL    HW113766   0.266   3.069   6.230
 4289SOL    HW213767   0.279   2.922   6.298
 4290SOL     OW13768   1.207   6.228   3.676
 4290SOL    HW113769   1.235   6.132   3.669
 4290SOL    HW213770   1.287   6.285   3.692
 4291SOL     OW13771   4.824   3.545   0.604
 4291SOL    HW113772   4.904   3.598   0.574
 4291SOL    HW213773   4.855   3.457   0.639
 4292SOL     OW13774   5.256   3.093   0.159
 4292SOL    HW113775   5.244   3.049   0.069
 4292SOL    HW213776   5.352   3.121   0.169
 4293SOL     OW13777   2.539   2.711   6.882
 4293SOL    HW113778   2.633   2.697   6.849
 4293SOL    HW213779   2.539   2.713   6.982
 4294SOL     OW13780   2.113   2.331   6.642
 4294SOL    HW113781   2.073   2.403   6.585
 4294SOL    HW213782   2.108   2.358   6.738
 4295SOL     OW13783   3.731   5.612   5.016
 4295SOL    HW113784   3.724   5.690   5.078
 4295SOL    HW213785   3.785   5.638   4.936
 4296SOL     OW13786   3.256   6.774   0.750
 4296SOL    HW113787   3.306   6.812   0.672
 4296SOL    HW213788   3.163   6.750   0.723
 4297SOL     OW13789   5.030   0.030   0.568
 4297SOL    HW113790   5.126   0.051   0.550
 4297SOL    HW213791   5.020   6.957   0.588
 4298SOL     OW13792   3.793   5.041   0.333
 4298SOL    HW113793   3.805   5.043   0.432
 4298SOL    HW213794   3.762   5.131   0.301
 4299SOL     OW13795   1.422   3.028   6.550
 4299SOL    HW113796   1.446   3.125   6.558
 4299SOL    HW213797   1.382   3.012   6.460
 4300SOL     OW13798   3.495   6.719   0.087
 4300SOL    HW113799   3.512   6.635   0.139
 4300SOL    HW213800   3.578   6.745   0.038
 4301SOL     OW13801   4.134   0.793   1.740
 4301SOL    HW113802   4.071   0.723   1.774
 4301SOL    HW213803   4.152   0.778   1.642
 4302SOL     OW13804   0.937   0.128   6.156
 4302SOL    HW113805   0.902   0.161   6.068
 4302SOL    HW213806   0.860   0.111   6.218
 4303SOL     OW13807   6.818   4.892   4.072
 4303SOL    HW113808   6.792   4.986   4.095
 4303SOL    HW213809   6.900   4.892   4.015
 4304SOL     OW13810   3.356   4.131   2.568
 4304SOL    HW113811   3.359   4.040   2.525
 4304SOL    HW213812   3.431   4.140   2.633
 4305SOL     OW13813   0.318   7.007   5.515
 4305SOL    HW113814   0.301   6.909   5.523
 4305SOL    HW213815   0.304   0.011   5.420
 4306SOL     OW13816   5.103   4.855   5.498
 4306SOL    HW113817   5.169   4.923   5.530
 4306SOL    HW213818   5.041   4.831   5.572
 4307SOL     OW13819   5.746   3.633   6.097
 4307SOL    HW113820   5.832   3.583   6.111
 4307SOL    HW213821   5.669   3.570   6.107
 4308SOL     OW13822   5.780   4.431   0.979
 4308SOL    HW113823   5.713   4.450   1.051
 4308SOL    HW213824   5.752   4.476   0.894
 4309SOL     OW13825   0.936   1.269   0.198
 4309SOL    HW113826   1.008   1.252   0.130
 4309SOL    HW213827   0.919   1.185   0.250
 4310SOL     OW13828   2.171   2.739   2.133
 4310SOL    HW113829   2.150   2.830   2.170
 4310SOL    HW213830   2.234   2.692   2.195
 4311SOL     OW13831   1.841   6.221   2.366
 4311SOL    HW113832   1.788   6.300   2.394
 4311SOL    HW213833   1.852   6.222   2.266
 4312SOL     OW13834   1.886   5.872   1.697
 4312SOL    HW113835   1.979   5.864   1.663
 4312SOL    HW213836   1.883   5.846   1.794
 4313SOL     OW13837   4.309   1.587   1.333
 4313SOL    HW113838   4.334   1.592   1.236
 4313SOL    HW213839   4.222   1.539   1.341
 4314SOL     OW13840   5.913   1.494   4.356
 4314SOL    HW113841   5.841   1.546   4.401
 4314SOL    HW213842   5.934   1.412   4.410
 4315SOL     OW13843   2.759   6.196   2.246
 4315SOL    HW113844   2.744   6.147   2.331
 4315SOL    HW213845   2.855   6.186   2.218
 4316SOL     OW13846   5.136   1.119   1.857
 4316SOL    HW113847   5.135   1.216   1.882
 4316SOL    HW213848   5.068   1.102   1.785
 4317SOL     OW13849   4.954   2.639   4.805
 4317SOL    HW113850   4.939   2.600   4.714
 4317SOL    HW213851   5.050   2.626   4.831
 4318SOL     OW13852   0.217   2.470   4.824
 4318SOL    HW113853   0.188   2.551   4.874
 4318SOL    HW213854   0.203   2.389   4.881
 4319SOL     OW13855   1.836   1.342   0.387
 4319SOL    HW113856   1.930   1.320   0.363
 4319SOL    HW213857   1.774   1.282   0.336
 4320SOL     OW13858   4.866   4.877   0.410
 4320SOL    HW113859   4.894   4.971   0.389
 4320SOL    HW213860   4.942   4.815   0.390
 4321SOL     OW13861   6.729   6.210   5.319
 4321SOL    HW113862   6.789   6.263   5.259
 4321SOL    HW213863   6.671   6.150   5.264
 4322SOL     OW13864   5.871   2.891   0.134
 4322SOL    HW113865   5.969   2.878   0.152
 4322SOL    HW213866   5.839   2.819   0.072
 4323SOL     OW13867   4.616   3.993   0.344
 4323SOL    HW113868   4.559   3.939   0.282
 4323SOL    HW213869   4.711   3.988   0.315
 4324SOL     OW13870   5.790   4.102   6.889
 4324SOL    HW113871   5.869   4.154   6.922
 4324SOL    HW213872   5.822   4.026   6.832
 4325SOL     OW13873   2.296   1.261   1.538
 4325SOL    HW113874   2.379   1.280   1.486
 4325SOL    HW213875   2.235   1.202   1.484
 4326SOL     OW13876   4.769   4.848   3.604
 4326SOL    HW113877   4.708   4.899   3.543
 4326SOL    HW213878   4.730   4.848   3.696
 4327SOL     OW13879   5.730   6.209   1.816
 4327SOL    HW113880   5.685   6.245   1.898
 4327SOL    HW213881   5.709   6.112   1.806
 4328SOL     OW13882   4.439   4.103   5.786
 4328SOL    HW113883   4.529   4.145   5.793
 4328SOL    HW213884   4.414   4.092   5.690
 4329SOL     OW13885   4.967   2.214   5.276
 4329SOL    HW113886   4.887   2.222   5.216
 4329SOL    HW213887   4.939   2.230   5.371
 4330SOL     OW13888   2.119   6.445   4.289
 4330SOL    HW113889   2.107   6.365   4.230
 4330SOL    HW213890   2.190   6.426   4.357
 4331SOL     OW13891   5.789   1.298   2.136
 4331SOL    HW113892   5.746   1.309   2.046
 4331SOL    HW213893   5.797   1.201   2.158
 4332SOL     OW13894   5.052   3.225   2.197
 4332SOL    HW113895   5.028   3.128   2.208
 4332SOL    HW213896   4.981   3.271   2.143
 4333SOL     OW13897   4.307   1.505   5.940
 4333SOL    HW113898   4.300   1.603   5.958
 4333SOL    HW213899   4.378   1.465   5.998
 4334SOL     OW13900   1.649   2.068   2.723
 4334SOL    HW113901   1.622   2.144   2.664
 4334SOL    HW213902   1.669   2.102   2.814
 4335SOL     OW13903   3.621   4.070   2.709
 4335SOL    HW113904   3.677   4.116   2.778
 4335SOL    HW213905   3.644   4.107   2.618
 4336SOL     OW13906   3.393   6.574   5.683
 4336SOL    HW113907   3.456   6.636   5.729
 4336SOL    HW213908   3.347   6.517   5.751
 4337SOL     OW13909   0.952   4.554   0.333
 4337SOL    HW113910   0.949   4.612   0.251
 4337SOL    HW213911   1.033   4.497   0.330
 4338SOL     OW13912   6.422   0.081   6.036
 4338SOL    HW113913   6.491   0.125   5.980
 4338SOL    HW213914   6.381   0.005   5.985
 4339SOL     OW13915   4.845   3.297   5.795
 4339SOL    HW113916   4.903   3.290   5.714
 4339SOL    HW213917   4.795   3.384   5.793
 4340SOL     OW13918   6.066   3.729   1.445
 4340SOL    HW113919   6.115   3.815   1.429
 4340SOL    HW213920   5.986   3.746   1.502
 4341SOL     OW13921   0.686   4.775   1.866
 4341SOL    HW113922   0.777   4.782   1.827
 4341SOL    HW213923   0.683   4.702   1.934
 4342SOL     OW13924   5.467   3.778   3.279
 4342SOL    HW113925   5.555   3.753   3.238
 4342SOL    HW213926   5.422   3.696   3.315
 4343SOL     OW13927   2.754   5.756   5.219
 4343SOL    HW113928   2.756   5.720   5.126
 4343SOL    HW213929   2.659   5.762   5.250
 4344SOL     OW13930   6.996   3.679   1.779
 4344SOL    HW113931   0.066   3.705   1.804
 4344SOL    HW213932   6.988   3.676   1.679
 4345SOL     OW13933   3.672   4.108   5.494
 4345SOL    HW113934   3.691   4.159   5.411
 4345SOL    HW213935   3.576   4.121   5.520
 4346SOL     OW13936   1.584   3.340   2.918
 4346SOL    HW113937   1.663   3.285   2.948
 4346SOL    HW213938   1.613   3.401   2.845
 4347SOL     OW13939   6.267   6.516   2.648
 4347SOL    HW113940   6.331   6.515   2.571
 4347SOL    HW213941   6.312   6.475   2.728
 4348SOL     OW13942   0.030   5.309   3.674
 4348SOL    HW113943   6.990   5.376   3.712
 4348SOL    HW213944   7.023   5.281   3.583
 4349SOL     OW13945   5.527   1.870   2.883
 4349SOL    HW113946   5.539   1.771   2.874
 4349SOL    HW213947   5.533   1.913   2.793
 4350SOL     OW13948   3.646   1.608   3.767
 4350SOL    HW113949   3.551   1.612   3.798
 4350SOL    HW213950   3.676   1.512   3.764
 4351SOL     OW13951   1.639   5.647   0.716
 4351SOL    HW113952   1.620   5.680   0.809
 4351SOL    HW213953   1.594   5.708   0.650
 4352SOL     OW13954   6.628   3.721   2.429
 4352SOL    HW113955   6.725   3.722   2.455
 4352SOL    HW213956   6.594   3.815   2.424
 4353SOL     OW13957   4.041   2.832   6.791
 4353SOL    HW113958   4.108   2.826   6.718
 4353SOL    HW213959   4.072   2.779   6.870
 4354SOL     OW13960   2.146   0.480   5.716
 4354SOL    HW113961   2.100   0.418   5.780
 4354SOL    HW213962   2.082   0.508   5.645
 4355SOL     OW13963   2.444   6.983   2.759
 4355SOL    HW113964   2.393   6.898   2.775
 4355SOL    HW213965   2.422   7.019   2.669
 4356SOL     OW13966   5.331   3.584   0.257
 4356SOL    HW113967   5.347   3.682   0.257
 4356SOL    HW213968   5.394   3.540   0.192
 4357SOL     OW13969   6.189   0.909   1.534
 4357SOL    HW113970   6.125   0.861   1.595
 4357SOL    HW213971   6.146   0.922   1.445
 4358SOL     OW13972   0.032   1.053   0.723
 4358SOL    HW113973   0.046   0.992   0.801
 4358SOL    HW213974   0.097   1.129   0.728
 4359SOL     OW13975   1.856   1.395   5.867
 4359SOL    HW113976   1.878   1.371   5.773
 4359SOL    HW213977   1.796   1.326   5.907
 4360SOL     OW13978   1.649   3.209   3.748
 4360SOL    HW113979   1.637   3.237   3.653
 4360SOL    HW213980   1.668   3.290   3.805
 4361SOL     OW13981   2.448   3.276   1.597
 4361SOL    HW113982   2.360   3.290   1.643
 4361SOL    HW213983   2.457   3.180   1.571
 4362SOL     OW13984   6.479   5.458   3.680
 4362SOL    HW113985   6.427   5.506   3.750
 4362SOL    HW213986   6.425   5.381   3.645
 4363SOL     OW13987   5.584   2.164   1.138
 4363SOL    HW113988   5.588   2.215   1.223
 4363SOL    HW213989   5.492   2.125   1.127
 4364SOL     OW13990   3.115   3.944   4.378
 4364SOL    HW113991   3.123   3.846   4.397
 4364SOL    HW213992   3.108   3.959   4.280
 4365SOL     OW13993   2.714   0.677   1.751
 4365SOL    HW113994   2.723   0.602   1.686
 4365SOL    HW213995   2.725   0.765   1.704
 4366SOL     OW13996   5.979   0.168   6.942
 4366SOL    HW113997   5.946   0.095   7.001
 4366SOL    HW213998   5.994   0.251   6.995
 4367SOL     OW13999   2.379   4.417   4.560
 4367SOL    HW114000   2.376   4.330   4.512
 4367SOL    HW214001   2.351   4.404   4.655
 4368SOL     OW14002   3.541   5.424   0.563
 4368SOL    HW114003   3.564   5.420   0.660
 4368SOL    HW214004   3.495   5.510   0.542
 4369SOL     OW14005   4.743   5.423   3.162
 4369SOL    HW114006   4.839   5.399   3.148
 4369SOL    HW214007   4.693   5.411   3.075
 4370SOL     OW14008   3.632   4.858   1.696
 4370SOL    HW114009   3.646   4.949   1.734
 4370SOL    HW214010   3.581   4.802   1.762
 4371SOL     OW14011   0.797   2.019   2.339
 4371SOL    HW114012   0.848   1.957   2.279
 4371SOL    HW214013   0.799   2.112   2.300
 4372SOL     OW14014   2.451   2.339   3.527
 4372SOL    HW114015   2.387   2.302   3.595
 4372SOL    HW214016   2.470   2.269   3.458
 4373SOL     OW14017   5.479   1.383   0.080
 4373SOL    HW114018   5.389   1.404   0.040
 4373SOL    HW214019   5.550   1.399   0.012
 4374SOL     OW14020   0.451   1.443   0.925
 4374SOL    HW114021   0.385   1.470   0.995
 4374SOL    HW214022   0.541   1.434   0.967
 4375SOL     OW14023   4.524   6.614   3.273
 4375SOL    HW114024   4.473   6.696   3.247
 4375SOL    HW214025   4.477   6.568   3.348
 4376SOL     OW14026   6.056   6.623   3.072
 4376SOL    HW114027   5.967   6.638   3.114
 4376SOL    HW214028   6.057   6.661   2.980
 4377SOL     OW14029   5.646   5.095   0.072
 4377SOL    HW114030   5.687   5.125   0.158
 4377SOL    HW214031   5.680   5.004   0.049
 4378SOL     OW14032   2.101   2.938   2.491
 4378SOL    HW114033   2.134   2.893   2.574
 4378SOL    HW214034   2.173   2.939   2.422
 4379SOL     OW14035   2.243   2.548   2.670
 4379SOL    HW114036   2.251   2.648   2.671
 4379SOL    HW214037   2.146   2.523   2.673
 4380SOL     OW14038   0.854   6.875   3.140
 4380SOL    HW114039   0.904   6.894   3.056
 4380SOL    HW214040   0.906   6.810   3.196
 4381SOL     OW14041   1.824   3.840   5.533
 4381SOL    HW114042   1.895   3.777   5.564
 4381SOL    HW214043   1.862   3.932   5.523
 4382SOL     OW14044   5.957   3.455   6.248
 4382SOL    HW114045   6.007   3.520   6.190
 4382SOL    HW214046   5.916   3.504   6.325
 4383SOL     OW14047   0.767   2.130   5.847
 4383SOL    HW114048   0.709   2.070   5.792
 4383SOL    HW214049   0.714   2.208   5.879
 4384SOL     OW14050   6.147   2.372   5.955
 4384SOL    HW114051   6.143   2.333   5.863
 4384SOL    HW214052   6.229   2.427   5.965
 4385SOL     OW14053   6.024   2.713   5.480
 4385SOL    HW114054   6.060   2.667   5.561
 4385SOL    HW214055   6.090   2.703   5.405
 4386SOL     OW14056   2.138   3.451   0.433
 4386SOL    HW114057   2.207   3.396   0.385
 4386SOL    HW214058   2.182   3.502   0.506
 4387SOL     OW14059   6.767   1.699   1.389
 4387SOL    HW114060   6.705   1.650   1.450
 4387SOL    HW214061   6.823   1.633   1.338
 4388SOL     OW14062   5.123   1.691   6.388
 4388SOL    HW114063   5.033   1.683   6.345
 4388SOL    HW214064   5.166   1.778   6.361
 4389SOL     OW14065   0.612   3.671   0.744
 4389SOL    HW114066   0.643   3.668   0.839
 4389SOL    HW214067   0.533   3.610   0.733
 4390SOL     OW14068   3.697   1.033   1.044
 4390SOL    HW114069   3.714   1.073   0.954
 4390SOL    HW214070   3.767   0.964   1.063
 4391SOL     OW14071   1.999   5.682   0.123
 4391SOL    HW114072   2.022   5.588   0.099
 4391SOL    HW214073   1.984   5.735   0.039
 4392SOL     OW14074   6.863   3.641   5.921
 4392SOL    HW114075   6.841   3.562   5.863
 4392SOL    HW214076   6.869   3.723   5.865
 4393SOL     OW14077   6.056   0.513   2.026
 4393SOL    HW114078   5.985   0.583   2.014
 4393SOL    HW214079   6.091   0.517   2.120
 4394SOL     OW14080   5.950   5.808   2.436
 4394SOL    HW114081   6.008   5.754   2.376
 4394SOL    HW214082   5.984   5.902   2.441
 4395SOL     OW14083   3.128   6.736   2.022
 4395SOL    HW114084   3.185   6.750   2.104
 4395SOL    HW214085   3.046   6.793   2.028
 4396SOL     OW14086   2.234   2.211   3.966
 4396SOL    HW114087   2.145   2.167   3.961
 4396SOL    HW214088   2.237   2.273   4.044
 4397SOL     OW14089   0.552   0.850   4.548
 4397SOL    HW114090   0.484   0.920   4.572
 4397SOL    HW214091   0.579   0.800   4.629
 4398SOL     OW14092   0.897   4.169   5.626
 4398SOL    HW114093   0.980   4.131   5.585
 4398SOL    HW214094   0.824   4.101   5.622
 4399SOL     OW14095   1.970   0.620   1.519
 4399SOL    HW114096   2.002   0.713   1.535
 4399SOL    HW214097   2.020   0.556   1.578
 4400SOL     OW14098   3.493   6.854   5.522
 4400SOL    HW114099   3.514   6.921   5.450
 4400SOL    HW214100   3.451   6.773   5.481
 4401SOL     OW14101   4.425   6.852   6.343
 4401SOL    HW114102   4.489   6.924   6.372
 4401SOL    HW214103   4.477   6.772   6.312
 4402SOL     OW14104   2.500   0.126   1.453
 4402SOL    HW114105   2.566   0.055   1.428
 4402SOL    HW214106   2.488   0.189   1.377
 4403SOL     OW14107   0.698   0.076   3.146
 4403SOL    HW114108   0.753   7.018   3.160
 4403SOL    HW214109   0.756   0.157   3.155
 4404SOL     OW14110   0.260   4.840   6.005
 4404SOL    HW114111   0.283   4.862   6.100
 4404SOL    HW214112   0.162   4.827   5.997
 4405SOL     OW14113   1.877   4.393   1.310
 4405SOL    HW114114   1.917   4.479   1.342
 4405SOL    HW214115   1.884   4.387   1.211
 4406SOL     OW14116   0.054   3.834   0.539
 4406SOL    HW114117   0.151   3.827   0.519
 4406SOL    HW214118   0.038   3.824   0.637
 4407SOL     OW14119   6.491   4.671   0.911
 4407SOL    HW114120   6.520   4.585   0.868
 4407SOL    HW214121   6.445   4.650   0.998
 4408SOL     OW14122   3.516   0.969   1.891
 4408SOL    HW114123   3.614   0.952   1.884
 4408SOL    HW214124   3.484   0.944   1.982
 4409SOL     OW14125   4.848   0.734   2.568
 4409SOL    HW114126   4.829   0.637   2.580
 4409SOL    HW214127   4.802   0.786   2.640
 4410SOL     OW14128   1.078   5.568   6.562
 4410SOL    HW114129   1.075   5.665   6.587
 4410SOL    HW214130   1.069   5.559   6.463
 4411SOL     OW14131   3.633   3.925   4.304
 4411SOL    HW114132   3.622   4.008   4.359
 4411SOL    HW214133   3.679   3.855   4.358
 4412SOL     OW14134   4.501   6.636   4.884
 4412SOL    HW114135   4.593   6.675   4.887
 4412SOL    HW214136   4.476   6.616   4.790
 4413SOL     OW14137   6.298   5.190   4.413
 4413SOL    HW114138   6.364   5.118   4.393
 4413SOL    HW214139   6.345   5.278   4.419
 4414SOL     OW14140   3.512   4.609   1.403
 4414SOL    HW114141   3.522   4.699   1.446
 4414SOL    HW214142   3.589   4.551   1.428
 4415SOL     OW14143   3.909   3.262   0.608
 4415SOL    HW114144   3.899   3.222   0.699
 4415SOL    HW214145   3.829   3.239   0.552
 4416SOL     OW14146   2.769   0.621   3.468
 4416SOL    HW114147   2.797   0.531   3.502
 4416SOL    HW214148   2.839   0.656   3.406
 4417SOL     OW14149   5.978   4.450   3.262
 4417SOL    HW114150   5.958   4.356   3.233
 4417SOL    HW214151   5.895   4.492   3.299
 4418SOL     OW14152   5.688   2.000   2.296
 4418SOL    HW114153   5.661   2.056   2.218
 4418SOL    HW214154   5.707   1.907   2.265
 4419SOL     OW14155   5.812   6.317   6.515
 4419SOL    HW114156   5.784   6.248   6.582
 4419SOL    HW214157   5.836   6.272   6.429
 4420SOL     OW14158   5.573   1.570   2.082
 4420SOL    HW114159   5.478   1.550   2.106
 4420SOL    HW214160   5.618   1.486   2.052
 4421SOL     OW14161   1.930   0.841   5.257
 4421SOL    HW114162   1.902   0.935   5.279
 4421SOL    HW214163   1.852   0.780   5.269
 4422SOL     OW14164   2.540   4.018   6.967
 4422SOL    HW114165   2.493   4.019   0.032
 4422SOL    HW214166   2.573   3.926   6.949
 4423SOL     OW14167   0.507   2.776   5.638
 4423SOL    HW114168   0.500   2.868   5.677
 4423SOL    HW214169   0.601   2.759   5.608
 4424SOL     OW14170   5.680   1.075   4.515
 4424SOL    HW114171   5.595   1.023   4.524
 4424SOL    HW214172   5.726   1.079   4.604
 4425SOL     OW14173   3.090   4.786   0.274
 4425SOL    HW114174   3.109   4.754   0.367
 4425SOL    HW214175   3.008   4.842   0.274
 4426SOL     OW14176   0.225   0.733   4.551
 4426SOL    HW114177   0.200   0.648   4.505
 4426SOL    HW214178   0.262   0.713   4.642
 4427SOL     OW14179   0.666   6.095   2.398
 4427SOL    HW114180   0.573   6.058   2.410
 4427SOL    HW214181   0.694   6.082   2.303
 4428SOL     OW14182   3.427   6.997   2.708
 4428SOL    HW114183   3.431   0.027   2.624
 4428SOL    HW214184   3.415   0.034   2.787
 4429SOL     OW14185   2.307   6.749   2.761
 4429SOL    HW114186   2.221   6.762   2.712
 4429SOL    HW214187   2.327   6.651   2.766
 4430SOL     OW14188   4.900   4.017   4.740
 4430SOL    HW114189   4.902   3.949   4.813
 4430SOL    HW214190   4.858   4.101   4.774
 4431SOL     OW14191   2.101   1.024   1.737
 4431SOL    HW114192   2.071   0.986   1.824
 4431SOL    HW214193   2.198   1.047   1.743
 4432SOL     OW14194   3.106   3.614   5.264
 4432SOL    HW114195   3.163   3.611   5.346
 4432SOL    HW214196   3.117   3.528   5.213
 4433SOL     OW14197   4.551   1.470   4.690
 4433SOL    HW114198   4.648   1.477   4.665
 4433SOL    HW214199   4.516   1.381   4.662
 4434SOL     OW14200   5.219   1.941   4.088
 4434SOL    HW114201   5.247   1.961   3.994
 4434SOL    HW214202   5.205   2.027   4.137
 4435SOL     OW14203   5.024   3.314   1.430
 4435SOL    HW114204   5.086   3.245   1.392
 4435SOL    HW214205   4.931   3.295   1.399
 4436SOL     OW14206   4.606   0.902   0.886
 4436SOL    HW114207   4.531   0.955   0.845
 4436SOL    HW214208   4.612   0.814   0.839
 4437SOL     OW14209   6.011   2.325   3.195
 4437SOL    HW114210   5.930   2.343   3.249
 4437SOL    HW214211   5.984   2.300   3.102
 4438SOL     OW14212   5.536   0.275   0.177
 4438SOL    HW114213   5.615   0.278   0.115
 4438SOL    HW214214   5.477   0.353   0.159
 4439SOL     OW14215   0.476   4.943   1.997
 4439SOL    HW114216   0.409   4.979   1.931
 4439SOL    HW214217   0.556   4.909   1.948
 4440SOL     OW14218   2.854   5.049   0.523
 4440SOL    HW114219   2.860   5.147   0.544
 4440SOL    HW214220   2.759   5.025   0.505
 4441SOL     OW14221   0.001   1.588   2.815
 4441SOL    HW114222   6.971   1.517   2.861
 4441SOL    HW214223   0.081   1.547   2.771
 4442SOL     OW14224   2.655   5.727   4.281
 4442SOL    HW114225   2.679   5.661   4.211
 4442SOL    HW214226   2.738   5.768   4.319
 4443SOL     OW14227   0.382   3.077   0.603
 4443SOL    HW114228   0.422   3.115   0.686
 4443SOL    HW214229   0.282   3.084   0.607
 4444SOL     OW14230   3.132   4.591   5.494
 4444SOL    HW114231   3.182   4.556   5.573
 4444SOL    HW214232   3.065   4.523   5.464
 4445SOL     OW14233   0.980   6.832   0.853
 4445SOL    HW114234   1.080   6.829   0.849
 4445SOL    HW214235   0.951   6.917   0.897
 4446SOL     OW14236   5.632   0.918   1.991
 4446SOL    HW114237   5.650   0.983   2.065
 4446SOL    HW214238   5.638   0.964   1.903
 4447SOL     OW14239   5.532   3.473   6.140
 4447SOL    HW114240   5.573   3.391   6.179
 4447SOL    HW214241   5.448   3.495   6.188
 4448SOL     OW14242   2.573   3.957   1.715
 4448SOL    HW114243   2.513   3.935   1.638
 4448SOL    HW214244   2.658   3.998   1.681
 4449SOL     OW14245   5.603   0.341   5.998
 4449SOL    HW114246   5.600   0.441   6.001
 4449SOL    HW214247   5.557   0.304   6.079
 4450SOL     OW14248   3.607   3.313   4.625
 4450SOL    HW114249   3.580   3.338   4.718
 4450SOL    HW214250   3.646   3.222   4.624
 4451SOL     OW14251   6.205   4.738   2.979
 4451SOL    HW114252   6.177   4.651   3.020
 4451SOL    HW214253   6.195   4.811   3.047
 4452SOL     OW14254   5.097   6.457   4.451
 4452SOL    HW114255   5.159   6.380   4.439
 4452SOL    HW214256   5.015   6.426   4.500
 4453SOL     OW14257   0.731   2.484   1.494
 4453SOL    HW114258   0.669   2.481   1.573
 4453SOL    HW214259   0.688   2.438   1.417
 4454SOL     OW14260   1.359   2.178   0.272
 4454SOL    HW114261   1.439   2.200   0.329
 4454SOL    HW214262   1.346   2.079   0.270
 4455SOL     OW14263   4.147   6.492   5.588
 4455SOL    HW114264   4.245   6.506   5.574
 4455SOL    HW214265   4.130   6.398   5.617
 4456SOL     OW14266   3.581   6.046   2.126
 4456SOL    HW114267   3.664   6.081   2.083
 4456SOL    HW214268   3.516   6.121   2.140
 4457SOL     OW14269   4.438   1.405   2.324
 4457SOL    HW114270   4.432   1.306   2.309
 4457SOL    HW214271   4.359   1.435   2.377
 4458SOL     OW14272   1.740   2.920   6.963
 4458SOL    HW114273   1.781   2.839   6.922
 4458SOL    HW214274   1.664   2.952   6.907
 4459SOL     OW14275   3.639   0.981   4.919
 4459SOL    HW114276   3.651   0.930   4.834
 4459SOL    HW214277   3.698   0.941   4.990
 4460SOL     OW14278   2.868   2.698   5.923
 4460SOL    HW114279   2.893   2.792   5.902
 4460SOL    HW214280   2.770   2.693   5.942
 4461SOL     OW14281   1.283   0.391   1.229
 4461SOL    HW114282   1.211   0.383   1.160
 4461SOL    HW214283   1.270   0.476   1.279
 4462SOL     OW14284   6.053   4.801   1.532
 4462SOL    HW114285   5.995   4.732   1.488
 4462SOL    HW214286   6.066   4.778   1.628
 4463SOL     OW14287   5.148   1.922   6.936
 4463SOL    HW114288   5.087   1.843   6.938
 4463SOL    HW214289   5.235   1.897   6.893
 4464SOL     OW14290   6.581   5.435   0.919
 4464SOL    HW114291   6.602   5.490   0.999
 4464SOL    HW214292   6.607   5.484   0.836
 4465SOL     OW14293   2.748   5.586   1.286
 4465SOL    HW114294   2.659   5.583   1.239
 4465SOL    HW214295   2.797   5.500   1.270
 4466SOL     OW14296   1.491   1.604   3.238
 4466SOL    HW114297   1.499   1.602   3.337
 4466SOL    HW214298   1.561   1.545   3.197
 4467SOL     OW14299   1.846   6.755   2.764
 4467SOL    HW114300   1.815   6.662   2.782
 4467SOL    HW214301   1.820   6.814   2.840
 4468SOL     OW14302   1.795   3.121   0.662
 4468SOL    HW114303   1.706   3.103   0.621
 4468SOL    HW214304   1.823   3.215   0.641
 4469SOL     OW14305   3.650   0.754   1.398
 4469SOL    HW114306   3.652   0.847   1.436
 4469SOL    HW214307   3.722   0.700   1.442
 4470SOL     OW14308   5.957   2.410   2.400
 4470SOL    HW114309   6.052   2.379   2.389
 4470SOL    HW214310   5.899   2.360   2.337
 4471SOL     OW14311   0.961   2.060   6.446
 4471SOL    HW114312   0.917   1.988   6.499
 4471SOL    HW214313   0.931   2.054   6.350
 4472SOL     OW14314   1.282   3.374   2.495
 4472SOL    HW114315   1.359   3.324   2.455
 4472SOL    HW214316   1.205   3.311   2.509
 4473SOL     OW14317   6.463   2.694   4.670
 4473SOL    HW114318   6.368   2.711   4.642
 4473SOL    HW214319   6.470   2.605   4.713
 4474SOL     OW14320   2.494   0.679   1.977
 4474SOL    HW114321   2.587   0.692   1.942
 4474SOL    HW214322   2.478   0.582   1.994
 4475SOL     OW14323   1.864   3.921   3.028
 4475SOL    HW114324   1.846   3.925   2.930
 4475SOL    HW214325   1.959   3.949   3.046
 4476SOL     OW14326   4.201   7.018   3.112
 4476SOL    HW114327   4.205   0.077   3.168
 4476SOL    HW214328   4.113   6.974   3.125
 4477SOL     OW14329   2.223   6.964   5.169
 4477SOL    HW114330   2.289   6.910   5.116
 4477SOL    HW214331   2.130   6.935   5.144
 4478SOL     OW14332   3.962   6.867   3.070
 4478SOL    HW114333   3.955   6.858   2.970
 4478SOL    HW214334   3.931   6.782   3.113
 4479SOL     OW14335   0.531   0.999   2.074
 4479SOL    HW114336   0.621   1.025   2.108
 4479SOL    HW214337   0.506   0.909   2.109
 4480SOL     OW14338   1.446   3.935   5.101
 4480SOL    HW114339   1.511   3.898   5.168
 4480SOL    HW214340   1.399   4.014   5.140
 4481SOL     OW14341   3.207   6.173   4.870
 4481SOL    HW114342   3.297   6.140   4.896
 4481SOL    HW214343   3.195   6.267   4.901
 4482SOL     OW14344   0.796   2.998   4.408
 4482SOL    HW114345   0.883   2.973   4.368
 4482SOL    HW214346   0.811   3.060   4.486
 4483SOL     OW14347   5.814   2.790   2.368
 4483SOL    HW114348   5.909   2.810   2.344
 4483SOL    HW214349   5.753   2.834   2.303
 4484SOL     OW14350   2.848   2.419   6.300
 4484SOL    HW114351   2.760   2.417   6.251
 4484SOL    HW214352   2.849   2.347   6.369
 4485SOL     OW14353   5.740   1.887   5.177
 4485SOL    HW114354   5.834   1.871   5.148
 4485SOL    HW214355   5.740   1.939   5.263
 4486SOL     OW14356   5.283   4.426   5.236
 4486SOL    HW114357   5.351   4.384   5.295
 4486SOL    HW214358   5.310   4.415   5.140
 4487SOL     OW14359   2.284   2.896   6.232
 4487SOL    HW114360   2.249   2.990   6.242
 4487SOL    HW214361   2.378   2.899   6.200
 4488SOL     OW14362   0.419   3.358   6.281
 4488SOL    HW114363   0.323   3.344   6.256
 4488SOL    HW214364   0.470   3.274   6.262
 4489SOL     OW14365   5.415   5.296   4.568
 4489SOL    HW114366   5.397   5.247   4.653
 4489SOL    HW214367   5.442   5.390   4.589
 4490SOL     OW14368   6.198   2.900   2.564
 4490SOL    HW114369   6.275   2.960   2.585
 4490SOL    HW214370   6.132   2.903   2.639
 4491SOL     OW14371   6.835   2.553   4.604
 4491SOL    HW114372   6.811   2.512   4.516
 4491SOL    HW214373   6.927   2.525   4.630
 4492SOL     OW14374   5.555   4.275   1.400
 4492SOL    HW114375   5.645   4.299   1.437
 4492SOL    HW214376   5.490   4.263   1.476
 4493SOL     OW14377   4.733   5.342   4.993
 4493SOL    HW114378   4.728   5.279   4.915
 4493SOL    HW214379   4.681   5.425   4.972
 4494SOL     OW14380   0.274   1.315   6.821
 4494SOL    HW114381   0.341   1.244   6.841
 4494SOL    HW214382   0.193   1.301   6.877
 4495SOL     OW14383   3.546   6.608   4.252
 4495SOL    HW114384   3.633   6.656   4.262
 4495SOL    HW214385   3.535   6.543   4.327
 4496SOL     OW14386   5.572   6.162   1.416
 4496SOL    HW114387   5.483   6.116   1.417
 4496SOL    HW214388   5.639   6.106   1.464
 4497SOL     OW14389   5.080   1.028   6.976
 4497SOL    HW114390   5.156   1.076   6.933
 4497SOL    HW214391   5.093   0.929   6.968
 4498SOL     OW14392   0.103   4.136   0.541
 4498SOL    HW114393   0.174   4.156   0.609
 4498SOL    HW214394   0.066   4.044   0.557
 4499SOL     OW14395   6.287   3.589   5.202
 4499SOL    HW114396   6.363   3.649   5.180
 4499SOL    HW214397   6.319   3.495   5.209
 4500SOL     OW14398   3.056   3.356   4.323
 4500SOL    HW114399   2.999   3.433   4.352
 4500SOL    HW214400   3.147   3.365   4.361
 4501SOL     OW14401   0.002   3.256   3.429
 4501SOL    HW114402   0.030   3.211   3.344
 4501SOL    HW214403   6.974   3.338   3.408
 4502SOL     OW14404   0.869   3.119   6.678
 4502SOL    HW114405   0.837   3.071   6.595
 4502SOL    HW214406   0.950   3.074   6.713
 4503SOL     OW14407   3.517   6.870   1.644
 4503SOL    HW114408   3.435   6.837   1.597
 4503SOL    HW214409   3.490   6.909   1.733
 4504SOL     OW14410   6.655   0.987   5.220
 4504SOL    HW114411   6.563   0.984   5.181
 4504SOL    HW214412   6.674   1.079   5.253
 4505SOL     OW14413   5.470   4.988   1.721
 4505SOL    HW114414   5.548   4.926   1.715
 4505SOL    HW214415   5.420   4.971   1.806
 4506SOL     OW14416   4.524   2.299   3.477
 4506SOL    HW114417   4.503   2.206   3.507
 4506SOL    HW214418   4.555   2.353   3.555
 4507SOL     OW14419   5.179   4.498   2.678
 4507SOL    HW114420   5.272   4.490   2.641
 4507SOL    HW214421   5.123   4.423   2.641
 4508SOL     OW14422   1.162   5.297   6.430
 4508SOL    HW114423   1.072   5.341   6.420
 4508SOL    HW214424   1.161   5.237   6.510
 4509SOL     OW14425   4.362   2.332   2.727
 4509SOL    HW114426   4.317   2.250   2.762
 4509SOL    HW214427   4.371   2.399   2.800
 4510SOL     OW14428   3.534   1.567   4.379
 4510SOL    HW114429   3.585   1.650   4.398
 4510SOL    HW214430   3.465   1.585   4.309
 4511SOL     OW14431   6.624   3.355   0.633
 4511SOL    HW114432   6.606   3.335   0.729
 4511SOL    HW214433   6.613   3.453   0.617
 4512SOL     OW14434   2.782   1.485   5.540
 4512SOL    HW114435   2.718   1.561   5.536
 4512SOL    HW214436   2.757   1.424   5.615
 4513SOL     OW14437   6.119   5.302   0.447
 4513SOL    HW114438   6.215   5.326   0.461
 4513SOL    HW214439   6.094   5.319   0.352
 4514SOL     OW14440   4.337   1.943   6.474
 4514SOL    HW114441   4.401   2.013   6.442
 4514SOL    HW214442   4.289   1.976   6.555
 4515SOL     OW14443   6.961   1.321   5.884
 4515SOL    HW114444   6.942   1.287   5.975
 4515SOL    HW214445   6.963   1.245   5.819
 4516SOL     OW14446   1.851   0.265   6.779
 4516SOL    HW114447   1.930   0.212   6.813
 4516SOL    HW214448   1.843   0.350   6.830
 4517SOL     OW14449   4.054   0.859   6.839
 4517SOL    HW114450   4.003   0.943   6.822
 4517SOL    HW214451   3.990   0.782   6.843
 4518SOL     OW14452   6.443   0.192   2.947
 4518SOL    HW114453   6.417   0.154   3.036
 4518SOL    HW214454   6.371   0.252   2.914
 4519SOL     OW14455   6.605   0.160   1.410
 4519SOL    HW114456   6.652   0.072   1.414
 4519SOL    HW214457   6.642   0.213   1.334
 4520SOL     OW14458   4.630   6.336   4.689
 4520SOL    HW114459   4.566   6.405   4.657
 4520SOL    HW214460   4.610   6.248   4.646
 4521SOL     OW14461   6.215   1.531   4.172
 4521SOL    HW114462   6.122   1.569   4.165
 4521SOL    HW214463   6.266   1.551   4.089
 4522SOL     OW14464   5.743   6.182   3.086
 4522SOL    HW114465   5.707   6.104   3.036
 4522SOL    HW214466   5.794   6.150   3.166
 4523SOL     OW14467   0.799   4.397   0.062
 4523SOL    HW114468   0.759   4.313   0.026
 4523SOL    HW214469   0.883   4.375   0.111
 4524SOL     OW14470   6.489   2.618   3.293
 4524SOL    HW114471   6.419   2.618   3.222
 4524SOL    HW214472   6.575   2.652   3.254
 4525SOL     OW14473   4.949   1.554   5.590
 4525SOL    HW114474   4.893   1.555   5.673
 4525SOL    HW214475   4.902   1.603   5.517
 4526SOL     OW14476   6.698   0.265   1.187
 4526SOL    HW114477   6.784   0.311   1.206
 4526SOL    HW214478   6.714   0.185   1.129
 4527SOL     OW14479   5.102   1.201   3.611
 4527SOL    HW114480   5.072   1.265   3.682
 4527SOL    HW214481   5.165   1.135   3.651
 4528SOL     OW14482   4.968   0.699   0.714
 4528SOL    HW114483   5.032   0.736   0.647
 4528SOL    HW214484   4.975   0.750   0.799
 4529SOL     OW14485   2.478   0.663   5.404
 4529SOL    HW114486   2.510   0.606   5.480
 4529SOL    HW214487   2.555   0.716   5.368
 4530SOL     OW14488   1.974   5.027   5.014
 4530SOL    HW114489   2.048   4.961   4.999
 4530SOL    HW214490   1.986   5.070   5.104
 4531SOL     OW14491   0.126   2.739   4.919
 4531SOL    HW114492   0.061   2.757   4.993
 4531SOL    HW214493   0.091   2.779   4.834
 4532SOL     OW14494   6.796   1.380   2.942
 4532SOL    HW114495   6.876   1.323   2.927
 4532SOL    HW214496   6.740   1.381   2.859
 4533SOL     OW14497   1.162   1.716   1.859
 4533SOL    HW114498   1.186   1.758   1.771
 4533SOL    HW214499   1.189   1.620   1.858
 4534SOL     OW14500   4.771   4.132   3.923
 4534SOL    HW114501   4.783   4.050   3.980
 4534SOL    HW214502   4.728   4.204   3.977
 4535SOL     OW14503   3.677   0.902   2.847
 4535SOL    HW114504   3.612   0.844   2.796
 4535SOL    HW214505   3.651   0.998   2.836
 4536SOL     OW14506   3.358   1.585   4.129
 4536SOL    HW114507   3.400   1.675   4.136
 4536SOL    HW214508   3.267   1.595   4.087
 4537SOL     OW14509   4.404   3.377   0.064
 4537SOL    HW114510   4.342   3.326   0.123
 4537SOL    HW214511   4.362   3.392   6.999
 4538SOL     OW14512   1.429   0.537   3.116
 4538SOL    HW114513   1.398   0.499   3.029
 4538SOL    HW214514   1.380   0.492   3.191
 4539SOL     OW14515   2.660   0.151   5.094
 4539SOL    HW114516   2.703   0.240   5.107
 4539SOL    HW214517   2.698   0.086   5.160
 4540SOL     OW14518   2.875   2.540   5.691
 4540SOL    HW114519   2.914   2.583   5.610
 4540SOL    HW214520   2.880   2.604   5.768
 4541SOL     OW14521   6.267   1.857   0.893
 4541SOL    HW114522   6.314   1.784   0.942
 4541SOL    HW214523   6.219   1.819   0.813
 4542SOL     OW14524   0.268   1.410   2.186
 4542SOL    HW114525   0.228   1.447   2.270
 4542SOL    HW214526   0.355   1.456   2.166
 4543SOL     OW14527   4.426   1.891   1.764
 4543SOL    HW114528   4.430   1.820   1.693
 4543SOL    HW214529   4.334   1.929   1.767
 4544SOL     OW14530   3.321   6.324   5.872
 4544SOL    HW114531   3.269   6.309   5.957
 4544SOL    HW214532   3.348   6.236   5.834
 4545SOL     OW14533   5.295   3.577   4.392
 4545SOL    HW114534   5.259   3.622   4.310
 4545SOL    HW214535   5.258   3.622   4.473
 4546SOL     OW14536   1.548   1.081   5.413
 4546SOL    HW114537   1.484   1.044   5.345
 4546SOL    HW214538   1.563   1.178   5.395
 4547SOL     OW14539   5.804   2.258   2.668
 4547SOL    HW114540   5.708   2.272   2.643
 4547SOL    HW214541   5.856   2.340   2.649
 4548SOL     OW14542   1.128   3.466   3.762
 4548SOL    HW114543   1.179   3.516   3.833
 4548SOL    HW214544   1.044   3.430   3.801
 4549SOL     OW14545   6.953   3.880   1.561
 4549SOL    HW114546   6.885   3.916   1.625
 4549SOL    HW214547   6.926   3.789   1.532
 4550SOL     OW14548   1.135   4.769   3.047
 4550SOL    HW114549   1.145   4.768   3.147
 4550SOL    HW214550   1.216   4.808   3.005
 4551SOL     OW14551   0.346   2.538   5.111
 4551SOL    HW114552   0.300   2.627   5.108
 4551SOL    HW214553   0.281   2.469   5.142
 4552SOL     OW14554   6.445   3.376   1.835
 4552SOL    HW114555   6.427   3.470   1.865
 4552SOL    HW214556   6.496   3.379   1.749
 4553SOL     OW14557   3.268   4.551   6.446
 4553SOL    HW114558   3.253   4.648   6.465
 4553SOL    HW214559   3.359   4.540   6.405
 4554SOL     OW14560   6.145   0.088   1.398
 4554SOL    HW114561   6.066   0.144   1.377
 4554SOL    HW214562   6.180   0.112   1.488
 4555SOL     OW14563   2.602   2.654   6.030
 4555SOL    HW114564   2.600   2.699   6.119
 4555SOL    HW214565   2.528   2.587   6.026
 4556SOL     OW14566   5.617   3.023   4.166
 4556SOL    HW114567   5.560   3.011   4.085
 4556SOL    HW214568   5.558   3.040   4.245
 4557SOL     OW14569   5.027   6.267   5.822
 4557SOL    HW114570   5.069   6.188   5.777
 4557SOL    HW214571   4.940   6.240   5.862
 4558SOL     OW14572   0.382   4.400   5.227
 4558SOL    HW114573   0.419   4.452   5.304
 4558SOL    HW214574   0.340   4.316   5.260
 4559SOL     OW14575   0.401   4.153   1.454
 4559SOL    HW114576   0.323   4.135   1.395
 4559SOL    HW214577   0.369   4.165   1.548
 4560SOL     OW14578   5.176   4.275   1.507
 4560SOL    HW114579   5.121   4.325   1.574
 4560SOL    HW214580   5.219   4.340   1.444
 4561SOL     OW14581   1.925   1.983   2.666
 4561SOL    HW114582   1.920   1.927   2.584
 4561SOL    HW214583   1.833   2.009   2.695
 4562SOL     OW14584   2.563   6.069   5.586
 4562SOL    HW114585   2.662   6.060   5.580
 4562SOL    HW214586   2.540   6.130   5.662
 4563SOL     OW14587   0.349   3.111   1.377
 4563SOL    HW114588   0.325   3.192   1.324
 4563SOL    HW214589   0.395   3.139   1.461
 4564SOL     OW14590   6.809   6.101   1.501
 4564SOL    HW114591   6.756   6.017   1.506
 4564SOL    HW214592   6.905   6.080   1.484
 4565SOL     OW14593   0.675   1.183   4.805
 4565SOL    HW114594   0.623   1.152   4.884
 4565SOL    HW214595   0.760   1.226   4.835
 4566SOL     OW14596   6.547   3.044   0.300
 4566SOL    HW114597   6.495   2.983   0.241
 4566SOL    HW214598   6.628   2.997   0.335
 4567SOL     OW14599   6.397   0.357   0.010
 4567SOL    HW114600   6.336   0.422   6.991
 4567SOL    HW214601   6.382   0.357   0.109
 4568SOL     OW14602   2.780   3.882   5.547
 4568SOL    HW114603   2.753   3.910   5.455
 4568SOL    HW214604   2.759   3.785   5.559
 4569SOL     OW14605   1.970   1.754   2.862
 4569SOL    HW114606   1.930   1.834   2.817
 4569SOL    HW214607   2.067   1.772   2.881
 4570SOL     OW14608   1.027   6.698   3.260
 4570SOL    HW114609   1.108   6.738   3.217
 4570SOL    HW214610   1.045   6.603   3.283
 4571SOL     OW14611   3.996   4.049   6.369
 4571SOL    HW114612   3.942   3.976   6.328
 4571SOL    HW214613   3.988   4.045   6.469
 4572SOL     OW14614   1.974   0.237   6.537
 4572SOL    HW114615   1.899   0.231   6.471
 4572SOL    HW214616   1.937   0.247   6.629
 4573SOL     OW14617   6.410   1.084   0.256
 4573SOL    HW114618   6.396   1.183   0.259
 4573SOL    HW214619   6.321   1.038   0.260
 4574SOL     OW14620   5.835   4.160   0.836
 4574SOL    HW114621   5.900   4.233   0.820
 4574SOL    HW214622   5.869   4.075   0.794
 4575SOL     OW14623   5.803   0.882   6.557
 4575SOL    HW114624   5.749   0.821   6.500
 4575SOL    HW214625   5.887   0.835   6.585
 4576SOL     OW14626   2.821   6.487   5.935
 4576SOL    HW114627   2.860   6.463   6.024
 4576SOL    HW214628   2.790   6.404   5.888
 4577SOL     OW14629   1.713   2.639   4.693
 4577SOL    HW114630   1.652   2.587   4.633
 4577SOL    HW214631   1.741   2.581   4.770
 4578SOL     OW14632   0.860   2.883   5.223
 4578SOL    HW114633   0.906   2.879   5.134
 4578SOL    HW214634   0.834   2.977   5.243
 4579SOL     OW14635   3.960   0.565   3.400
 4579SOL    HW114636   4.015   0.555   3.482
 4579SOL    HW214637   3.866   0.588   3.425
 4580SOL     OW14638   5.732   5.155   0.326
 4580SOL    HW114639   5.758   5.229   0.389
 4580SOL    HW214640   5.734   5.068   0.375
 4581SOL     OW14641   1.989   5.188   2.772
 4581SOL    HW114642   1.977   5.125   2.848
 4581SOL    HW214643   2.087   5.205   2.758
 4582SOL     OW14644   5.316   0.071   5.095
 4582SOL    HW114645   5.300   0.117   5.007
 4582SOL    HW214646   5.318   0.139   5.168
 4583SOL     OW14647   2.353   2.561   6.531
 4583SOL    HW114648   2.393   2.538   6.443
 4583SOL    HW214649   2.399   2.510   6.603
 4584SOL     OW14650   0.675   4.627   5.883
 4584SOL    HW114651   0.728   4.688   5.823
 4584SOL    HW214652   0.616   4.683   5.942
 4585SOL     OW14653   3.328   5.759   3.207
 4585SOL    HW114654   3.318   5.700   3.127
 4585SOL    HW214655   3.237   5.787   3.239
 4586SOL     OW14656   3.171   5.303   0.460
 4586SOL    HW114657   3.240   5.326   0.529
 4586SOL    HW214658   3.162   5.203   0.455
 4587SOL     OW14659   3.784   3.652   3.056
 4587SOL    HW114660   3.762   3.741   3.095
 4587SOL    HW214661   3.778   3.657   2.956
 4588SOL     OW14662   2.806   3.313   5.279
 4588SOL    HW114663   2.719   3.267   5.293
 4588SOL    HW214664   2.854   3.273   5.201
 4589SOL     OW14665   6.453   1.195   2.586
 4589SOL    HW114666   6.437   1.143   2.502
 4589SOL    HW214667   6.390   1.164   2.657
 4590SOL     OW14668   4.802   6.174   1.511
 4590SOL    HW114669   4.879   6.236   1.525
 4590SOL    HW214670   4.726   6.202   1.571
 4591SOL     OW14671   1.154   6.560   4.917
 4591SOL    HW114672   1.182   6.637   4.861
 4591SOL    HW214673   1.134   6.481   4.858
 4592SOL     OW14674   2.661   1.743   2.234
 4592SOL    HW114675   2.622   1.791   2.313
 4592SOL    HW214676   2.617   1.775   2.150
 4593SOL     OW14677   4.733   5.602   2.712
 4593SOL    HW114678   4.664   5.674   2.722
 4593SOL    HW214679   4.817   5.629   2.761
 4594SOL     OW14680   2.684   1.611   2.982
 4594SOL    HW114681   2.729   1.615   2.893
 4594SOL    HW214682   2.672   1.703   3.018
 4595SOL     OW14683   3.548   3.273   6.184
 4595SOL    HW114684   3.549   3.224   6.097
 4595SOL    HW214685   3.567   3.210   6.259
 4596SOL     OW14686   5.532   0.235   2.004
 4596SOL    HW114687   5.488   0.281   1.928
 4596SOL    HW214688   5.606   0.176   1.969
 4597SOL     OW14689   3.879   5.431   5.978
 4597SOL    HW114690   3.867   5.464   5.884
 4597SOL    HW214691   3.939   5.351   5.978
 4598SOL     OW14692   2.665   6.202   6.544
 4598SOL    HW114693   2.753   6.243   6.519
 4598SOL    HW214694   2.669   6.103   6.534
 4599SOL     OW14695   1.410   4.807   0.816
 4599SOL    HW114696   1.449   4.769   0.900
 4599SOL    HW214697   1.406   4.735   0.746
 4600SOL     OW14698   0.959   5.185   5.671
 4600SOL    HW114699   1.031   5.145   5.615
 4600SOL    HW214700   0.879   5.124   5.672
 4601SOL     OW14701   1.980   1.183   5.492
 4601SOL    HW114702   1.949   1.274   5.522
 4601SOL    HW214703   2.079   1.178   5.497
 4602SOL     OW14704   2.101   6.353   1.406
 4602SOL    HW114705   2.110   6.262   1.447
 4602SOL    HW214706   2.159   6.358   1.325
 4603SOL     OW14707   2.849   6.337   0.468
 4603SOL    HW114708   2.816   6.243   0.456
 4603SOL    HW214709   2.947   6.340   0.449
 4604SOL     OW14710   4.400   0.812   0.547
 4604SOL    HW114711   4.450   0.753   0.611
 4604SOL    HW214712   4.347   0.755   0.484
 4605SOL     OW14713   3.151   0.208   2.707
 4605SOL    HW114714   3.235   0.208   2.761
 4605SOL    HW214715   3.079   0.256   2.757
 4606SOL     OW14716   1.114   6.125   2.418
 4606SOL    HW114717   1.075   6.138   2.327
 4606SOL    HW214718   1.131   6.215   2.459
 4607SOL     OW14719   1.584   3.302   1.342
 4607SOL    HW114720   1.538   3.288   1.254
 4607SOL    HW214721   1.517   3.308   1.415
 4608SOL     OW14722   0.665   6.285   3.482
 4608SOL    HW114723   0.601   6.324   3.548
 4608SOL    HW214724   0.759   6.300   3.512
 4609SOL     OW14725   4.019   5.341   6.779
 4609SOL    HW114726   4.040   5.260   6.724
 4609SOL    HW214727   4.100   5.370   6.830
 4610SOL     OW14728   4.711   2.463   0.708
 4610SOL    HW114729   4.718   2.398   0.633
 4610SOL    HW214730   4.801   2.477   0.749
 4611SOL     OW14731   0.784   5.957   6.485
 4611SOL    HW114732   0.799   6.013   6.567
 4611SOL    HW214733   0.868   5.908   6.462
 4612SOL     OW14734   1.696   5.676   6.950
 4612SOL    HW114735   1.634   5.752   6.928
 4612SOL    HW214736   1.790   5.703   6.928
 4613SOL     OW14737   2.598   6.110   1.925
 4613SOL    HW114738   2.592   6.011   1.917
 4613SOL    HW214739   2.557   6.152   1.844
 4614SOL     OW14740   6.987   3.153   4.313
 4614SOL    HW114741   6.941   3.087   4.372
 4614SOL    HW214742   0.056   3.167   4.346
 4615SOL     OW14743   1.833   0.189   0.065
 4615SOL    HW114744   1.855   0.286   0.057
 4615SOL    HW214745   1.884   0.137   7.020
 4616SOL     OW14746   6.399   0.656   4.947
 4616SOL    HW114747   6.301   0.645   4.966
 4616SOL    HW214748   6.414   0.743   4.901
 4617SOL     OW14749   0.426   2.461   2.417
 4617SOL    HW114750   0.382   2.455   2.506
 4617SOL    HW214751   0.439   2.368   2.380
 4618SOL     OW14752   2.452   2.692   4.507
 4618SOL    HW114753   2.405   2.772   4.543
 4618SOL    HW214754   2.483   2.634   4.582
 4619SOL     OW14755   3.357   6.338   3.106
 4619SOL    HW114756   3.297   6.339   3.186
 4619SOL    HW214757   3.443   6.385   3.128
 4620SOL     OW14758   2.775   4.785   0.763
 4620SOL    HW114759   2.865   4.742   0.750
 4620SOL    HW214760   2.787   4.870   0.816
 4621SOL     OW14761   5.249   0.811   2.222
 4621SOL    HW114762   5.173   0.763   2.267
 4621SOL    HW214763   5.325   0.820   2.286
 4622SOL     OW14764   2.490   4.911   0.963
 4622SOL    HW114765   2.526   4.827   1.004
 4622SOL    HW214766   2.468   4.894   0.867
 4623SOL     OW14767   4.772   6.533   0.579
 4623SOL    HW114768   4.789   6.435   0.582
 4623SOL    HW214769   4.699   6.557   0.644
 4624SOL     OW14770   4.540   0.135   3.281
 4624SOL    HW114771   4.543   0.104   3.186
 4624SOL    HW214772   4.498   0.225   3.285
 4625SOL     OW14773   2.497   4.258   1.073
 4625SOL    HW114774   2.444   4.209   1.142
 4625SOL    HW214775   2.531   4.194   1.005
 4626SOL     OW14776   5.102   4.432   1.819
 4626SOL    HW114777   5.201   4.444   1.827
 4626SOL    HW214778   5.073   4.355   1.875
 4627SOL     OW14779   2.578   4.687   4.650
 4627SOL    HW114780   2.548   4.698   4.745
 4627SOL    HW214781   2.508   4.638   4.598
 4628SOL     OW14782   6.513   4.018   3.767
 4628SOL    HW114783   6.552   3.938   3.812
 4628SOL    HW214784   6.554   4.101   3.806
 4629SOL     OW14785   2.619   5.518   5.779
 4629SOL    HW114786   2.672   5.438   5.751
 4629SOL    HW214787   2.553   5.541   5.708
 4630SOL     OW14788   3.000   5.439   2.602
 4630SOL    HW114789   2.937   5.421   2.679
 4630SOL    HW214790   3.051   5.523   2.620
 4631SOL     OW14791   1.789   5.768   3.395
 4631SOL    HW114792   1.764   5.694   3.333
 4631SOL    HW214793   1.806   5.730   3.487
 4632SOL     OW14794   3.315   4.892   2.542
 4632SOL    HW114795   3.361   4.886   2.631
 4632SOL    HW214796   3.221   4.923   2.556
 4633SOL     OW14797   5.584   0.402   4.564
 4633SOL    HW114798   5.599   0.314   4.520
 4633SOL    HW214799   5.646   0.412   4.642
 4634SOL     OW14800   3.651   4.475   5.797
 4634SOL    HW114801   3.675   4.484   5.700
 4634SOL    HW214802   3.730   4.501   5.853
 4635SOL     OW14803   4.475   3.977   1.230
 4635SOL    HW114804   4.377   3.960   1.236
 4635SOL    HW214805   4.524   3.906   1.280
 4636SOL     OW14806   1.639   4.515   6.897
 4636SOL    HW114807   1.598   4.590   6.948
 4636SOL    HW214808   1.702   4.551   6.828
 4637SOL     OW14809   1.040   5.926   1.417
 4637SOL    HW114810   1.008   5.951   1.325
 4637SOL    HW214811   1.108   5.853   1.410
 4638SOL     OW14812   4.509   4.844   6.365
 4638SOL    HW114813   4.511   4.880   6.458
 4638SOL    HW214814   4.476   4.915   6.303
 4639SOL     OW14815   3.551   4.177   5.827
 4639SOL    HW114816   3.594   4.267   5.832
 4639SOL    HW214817   3.489   4.174   5.749
 4640SOL     OW14818   4.880   3.974   3.740
 4640SOL    HW114819   4.887   3.875   3.750
 4640SOL    HW214820   4.858   4.015   3.829
 4641SOL     OW14821   2.357   6.866   4.941
 4641SOL    HW114822   2.363   6.776   4.899
 4641SOL    HW214823   2.422   6.928   4.897
 4642SOL     OW14824   1.101   5.478   4.457
 4642SOL    HW114825   1.141   5.568   4.472
 4642SOL    HW214826   1.002   5.483   4.470
 4643SOL     OW14827   6.341   2.616   1.210
 4643SOL    HW114828   6.290   2.530   1.201
 4643SOL    HW214829   6.288   2.690   1.167
 4644SOL     OW14830   6.536   5.261   5.058
 4644SOL    HW114831   6.493   5.174   5.080
 4644SOL    HW214832   6.517   5.327   5.131
 4645SOL     OW14833   0.435   0.379   4.087
 4645SOL    HW114834   0.505   0.449   4.089
 4645SOL    HW214835   0.409   0.360   3.992
 4646SOL     OW14836   1.925   6.005   4.016
 4646SOL    HW114837   1.935   5.931   4.083
 4646SOL    HW214838   1.915   5.966   3.925
 4647SOL     OW14839   1.696   0.408   3.061
 4647SOL    HW114840   1.716   0.334   3.125
 4647SOL    HW214841   1.600   0.434   3.069
 4648SOL     OW14842   3.780   1.242   2.500
 4648SOL    HW114843   3.692   1.195   2.503
 4648SOL    HW214844   3.812   1.246   2.406
 4649SOL     OW14845   5.341   0.466   0.155
 4649SOL    HW114846   5.259   0.415   0.128
 4649SOL    HW214847   5.330   0.502   0.247
 4650SOL     OW14848   4.694   5.494   2.434
 4650SOL    HW114849   4.701   5.531   2.527
 4650SOL    HW214850   4.605   5.520   2.395
 4651SOL     OW14851   6.812   3.044   0.577
 4651SOL    HW114852   6.836   3.002   0.490
 4651SOL    HW214853   6.723   3.010   0.607
 4652SOL     OW14854   6.435   0.012   4.100
 4652SOL    HW114855   6.460   0.108   4.103
 4652SOL    HW214856   6.486   6.991   4.027
 4653SOL     OW14857   5.439   5.141   0.777
 4653SOL    HW114858   5.411   5.152   0.682
 4653SOL    HW214859   5.533   5.108   0.781
 4654SOL     OW14860   1.018   6.814   0.348
 4654SOL    HW114861   1.070   6.766   0.419
 4654SOL    HW214862   0.965   6.888   0.390
 4655SOL     OW14863   4.675   4.117   1.087
 4655SOL    HW114864   4.759   4.129   1.140
 4655SOL    HW214865   4.612   4.058   1.138
 4656SOL     OW14866   1.410   0.468   2.375
 4656SOL    HW114867   1.508   0.457   2.390
 4656SOL    HW214868   1.386   0.429   2.286
 4657SOL     OW14869   4.585   6.705   1.679
 4657SOL    HW114870   4.650   6.734   1.609
 4657SOL    HW214871   4.515   6.776   1.690
 4658SOL     OW14872   3.387   1.242   3.031
 4658SOL    HW114873   3.289   1.258   3.017
 4658SOL    HW214874   3.407   1.237   3.129
 4659SOL     OW14875   3.624   5.002   5.213
 4659SOL    HW114876   3.559   5.048   5.274
 4659SOL    HW214877   3.576   4.930   5.163
 4660SOL     OW14878   1.240   3.771   5.918
 4660SOL    HW114879   1.170   3.770   5.846
 4660SOL    HW214880   1.316   3.711   5.891
 4661SOL     OW14881   2.881   4.423   5.547
 4661SOL    HW114882   2.928   4.335   5.548
 4661SOL    HW214883   2.865   4.454   5.641
 4662SOL     OW14884   3.114   7.012   5.465
 4662SOL    HW114885   3.143   6.960   5.546
 4662SOL    HW214886   3.021   0.024   5.480
 4663SOL     OW14887   0.398   1.901   1.753
 4663SOL    HW114888   0.434   1.881   1.845
 4663SOL    HW214889   0.305   1.866   1.746
 4664SOL     OW14890   1.550   0.861   0.990
 4664SOL    HW114891   1.456   0.879   0.963
 4664SOL    HW214892   1.609   0.934   0.955
 4665SOL     OW14893   3.863   0.283   6.480
 4665SOL    HW114894   3.807   0.366   6.470
 4665SOL    HW214895   3.803   0.203   6.478
 4666SOL     OW14896   1.512   2.762   0.558
 4666SOL    HW114897   1.611   2.749   0.549
 4666SOL    HW214898   1.473   2.686   0.609
 4667SOL     OW14899   6.468   3.290   2.176
 4667SOL    HW114900   6.532   3.223   2.139
 4667SOL    HW214901   6.376   3.272   2.140
 4668SOL     OW14902   4.293   2.330   2.452
 4668SOL    HW114903   4.340   2.361   2.534
 4668SOL    HW214904   4.332   2.243   2.421
 4669SOL     OW14905   4.596   6.658   6.273
 4669SOL    HW114906   4.665   6.631   6.340
 4669SOL    HW214907   4.597   6.595   6.196
 4670SOL     OW14908   2.261   2.747   5.737
 4670SOL    HW114909   2.273   2.837   5.778
 4670SOL    HW214910   2.208   2.755   5.652
 4671SOL     OW14911   6.909   2.391   0.830
 4671SOL    HW114912   6.821   2.414   0.871
 4671SOL    HW214913   6.983   2.413   0.894
 4672SOL     OW14914   2.498   4.431   5.908
 4672SOL    HW114915   2.551   4.471   5.983
 4672SOL    HW214916   2.421   4.380   5.946
 4673SOL     OW14917   5.096   0.613   1.955
 4673SOL    HW114918   5.133   0.700   1.923
 4673SOL    HW214919   5.172   0.549   1.971
 4674SOL     OW14920   5.428   0.558   6.615
 4674SOL    HW114921   5.445   0.471   6.661
 4674SOL    HW214922   5.403   0.541   6.520
 4675SOL     OW14923   1.796   1.318   6.408
 4675SOL    HW114924   1.729   1.392   6.415
 4675SOL    HW214925   1.885   1.356   6.383
 4676SOL     OW14926   6.984   6.175   3.655
 4676SOL    HW114927   6.990   6.147   3.559
 4676SOL    HW214928   0.048   6.158   3.699
 4677SOL     OW14929   2.170   1.617   6.583
 4677SOL    HW114930   2.095   1.683   6.576
 4677SOL    HW214931   2.257   1.665   6.572
 4678SOL     OW14932   2.072   4.234   3.256
 4678SOL    HW114933   2.033   4.235   3.164
 4678SOL    HW214934   2.005   4.271   3.321
 4679SOL     OW14935   3.888   1.075   0.557
 4679SOL    HW114936   3.900   1.167   0.520
 4679SOL    HW214937   3.835   1.020   0.494
 4680SOL     OW14938   3.414   1.464   0.565
 4680SOL    HW114939   3.357   1.497   0.640
 4680SOL    HW214940   3.510   1.485   0.584
 4681SOL     OW14941   4.971   6.087   6.201
 4681SOL    HW114942   4.988   6.001   6.153
 4681SOL    HW214943   4.986   6.074   6.299
 4682SOL     OW14944   4.611   4.638   5.706
 4682SOL    HW114945   4.556   4.721   5.713
 4682SOL    HW214946   4.620   4.612   5.610
 4683SOL     OW14947   4.474   5.050   2.874
 4683SOL    HW114948   4.538   5.064   2.798
 4683SOL    HW214949   4.483   4.956   2.908
 4684SOL     OW14950   6.468   1.495   4.919
 4684SOL    HW114951   6.470   1.407   4.967
 4684SOL    HW214952   6.559   1.538   4.925
 4685SOL     OW14953   0.663   5.921   5.626
 4685SOL    HW114954   0.639   5.831   5.661
 4685SOL    HW214955   0.674   5.985   5.702
 4686SOL     OW14956   4.260   5.019   0.129
 4686SOL    HW114957   4.298   4.931   0.101
 4686SOL    HW214958   4.275   5.033   0.227
 4687SOL     OW14959   6.451   4.013   4.838
 4687SOL    HW114960   6.394   4.014   4.920
 4687SOL    HW214961   6.402   4.056   4.763
 4688SOL     OW14962   6.004   4.400   4.579
 4688SOL    HW114963   6.049   4.437   4.661
 4688SOL    HW214964   5.946   4.471   4.538
 4689SOL     OW14965   5.823   0.993   0.409
 4689SOL    HW114966   5.794   0.900   0.386
 4689SOL    HW214967   5.839   0.999   0.508
 4690SOL     OW14968   1.056   6.569   6.962
 4690SOL    HW114969   1.149   6.530   6.964
 4690SOL    HW214970   1.056   6.656   7.011
 4691SOL     OW14971   3.071   5.134   1.920
 4691SOL    HW114972   2.980   5.164   1.890
 4691SOL    HW214973   3.103   5.059   1.862
 4692SOL     OW14974   6.043   5.491   1.801
 4692SOL    HW114975   6.104   5.550   1.854
 4692SOL    HW214976   5.978   5.446   1.862
 4693SOL     OW14977   0.770   1.692   3.067
 4693SOL    HW114978   0.734   1.614   3.117
 4693SOL    HW214979   0.705   1.720   2.996
 4694SOL     OW14980   1.937   0.478   6.907
 4694SOL    HW114981   1.933   0.531   6.992
 4694SOL    HW214982   2.032   0.450   6.890
 4695SOL     OW14983   1.597   3.724   1.980
 4695SOL    HW114984   1.657   3.647   1.960
 4695SOL    HW214985   1.504   3.704   1.948
 4696SOL     OW14986   0.425   4.088   0.417
 4696SOL    HW114987   0.384   4.080   0.509
 4696SOL    HW214988   0.438   3.996   0.379
 4697SOL     OW14989   1.895   3.186   1.167
 4697SOL    HW114990   1.836   3.168   1.088
 4697SOL    HW214991   1.988   3.155   1.146
 4698SOL     OW14992   4.598   5.083   2.618
 4698SOL    HW114993   4.589   4.995   2.570
 4698SOL    HW214994   4.692   5.115   2.611
 4699SOL     OW14995   1.841   6.686   2.181
 4699SOL    HW114996   1.812   6.777   2.210
 4699SOL    HW214997   1.802   6.665   2.091
 4700SOL     OW14998   6.668   1.322   3.277
 4700SOL    HW114999   6.584   1.281   3.243
 4700SOL    HW215000   6.654   1.420   3.291
 4701SOL     OW15001   2.393   2.322   0.053
 4701SOL    HW115002   2.386   2.348   0.149
 4701SOL    HW215003   2.489   2.326   0.025
 4702SOL     OW15004   3.975   5.301   0.357
 4702SOL    HW115005   4.057   5.297   0.414
 4702SOL    HW215006   3.995   5.260   0.268
 4703SOL     OW15007   1.036   1.209   1.462
 4703SOL    HW115008   1.033   1.302   1.500
 4703SOL    HW215009   0.983   1.148   1.521
 4704SOL     OW15010   0.518   6.471   0.552
 4704SOL    HW115011   0.440   6.460   0.491
 4704SOL    HW215012   0.574   6.388   0.551
 4705SOL     OW15013   3.917   3.280   2.441
 4705SOL    HW115014   3.986   3.320   2.380
 4705SOL    HW215015   3.834   3.260   2.389
 4706SOL     OW15016   3.532   0.250   6.757
 4706SOL    HW115017   3.559   0.196   6.837
 4706SOL    HW215018   3.536   0.347   6.779
 4707SOL     OW15019   1.828   6.423   1.319
 4707SOL    HW115020   1.798   6.375   1.237
 4707SOL    HW215021   1.916   6.387   1.348
 4708SOL     OW15022   1.241   1.577   6.554
 4708SOL    HW115023   1.289   1.660   6.585
 4708SOL    HW215024   1.266   1.559   6.459
 4709SOL     OW15025   4.516   6.122   5.788
 4709SOL    HW115026   4.440   6.156   5.732
 4709SOL    HW215027   4.571   6.059   5.734
 4710SOL     OW15028   4.208   0.862   5.393
 4710SOL    HW115029   4.129   0.817   5.435
 4710SOL    HW215030   4.250   0.924   5.459
 4711SOL     OW15031   5.823   0.996   1.554
 4711SOL    HW115032   5.758   0.921   1.565
 4711SOL    HW215033   5.916   0.963   1.569
 4712SOL     OW15034   2.892   4.633   0.089
 4712SOL    HW115035   2.941   4.612   0.004
 4712SOL    HW215036   2.956   4.668   0.157
 4713SOL     OW15037   3.572   3.953   0.536
 4713SOL    HW115038   3.532   3.934   0.625
 4713SOL    HW215039   3.501   3.948   0.466
 4714SOL     OW15040   0.817   2.219   6.833
 4714SOL    HW115041   0.889   2.252   6.773
 4714SOL    HW215042   0.841   2.240   6.928
 4715SOL     OW15043   5.551   2.289   2.591
 4715SOL    HW115044   5.527   2.269   2.496
 4715SOL    HW215045   5.491   2.237   2.652
 4716SOL     OW15046   4.782   5.991   6.529
 4716SOL    HW115047   4.747   5.924   6.594
 4716SOL    HW215048   4.742   5.975   6.438
 4717SOL     OW15049   0.157   0.408   3.828
 4717SOL    HW115050   0.068   0.434   3.865
 4717SOL    HW215051   0.162   0.309   3.818
 4718SOL     OW15052   5.389   2.681   1.643
 4718SOL    HW115053   5.390   2.772   1.686
 4718SOL    HW215054   5.307   2.631   1.673
 4719SOL     OW15055   5.066   3.043   1.731
 4719SOL    HW115056   5.157   3.006   1.712
 4719SOL    HW215057   5.022   2.989   1.803
 4720SOL     OW15058   2.101   5.707   5.708
 4720SOL    HW115059   2.079   5.684   5.803
 4720SOL    HW215060   2.180   5.769   5.706
 4721SOL     OW15061   6.491   2.138   2.172
 4721SOL    HW115062   6.401   2.118   2.134
 4721SOL    HW215063   6.557   2.148   2.098
 4722SOL     OW15064   1.026   5.844   6.334
 4722SOL    HW115065   1.102   5.907   6.344
 4722SOL    HW215066   1.048   5.776   6.263
 4723SOL     OW15067   2.513   3.831   5.833
 4723SOL    HW115068   2.432   3.856   5.779
 4723SOL    HW215069   2.538   3.907   5.893
 4724SOL     OW15070   6.347   6.169   2.354
 4724SOL    HW115071   6.410   6.230   2.305
 4724SOL    HW215072   6.350   6.190   2.452
 4725SOL     OW15073   6.394   5.439   2.243
 4725SOL    HW115074   6.469   5.475   2.298
 4725SOL    HW215075   6.342   5.373   2.297
 4726SOL     OW15076   1.567   2.295   5.953
 4726SOL    HW115077   1.555   2.309   6.051
 4726SOL    HW215078   1.664   2.289   5.932
 4727SOL     OW15079   1.315   5.948   1.239
 4727SOL    HW115080   1.367   5.907   1.314
 4727SOL    HW215081   1.275   5.876   1.182
 4728SOL     OW15082   6.441   0.962   2.109
 4728SOL    HW115083   6.461   0.967   2.011
 4728SOL    HW215084   6.523   0.933   2.159
 4729SOL     OW15085   2.829   1.390   0.558
 4729SOL    HW115086   2.841   1.470   0.499
 4729SOL    HW215087   2.744   1.398   0.608
 4730SOL     OW15088   3.153   5.969   5.174
 4730SOL    HW115089   3.205   5.926   5.101
 4730SOL    HW215090   3.061   5.990   5.141
 4731SOL     OW15091   4.371   6.935   0.116
 4731SOL    HW115092   4.303   6.863   0.106
 4731SOL    HW215093   4.381   6.958   0.213
 4732SOL     OW15094   0.945   2.886   6.004
 4732SOL    HW115095   1.029   2.915   5.959
 4732SOL    HW215096   0.890   2.967   6.027
 4733SOL     OW15097   1.153   4.024   3.489
 4733SOL    HW115098   1.189   3.941   3.532
 4733SOL    HW215099   1.228   4.079   3.453
 4734SOL     OW15100   4.268   2.624   0.251
 4734SOL    HW115101   4.349   2.675   0.280
 4734SOL    HW215102   4.190   2.651   0.307
 4735SOL     OW15103   6.704   5.647   4.479
 4735SOL    HW115104   6.787   5.615   4.524
 4735SOL    HW215105   6.686   5.742   4.504
 4736SOL     OW15106   0.012   1.590   5.918
 4736SOL    HW115107   6.986   1.506   5.897
 4736SOL    HW215108   0.097   1.567   5.965
 4737SOL     OW15109   2.509   4.485   2.202
 4737SOL    HW115110   2.466   4.496   2.292
 4737SOL    HW215111   2.591   4.428   2.212
 4738SOL     OW15112   0.351   6.259   2.842
 4738SOL    HW115113   0.354   6.356   2.864
 4738SOL    HW215114   0.443   6.226   2.822
 4739SOL     OW15115   4.105   6.991   3.410
 4739SOL    HW115116   4.018   7.020   3.370
 4739SOL    HW215117   4.179   0.018   3.367
 4740SOL     OW15118   0.926   1.046   1.633
 4740SOL    HW115119   1.013   1.031   1.681
 4740SOL    HW215120   0.851   1.008   1.688
 4741SOL     OW15121   3.821   3.664   0.874
 4741SOL    HW115122   3.865   3.643   0.787
 4741SOL    HW215123   3.891   3.680   0.943
 4742SOL     OW15124   3.613   6.774   6.141
 4742SOL    HW115125   3.693   6.715   6.153
 4742SOL    HW215126   3.618   6.819   6.053
 4743SOL     OW15127   1.606   3.296   3.494
 4743SOL    HW115128   1.668   3.372   3.476
 4743SOL    HW215129   1.578   3.254   3.408
 4744SOL     OW15130   2.083   4.376   0.637
 4744SOL    HW115131   2.022   4.414   0.567
 4744SOL    HW215132   2.116   4.450   0.696
 4745SOL     OW15133   3.162   4.248   5.685
 4745SOL    HW115134   3.101   4.171   5.668
 4745SOL    HW215135   3.257   4.216   5.686
 4746SOL     OW15136   5.548   5.696   2.223
 4746SOL    HW115137   5.465   5.733   2.180
 4746SOL    HW215138   5.527   5.669   2.317
 4747SOL     OW15139   1.938   3.933   0.181
 4747SOL    HW115140   1.983   3.928   0.092
 4747SOL    HW215141   1.962   3.853   0.236
 4748SOL     OW15142   2.251   5.522   0.794
 4748SOL    HW115143   2.301   5.436   0.780
 4748SOL    HW215144   2.174   5.525   0.732
 4749SOL     OW15145   1.944   6.366   5.811
 4749SOL    HW115146   1.911   6.460   5.796
 4749SOL    HW215147   1.925   6.339   5.905
 4750SOL     OW15148   0.532   4.004   4.517
 4750SOL    HW115149   0.609   4.068   4.514
 4750SOL    HW215150   0.451   4.048   4.478
 4751SOL     OW15151   3.883   2.134   2.320
 4751SOL    HW115152   3.892   2.068   2.245
 4751SOL    HW215153   3.900   2.227   2.285
 4752SOL     OW15154   4.434   1.321   6.650
 4752SOL    HW115155   4.456   1.315   6.747
 4752SOL    HW215156   4.336   1.305   6.636
 4753SOL     OW15157   5.914   0.072   3.858
 4753SOL    HW115158   6.012   0.054   3.858
 4753SOL    HW215159   5.892   0.141   3.789
 4754SOL     OW15160   5.779   5.762   4.555
 4754SOL    HW115161   5.875   5.736   4.563
 4754SOL    HW215162   5.736   5.708   4.482
 4755SOL     OW15163   3.096   0.480   0.264
 4755SOL    HW115164   3.191   0.512   0.260
 4755SOL    HW215165   3.059   0.476   0.171
 4756SOL     OW15166   5.512   2.706   0.310
 4756SOL    HW115167   5.603   2.668   0.327
 4756SOL    HW215168   5.520   2.802   0.282
 4757SOL     OW15169   2.518   1.435   0.684
 4757SOL    HW115170   2.540   1.398   0.774
 4757SOL    HW215171   2.421   1.419   0.665
 4758SOL     OW15172   1.635   6.398   3.406
 4758SOL    HW115173   1.633   6.359   3.314
 4758SOL    HW215174   1.609   6.329   3.473
 4759SOL     OW15175   6.385   4.613   4.770
 4759SOL    HW115176   6.429   4.551   4.835
 4759SOL    HW215177   6.406   4.707   4.795
 4760SOL     OW15178   2.398   1.857   0.647
 4760SOL    HW115179   2.397   1.870   0.746
 4760SOL    HW215180   2.440   1.769   0.625
 4761SOL     OW15181   0.651   5.672   0.318
 4761SOL    HW115182   0.622   5.755   0.269
 4761SOL    HW215183   0.726   5.629   0.267
 4762SOL     OW15184   1.238   5.514   2.408
 4762SOL    HW115185   1.206   5.593   2.356
 4762SOL    HW215186   1.181   5.502   2.490
 4763SOL     OW15187   5.796   6.698   3.151
 4763SOL    HW115188   5.709   6.660   3.184
 4763SOL    HW215189   5.842   6.745   3.225
 4764SOL     OW15190   4.963   3.783   4.901
 4764SOL    HW115191   4.929   3.718   4.969
 4764SOL    HW215192   5.009   3.733   4.827
 4765SOL     OW15193   4.542   1.176   4.640
 4765SOL    HW115194   4.447   1.149   4.622
 4765SOL    HW215195   4.579   1.120   4.714
 4766SOL     OW15196   5.241   5.727   4.068
 4766SOL    HW115197   5.221   5.690   4.158
 4766SOL    HW215198   5.328   5.777   4.071
 4767SOL     OW15199   2.918   5.427   5.275
 4767SOL    HW115200   2.977   5.349   5.252
 4767SOL    HW215201   2.939   5.504   5.214
 4768SOL     OW15202   4.134   2.303   6.516
 4768SOL    HW115203   4.088   2.391   6.530
 4768SOL    HW215204   4.190   2.282   6.596
 4769SOL     OW15205   4.763   5.070   6.921
 4769SOL    HW115206   4.775   5.044   6.825
 4769SOL    HW215207   4.709   5.001   6.968
 4770SOL     OW15208   0.465   0.945   4.194
 4770SOL    HW115209   0.488   0.851   4.221
 4770SOL    HW215210   0.448   0.949   4.096
 4771SOL     OW15211   2.819   5.765   5.474
 4771SOL    HW115212   2.789   5.674   5.504
 4771SOL    HW215213   2.811   5.772   5.375
 4772SOL     OW15214   4.338   5.049   0.863
 4772SOL    HW115215   4.342   4.982   0.790
 4772SOL    HW215216   4.413   5.034   0.927
 4773SOL     OW15217   6.407   5.419   4.466
 4773SOL    HW115218   6.463   5.499   4.447
 4773SOL    HW215219   6.329   5.445   4.522
 4774SOL     OW15220   1.896   3.091   1.733
 4774SOL    HW115221   1.807   3.103   1.690
 4774SOL    HW215222   1.886   3.095   1.832
 4775SOL     OW15223   5.210   6.562   2.590
 4775SOL    HW115224   5.250   6.539   2.501
 4775SOL    HW215225   5.159   6.483   2.624
 4776SOL     OW15226   1.242   6.141   5.993
 4776SOL    HW115227   1.278   6.067   5.936
 4776SOL    HW215228   1.165   6.108   6.047
 4777SOL     OW15229   2.195   5.302   1.134
 4777SOL    HW115230   2.142   5.364   1.191
 4777SOL    HW215231   2.293   5.317   1.151
 4778SOL     OW15232   6.634   2.562   3.869
 4778SOL    HW115233   6.728   2.569   3.835
 4778SOL    HW215234   6.612   2.642   3.925
 4779SOL     OW15235   5.816   5.580   2.506
 4779SOL    HW115236   5.859   5.663   2.470
 4779SOL    HW215237   5.752   5.605   2.579
 4780SOL     OW15238   5.751   1.587   0.103
 4780SOL    HW115239   5.728   1.526   0.027
 4780SOL    HW215240   5.838   1.558   0.143
 4781SOL     OW15241   2.417   5.971   2.437
 4781SOL    HW115242   2.446   6.005   2.347
 4781SOL    HW215243   2.496   5.939   2.488
 4782SOL     OW15244   6.372   5.897   0.062
 4782SOL    HW115245   6.436   5.872   0.135
 4782SOL    HW215246   6.281   5.864   0.084
 4783SOL     OW15247   4.854   4.199   0.125
 4783SOL    HW115248   4.808   4.131   0.067
 4783SOL    HW215249   4.947   4.214   0.091
 4784SOL     OW15250   6.074   3.534   6.928
 4784SOL    HW115251   6.021   3.524   6.844
 4784SOL    HW215252   6.108   3.628   6.935
 4785SOL     OW15253   1.491   6.353   3.020
 4785SOL    HW115254   1.479   6.447   3.053
 4785SOL    HW215255   1.554   6.304   3.080
 4786SOL     OW15256   2.362   0.571   0.213
 4786SOL    HW115257   2.315   0.609   0.133
 4786SOL    HW215258   2.314   0.598   0.296
 4787SOL     OW15259   3.820   1.266   2.911
 4787SOL    HW115260   3.897   1.205   2.931
 4787SOL    HW215261   3.853   1.345   2.860
 4788SOL     OW15262   6.581   6.300   6.750
 4788SOL    HW115263   6.503   6.280   6.691
 4788SOL    HW215264   6.578   6.396   6.778
 4789SOL     OW15265   4.526   2.359   1.420
 4789SOL    HW115266   4.513   2.349   1.321
 4789SOL    HW215267   4.566   2.275   1.456
 4790SOL     OW15268   6.386   2.229   5.719
 4790SOL    HW115269   6.340   2.142   5.704
 4790SOL    HW215270   6.337   2.302   5.672
 4791SOL     OW15271   0.150   2.889   1.268
 4791SOL    HW115272   0.135   2.908   1.171
 4791SOL    HW215273   0.216   2.954   1.305
 4792SOL     OW15274   2.954   4.835   3.520
 4792SOL    HW115275   2.950   4.808   3.424
 4792SOL    HW215276   3.049   4.843   3.549
 4793SOL     OW15277   2.451   2.423   5.173
 4793SOL    HW115278   2.399   2.508   5.169
 4793SOL    HW215279   2.458   2.392   5.268
 4794SOL     OW15280   5.301   0.378   4.625
 4794SOL    HW115281   5.393   0.391   4.590
 4794SOL    HW215282   5.249   0.463   4.615
 4795SOL     OW15283   6.370   1.954   4.264
 4795SOL    HW115284   6.458   1.981   4.304
 4795SOL    HW215285   6.349   2.015   4.187
 4796SOL     OW15286   4.824   1.708   4.748
 4796SOL    HW115287   4.814   1.794   4.798
 4796SOL    HW215288   4.750   1.699   4.681
 4797SOL     OW15289   0.822   6.282   5.258
 4797SOL    HW115290   0.806   6.214   5.329
 4797SOL    HW215291   0.845   6.370   5.301
 4798SOL     OW15292   0.029   4.115   5.553
 4798SOL    HW115293   0.008   4.083   5.461
 4798SOL    HW215294   0.013   4.214   5.559
 4799SOL     OW15295   4.773   1.725   0.371
 4799SOL    HW115296   4.801   1.805   0.319
 4799SOL    HW215297   4.850   1.691   0.425
 4800SOL     OW15298   2.999   2.412   6.806
 4800SOL    HW115299   2.923   2.362   6.763
 4800SOL    HW215300   3.052   2.349   6.862
 4801SOL     OW15301   3.409   2.086   6.245
 4801SOL    HW115302   3.311   2.102   6.238
 4801SOL    HW215303   3.445   2.132   6.326
 4802SOL     OW15304   0.713   6.600   1.881
 4802SOL    HW115305   0.784   6.571   1.946
 4802SOL    HW215306   0.660   6.521   1.852
 4803SOL     OW15307   6.874   4.879   0.371
 4803SOL    HW115308   6.817   4.847   0.447
 4803SOL    HW215309   6.823   4.946   0.317
 4804SOL     OW15310   6.767   6.595   1.676
 4804SOL    HW115311   6.722   6.606   1.764
 4804SOL    HW215312   6.848   6.653   1.672
 4805SOL     OW15313   6.658   1.623   2.399
 4805SOL    HW115314   6.724   1.635   2.473
 4805SOL    HW215315   6.601   1.705   2.392
 4806SOL     OW15316   1.062   4.184   2.764
 4806SOL    HW115317   1.056   4.094   2.720
 4806SOL    HW215318   1.154   4.197   2.800
 4807SOL     OW15319   0.842   4.875   0.223
 4807SOL    HW115320   0.895   4.960   0.224
 4807SOL    HW215321   0.892   4.805   0.173
 4808SOL     OW15322   4.765   5.345   0.866
 4808SOL    HW115323   4.723   5.257   0.843
 4808SOL    HW215324   4.845   5.360   0.808
 4809SOL     OW15325   3.347   4.805   0.171
 4809SOL    HW115326   3.254   4.787   0.203
 4809SOL    HW215327   3.379   4.891   0.210
 4810SOL     OW15328   1.908   4.530   2.707
 4810SOL    HW115329   1.842   4.484   2.647
 4810SOL    HW215330   1.980   4.571   2.651
 4811SOL     OW15331   2.421   4.300   1.888
 4811SOL    HW115332   2.398   4.205   1.869
 4811SOL    HW215333   2.501   4.326   1.834
 4812SOL     OW15334   0.494   5.543   2.429
 4812SOL    HW115335   0.526   5.459   2.384
 4812SOL    HW215336   0.444   5.599   2.363
 4813SOL     OW15337   6.029   1.785   6.621
 4813SOL    HW115338   6.072   1.706   6.579
 4813SOL    HW215339   6.099   1.850   6.650
 4814SOL     OW15340   6.947   3.062   1.244
 4814SOL    HW115341   7.022   2.996   1.250
 4814SOL    HW215342   6.933   3.105   1.333
 4815SOL     OW15343   5.106   3.913   2.613
 4815SOL    HW115344   5.113   3.962   2.526
 4815SOL    HW215345   5.009   3.904   2.638
 4816SOL     OW15346   2.454   4.575   1.207
 4816SOL    HW115347   2.433   4.566   1.109
 4816SOL    HW215348   2.529   4.639   1.219
 4817SOL     OW15349   2.104   1.401   6.856
 4817SOL    HW115350   2.155   1.398   6.770
 4817SOL    HW215351   2.078   1.308   6.882
 4818SOL     OW15352   0.942   6.672   4.592
 4818SOL    HW115353   1.037   6.656   4.566
 4818SOL    HW215354   0.882   6.615   4.536
 4819SOL     OW15355   1.766   1.587   0.512
 4819SOL    HW115356   1.698   1.599   0.584
 4819SOL    HW215357   1.789   1.490   0.505
 4820SOL     OW15358   6.214   2.617   2.569
 4820SOL    HW115359   6.231   2.715   2.571
 4820SOL    HW215360   6.116   2.600   2.580
 4821SOL     OW15361   0.304   6.447   2.402
 4821SOL    HW115362   0.272   6.355   2.381
 4821SOL    HW215363   0.268   6.511   2.334
 4822SOL     OW15364   2.165   3.556   4.516
 4822SOL    HW115365   2.183   3.482   4.580
 4822SOL    HW215366   2.136   3.518   4.428
 4823SOL     OW15367   1.704   0.552   4.465
 4823SOL    HW115368   1.629   0.509   4.415
 4823SOL    HW215369   1.709   0.515   4.557
 4824SOL     OW15370   5.586   2.133   4.558
 4824SOL    HW115371   5.527   2.073   4.612
 4824SOL    HW215372   5.612   2.086   4.474
 4825SOL     OW15373   1.527   2.460   4.101
 4825SOL    HW115374   1.533   2.537   4.038
 4825SOL    HW215375   1.578   2.481   4.184
 4826SOL     OW15376   6.862   1.288   6.157
 4826SOL    HW115377   6.764   1.307   6.147
 4826SOL    HW215378   6.896   1.336   6.238
 4827SOL     OW15379   6.395   1.642   1.074
 4827SOL    HW115380   6.345   1.704   1.135
 4827SOL    HW215381   6.331   1.573   1.038
 4828SOL     OW15382   5.340   3.130   0.768
 4828SOL    HW115383   5.434   3.115   0.798
 4828SOL    HW215384   5.325   3.087   0.679
 4829SOL     OW15385   4.203   6.726   0.107
 4829SOL    HW115386   4.169   6.690   0.020
 4829SOL    HW215387   4.133   6.715   0.178
 4830SOL     OW15388   4.197   7.000   3.731
 4830SOL    HW115389   4.142   7.020   3.650
 4830SOL    HW215390   4.256   0.054   3.751
 4831SOL     OW15391   0.198   4.562   6.266
 4831SOL    HW115392   0.289   4.521   6.266
 4831SOL    HW215393   0.129   4.489   6.254
 4832SOL     OW15394   3.443   3.443   4.827
 4832SOL    HW115395   3.351   3.473   4.851
 4832SOL    HW215396   3.510   3.494   4.881
 4833SOL     OW15397   4.659   2.269   3.023
 4833SOL    HW115398   4.678   2.271   3.121
 4833SOL    HW215399   4.562   2.250   3.008
 4834SOL     OW15400   3.701   6.291   0.977
 4834SOL    HW115401   3.724   6.305   1.073
 4834SOL    HW215402   3.776   6.246   0.930
 4835SOL     OW15403   6.696   1.466   6.446
 4835SOL    HW115404   6.698   1.468   6.346
 4835SOL    HW215405   6.603   1.445   6.477
 4836SOL     OW15406   5.353   2.998   4.763
 4836SOL    HW115407   5.309   3.062   4.825
 4836SOL    HW215408   5.310   2.908   4.771
 4837SOL     OW15409   6.351   3.591   2.553
 4837SOL    HW115410   6.448   3.612   2.539
 4837SOL    HW215411   6.298   3.628   2.476
 4838SOL     OW15412   1.012   5.197   6.955
 4838SOL    HW115413   1.073   5.251   6.897
 4838SOL    HW215414   1.059   5.114   6.983
 4839SOL     OW15415   1.930   3.397   6.779
 4839SOL    HW115416   1.897   3.329   6.843
 4839SOL    HW215417   1.974   3.352   6.701
 4840SOL     OW15418   6.833   4.802   6.452
 4840SOL    HW115419   6.912   4.746   6.477
 4840SOL    HW215420   6.806   4.782   6.358
 4841SOL     OW15421   2.861   5.740   1.759
 4841SOL    HW115422   2.959   5.758   1.749
 4841SOL    HW215423   2.835   5.663   1.702
 4842SOL     OW15424   3.770   5.149   2.792
 4842SOL    HW115425   3.749   5.052   2.800
 4842SOL    HW215426   3.868   5.161   2.777
 4843SOL     OW15427   6.620   2.982   1.131
 4843SOL    HW115428   6.715   2.977   1.099
 4843SOL    HW215429   6.558   2.981   1.052
 4844SOL     OW15430   0.493   2.984   5.844
 4844SOL    HW115431   0.500   2.916   5.917
 4844SOL    HW215432   0.435   3.060   5.874
 4845SOL     OW15433   5.125   5.513   6.371
 4845SOL    HW115434   5.200   5.519   6.304
 4845SOL    HW215435   5.055   5.450   6.337
 4846SOL     OW15436   6.965   3.303   4.049
 4846SOL    HW115437   6.955   3.247   3.966
 4846SOL    HW215438   6.942   3.249   4.129
 4847SOL     OW15439   3.131   0.961   5.887
 4847SOL    HW115440   3.078   0.884   5.852
 4847SOL    HW215441   3.109   1.043   5.833
 4848SOL     OW15442   1.612   0.786   3.949
 4848SOL    HW115443   1.704   0.779   3.911
 4848SOL    HW215444   1.563   0.860   3.903
 4849SOL     OW15445   1.190   5.824   6.678
 4849SOL    HW115446   1.271   5.767   6.666
 4849SOL    HW215447   1.196   5.904   6.619
 4850SOL     OW15448   3.949   1.738   2.002
 4850SOL    HW115449   3.877   1.801   2.030
 4850SOL    HW215450   3.925   1.696   1.914
 4851SOL     OW15451   4.250   0.047   5.873
 4851SOL    HW115452   4.304   0.109   5.931
 4851SOL    HW215453   4.204   7.004   5.931
 4852SOL     OW15454   1.599   6.203   4.806
 4852SOL    HW115455   1.552   6.133   4.752
 4852SOL    HW215456   1.536   6.242   4.873
 4853SOL     OW15457   3.152   1.368   2.983
 4853SOL    HW115458   3.066   1.395   2.940
 4853SOL    HW215459   3.136   1.348   3.080
 4854SOL     OW15460   4.467   0.012   1.315
 4854SOL    HW115461   4.490   0.071   1.237
 4854SOL    HW215462   4.531   6.959   1.318
 4855SOL     OW15463   6.163   2.884   3.378
 4855SOL    HW115464   6.107   2.801   3.378
 4855SOL    HW215465   6.185   2.910   3.284
 4856SOL     OW15466   1.170   3.348   3.049
 4856SOL    HW115467   1.195   3.341   3.145
 4856SOL    HW215468   1.133   3.439   3.030
 4857SOL     OW15469   2.574   1.829   4.791
 4857SOL    HW115470   2.596   1.887   4.712
 4857SOL    HW215471   2.594   1.879   4.875
 4858SOL     OW15472   0.792   0.671   4.365
 4858SOL    HW115473   0.868   0.640   4.308
 4858SOL    HW215474   0.764   0.763   4.336
 4859SOL     OW15475   0.961   0.273   4.481
 4859SOL    HW115476   0.904   0.210   4.428
 4859SOL    HW215477   0.917   0.363   4.485
 4860SOL     OW15478   4.474   4.404   1.665
 4860SOL    HW115479   4.461   4.332   1.733
 4860SOL    HW215480   4.524   4.480   1.705
 4861SOL     OW15481   6.026   5.384   0.174
 4861SOL    HW115482   6.103   5.419   0.122
 4861SOL    HW215483   5.943   5.388   0.119
 4862SOL     OW15484   2.393   4.739   5.139
 4862SOL    HW115485   2.338   4.659   5.115
 4862SOL    HW215486   2.359   4.777   5.226
 4863SOL     OW15487   5.440   3.705   1.167
 4863SOL    HW115488   5.486   3.715   1.078
 4863SOL    HW215489   5.400   3.614   1.173
 4864SOL     OW15490   4.043   1.234   2.634
 4864SOL    HW115491   3.955   1.253   2.592
 4864SOL    HW215492   4.037   1.150   2.689
 4865SOL     OW15493   1.948   6.397   3.999
 4865SOL    HW115494   2.024   6.390   3.934
 4865SOL    HW215495   1.959   6.329   4.071
 4866SOL     OW15496   6.087   3.542   1.974
 4866SOL    HW115497   6.076   3.442   1.976
 4866SOL    HW215498   6.032   3.583   2.047
 4867SOL     OW15499   3.768   5.452   1.809
 4867SOL    HW115500   3.842   5.423   1.870
 4867SOL    HW215501   3.681   5.439   1.855
 4868SOL     OW15502   6.565   4.779   3.042
 4868SOL    HW115503   6.532   4.687   3.065
 4868SOL    HW215504   6.490   4.832   3.001
 4869SOL     OW15505   1.435   1.087   1.693
 4869SOL    HW115506   1.456   1.026   1.770
 4869SOL    HW215507   1.476   1.050   1.610
 4870SOL     OW15508   0.255   6.155   2.403
 4870SOL    HW115509   0.197   6.157   2.484
 4870SOL    HW215510   0.309   6.071   2.402
 4871SOL     OW15511   1.170   0.836   4.289
 4871SOL    HW115512   1.266   0.816   4.308
 4871SOL    HW215513   1.148   0.928   4.323
 4872SOL     OW15514   6.688   6.366   3.894
 4872SOL    HW115515   6.621   6.439   3.908
 4872SOL    HW215516   6.683   6.332   3.800
 4873SOL     OW15517   6.803   4.598   3.726
 4873SOL    HW115518   6.792   4.596   3.825
 4873SOL    HW215519   6.778   4.689   3.691
 4874SOL     OW15520   6.282   3.348   3.117
 4874SOL    HW115521   6.310   3.409   3.043
 4874SOL    HW215522   6.259   3.258   3.079
 4875SOL     OW15523   5.699   2.567   1.413
 4875SOL    HW115524   5.615   2.616   1.391
 4875SOL    HW215525   5.684   2.468   1.404
 4876SOL     OW15526   5.642   1.723   4.297
 4876SOL    HW115527   5.584   1.670   4.236
 4876SOL    HW215528   5.679   1.664   4.369
 4877SOL     OW15529   1.410   2.179   6.647
 4877SOL    HW115530   1.385   2.207   6.739
 4877SOL    HW215531   1.331   2.138   6.601
 4878SOL     OW15532   6.299   0.874   2.976
 4878SOL    HW115533   6.249   0.896   3.060
 4878SOL    HW215534   6.367   0.803   2.994
 4879SOL     OW15535   4.636   6.234   2.601
 4879SOL    HW115536   4.658   6.137   2.603
 4879SOL    HW215537   4.671   6.278   2.684
 4880SOL     OW15538   5.715   3.561   6.979
 4880SOL    HW115539   5.761   3.607   0.031
 4880SOL    HW215540   5.759   3.473   6.961
 4881SOL     OW15541   1.488   1.167   6.310
 4881SOL    HW115542   1.581   1.134   6.329
 4881SOL    HW215543   1.464   1.239   6.375
 4882SOL     OW15544   5.332   1.682   5.216
 4882SOL    HW115545   5.379   1.706   5.132
 4882SOL    HW215546   5.338   1.583   5.231
 4883SOL     OW15547   5.617   4.519   1.723
 4883SOL    HW115548   5.597   4.468   1.639
 4883SOL    HW215549   5.715   4.518   1.740
 4884SOL     OW15550   3.296   6.796   1.506
 4884SOL    HW115551   3.224   6.776   1.573
 4884SOL    HW215552   3.254   6.830   1.422
 4885SOL     OW15553   1.765   5.170   2.434
 4885SOL    HW115554   1.795   5.257   2.473
 4885SOL    HW215555   1.838   5.103   2.443
 4886SOL     OW15556   1.122   5.225   0.996
 4886SOL    HW115557   1.204   5.271   0.962
 4886SOL    HW215558   1.128   5.127   0.976
 4887SOL     OW15559   0.570   0.387   2.516
 4887SOL    HW115560   0.667   0.408   2.531
 4887SOL    HW215561   0.538   0.436   2.435
 4888SOL     OW15562   2.226   6.873   4.350
 4888SOL    HW115563   2.254   6.822   4.269
 4888SOL    HW215564   2.279   6.843   4.429
 4889SOL     OW15565   6.394   1.355   6.248
 4889SOL    HW115566   6.477   1.411   6.246
 4889SOL    HW215567   6.418   1.259   6.232
 4890SOL     OW15568   1.329   1.797   7.012
 4890SOL    HW115569   1.308   1.853   0.067
 4890SOL    HW215570   1.422   1.760   7.021
 4891SOL     OW15571   1.454   4.799   6.321
 4891SOL    HW115572   1.477   4.831   6.412
 4891SOL    HW215573   1.532   4.747   6.283
 4892SOL     OW15574   3.400   6.254   2.150
 4892SOL    HW115575   3.326   6.261   2.084
 4892SOL    HW215576   3.365   6.278   2.241
 4893SOL     OW15577   6.682   3.669   1.623
 4893SOL    HW115578   6.663   3.757   1.579
 4893SOL    HW215579   6.667   3.677   1.722
 4894SOL     OW15580   2.544   1.352   3.004
 4894SOL    HW115581   2.479   1.322   2.935
 4894SOL    HW215582   2.597   1.429   2.969
 4895SOL     OW15583   0.956   4.944   3.535
 4895SOL    HW115584   1.027   5.006   3.570
 4895SOL    HW215585   0.869   4.965   3.578
 4896SOL     OW15586   2.185   5.840   2.329
 4896SOL    HW115587   2.250   5.899   2.377
 4896SOL    HW215588   2.159   5.764   2.388
 4897SOL     OW15589   2.839   4.104   6.089
 4897SOL    HW115590   2.801   4.110   5.997
 4897SOL    HW215591   2.764   4.109   6.156
 4898SOL     OW15592   3.467   0.762   4.159
 4898SOL    HW115593   3.477   0.791   4.254
 4898SOL    HW215594   3.375   0.786   4.126
 4899SOL     OW15595   6.056   5.216   3.362
 4899SOL    HW115596   6.017   5.307   3.347
 4899SOL    HW215597   6.062   5.168   3.275
 4900SOL     OW15598   1.989   5.836   4.258
 4900SOL    HW115599   1.986   5.853   4.357
 4900SOL    HW215600   1.939   5.752   4.237
 4901SOL     OW15601   3.129   6.839   5.660
 4901SOL    HW115602   3.226   6.824   5.643
 4901SOL    HW215603   3.094   6.765   5.719
 4902SOL     OW15604   2.344   1.734   3.905
 4902SOL    HW115605   2.428   1.709   3.857
 4902SOL    HW215606   2.343   1.833   3.920
 4903SOL     OW15607   3.748   6.475   6.377
 4903SOL    HW115608   3.737   6.377   6.393
 4903SOL    HW215609   3.797   6.488   6.291
 4904SOL     OW15610   2.051   6.639   3.826
 4904SOL    HW115611   2.083   6.642   3.920
 4904SOL    HW215612   2.061   6.546   3.790
 4905SOL     OW15613   4.351   0.283   2.454
 4905SOL    HW115614   4.264   0.329   2.473
 4905SOL    HW215615   4.339   0.184   2.463
 4906SOL     OW15616   4.433   1.939   5.877
 4906SOL    HW115617   4.410   1.937   5.780
 4906SOL    HW215618   4.533   1.946   5.887
 4907SOL     OW15619   4.100   6.413   1.228
 4907SOL    HW115620   4.044   6.410   1.311
 4907SOL    HW215621   4.093   6.326   1.180
 4908SOL     OW15622   5.305   4.595   6.619
 4908SOL    HW115623   5.347   4.671   6.668
 4908SOL    HW215624   5.334   4.508   6.661
 4909SOL     OW15625   6.818   0.121   4.313
 4909SOL    HW115626   6.824   0.032   4.266
 4909SOL    HW215627   6.722   0.145   4.327
 4910SOL     OW15628   5.479   6.985   4.752
 4910SOL    HW115629   5.397   6.927   4.758
 4910SOL    HW215630   5.513   7.004   4.844
 4911SOL     OW15631   1.084   3.344   4.167
 4911SOL    HW115632   1.096   3.298   4.255
 4911SOL    HW215633   1.148   3.306   4.100
 4912SOL     OW15634   5.411   1.051   6.418
 4912SOL    HW115635   5.347   1.065   6.343
 4912SOL    HW215636   5.418   0.953   6.438
 4913SOL     OW15637   3.912   3.049   5.097
 4913SOL    HW115638   3.845   2.979   5.121
 4913SOL    HW215639   3.914   3.061   4.998
 4914SOL     OW15640   3.602   0.243   4.991
 4914SOL    HW115641   3.529   0.266   4.928
 4914SOL    HW215642   3.682   0.210   4.940
 4915SOL     OW15643   4.465   0.519   4.866
 4915SOL    HW115644   4.435   0.567   4.783
 4915SOL    HW215645   4.389   0.514   4.931
 4916SOL     OW15646   1.802   0.592   4.203
 4916SOL    HW115647   1.752   0.590   4.289
 4916SOL    HW215648   1.750   0.644   4.135
 4917SOL     OW15649   2.393   4.808   1.579
 4917SOL    HW115650   2.408   4.722   1.628
 4917SOL    HW215651   2.295   4.820   1.562
 4918SOL     OW15652   4.433   5.539   2.123
 4918SOL    HW115653   4.448   5.519   2.220
 4918SOL    HW215654   4.495   5.611   2.093
 4919SOL     OW15655   3.081   2.158   6.930
 4919SOL    HW115656   3.174   2.123   6.913
 4919SOL    HW215657   3.019   2.081   6.946
 4920SOL     OW15658   5.891   0.837   4.817
 4920SOL    HW115659   5.947   0.807   4.894
 4920SOL    HW215660   5.895   0.768   4.744
 4921SOL     OW15661   1.773   4.559   0.567
 4921SOL    HW115662   1.737   4.644   0.530
 4921SOL    HW215663   1.828   4.512   0.497
 4922SOL     OW15664   1.983   2.296   5.029
 4922SOL    HW115665   1.989   2.384   4.984
 4922SOL    HW215666   1.918   2.238   4.981
 4923SOL     OW15667   4.132   1.788   1.759
 4923SOL    HW115668   4.178   1.714   1.710
 4923SOL    HW215669   4.090   1.752   1.843
 4924SOL     OW15670   2.756   1.814   5.560
 4924SOL    HW115671   2.841   1.841   5.514
 4924SOL    HW215672   2.696   1.893   5.568
 4925SOL     OW15673   6.339   6.426   2.059
 4925SOL    HW115674   6.429   6.418   2.016
 4925SOL    HW215675   6.304   6.335   2.079
 4926SOL     OW15676   5.390   1.458   0.304
 4926SOL    HW115677   5.434   1.427   0.220
 4926SOL    HW215678   5.369   1.380   0.362
 4927SOL     OW15679   3.777   3.528   4.646
 4927SOL    HW115680   3.865   3.487   4.671
 4927SOL    HW215681   3.708   3.457   4.637
 4928SOL     OW15682   1.398   0.167   0.039
 4928SOL    HW115683   1.373   0.096   6.997
 4928SOL    HW215684   1.316   0.198   0.087
 4929SOL     OW15685   0.895   5.206   4.797
 4929SOL    HW115686   0.859   5.119   4.830
 4929SOL    HW215687   0.860   5.280   4.854
 4930SOL     OW15688   4.970   0.979   3.476
 4930SOL    HW115689   5.025   1.055   3.511
 4930SOL    HW215690   5.026   0.897   3.469
 4931SOL     OW15691   6.926   6.877   0.806
 4931SOL    HW115692   6.997   6.946   0.801
 4931SOL    HW215693   6.836   6.920   0.795
 4932SOL     OW15694   2.548   3.502   1.715
 4932SOL    HW115695   2.473   3.531   1.775
 4932SOL    HW215696   2.530   3.409   1.682
 4933SOL     OW15697   2.280   6.856   3.517
 4933SOL    HW115698   2.260   6.872   3.421
 4933SOL    HW215699   2.240   6.929   3.572
 4934SOL     OW15700   2.542   5.992   2.712
 4934SOL    HW115701   2.599   5.935   2.772
 4934SOL    HW215702   2.578   6.085   2.712
 4935SOL     OW15703   1.322   1.055   5.950
 4935SOL    HW115704   1.326   1.005   6.036
 4935SOL    HW215705   1.405   1.036   5.896
 4936SOL     OW15706   2.572   4.605   1.961
 4936SOL    HW115707   2.668   4.615   1.986
 4936SOL    HW215708   2.525   4.552   2.030
 4937SOL     OW15709   6.776   2.997   6.377
 4937SOL    HW115710   6.856   3.054   6.396
 4937SOL    HW215711   6.806   2.908   6.341
 4938SOL     OW15712   2.262   6.128   5.712
 4938SOL    HW115713   2.259   6.224   5.737
 4938SOL    HW215714   2.226   6.116   5.619
 4939SOL     OW15715   6.240   1.831   3.945
 4939SOL    HW115716   6.265   1.925   3.968
 4939SOL    HW215717   6.314   1.769   3.972
 4940SOL     OW15718   0.099   0.701   5.294
 4940SOL    HW115719   0.102   0.632   5.222
 4940SOL    HW215720   0.193   0.730   5.316
 4941SOL     OW15721   4.739   2.281   5.155
 4941SOL    HW115722   4.767   2.365   5.109
 4941SOL    HW215723   4.677   2.230   5.096
 4942SOL     OW15724   5.554   3.236   6.298
 4942SOL    HW115725   5.501   3.174   6.240
 4942SOL    HW215726   5.493   3.279   6.365
 4943SOL     OW15727   4.378   3.637   5.960
 4943SOL    HW115728   4.280   3.642   5.942
 4943SOL    HW215729   4.418   3.729   5.958
 4944SOL     OW15730   2.172   4.296   1.756
 4944SOL    HW115731   2.165   4.336   1.664
 4944SOL    HW215732   2.257   4.325   1.798
 4945SOL     OW15733   1.111   0.249   4.716
 4945SOL    HW115734   1.203   0.290   4.714
 4945SOL    HW215735   1.061   0.277   4.635
 4946SOL     OW15736   1.441   5.203   0.063
 4946SOL    HW115737   1.425   5.285   0.009
 4946SOL    HW215738   1.515   5.149   0.023
 4947SOL     OW15739   2.352   0.139   0.784
 4947SOL    HW115740   2.405   0.056   0.765
 4947SOL    HW215741   2.255   0.119   0.774
 4948SOL     OW15742   1.556   2.930   2.508
 4948SOL    HW115743   1.472   2.876   2.514
 4948SOL    HW215744   1.543   3.017   2.556
 4949SOL     OW15745   5.671   5.554   6.203
 4949SOL    HW115746   5.694   5.469   6.156
 4949SOL    HW215747   5.690   5.545   6.301
 4950SOL     OW15748   1.881   5.509   4.397
 4950SOL    HW115749   1.906   5.445   4.324
 4950SOL    HW215750   1.960   5.523   4.457
 4951SOL     OW15751   5.933   0.955   5.171
 4951SOL    HW115752   5.902   1.027   5.108
 4951SOL    HW215753   5.942   0.869   5.121
 4952SOL     OW15754   0.393   0.877   5.932
 4952SOL    HW115755   0.364   0.952   5.873
 4952SOL    HW215756   0.320   0.854   5.995
 4953SOL     OW15757   1.880   6.192   2.912
 4953SOL    HW115758   1.850   6.190   2.816
 4953SOL    HW215759   1.882   6.287   2.943
 4954SOL     OW15760   3.517   3.326   0.479
 4954SOL    HW115761   3.485   3.325   0.384
 4954SOL    HW215762   3.579   3.403   0.493
 4955SOL     OW15763   3.079   6.678   6.842
 4955SOL    HW115764   3.003   6.728   6.801
 4955SOL    HW215765   3.138   6.741   6.892
 4956SOL     OW15766   2.243   0.231   5.190
 4956SOL    HW115767   2.198   0.254   5.276
 4956SOL    HW215768   2.233   0.133   5.173
 4957SOL     OW15769   5.609   2.115   2.063
 4957SOL    HW115770   5.511   2.121   2.045
 4957SOL    HW215771   5.660   2.127   1.978
 4958SOL     OW15772   0.133   5.212   5.631
 4958SOL    HW115773   0.074   5.196   5.709
 4958SOL    HW215774   0.130   5.134   5.569
 4959SOL     OW15775   6.379   1.820   6.959
 4959SOL    HW115776   6.290   1.813   7.003
 4959SOL    HW215777   6.414   1.728   6.940
 4960SOL     OW15778   3.388   4.970   3.418
 4960SOL    HW115779   3.320   4.953   3.489
 4960SOL    HW215780   3.453   5.038   3.449
 4961SOL     OW15781   4.493   1.333   5.782
 4961SOL    HW115782   4.540   1.270   5.845
 4961SOL    HW215783   4.450   1.406   5.835
 4962SOL     OW15784   6.180   2.310   0.387
 4962SOL    HW115785   6.203   2.396   0.434
 4962SOL    HW215786   6.199   2.233   0.448
 4963SOL     OW15787   6.298   5.871   0.629
 4963SOL    HW115788   6.337   5.910   0.713
 4963SOL    HW215789   6.201   5.850   0.644
 4964SOL     OW15790   2.837   0.376   3.542
 4964SOL    HW115791   2.786   0.360   3.626
 4964SOL    HW215792   2.898   0.299   3.524
 4965SOL     OW15793   0.825   1.070   2.552
 4965SOL    HW115794   0.790   1.129   2.625
 4965SOL    HW215795   0.891   1.120   2.497
 4966SOL     OW15796   2.176   6.618   5.377
 4966SOL    HW115797   2.138   6.689   5.318
 4966SOL    HW215798   2.251   6.572   5.331
 4967SOL     OW15799   3.935   5.179   5.453
 4967SOL    HW115800   3.912   5.257   5.395
 4967SOL    HW215801   3.858   5.159   5.514
 4968SOL     OW15802   6.803   1.776   3.895
 4968SOL    HW115803   6.902   1.789   3.893
 4968SOL    HW215804   6.775   1.718   3.818
 4969SOL     OW15805   2.652   6.221   2.796
 4969SOL    HW115806   2.725   6.284   2.771
 4969SOL    HW215807   2.585   6.268   2.854
 4970SOL     OW15808   2.219   2.601   2.973
 4970SOL    HW115809   2.127   2.579   2.940
 4970SOL    HW215810   2.213   2.657   3.055
 4971SOL     OW15811   5.891   5.428   3.312
 4971SOL    HW115812   5.971   5.481   3.284
 4971SOL    HW215813   5.814   5.449   3.250
 4972SOL     OW15814   1.314   3.491   0.812
 4972SOL    HW115815   1.385   3.540   0.760
 4972SOL    HW215816   1.257   3.439   0.750
 4973SOL     OW15817   1.571   6.711   2.341
 4973SOL    HW115818   1.580   6.612   2.353
 4973SOL    HW215819   1.620   6.739   2.258
 4974SOL     OW15820   6.317   4.490   1.190
 4974SOL    HW115821   6.329   4.423   1.263
 4974SOL    HW215822   6.393   4.555   1.192
 4975SOL     OW15823   5.849   4.211   5.319
 4975SOL    HW115824   5.851   4.293   5.261
 4975SOL    HW215825   5.810   4.135   5.268
 4976SOL     OW15826   1.751   0.949   3.686
 4976SOL    HW115827   1.744   0.955   3.587
 4976SOL    HW215828   1.659   0.940   3.725
 4977SOL     OW15829   4.017   4.882   0.253
 4977SOL    HW115830   3.933   4.929   0.279
 4977SOL    HW215831   4.092   4.913   0.310
 4978SOL     OW15832   6.675   3.922   4.668
 4978SOL    HW115833   6.609   3.956   4.735
 4978SOL    HW215834   6.703   3.829   4.692
 4979SOL     OW15835   0.251   0.331   6.835
 4979SOL    HW115836   0.312   0.317   6.913
 4979SOL    HW215837   0.270   0.262   6.765
 4980SOL     OW15838   4.982   6.183   3.277
 4980SOL    HW115839   4.983   6.271   3.229
 4980SOL    HW215840   4.978   6.199   3.376
 4981SOL     OW15841   4.617   6.153   0.328
 4981SOL    HW115842   4.591   6.127   0.235
 4981SOL    HW215843   4.621   6.253   0.335
 4982SOL     OW15844   2.919   1.231   6.021
 4982SOL    HW115845   2.831   1.182   6.027
 4982SOL    HW215846   2.962   1.211   5.933
 4983SOL     OW15847   5.668   3.454   4.698
 4983SOL    HW115848   5.683   3.359   4.723
 4983SOL    HW215849   5.750   3.491   4.654
 4984SOL     OW15850   5.613   3.823   3.509
 4984SOL    HW115851   5.596   3.751   3.576
 4984SOL    HW215852   5.531   3.837   3.453
 4985SOL     OW15853   6.242   6.724   3.416
 4985SOL    HW115854   6.236   6.653   3.345
 4985SOL    HW215855   6.316   6.702   3.480
 4986SOL     OW15856   6.473   4.062   1.759
 4986SOL    HW115857   6.433   3.974   1.735
 4986SOL    HW215858   6.432   4.095   1.844
 4987SOL     OW15859   1.211   0.669   2.037
 4987SOL    HW115860   1.237   0.691   2.131
 4987SOL    HW215861   1.160   0.745   1.998
 4988SOL     OW15862   5.249   0.920   3.061
 4988SOL    HW115863   5.316   0.974   3.010
 4988SOL    HW215864   5.290   0.832   3.088
 4989SOL     OW15865   4.873   0.127   1.334
 4989SOL    HW115866   4.795   0.186   1.315
 4989SOL    HW215867   4.923   0.163   1.413
 4990SOL     OW15868   2.182   1.919   5.799
 4990SOL    HW115869   2.214   1.967   5.881
 4990SOL    HW215870   2.258   1.910   5.734
 4991SOL     OW15871   6.391   5.168   4.111
 4991SOL    HW115872   6.370   5.087   4.165
 4991SOL    HW215873   6.488   5.190   4.121
 4992SOL     OW15874   5.163   0.944   3.792
 4992SOL    HW115875   5.222   0.947   3.711
 4992SOL    HW215876   5.216   0.916   3.871
 4993SOL     OW15877   2.833   5.957   3.993
 4993SOL    HW115878   2.773   6.036   4.004
 4993SOL    HW215879   2.778   5.874   3.984
 4994SOL     OW15880   2.021   0.088   3.305
 4994SOL    HW115881   2.108   0.090   3.255
 4994SOL    HW215882   2.028   0.144   3.387
 4995SOL     OW15883   0.311   2.207   5.909
 4995SOL    HW115884   0.388   2.238   5.966
 4995SOL    HW215885   0.255   2.285   5.883
 4996SOL     OW15886   1.060   1.393   2.812
 4996SOL    HW115887   1.067   1.441   2.899
 4996SOL    HW215888   0.997   1.316   2.821
 4997SOL     OW15889   5.458   2.672   2.800
 4997SOL    HW115890   5.520   2.602   2.833
 4997SOL    HW215891   5.378   2.676   2.859
 4998SOL     OW15892   2.286   4.282   5.067
 4998SOL    HW115893   2.323   4.276   5.159
 4998SOL    HW215894   2.257   4.192   5.036
 4999SOL     OW15895   6.590   3.774   0.337
 4999SOL    HW115896   6.686   3.746   0.345
 4999SOL    HW215897   6.580   3.841   0.263
 5000SOL     OW15898   2.833   6.519   3.671
 5000SOL    HW115899   2.914   6.504   3.613
 5000SOL    HW215900   2.840   6.462   3.752
 5001SOL     OW15901   0.551   3.945   0.941
 5001SOL    HW115902   0.609   3.866   0.963
 5001SOL    HW215903   0.544   4.005   1.021
 5002SOL     OW15904   0.363   3.064   3.478
 5002SOL    HW115905   0.371   2.966   3.458
 5002SOL    HW215906   0.343   3.113   3.393
 5003SOL     OW15907   2.867   6.391   2.730
 5003SOL    HW115908   2.924   6.431   2.659
 5003SOL    HW215909   2.851   6.459   2.801
 5004SOL     OW15910   3.757   5.029   6.108
 5004SOL    HW115911   3.679   5.048   6.048
 5004SOL    HW215912   3.729   5.039   6.203
 5005SOL     OW15913   2.871   2.307   0.614
 5005SOL    HW115914   2.965   2.292   0.583
 5005SOL    HW215915   2.810   2.245   0.566
 5006SOL     OW15916   5.353   0.763   0.606
 5006SOL    HW115917   5.449   0.770   0.635
 5006SOL    HW215918   5.331   0.668   0.583
 5007SOL     OW15919   1.451   6.996   0.503
 5007SOL    HW115920   1.401   6.927   0.556
 5007SOL    HW215921   1.432   6.983   0.405
 5008SOL     OW15922   6.661   6.556   2.682
 5008SOL    HW115923   6.628   6.546   2.775
 5008SOL    HW215924   6.761   6.551   2.681
 5009SOL     OW15925   0.951   6.558   0.904
 5009SOL    HW115926   0.882   6.497   0.945
 5009SOL    HW215927   0.927   6.653   0.923
 5010SOL     OW15928   3.559   3.553   2.855
 5010SOL    HW115929   3.652   3.584   2.837
 5010SOL    HW215930   3.557   3.505   2.943
 5011SOL     OW15931   1.843   3.849   2.774
 5011SOL    HW115932   1.935   3.821   2.746
 5011SOL    HW215933   1.790   3.768   2.800
 5012SOL     OW15934   5.626   4.107   6.140
 5012SOL    HW115935   5.713   4.109   6.189
 5012SOL    HW215936   5.609   4.196   6.098
 5013SOL     OW15937   4.861   1.715   6.283
 5013SOL    HW115938   4.804   1.739   6.205
 5013SOL    HW215939   4.815   1.740   6.368
 5014SOL     OW15940   5.470   4.503   0.471
 5014SOL    HW115941   5.559   4.469   0.503
 5014SOL    HW215942   5.398   4.447   0.512
 5015SOL     OW15943   4.553   1.719   4.314
 5015SOL    HW115944   4.461   1.757   4.325
 5015SOL    HW215945   4.620   1.793   4.312
 5016SOL     OW15946   1.804   2.069   0.375
 5016SOL    HW115947   1.713   2.106   0.397
 5016SOL    HW215948   1.816   2.069   0.276
 5017SOL     OW15949   1.685   2.405   6.746
 5017SOL    HW115950   1.711   2.489   6.698
 5017SOL    HW215951   1.596   2.416   6.790
 5018SOL     OW15952   0.143   4.152   1.933
 5018SOL    HW115953   0.092   4.179   2.014
 5018SOL    HW215954   0.220   4.095   1.959
 5019SOL     OW15955   0.993   4.985   6.383
 5019SOL    HW115956   1.032   5.029   6.463
 5019SOL    HW215957   0.893   4.987   6.389
 5020SOL     OW15958   5.323   0.279   6.827
 5020SOL    HW115959   5.352   0.359   6.880
 5020SOL    HW215960   5.391   0.259   6.756
 5021SOL     OW15961   1.271   1.514   5.942
 5021SOL    HW115962   1.347   1.504   6.006
 5021SOL    HW215963   1.306   1.543   5.853
 5022SOL     OW15964   1.410   1.240   6.941
 5022SOL    HW115965   1.454   1.278   7.023
 5022SOL    HW215966   1.386   1.315   6.879
 5023SOL     OW15967   6.692   2.915   1.400
 5023SOL    HW115968   6.681   3.011   1.426
 5023SOL    HW215969   6.646   2.898   1.313
 5024SOL     OW15970   5.674   5.942   1.743
 5024SOL    HW115971   5.579   5.929   1.717
 5024SOL    HW215972   5.696   5.882   1.820
 5025SOL     OW15973   3.672   1.908   1.603
 5025SOL    HW115974   3.772   1.903   1.591
 5025SOL    HW215975   3.651   1.977   1.672
 5026SOL     OW15976   6.341   6.317   6.203
 5026SOL    HW115977   6.434   6.283   6.193
 5026SOL    HW215978   6.278   6.240   6.213
 5027SOL     OW15979   0.391   5.917   2.475
 5027SOL    HW115980   0.382   5.905   2.574
 5027SOL    HW215981   0.413   5.830   2.432
 5028SOL     OW15982   0.642   0.569   3.233
 5028SOL    HW115983   0.681   0.651   3.191
 5028SOL    HW215984   0.600   0.593   3.320
 5029SOL     OW15985   6.916   2.537   3.077
 5029SOL    HW115986   6.983   2.563   3.008
 5029SOL    HW215987   6.833   2.503   3.033
 5030SOL     OW15988   6.884   6.834   6.912
 5030SOL    HW115989   6.913   6.748   6.954
 5030SOL    HW215990   6.787   6.828   6.889
 5031SOL     OW15991   6.006   0.315   5.011
 5031SOL    HW115992   6.081   0.359   4.961
 5031SOL    HW215993   6.023   0.322   5.109
 5032SOL     OW15994   1.240   3.473   1.272
 5032SOL    HW115995   1.148   3.460   1.308
 5032SOL    HW215996   1.302   3.499   1.346
 5033SOL     OW15997   2.942   6.120   5.797
 5033SOL    HW115998   3.021   6.073   5.837
 5033SOL    HW215999   2.971   6.209   5.761
 5034SOL     OW16000   4.848   0.949   2.924
 5034SOL    HW116001   4.827   1.047   2.924
 5034SOL    HW216002   4.883   0.922   3.013
 5035SOL     OW16003   0.570   4.546   0.204
 5035SOL    HW116004   0.619   4.532   0.290
 5035SOL    HW216005   0.633   4.531   0.128
 5036SOL     OW16006   0.124   4.966   0.385
 5036SOL    HW116007   0.149   5.021   0.306
 5036SOL    HW216008   0.025   4.951   0.385
 5037SOL     OW16009   5.473   2.829   3.635
 5037SOL    HW116010   5.426   2.773   3.567
 5037SOL    HW216011   5.568   2.799   3.643
 5038SOL     OW16012   1.918   4.058   6.744
 5038SOL    HW116013   1.911   4.037   6.841
 5038SOL    HW216014   1.873   3.986   6.691
 5039SOL     OW16015   3.074   4.335   5.263
 5039SOL    HW116016   3.009   4.399   5.222
 5039SOL    HW216017   3.024   4.267   5.318
 5040SOL     OW16018   2.172   4.956   6.037
 5040SOL    HW116019   2.125   4.886   6.091
 5040SOL    HW216020   2.258   4.980   6.080
 5041SOL     OW16021   1.815   1.785   1.831
 5041SOL    HW116022   1.794   1.801   1.928
 5041SOL    HW216023   1.914   1.778   1.819
 5042SOL     OW16024   6.161   3.182   0.785
 5042SOL    HW116025   6.106   3.110   0.828
 5042SOL    HW216026   6.165   3.167   0.687
 5043SOL     OW16027   3.347   0.728   5.785
 5043SOL    HW116028   3.445   0.714   5.791
 5043SOL    HW216029   3.312   0.760   5.873
 5044SOL     OW16030   0.243   6.357   1.091
 5044SOL    HW116031   0.277   6.416   1.164
 5044SOL    HW216032   0.263   6.399   1.002
 5045SOL     OW16033   5.505   1.780   0.013
 5045SOL    HW116034   5.561   1.711   0.059
 5045SOL    HW216035   5.433   1.810   0.075
 5046SOL     OW16036   3.520   4.092   3.384
 5046SOL    HW116037   3.487   4.171   3.333
 5046SOL    HW216038   3.605   4.059   3.342
 5047SOL     OW16039   6.980   3.192   2.635
 5047SOL    HW116040   6.916   3.116   2.646
 5047SOL    HW216041   7.013   3.221   2.725
 5048SOL     OW16042   0.446   0.821   2.311
 5048SOL    HW116043   0.421   0.730   2.346
 5048SOL    HW216044   0.505   0.867   2.378
 5049SOL     OW16045   6.445   2.002   5.398
 5049SOL    HW116046   6.525   2.055   5.428
 5049SOL    HW216047   6.421   1.936   5.469
 5050SOL     OW16048   1.747   0.419   1.602
 5050SOL    HW116049   1.778   0.499   1.550
 5050SOL    HW216050   1.648   0.422   1.612
 5051SOL     OW16051   4.738   4.556   1.125
 5051SOL    HW116052   4.717   4.646   1.164
 5051SOL    HW216053   4.827   4.526   1.160
 5052SOL     OW16054   2.202   6.376   6.048
 5052SOL    HW116055   2.140   6.395   6.124
 5052SOL    HW216056   2.152   6.381   5.962
 5053SOL     OW16057   2.224   4.026   3.704
 5053SOL    HW116058   2.279   4.065   3.631
 5053SOL    HW216059   2.280   4.018   3.787
 5054SOL     OW16060   3.593   6.214   4.628
 5054SOL    HW116061   3.687   6.202   4.597
 5054SOL    HW216062   3.578   6.310   4.651
 5055SOL     OW16063   1.899   0.182   5.533
 5055SOL    HW116064   1.993   0.193   5.500
 5055SOL    HW216065   1.850   0.269   5.525
 5056SOL     OW16066   6.450   4.457   0.711
 5056SOL    HW116067   6.409   4.376   0.668
 5056SOL    HW216068   6.539   4.433   0.749
 5057SOL     OW16069   6.375   6.137   5.471
 5057SOL    HW116070   6.279   6.113   5.456
 5057SOL    HW216071   6.381   6.231   5.503
 5058SOL     OW16072   2.601   3.150   5.357
 5058SOL    HW116073   2.535   3.124   5.286
 5058SOL    HW216074   2.596   3.085   5.433
 5059SOL     OW16075   5.751   2.780   3.674
 5059SOL    HW116076   5.755   2.850   3.746
 5059SOL    HW216077   5.844   2.753   3.649
 5060SOL     OW16078   0.371   2.096   5.559
 5060SOL    HW116079   0.431   2.175   5.565
 5060SOL    HW216080   0.299   2.102   5.628
 5061SOL     OW16081   3.684   3.396   3.157
 5061SOL    HW116082   3.753   3.329   3.184
 5061SOL    HW216083   3.727   3.487   3.151
 5062SOL     OW16084   5.313   0.269   3.231
 5062SOL    HW116085   5.393   0.330   3.238
 5062SOL    HW216086   5.230   0.321   3.252
 5063SOL     OW16087   1.179   6.958   2.097
 5063SOL    HW116088   1.109   6.986   2.163
 5063SOL    HW216089   1.202   0.011   2.038
 5064SOL     OW16090   4.482   3.806   1.653
 5064SOL    HW116091   4.444   3.895   1.631
 5064SOL    HW216092   4.571   3.818   1.697
 5065SOL     OW16093   1.381   1.770   3.959
 5065SOL    HW116094   1.365   1.684   4.007
 5065SOL    HW216095   1.390   1.844   4.025
 5066SOL     OW16096   3.824   4.637   1.034
 5066SOL    HW116097   3.886   4.564   1.003
 5066SOL    HW216098   3.737   4.629   0.984
 5067SOL     OW16099   2.968   1.136   2.337
 5067SOL    HW116100   2.912   1.218   2.328
 5067SOL    HW216101   3.064   1.159   2.324
 5068SOL     OW16102   3.208   4.798   6.562
 5068SOL    HW116103   3.180   4.894   6.571
 5068SOL    HW216104   3.223   4.759   6.653
 5069SOL     OW16105   2.100   2.993   5.943
 5069SOL    HW116106   2.083   2.975   5.847
 5069SOL    HW216107   2.016   2.980   5.996
 5070SOL     OW16108   4.854   4.395   4.184
 5070SOL    HW116109   4.782   4.329   4.163
 5070SOL    HW216110   4.814   4.485   4.198
 5071SOL     OW16111   3.801   1.013   3.555
 5071SOL    HW116112   3.792   0.931   3.498
 5071SOL    HW216113   3.717   1.066   3.551
 5072SOL     OW16114   0.775   0.884   1.896
 5072SOL    HW116115   0.740   0.977   1.887
 5072SOL    HW216116   0.697   0.821   1.906
 5073SOL     OW16117   1.377   4.682   1.580
 5073SOL    HW116118   1.400   4.672   1.484
 5073SOL    HW216119   1.432   4.755   1.621
 5074SOL     OW16120   3.286   2.155   1.169
 5074SOL    HW116121   3.232   2.236   1.146
 5074SOL    HW216122   3.328   2.166   1.259
 5075SOL     OW16123   1.263   2.272   6.363
 5075SOL    HW116124   1.344   2.304   6.315
 5075SOL    HW216125   1.201   2.228   6.298
 5076SOL     OW16126   5.046   0.335   1.040
 5076SOL    HW116127   5.049   0.235   1.035
 5076SOL    HW216128   5.138   0.370   1.056
 5077SOL     OW16129   2.270   4.390   5.437
 5077SOL    HW116130   2.275   4.383   5.537
 5077SOL    HW216131   2.324   4.316   5.396
 5078SOL     OW16132   0.508   0.637   3.773
 5078SOL    HW116133   0.486   0.543   3.798
 5078SOL    HW216134   0.544   0.639   3.680
 5079SOL     OW16135   2.114   3.309   4.678
 5079SOL    HW116136   2.118   3.263   4.767
 5079SOL    HW216137   2.020   3.316   4.647
 5080SOL     OW16138   5.955   6.552   6.192
 5080SOL    HW116139   5.970   6.627   6.256
 5080SOL    HW216140   5.915   6.475   6.240
 5081SOL     OW16141   3.520   3.845   5.353
 5081SOL    HW116142   3.533   3.779   5.279
 5081SOL    HW216143   3.458   3.918   5.323
 5082SOL     OW16144   5.064   5.630   1.486
 5082SOL    HW116145   5.158   5.641   1.517
 5082SOL    HW216146   5.023   5.720   1.472
 5083SOL     OW16147   2.742   0.304   2.807
 5083SOL    HW116148   2.750   0.207   2.831
 5083SOL    HW216149   2.694   0.353   2.880
 5084SOL     OW16150   0.315   4.187   4.444
 5084SOL    HW116151   0.308   4.268   4.501
 5084SOL    HW216152   0.280   4.207   4.353
 5085SOL     OW16153   6.592   2.623   6.223
 5085SOL    HW116154   6.514   2.598   6.281
 5085SOL    HW216155   6.578   2.715   6.187
 5086SOL     OW16156   1.283   5.154   3.056
 5086SOL    HW116157   1.206   5.119   3.108
 5086SOL    HW216158   1.321   5.235   3.102
 5087SOL     OW16159   1.552   5.669   2.950
 5087SOL    HW116160   1.496   5.717   3.017
 5087SOL    HW216161   1.495   5.638   2.874
 5088SOL     OW16162   5.989   0.127   4.118
 5088SOL    HW116163   5.970   0.097   4.025
 5088SOL    HW216164   6.057   0.200   4.116
 5089SOL     OW16165   5.487   3.617   4.205
 5089SOL    HW116166   5.420   3.641   4.276
 5089SOL    HW216167   5.450   3.543   4.149
 5090SOL     OW16168   2.124   3.802   2.724
 5090SOL    HW116169   2.174   3.867   2.780
 5090SOL    HW216170   2.133   3.826   2.628
 5091SOL     OW16171   6.871   1.419   1.440
 5091SOL    HW116172   6.821   1.347   1.488
 5091SOL    HW216173   6.900   1.489   1.505
 5092SOL     OW16174   3.361   3.856   3.218
 5092SOL    HW116175   3.423   3.792   3.263
 5092SOL    HW216176   3.307   3.904   3.287
 5093SOL     OW16177   2.880   0.961   0.450
 5093SOL    HW116178   2.887   1.060   0.466
 5093SOL    HW216179   2.951   0.914   0.502
 5094SOL     OW16180   2.377   5.759   5.789
 5094SOL    HW116181   2.406   5.844   5.834
 5094SOL    HW216182   2.390   5.682   5.852
 5095SOL     OW16183   6.295   2.034   3.691
 5095SOL    HW116184   6.318   2.002   3.783
 5095SOL    HW216185   6.278   2.132   3.694
 5096SOL     OW16186   3.699   4.876   6.566
 5096SOL    HW116187   3.650   4.863   6.652
 5096SOL    HW216188   3.794   4.900   6.586
 5097SOL     OW16189   0.970   6.995   6.561
 5097SOL    HW116190   1.007   0.056   6.599
 5097SOL    HW216191   1.043   6.945   6.515
 5098SOL     OW16192   2.764   0.744   2.056
 5098SOL    HW116193   2.780   0.803   1.977
 5098SOL    HW216194   2.793   0.791   2.140
 5099SOL     OW16195   0.583   0.216   0.765
 5099SOL    HW116196   0.588   0.205   0.666
 5099SOL    HW216197   0.674   0.208   0.804
 5100SOL     OW16198   3.304   5.630   4.366
 5100SOL    HW116199   3.318   5.542   4.321
 5100SOL    HW216200   3.319   5.704   4.301
 5101SOL     OW16201   4.718   0.341   0.142
 5101SOL    HW116202   4.682   0.381   0.058
 5101SOL    HW216203   4.803   0.387   0.167
 5102SOL     OW16204   5.646   0.001   4.269
 5102SOL    HW116205   5.648   6.990   4.175
 5102SOL    HW216206   5.678   0.095   4.270
 5103SOL     OW16207   0.724   0.412   4.380
 5103SOL    HW116208   0.769   0.370   4.301
 5103SOL    HW216209   0.732   0.512   4.373
 5104SOL     OW16210   1.656   6.241   2.067
 5104SOL    HW116211   1.708   6.322   2.037
 5104SOL    HW216212   1.669   6.167   2.001
 5105SOL     OW16213   2.417   2.766   0.436
 5105SOL    HW116214   2.335   2.774   0.380
 5105SOL    HW216215   2.416   2.836   0.508
 5106SOL     OW16216   4.185   2.176   0.285
 5106SOL    HW116217   4.087   2.155   0.292
 5106SOL    HW216218   4.234   2.095   0.255
 5107SOL     OW16219   3.864   1.768   1.208
 5107SOL    HW116220   3.899   1.861   1.194
 5107SOL    HW216221   3.780   1.756   1.156
 5108SOL     OW16222   3.930   4.159   5.236
 5108SOL    HW116223   3.842   4.164   5.189
 5108SOL    HW216224   3.972   4.249   5.237
 5109SOL     OW16225   0.913   1.699   7.017
 5109SOL    HW116226   0.886   1.619   0.047
 5109SOL    HW216227   0.859   1.703   6.934
 5110SOL     OW16228   0.849   0.750   5.477
 5110SOL    HW116229   0.843   0.704   5.566
 5110SOL    HW216230   0.842   0.849   5.491
 5111SOL     OW16231   1.059   0.524   5.103
 5111SOL    HW116232   1.114   0.453   5.059
 5111SOL    HW216233   0.991   0.558   5.038
 5112SOL     OW16234   1.244   0.829   3.590
 5112SOL    HW116235   1.304   0.897   3.547
 5112SOL    HW216236   1.299   0.758   3.633
 5113SOL     OW16237   1.794   0.019   0.908
 5113SOL    HW116238   1.854   6.964   0.900
 5113SOL    HW216239   1.733   0.007   0.987
 5114SOL     OW16240   3.461   0.832   6.777
 5114SOL    HW116241   3.544   0.888   6.782
 5114SOL    HW216242   3.471   0.752   6.836
 5115SOL     OW16243   1.990   4.925   4.289
 5115SOL    HW116244   1.906   4.957   4.243
 5115SOL    HW216245   2.009   4.831   4.262
 5116SOL     OW16246   0.606   0.314   6.088
 5116SOL    HW116247   0.696   0.286   6.054
 5116SOL    HW216248   0.543   0.236   6.084
 5117SOL     OW16249   2.311   4.336   4.799
 5117SOL    HW116250   2.311   4.336   4.899
 5117SOL    HW216251   2.369   4.262   4.766
 5118SOL     OW16252   4.968   0.496   0.254
 5118SOL    HW116253   5.034   0.436   0.208
 5118SOL    HW216254   5.003   0.590   0.254
 5119SOL     OW16255   5.193   0.872   1.934
 5119SOL    HW116256   5.249   0.863   2.016
 5119SOL    HW216257   5.160   0.966   1.927
 5120SOL     OW16258   3.808   0.290   4.321
 5120SOL    HW116259   3.733   0.284   4.255
 5120SOL    HW216260   3.784   0.358   4.391
 5121SOL     OW16261   2.727   2.361   6.696
 5121SOL    HW116262   2.689   2.348   6.604
 5121SOL    HW216263   2.654   2.351   6.763
 5122SOL     OW16264   3.242   6.509   3.676
 5122SOL    HW116265   3.315   6.497   3.742
 5122SOL    HW216266   3.191   6.423   3.666
 5123SOL     OW16267   4.243   2.231   4.404
 5123SOL    HW116268   4.182   2.300   4.366
 5123SOL    HW216269   4.198   2.185   4.480
 5124SOL     OW16270   2.435   5.753   4.457
 5124SOL    HW116271   2.444   5.795   4.547
 5124SOL    HW216272   2.526   5.740   4.418
 5125SOL     OW16273   6.005   3.584   4.068
 5125SOL    HW116274   5.987   3.529   3.987
 5125SOL    HW216275   6.077   3.651   4.048
 5126SOL     OW16276   5.947   5.008   5.394
 5126SOL    HW116277   5.948   5.073   5.470
 5126SOL    HW216278   6.034   4.959   5.391
 5127SOL     OW16279   1.458   4.279   6.713
 5127SOL    HW116280   1.512   4.290   6.797
 5127SOL    HW216281   1.415   4.367   6.691
 5128SOL     OW16282   6.879   0.634   6.765
 5128SOL    HW116283   6.973   0.601   6.775
 5128SOL    HW216284   6.877   0.733   6.782
 5129SOL     OW16285   5.809   0.076   2.468
 5129SOL    HW116286   5.901   0.044   2.491
 5129SOL    HW216287   5.814   0.150   2.401
 5130SOL     OW16288   0.402   5.819   3.732
 5130SOL    HW116289   0.428   5.902   3.682
 5130SOL    HW216290   0.457   5.742   3.700
 5131SOL     OW16291   2.528   5.050   3.770
 5131SOL    HW116292   2.609   5.018   3.821
 5131SOL    HW216293   2.522   5.001   3.683
 5132SOL     OW16294   3.106   2.503   6.246
 5132SOL    HW116295   3.008   2.486   6.239
 5132SOL    HW216296   3.137   2.553   6.165
 5133SOL     OW16297   1.429   5.708   6.642
 5133SOL    HW116298   1.443   5.610   6.629
 5133SOL    HW216299   1.474   5.758   6.567
 5134SOL     OW16300   7.000   2.600   2.038
 5134SOL    HW116301   0.027   2.544   2.103
 5134SOL    HW216302   6.904   2.605   2.066
 5135SOL     OW16303   5.854   3.068   4.557
 5135SOL    HW116304   5.939   3.018   4.547
 5135SOL    HW216305   5.820   3.096   4.467
 5136SOL     OW16306   5.048   0.464   6.639
 5136SOL    HW116307   5.112   0.524   6.687
 5136SOL    HW216308   5.099   0.394   6.589
 5137SOL     OW16309   5.368   3.841   5.755
 5137SOL    HW116310   5.362   3.873   5.850
 5137SOL    HW216311   5.464   3.827   5.731
 5138SOL     OW16312   4.108   3.022   5.314
 5138SOL    HW116313   4.044   3.049   5.242
 5138SOL    HW216314   4.101   2.924   5.329
 5139SOL     OW16315   0.925   1.225   3.390
 5139SOL    HW116316   0.981   1.147   3.361
 5139SOL    HW216317   0.862   1.195   3.463
 5140SOL     OW16318   3.753   2.929   6.467
 5140SOL    HW116319   3.675   2.983   6.435
 5140SOL    HW216320   3.736   2.832   6.450
 5141SOL     OW16321   6.299   3.821   0.972
 5141SOL    HW116322   6.368   3.827   0.899
 5141SOL    HW216323   6.258   3.911   0.986
 5142SOL     OW16324   6.131   6.716   2.819
 5142SOL    HW116325   6.142   6.661   2.737
 5142SOL    HW216326   6.178   6.804   2.808
 5143SOL     OW16327   6.238   4.636   4.279
 5143SOL    HW116328   6.233   4.643   4.179
 5143SOL    HW216329   6.162   4.687   4.320
 5144SOL     OW16330   0.977   4.270   5.889
 5144SOL    HW116331   0.939   4.265   5.796
 5144SOL    HW216332   0.951   4.356   5.931
 5145SOL     OW16333   3.307   5.576   5.522
 5145SOL    HW116334   3.219   5.571   5.569
 5145SOL    HW216335   3.293   5.601   5.426
 5146SOL     OW16336   3.511   3.861   5.633
 5146SOL    HW116337   3.517   3.841   5.535
 5146SOL    HW216338   3.486   3.958   5.645
 5147SOL     OW16339   6.781   5.385   2.731
 5147SOL    HW116340   6.788   5.382   2.831
 5147SOL    HW216341   6.697   5.339   2.702
 5148SOL     OW16342   6.589   0.043   1.725
 5148SOL    HW116343   6.598   0.131   1.678
 5148SOL    HW216344   6.503   0.041   1.775
 5149SOL     OW16345   6.733   5.661   3.070
 5149SOL    HW116346   6.660   5.700   3.014
 5149SOL    HW216347   6.751   5.722   3.148
 5150SOL     OW16348   2.157   5.776   3.399
 5150SOL    HW116349   2.166   5.678   3.418
 5150SOL    HW216350   2.092   5.788   3.323
 5151SOL     OW16351   6.787   2.891   1.758
 5151SOL    HW116352   6.855   2.911   1.687
 5151SOL    HW216353   6.715   2.961   1.756
 5152SOL     OW16354   1.828   4.776   7.016
 5152SOL    HW116355   1.750   4.751   0.049
 5152SOL    HW216356   1.818   4.871   6.987
 5153SOL     OW16357   1.658   1.142   6.809
 5153SOL    HW116358   1.560   1.159   6.798
 5153SOL    HW216359   1.700   1.218   6.858
 5154SOL     OW16360   1.357   2.628   6.099
 5154SOL    HW116361   1.441   2.577   6.121
 5154SOL    HW216362   1.312   2.585   6.020
 5155SOL     OW16363   4.061   0.781   2.308
 5155SOL    HW116364   4.120   0.701   2.309
 5155SOL    HW216365   3.967   0.752   2.291
 5156SOL     OW16366   5.630   3.914   6.310
 5156SOL    HW116367   5.545   3.883   6.352
 5156SOL    HW216368   5.609   3.966   6.227
 5157SOL     OW16369   3.686   2.095   3.223
 5157SOL    HW116370   3.747   2.150   3.167
 5157SOL    HW216371   3.628   2.039   3.165
 5158SOL     OW16372   3.440   1.406   1.439
 5158SOL    HW116373   3.359   1.444   1.484
 5158SOL    HW216374   3.468   1.467   1.365
 5159SOL     OW16375   6.068   4.257   5.043
 5159SOL    HW116376   6.012   4.259   4.960
 5159SOL    HW216377   6.048   4.338   5.098
 5160SOL     OW16378   0.584   4.897   3.183
 5160SOL    HW116379   0.613   4.804   3.204
 5160SOL    HW216380   0.508   4.923   3.242
 5161SOL     OW16381   2.028   3.456   5.643
 5161SOL    HW116382   1.940   3.415   5.663
 5161SOL    HW216383   2.053   3.519   5.717
 5162SOL     OW16384   0.749   4.836   2.839
 5162SOL    HW116385   0.655   4.844   2.875
 5162SOL    HW216386   0.768   4.914   2.780
 5163SOL     OW16387   3.417   6.281   0.035
 5163SOL    HW116388   3.451   6.247   6.971
 5163SOL    HW216389   3.477   6.354   0.068
 5164SOL     OW16390   4.053   2.492   6.788
 5164SOL    HW116391   4.094   2.560   6.726
 5164SOL    HW216392   4.032   2.535   6.875
 5165SOL     OW16393   6.697   4.226   5.536
 5165SOL    HW116394   6.782   4.279   5.533
 5165SOL    HW216395   6.636   4.257   5.464
 5166SOL     OW16396   0.469   5.311   2.049
 5166SOL    HW116397   0.391   5.276   1.997
 5166SOL    HW216398   0.472   5.267   2.138
 5167SOL     OW16399   6.910   6.091   6.250
 5167SOL    HW116400   6.876   6.184   6.266
 5167SOL    HW216401   7.002   6.082   6.289
 5168SOL     OW16402   5.032   3.566   2.040
 5168SOL    HW116403   5.006   3.591   2.133
 5168SOL    HW216404   5.005   3.472   2.021
 5169SOL     OW16405   3.992   2.115   4.484
 5169SOL    HW116406   4.018   2.020   4.465
 5169SOL    HW216407   3.945   2.152   4.404
 5170SOL     OW16408   0.568   4.344   5.468
 5170SOL    HW116409   0.617   4.289   5.400
 5170SOL    HW216410   0.475   4.311   5.478
 5171SOL     OW16411   0.407   4.974   5.151
 5171SOL    HW116412   0.379   4.925   5.068
 5171SOL    HW216413   0.427   4.909   5.224
 5172SOL     OW16414   1.360   2.742   2.454
 5172SOL    HW116415   1.402   2.656   2.424
 5172SOL    HW216416   1.300   2.724   2.532
 5173SOL     OW16417   5.308   4.987   5.585
 5173SOL    HW116418   5.321   5.084   5.609
 5173SOL    HW216419   5.394   4.950   5.550
 5174SOL     OW16420   2.307   5.060   3.186
 5174SOL    HW116421   2.305   4.962   3.203
 5174SOL    HW216422   2.236   5.105   3.241
 5175SOL     OW16423   2.946   3.903   6.721
 5175SOL    HW116424   2.953   3.843   6.641
 5175SOL    HW216425   2.886   3.980   6.699
 5176SOL     OW16426   4.916   3.471   0.004
 5176SOL    HW116427   4.817   3.484   0.004
 5176SOL    HW216428   4.956   3.520   0.082
 5177SOL     OW16429   5.616   0.497   0.539
 5177SOL    HW116430   5.669   0.510   0.623
 5177SOL    HW216431   5.642   0.410   0.496
 5178SOL     OW16432   1.354   4.003   2.229
 5178SOL    HW116433   1.376   4.055   2.146
 5178SOL    HW216434   1.374   4.059   2.310
 5179SOL     OW16435   4.072   5.292   3.760
 5179SOL    HW116436   4.098   5.232   3.836
 5179SOL    HW216437   4.108   5.255   3.674
 5180SOL     OW16438   2.051   2.236   0.964
 5180SOL    HW116439   1.999   2.279   0.890
 5180SOL    HW216440   2.126   2.296   0.990
 5181SOL     OW16441   5.847   1.175   2.778
 5181SOL    HW116442   5.843   1.084   2.821
 5181SOL    HW216443   5.942   1.194   2.750
 5182SOL     OW16444   4.096   4.190   1.601
 5182SOL    HW116445   4.137   4.111   1.647
 5182SOL    HW216446   4.008   4.211   1.643
 5183SOL     OW16447   4.028   1.599   2.903
 5183SOL    HW116448   3.986   1.614   2.992
 5183SOL    HW216449   3.958   1.580   2.835
 5184SOL     OW16450   0.307   1.775   4.734
 5184SOL    HW116451   0.276   1.822   4.651
 5184SOL    HW216452   0.311   1.839   4.810
 5185SOL     OW16453   5.874   0.473   2.383
 5185SOL    HW116454   5.819   0.553   2.359
 5185SOL    HW216455   5.971   0.496   2.375
 5186SOL     OW16456   6.414   2.427   0.772
 5186SOL    HW116457   6.404   2.329   0.784
 5186SOL    HW216458   6.333   2.474   0.809
 5187SOL     OW16459   1.180   6.721   4.402
 5187SOL    HW116460   1.168   6.796   4.337
 5187SOL    HW216461   1.177   6.757   4.495
 5188SOL     OW16462   0.648   5.413   0.976
 5188SOL    HW116463   0.655   5.329   0.923
 5188SOL    HW216464   0.588   5.397   1.055
 5189SOL     OW16465   3.938   4.369   0.955
 5189SOL    HW116466   4.015   4.312   0.983
 5189SOL    HW216467   3.911   4.344   0.862
 5190SOL     OW16468   0.683   1.920   4.160
 5190SOL    HW116469   0.619   1.848   4.132
 5190SOL    HW216470   0.739   1.887   4.236
 5191SOL     OW16471   3.966   0.264   2.116
 5191SOL    HW116472   4.002   0.357   2.103
 5191SOL    HW216473   4.020   0.217   2.186
 5192SOL     OW16474   2.686   5.872   2.445
 5192SOL    HW116475   2.735   5.949   2.485
 5192SOL    HW216476   2.738   5.788   2.461
 5193SOL     OW16477   4.977   4.453   4.675
 5193SOL    HW116478   4.988   4.552   4.681
 5193SOL    HW216479   4.918   4.421   4.749
 5194SOL     OW16480   4.849   2.224   0.016
 5194SOL    HW116481   4.834   2.149   6.975
 5194SOL    HW216482   4.934   2.208   0.066
 5195SOL     OW16483   6.920   6.534   3.941
 5195SOL    HW116484   6.848   6.489   3.993
 5195SOL    HW216485   7.000   6.474   3.937
 5196SOL     OW16486   3.258   5.479   0.746
 5196SOL    HW116487   3.279   5.577   0.738
 5196SOL    HW216488   3.256   5.454   0.843
 5197SOL     OW16489   1.957   5.134   5.489
 5197SOL    HW116490   1.981   5.205   5.422
 5197SOL    HW216491   1.978   5.166   5.581
 5198SOL     OW16492   4.509   6.928   3.416
 5198SOL    HW116493   4.520   7.007   3.357
 5198SOL    HW216494   4.468   6.852   3.364
 5199SOL     OW16495   1.883   5.789   0.349
 5199SOL    HW116496   1.827   5.723   0.400
 5199SOL    HW216497   1.921   5.745   0.268
 5200SOL     OW16498   0.945   2.558   5.191
 5200SOL    HW116499   0.938   2.658   5.184
 5200SOL    HW216500   1.040   2.530   5.180
 5201SOL     OW16501   0.094   6.632   3.391
 5201SOL    HW116502   0.009   6.579   3.383
 5201SOL    HW216503   0.160   6.581   3.446
 5202SOL     OW16504   6.516   4.175   5.730
 5202SOL    HW116505   6.564   4.200   5.645
 5202SOL    HW216506   6.448   4.246   5.751
 5203SOL     OW16507   2.301   1.380   6.649
 5203SOL    HW116508   2.257   1.460   6.609
 5203SOL    HW216509   2.308   1.308   6.579
 5204SOL     OW16510   4.000   5.779   6.664
 5204SOL    HW116511   4.078   5.746   6.610
 5204SOL    HW216512   3.985   5.717   6.742
 5205SOL     OW16513   0.880   5.602   0.945
 5205SOL    HW116514   0.877   5.680   0.882
 5205SOL    HW216515   0.788   5.564   0.956
 5206SOL     OW16516   0.708   4.595   6.213
 5206SOL    HW116517   0.747   4.526   6.152
 5206SOL    HW216518   0.747   4.685   6.192
 5207SOL     OW16519   0.911   6.012   4.236
 5207SOL    HW116520   0.853   5.942   4.276
 5207SOL    HW216521   0.857   6.093   4.215
 5208SOL     OW16522   4.930   2.987   6.352
 5208SOL    HW116523   4.831   3.001   6.344
 5208SOL    HW216524   4.958   2.914   6.290
 5209SOL     OW16525   5.627   6.770   2.050
 5209SOL    HW116526   5.625   6.679   2.008
 5209SOL    HW216527   5.606   6.839   1.981
 5210SOL     OW16528   4.506   3.017   6.987
 5210SOL    HW116529   4.596   3.018   6.943
 5210SOL    HW216530   4.515   2.986   0.058
 5211SOL     OW16531   3.777   2.441   5.557
 5211SOL    HW116532   3.858   2.432   5.499
 5211SOL    HW216533   3.710   2.372   5.530
 5212SOL     OW16534   0.307   2.798   0.720
 5212SOL    HW116535   0.380   2.773   0.657
 5212SOL    HW216536   0.305   2.733   0.796
 5213SOL     OW16537   4.638   3.975   6.565
 5213SOL    HW116538   4.636   3.913   6.486
 5213SOL    HW216539   4.550   4.021   6.574
 5214SOL     OW16540   5.665   1.908   6.172
 5214SOL    HW116541   5.598   1.967   6.218
 5214SOL    HW216542   5.754   1.917   6.217
 5215SOL     OW16543   0.265   4.464   3.913
 5215SOL    HW116544   0.335   4.427   3.973
 5215SOL    HW216545   0.234   4.393   3.849
 5216SOL     OW16546   4.799   4.936   1.865
 5216SOL    HW116547   4.793   5.026   1.823
 5216SOL    HW216548   4.894   4.915   1.889
 5217SOL     OW16549   4.145   5.241   4.211
 5217SOL    HW116550   4.062   5.206   4.255
 5217SOL    HW216551   4.119   5.311   4.144
 5218SOL     OW16552   1.009   0.693   2.488
 5218SOL    HW116553   1.074   0.657   2.420
 5218SOL    HW216554   1.042   0.781   2.522
 5219SOL     OW16555   4.466   1.637   4.900
 5219SOL    HW116556   4.407   1.708   4.863
 5219SOL    HW216557   4.481   1.566   4.831
 5220SOL     OW16558   1.040   6.152   2.723
 5220SOL    HW116559   0.978   6.128   2.649
 5220SOL    HW216560   0.999   6.223   2.780
 5221SOL     OW16561   5.885   1.666   3.750
 5221SOL    HW116562   5.791   1.636   3.766
 5221SOL    HW216563   5.925   1.612   3.677
 5222SOL     OW16564   4.187   6.159   3.240
 5222SOL    HW116565   4.089   6.140   3.229
 5222SOL    HW216566   4.226   6.095   3.306
 5223SOL     OW16567   6.188   2.893   0.630
 5223SOL    HW116568   6.128   2.832   0.577
 5223SOL    HW216569   6.148   2.907   0.721
 5224SOL     OW16570   6.701   2.805   4.583
 5224SOL    HW116571   6.604   2.777   4.584
 5224SOL    HW216572   6.758   2.726   4.606
 5225SOL     OW16573   0.272   0.423   3.407
 5225SOL    HW116574   0.228   0.344   3.451
 5225SOL    HW216575   0.241   0.507   3.450
 5226SOL     OW16576   6.707   6.614   4.770
 5226SOL    HW116577   6.732   6.601   4.866
 5226SOL    HW216578   6.633   6.551   4.746
 5227SOL     OW16579   0.144   3.801   5.156
 5227SOL    HW116580   0.091   3.732   5.107
 5227SOL    HW216581   0.158   3.772   5.250
 5228SOL     OW16582   6.090   2.196   1.100
 5228SOL    HW116583   6.135   2.271   1.147
 5228SOL    HW216584   6.055   2.227   1.012
 5229SOL     OW16585   2.063   6.113   0.011
 5229SOL    HW116586   2.018   6.077   0.093
 5229SOL    HW216587   2.160   6.087   0.013
 5230SOL     OW16588   0.706   5.533   1.763
 5230SOL    HW116589   0.689   5.526   1.861
 5230SOL    HW216590   0.796   5.495   1.742
 5231SOL     OW16591   4.739   2.823   4.801
 5231SOL    HW116592   4.807   2.753   4.821
 5231SOL    HW216593   4.696   2.853   4.886
 5232SOL     OW16594   2.476   3.390   6.080
 5232SOL    HW116595   2.543   3.364   6.150
 5232SOL    HW216596   2.512   3.368   5.990
 5233SOL     OW16597   4.652   1.035   2.055
 5233SOL    HW116598   4.695   1.097   2.121
 5233SOL    HW216599   4.625   1.087   1.974
 5234SOL     OW16600   2.842   1.515   6.033
 5234SOL    HW116601   2.859   1.424   6.072
 5234SOL    HW216602   2.744   1.533   6.033
 5235SOL     OW16603   1.744   2.717   1.114
 5235SOL    HW116604   1.785   2.793   1.164
 5235SOL    HW216605   1.811   2.676   1.053
 5236SOL     OW16606   5.116   4.951   2.049
 5236SOL    HW116607   5.177   4.916   2.121
 5236SOL    HW216608   5.048   5.012   2.090
 5237SOL     OW16609   1.626   1.116   4.878
 5237SOL    HW116610   1.685   1.090   4.801
 5237SOL    HW216611   1.682   1.138   4.957
 5238SOL     OW16612   0.386   4.526   6.953
 5238SOL    HW116613   0.438   4.559   6.874
 5238SOL    HW216614   0.360   4.431   6.939
 5239SOL     OW16615   3.022   3.136   4.512
 5239SOL    HW116616   3.040   3.210   4.447
 5239SOL    HW216617   2.926   3.111   4.509
 5240SOL     OW16618   3.102   1.960   5.758
 5240SOL    HW116619   3.050   1.876   5.742
 5240SOL    HW216620   3.153   1.984   5.675
 5241SOL     OW16621   0.512   5.521   4.819
 5241SOL    HW116622   0.522   5.605   4.872
 5241SOL    HW216623   0.442   5.463   4.861
 5242SOL     OW16624   6.818   6.352   6.226
 5242SOL    HW116625   6.884   6.390   6.160
 5242SOL    HW216626   6.843   6.381   6.318
 5243SOL     OW16627   1.202   5.444   1.490
 5243SOL    HW116628   1.173   5.388   1.413
 5243SOL    HW216629   1.206   5.389   1.573
 5244SOL     OW16630   3.384   5.339   6.934
 5244SOL    HW116631   3.348   5.248   6.914
 5244SOL    HW216632   3.335   5.378   7.013
 5245SOL     OW16633   3.944   4.825   7.023
 5245SOL    HW116634   3.986   4.820   0.090
 5245SOL    HW216635   3.846   4.839   0.008
 5246SOL     OW16636   5.427   3.555   1.908
 5246SOL    HW116637   5.347   3.613   1.893
 5246SOL    HW216638   5.485   3.597   1.978
 5247SOL     OW16639   1.807   0.670   6.744
 5247SOL    HW116640   1.775   0.746   6.800
 5247SOL    HW216641   1.852   0.602   6.802
 5248SOL     OW16642   5.742   1.514   3.486
 5248SOL    HW116643   5.682   1.435   3.496
 5248SOL    HW216644   5.834   1.490   3.517
 5249SOL     OW16645   6.892   5.219   5.736
 5249SOL    HW116646   6.860   5.259   5.650
 5249SOL    HW216647   6.817   5.221   5.802
 5250SOL     OW16648   2.076   5.954   5.892
 5250SOL    HW116649   2.130   6.015   5.834
 5250SOL    HW216650   2.136   5.887   5.936
 5251SOL     OW16651   0.519   3.510   7.005
 5251SOL    HW116652   0.536   3.536   6.910
 5251SOL    HW216653   0.421   3.509   7.022
 5252SOL     OW16654   1.512   6.371   0.578
 5252SOL    HW116655   1.506   6.301   0.506
 5252SOL    HW216656   1.606   6.377   0.611
 5253SOL     OW16657   5.946   4.844   4.609
 5253SOL    HW116658   6.016   4.903   4.648
 5253SOL    HW216659   5.916   4.777   4.677
 5254SOL     OW16660   4.250   1.121   3.188
 5254SOL    HW116661   4.336   1.085   3.154
 5254SOL    HW216662   4.261   1.219   3.209
 5255SOL     OW16663   5.653   1.034   5.529
 5255SOL    HW116664   5.712   1.115   5.519
 5255SOL    HW216665   5.590   1.048   5.605
 5256SOL     OW16666   4.014   1.357   3.627
 5256SOL    HW116667   4.102   1.351   3.672
 5256SOL    HW216668   3.941   1.333   3.691
 5257SOL     OW16669   5.913   6.786   2.045
 5257SOL    HW116670   5.922   6.859   1.978
 5257SOL    HW216671   5.821   6.747   2.040
 5258SOL     OW16672   5.828   3.247   1.869
 5258SOL    HW116673   5.879   3.310   1.929
 5258SOL    HW216674   5.889   3.176   1.836
 5259SOL     OW16675   5.657   6.513   1.964
 5259SOL    HW116676   5.656   6.494   1.866
 5259SOL    HW216677   5.691   6.432   2.013
 5260SOL     OW16678   5.212   3.548   1.111
 5260SOL    HW116679   5.174   3.456   1.098
 5260SOL    HW216680   5.163   3.594   1.185
 5261SOL     OW16681   0.839   4.141   6.749
 5261SOL    HW116682   0.748   4.101   6.751
 5261SOL    HW216683   0.895   4.102   6.822
 5262SOL     OW16684   2.618   0.698   2.970
 5262SOL    HW116685   2.643   0.794   2.958
 5262SOL    HW216686   2.585   0.683   3.063
 5263SOL     OW16687   1.309   1.877   4.377
 5263SOL    HW116688   1.242   1.839   4.442
 5263SOL    HW216689   1.381   1.924   4.427
 5264SOL     OW16690   6.426   2.639   2.820
 5264SOL    HW116691   6.525   2.645   2.803
 5264SOL    HW216692   6.377   2.635   2.733
 5265SOL     OW16693   6.579   3.793   3.953
 5265SOL    HW116694   6.632   3.805   4.037
 5265SOL    HW216695   6.496   3.741   3.973
 5266SOL     OW16696   2.783   5.313   0.558
 5266SOL    HW116697   2.754   5.322   0.653
 5266SOL    HW216698   2.731   5.376   0.501
 5267SOL     OW16699   5.188   3.845   5.079
 5267SOL    HW116700   5.107   3.858   5.022
 5267SOL    HW216701   5.177   3.761   5.133
 5268SOL     OW16702   5.485   0.466   6.947
 5268SOL    HW116703   5.453   0.493   0.013
 5268SOL    HW216704   5.556   0.396   6.956
 5269SOL     OW16705   1.391   6.594   3.750
 5269SOL    HW116706   1.418   6.634   3.838
 5269SOL    HW216707   1.294   6.569   3.753
 5270SOL     OW16708   5.811   1.353   1.238
 5270SOL    HW116709   5.885   1.368   1.304
 5270SOL    HW216710   5.778   1.259   1.244
 5271SOL     OW16711   5.764   5.441   4.669
 5271SOL    HW116712   5.758   5.420   4.766
 5271SOL    HW216713   5.708   5.376   4.617
 5272SOL     OW16714   2.998   5.321   2.135
 5272SOL    HW116715   3.000   5.271   2.221
 5272SOL    HW216716   3.041   5.266   2.063
 5273SOL     OW16717   6.844   2.846   3.812
 5273SOL    HW116718   6.747   2.847   3.790
 5273SOL    HW216719   6.889   2.926   3.771
 5274SOL     OW16720   6.566   6.823   2.873
 5274SOL    HW116721   6.529   6.864   2.956
 5274SOL    HW216722   6.536   6.728   2.866
 5275SOL     OW16723   3.564   2.185   0.881
 5275SOL    HW116724   3.574   2.283   0.900
 5275SOL    HW216725   3.468   2.163   0.865
 5276SOL     OW16726   1.984   0.391   0.962
 5276SOL    HW116727   2.055   0.458   0.980
 5276SOL    HW216728   1.917   0.392   1.036
 5277SOL     OW16729   1.273   1.625   2.732
 5277SOL    HW116730   1.224   1.580   2.658
 5277SOL    HW216731   1.213   1.634   2.811
 5278SOL     OW16732   5.740   0.341   3.308
 5278SOL    HW116733   5.646   0.375   3.306
 5278SOL    HW216734   5.747   0.261   3.247
 5279SOL     OW16735   2.091   5.002   5.776
 5279SOL    HW116736   2.155   5.047   5.715
 5279SOL    HW216737   2.140   4.965   5.855
 5280SOL     OW16738   2.720   5.764   4.900
 5280SOL    HW116739   2.694   5.714   4.817
 5280SOL    HW216740   2.697   5.861   4.888
 5281SOL     OW16741   0.744   1.614   2.575
 5281SOL    HW116742   0.821   1.561   2.540
 5281SOL    HW216743   0.739   1.701   2.527
 5282SOL     OW16744   2.250   2.095   3.028
 5282SOL    HW116745   2.240   2.141   3.116
 5282SOL    HW216746   2.170   2.114   2.970
 5283SOL     OW16747   3.918   6.697   1.550
 5283SOL    HW116748   3.995   6.632   1.546
 5283SOL    HW216749   3.953   6.790   1.546
 5284SOL     OW16750   4.998   3.755   3.294
 5284SOL    HW116751   4.944   3.672   3.282
 5284SOL    HW216752   5.070   3.739   3.361
 5285SOL     OW16753   2.662   5.181   3.379
 5285SOL    HW116754   2.703   5.170   3.470
 5285SOL    HW216755   2.633   5.276   3.366
 5286SOL     OW16756   1.675   4.225   0.402
 5286SOL    HW116757   1.733   4.144   0.405
 5286SOL    HW216758   1.731   4.307   0.387
 5287SOL     OW16759   2.833   6.380   1.184
 5287SOL    HW116760   2.904   6.447   1.163
 5287SOL    HW216761   2.812   6.383   1.282
 5288SOL     OW16762   3.715   0.250   1.427
 5288SOL    HW116763   3.628   0.280   1.464
 5288SOL    HW216764   3.737   0.159   1.462
 5289SOL     OW16765   1.707   4.486   5.994
 5289SOL    HW116766   1.764   4.404   5.998
 5289SOL    HW216767   1.671   4.497   5.901
 5290SOL     OW16768   1.769   5.260   5.114
 5290SOL    HW116769   1.753   5.247   5.016
 5290SOL    HW216770   1.789   5.172   5.157
 5291SOL     OW16771   2.511   5.244   5.821
 5291SOL    HW116772   2.508   5.147   5.800
 5291SOL    HW216773   2.442   5.292   5.767
 5292SOL     OW16774   6.426   3.163   6.852
 5292SOL    HW116775   6.358   3.132   6.919
 5292SOL    HW216776   6.518   3.142   6.886
 5293SOL     OW16777   0.684   0.067   4.712
 5293SOL    HW116778   0.757   7.024   4.726
 5293SOL    HW216779   0.723   0.159   4.712
 5294SOL     OW16780   4.491   3.421   5.838
 5294SOL    HW116781   4.454   3.398   5.748
 5294SOL    HW216782   4.441   3.497   5.877
 5295SOL     OW16783   5.187   0.860   2.579
 5295SOL    HW116784   5.253   0.792   2.547
 5295SOL    HW216785   5.116   0.872   2.509
 5296SOL     OW16786   2.163   5.113   0.263
 5296SOL    HW116787   2.171   5.197   0.316
 5296SOL    HW216788   2.195   5.129   0.170
 5297SOL     OW16789   3.100   2.332   1.172
 5297SOL    HW116790   3.077   2.358   1.266
 5297SOL    HW216791   3.062   2.399   1.109
 5298SOL     OW16792   0.885   5.540   0.227
 5298SOL    HW116793   0.974   5.578   0.254
 5298SOL    HW216794   0.890   5.440   0.229
 5299SOL     OW16795   2.180   2.498   1.043
 5299SOL    HW116796   2.206   2.497   1.140
 5299SOL    HW216797   2.091   2.543   1.033
 5300SOL     OW16798   0.209   6.149   1.949
 5300SOL    HW116799   0.172   6.142   2.041
 5300SOL    HW216800   0.211   6.058   1.907
 5301SOL     OW16801   4.314   2.720   0.751
 5301SOL    HW116802   4.267   2.654   0.691
 5301SOL    HW216803   4.409   2.727   0.724
 5302SOL     OW16804   6.131   4.040   2.777
 5302SOL    HW116805   6.049   3.995   2.741
 5302SOL    HW216806   6.190   3.971   2.819
 5303SOL     OW16807   6.760   6.081   3.063
 5303SOL    HW116808   6.707   6.112   2.984
 5303SOL    HW216809   6.719   5.997   3.100
 5304SOL     OW16810   6.716   2.039   5.746
 5304SOL    HW116811   6.715   2.099   5.666
 5304SOL    HW216812   6.807   1.999   5.757
 5305SOL     OW16813   1.387   6.410   4.734
 5305SOL    HW116814   1.378   6.336   4.801
 5305SOL    HW216815   1.426   6.374   4.649
 5306SOL     OW16816   0.240   6.224   5.010
 5306SOL    HW116817   0.311   6.288   5.041
 5306SOL    HW216818   0.202   6.255   4.923
 5307SOL     OW16819   4.318   0.170   0.026
 5307SOL    HW116820   4.363   0.085   0.051
 5307SOL    HW216821   4.315   0.231   0.106
 5308SOL     OW16822   1.120   6.426   4.680
 5308SOL    HW116823   1.101   6.392   4.588
 5308SOL    HW216824   1.217   6.450   4.686
 5309SOL     OW16825   3.187   4.045   2.290
 5309SOL    HW116826   3.169   4.024   2.194
 5309SOL    HW216827   3.103   4.079   2.332
 5310SOL     OW16828   5.201   2.539   2.010
 5310SOL    HW116829   5.137   2.579   1.945
 5310SOL    HW216830   5.294   2.569   1.988
 5311SOL     OW16831   0.215   5.766   0.917
 5311SOL    HW116832   0.226   5.769   1.017
 5311SOL    HW216833   0.257   5.848   0.877
 5312SOL     OW16834   0.260   4.156   2.444
 5312SOL    HW116835   0.220   4.118   2.528
 5312SOL    HW216836   0.225   4.248   2.429
 5313SOL     OW16837   1.127   4.664   6.809
 5313SOL    HW116838   1.064   4.740   6.797
 5313SOL    HW216839   1.075   4.579   6.820
 5314SOL     OW16840   3.321   5.103   0.215
 5314SOL    HW116841   3.235   5.103   0.165
 5314SOL    HW216842   3.304   5.080   0.310
 5315SOL     OW16843   3.933   3.772   1.543
 5315SOL    HW116844   4.005   3.829   1.582
 5315SOL    HW216845   3.923   3.792   1.445
 5316SOL     OW16846   6.898   5.020   5.397
 5316SOL    HW116847   6.989   4.999   5.433
 5316SOL    HW216848   6.871   4.950   5.332
 5317SOL     OW16849   6.777   0.725   4.928
 5317SOL    HW116850   6.782   0.818   4.966
 5317SOL    HW216851   6.869   0.694   4.903
 5318SOL     OW16852   0.634   1.565   5.716
 5318SOL    HW116853   0.592   1.475   5.731
 5318SOL    HW216854   0.562   1.634   5.709
 5319SOL     OW16855   4.730   6.471   6.669
 5319SOL    HW116856   4.640   6.502   6.700
 5319SOL    HW216857   4.743   6.375   6.696
 5320SOL     OW16858   5.809   5.331   6.707
 5320SOL    HW116859   5.780   5.338   6.612
 5320SOL    HW216860   5.729   5.331   6.767
 5321SOL     OW16861   0.886   4.011   2.942
 5321SOL    HW116862   0.947   4.058   2.878
 5321SOL    HW216863   0.917   4.027   3.036
 5322SOL     OW16864   3.836   6.245   5.958
 5322SOL    HW116865   3.807   6.325   5.907
 5322SOL    HW216866   3.877   6.273   6.045
 5323SOL     OW16867   4.215   3.489   0.636
 5323SOL    HW116868   4.188   3.408   0.584
 5323SOL    HW216869   4.281   3.464   0.706
 5324SOL     OW16870   3.653   2.642   1.756
 5324SOL    HW116871   3.710   2.641   1.674
 5324SOL    HW216872   3.625   2.549   1.778
 5325SOL     OW16873   5.814   6.423   3.686
 5325SOL    HW116874   5.828   6.449   3.591
 5325SOL    HW216875   5.902   6.407   3.730
 5326SOL     OW16876   6.903   5.036   3.128
 5326SOL    HW116877   6.915   5.120   3.075
 5326SOL    HW216878   6.898   5.058   3.225
 5327SOL     OW16879   6.588   5.105   5.591
 5327SOL    HW116880   6.653   5.179   5.575
 5327SOL    HW216881   6.516   5.137   5.652
 5328SOL     OW16882   4.697   2.546   5.533
 5328SOL    HW116883   4.680   2.632   5.582
 5328SOL    HW216884   4.768   2.562   5.464
 5329SOL     OW16885   0.723   4.099   0.057
 5329SOL    HW116886   0.674   4.145   0.132
 5329SOL    HW216887   0.662   4.090   7.003
 5330SOL     OW16888   3.509   4.891   6.753
 5330SOL    HW116889   3.517   4.793   6.734
 5330SOL    HW216890   3.559   4.912   6.837
 5331SOL     OW16891   5.347   1.459   1.769
 5331SOL    HW116892   5.416   1.507   1.823
 5331SOL    HW216893   5.287   1.526   1.725
 5332SOL     OW16894   6.418   4.204   0.596
 5332SOL    HW116895   6.487   4.137   0.624
 5332SOL    HW216896   6.394   4.189   0.500
 5333SOL     OW16897   1.183   0.485   3.688
 5333SOL    HW116898   1.145   0.538   3.613
 5333SOL    HW216899   1.279   0.509   3.701
 5334SOL     OW16900   3.691   5.087   5.534
 5334SOL    HW116901   3.681   4.988   5.540
 5334SOL    HW216902   3.667   5.128   5.621
 5335SOL     OW16903   0.258   4.888   2.574
 5335SOL    HW116904   0.324   4.950   2.532
 5335SOL    HW216905   0.304   4.804   2.602
 5336SOL     OW16906   2.192   2.155   3.545
 5336SOL    HW116907   2.131   2.079   3.569
 5336SOL    HW216908   2.164   2.237   3.595
 5337SOL     OW16909   5.367   4.446   1.823
 5337SOL    HW116910   5.445   4.508   1.814
 5337SOL    HW216911   5.378   4.369   1.761
 5338SOL     OW16912   6.143   1.350   6.361
 5338SOL    HW116913   6.074   1.315   6.298
 5338SOL    HW216914   6.230   1.363   6.313
 5339SOL     OW16915   5.385   1.673   3.152
 5339SOL    HW116916   5.295   1.630   3.151
 5339SOL    HW216917   5.454   1.608   3.120
 5340SOL     OW16918   6.092   4.306   1.340
 5340SOL    HW116919   6.046   4.217   1.344
 5340SOL    HW216920   6.044   4.370   1.400
 5341SOL     OW16921   3.072   4.955   5.114
 5341SOL    HW116922   2.987   4.942   5.061
 5341SOL    HW216923   3.084   4.877   5.175
 5342SOL     OW16924   5.460   6.226   4.675
 5342SOL    HW116925   5.487   6.282   4.753
 5342SOL    HW216926   5.522   6.242   4.598
 5343SOL     OW16927   4.012   3.351   4.673
 5343SOL    HW116928   3.991   3.321   4.580
 5343SOL    HW216929   3.989   3.278   4.737
 5344SOL     OW16930   0.683   1.726   0.708
 5344SOL    HW116931   0.598   1.764   0.744
 5344SOL    HW216932   0.760   1.761   0.762
 5345SOL     OW16933   5.069   0.049   0.215
 5345SOL    HW116934   5.037   6.988   0.257
 5345SOL    HW216935   5.168   0.057   0.228
 5346SOL     OW16936   3.322   5.660   3.804
 5346SOL    HW116937   3.388   5.735   3.800
 5346SOL    HW216938   3.249   5.676   3.737
 5347SOL     OW16939   6.659   4.030   3.116
 5347SOL    HW116940   6.684   4.119   3.079
 5347SOL    HW216941   6.730   3.999   3.180
 5348SOL     OW16942   0.277   1.546   6.703
 5348SOL    HW116943   0.271   1.451   6.735
 5348SOL    HW216944   0.370   1.580   6.719
 5349SOL     OW16945   2.651   3.620   0.762
 5349SOL    HW116946   2.678   3.637   0.668
 5349SOL    HW216947   2.709   3.549   0.801
 5350SOL     OW16948   2.138   6.988   5.471
 5350SOL    HW116949   2.067   6.926   5.436
 5350SOL    HW216950   2.227   6.962   5.433
 5351SOL     OW16951   0.015   5.743   2.053
 5351SOL    HW116952   7.020   5.712   2.146
 5351SOL    HW216953   6.985   5.689   1.988
 5352SOL     OW16954   2.040   5.051   3.015
 5352SOL    HW116955   2.005   5.110   3.088
 5352SOL    HW216956   2.134   5.024   3.037
 5353SOL     OW16957   3.691   6.208   3.996
 5353SOL    HW116958   3.757   6.175   4.063
 5353SOL    HW216959   3.740   6.240   3.915
 5354SOL     OW16960   1.913   4.710   0.729
 5354SOL    HW116961   2.002   4.681   0.765
 5354SOL    HW216962   1.878   4.639   0.668
 5355SOL     OW16963   6.159   5.179   3.975
 5355SOL    HW116964   6.236   5.172   4.039
 5355SOL    HW216965   6.150   5.094   3.924
 5356SOL     OW16966   6.897   3.731   2.439
 5356SOL    HW116967   6.925   3.748   2.345
 5356SOL    HW216968   6.958   3.662   2.479
 5357SOL     OW16969   3.595   4.643   0.826
 5357SOL    HW116970   3.541   4.726   0.836
 5357SOL    HW216971   3.539   4.572   0.784
 5358SOL     OW16972   4.646   2.600   1.239
 5358SOL    HW116973   4.567   2.596   1.301
 5358SOL    HW216974   4.618   2.575   1.147
 5359SOL     OW16975   2.553   1.828   6.164
 5359SOL    HW116976   2.621   1.790   6.226
 5359SOL    HW216977   2.597   1.888   6.098
 5360SOL     OW16978   4.811   5.961   3.596
 5360SOL    HW116979   4.836   6.031   3.663
 5360SOL    HW216980   4.742   5.998   3.533
 5361SOL     OW16981   2.102   6.658   4.101
 5361SOL    HW116982   2.184   6.702   4.138
 5361SOL    HW216983   2.078   6.580   4.159
 5362SOL     OW16984   6.584   5.757   2.282
 5362SOL    HW116985   6.620   5.834   2.335
 5362SOL    HW216986   6.584   5.780   2.185
 5363SOL     OW16987   5.612   6.007   6.055
 5363SOL    HW116988   5.684   5.938   6.052
 5363SOL    HW216989   5.530   5.969   6.098
 5364SOL     OW16990   6.159   6.604   1.682
 5364SOL    HW116991   6.241   6.548   1.672
 5364SOL    HW216992   6.124   6.597   1.775
 5365SOL     OW16993   2.996   3.156   2.234
 5365SOL    HW116994   3.047   3.085   2.283
 5365SOL    HW216995   2.983   3.128   2.138
 5366SOL     OW16996   6.625   6.454   2.031
 5366SOL    HW116997   6.678   6.503   2.101
 5366SOL    HW216998   6.684   6.390   1.983
 5367SOL     OW16999   0.489   6.745   1.300
 5367SOL    HW117000   0.576   6.764   1.346
 5367SOL    HW217001   0.414   6.759   1.364
 5368SOL     OW17002   6.311   6.934   2.729
 5368SOL    HW117003   6.336   6.873   2.654
 5368SOL    HW217004   6.371   7.015   2.726
 5369SOL     OW17005   2.755   6.297   0.798
 5369SOL    HW117006   2.813   6.322   0.876
 5369SOL    HW217007   2.742   6.198   0.798
 5370SOL     OW17008   4.246   3.834   0.926
 5370SOL    HW117009   4.267   3.899   0.853
 5370SOL    HW217010   4.330   3.811   0.975
 5371SOL     OW17011   0.274   5.173   5.280
 5371SOL    HW117012   0.315   5.100   5.226
 5371SOL    HW217013   0.244   5.247   5.219
 5372SOL     OW17014   1.083   6.465   2.973
 5372SOL    HW117015   0.994   6.507   2.988
 5372SOL    HW217016   1.096   6.447   2.876
 5373SOL     OW17017   4.001   6.806   5.264
 5373SOL    HW117018   4.061   6.782   5.341
 5373SOL    HW217019   4.002   6.732   5.197
 5374SOL     OW17020   2.220   4.933   0.902
 5374SOL    HW117021   2.311   4.922   0.941
 5374SOL    HW217022   2.191   5.028   0.911
 5375SOL     OW17023   0.150   5.711   5.867
 5375SOL    HW117024   0.153   5.746   5.960
 5375SOL    HW217025   0.204   5.770   5.807
 5376SOL     OW17026   1.466   2.268   1.388
 5376SOL    HW117027   1.427   2.267   1.296
 5376SOL    HW217028   1.525   2.349   1.398
 5377SOL     OW17029   0.848   0.259   2.817
 5377SOL    HW117030   0.750   0.251   2.800
 5377SOL    HW217031   0.896   0.275   2.731
 5378SOL     OW17032   0.093   0.074   2.546
 5378SOL    HW117033   0.073   0.152   2.606
 5378SOL    HW217034   0.185   0.084   2.507
 5379SOL     OW17035   0.841   3.166   4.628
 5379SOL    HW117036   0.792   3.156   4.715
 5379SOL    HW217037   0.865   3.262   4.614
 5380SOL     OW17038   2.697   6.920   1.440
 5380SOL    HW117039   2.722   6.850   1.373
 5380SOL    HW217040   2.707   6.882   1.532
 5381SOL     OW17041   0.099   6.073   2.162
 5381SOL    HW117042   0.169   6.090   2.232
 5381SOL    HW217043   0.013   6.049   2.207
 5382SOL     OW17044   3.045   2.135   2.098
 5382SOL    HW117045   2.996   2.219   2.073
 5382SOL    HW217046   2.981   2.070   2.139
 5383SOL     OW17047   1.512   2.950   4.856
 5383SOL    HW117048   1.442   2.942   4.785
 5383SOL    HW217049   1.575   3.025   4.833
 5384SOL     OW17050   5.018   6.141   4.565
 5384SOL    HW117051   4.996   6.235   4.591
 5384SOL    HW217052   4.935   6.085   4.570
 5385SOL     OW17053   4.902   3.104   5.526
 5385SOL    HW117054   4.987   3.086   5.475
 5385SOL    HW217055   4.893   3.037   5.599
 5386SOL     OW17056   5.631   1.564   3.941
 5386SOL    HW117057   5.699   1.575   4.013
 5386SOL    HW217058   5.602   1.468   3.935
 5387SOL     OW17059   2.292   6.517   2.984
 5387SOL    HW117060   2.301   6.420   2.963
 5387SOL    HW217061   2.373   6.549   3.034
 5388SOL     OW17062   0.991   0.225   2.591
 5388SOL    HW117063   1.081   0.195   2.622
 5388SOL    HW217064   0.977   0.195   2.497
 5389SOL     OW17065   3.734   1.493   4.873
 5389SOL    HW117066   3.804   1.492   4.802
 5389SOL    HW217067   3.763   1.554   4.947
 5390SOL     OW17068   5.754   4.055   3.388
 5390SOL    HW117069   5.665   4.009   3.386
 5390SOL    HW217070   5.799   4.036   3.475
 5391SOL     OW17071   2.197   1.885   0.444
 5391SOL    HW117072   2.099   1.864   0.452
 5391SOL    HW217073   2.245   1.850   0.524
 5392SOL     OW17074   5.409   4.090   0.724
 5392SOL    HW117075   5.434   4.002   0.685
 5392SOL    HW217076   5.354   4.076   0.806
 5393SOL     OW17077   4.891   1.057   5.009
 5393SOL    HW117078   4.938   0.968   5.010
 5393SOL    HW217079   4.793   1.043   5.026
 5394SOL     OW17080   0.947   5.470   1.186
 5394SOL    HW117081   0.933   5.507   1.094
 5394SOL    HW217082   1.021   5.403   1.184
 5395SOL     OW17083   4.964   0.456   1.407
 5395SOL    HW117084   4.928   0.413   1.325
 5395SOL    HW217085   4.889   0.478   1.469
 5396SOL     OW17086   5.821   4.974   1.845
 5396SOL    HW117087   5.900   4.920   1.876
 5396SOL    HW217088   5.763   4.917   1.788
 5397SOL     OW17089   6.966   1.885   2.163
 5397SOL    HW117090   6.993   1.843   2.250
 5397SOL    HW217091   6.960   1.815   2.093
 5398SOL     OW17092   3.182   2.127   4.045
 5398SOL    HW117093   3.136   2.055   4.097
 5398SOL    HW217094   3.127   2.210   4.047
 5399SOL     OW17095   2.636   6.724   6.323
 5399SOL    HW117096   2.690   6.778   6.388
 5399SOL    HW217097   2.686   6.641   6.299
 5400SOL     OW17098   3.321   3.716   0.321
 5400SOL    HW117099   3.385   3.691   0.394
 5400SOL    HW217100   3.333   3.654   0.244
 5401SOL     OW17101   5.752   4.141   2.022
 5401SOL    HW117102   5.726   4.058   2.072
 5401SOL    HW217103   5.679   4.209   2.033
 5402SOL     OW17104   2.762   6.729   1.226
 5402SOL    HW117105   2.774   6.784   1.143
 5402SOL    HW217106   2.710   6.646   1.204
 5403SOL     OW17107   5.040   3.531   6.206
 5403SOL    HW117108   5.042   3.447   6.152
 5403SOL    HW217109   4.946   3.560   6.220
 5404SOL     OW17110   0.615   0.260   1.458
 5404SOL    HW117111   0.712   0.253   1.437
 5404SOL    HW217112   0.599   0.237   1.554
 5405SOL     OW17113   5.784   4.789   6.692
 5405SOL    HW117114   5.742   4.699   6.708
 5405SOL    HW217115   5.831   4.788   6.604
 5406SOL     OW17116   2.109   1.002   5.058
 5406SOL    HW117117   2.145   1.085   5.100
 5406SOL    HW217118   2.096   1.017   4.960
 5407SOL     OW17119   3.490   1.869   0.887
 5407SOL    HW117120   3.498   1.893   0.984
 5407SOL    HW217121   3.419   1.926   0.845
 5408SOL     OW17122   4.114   0.852   5.052
 5408SOL    HW117123   4.164   0.939   5.044
 5408SOL    HW217124   4.172   0.785   5.099
 5409SOL     OW17125   6.484   1.568   2.838
 5409SOL    HW117126   6.546   1.501   2.797
 5409SOL    HW217127   6.402   1.576   2.782
 5410SOL     OW17128   0.966   2.293   6.620
 5410SOL    HW117129   0.969   2.227   6.545
 5410SOL    HW217130   1.044   2.355   6.613
 5411SOL     OW17131   5.450   5.379   6.442
 5411SOL    HW117132   5.362   5.407   6.479
 5411SOL    HW217133   5.441   5.361   6.344
 5412SOL     OW17134   3.053   1.317   6.519
 5412SOL    HW117135   3.139   1.271   6.499
 5412SOL    HW217136   3.046   1.333   6.618
 5413SOL     OW17137   0.630   6.867   6.902
 5413SOL    HW117138   0.669   6.837   6.990
 5413SOL    HW217139   0.690   6.935   6.861
 5414SOL     OW17140   6.178   4.996   4.597
 5414SOL    HW117141   6.214   4.906   4.573
 5414SOL    HW217142   6.232   5.066   4.552
 5415SOL     OW17143   2.535   6.380   1.063
 5415SOL    HW117144   2.629   6.381   1.097
 5415SOL    HW217145   2.527   6.312   0.991
 5416SOL     OW17146   2.789   4.907   5.050
 5416SOL    HW117147   2.815   4.810   5.051
 5416SOL    HW217148   2.758   4.932   4.958
 5417SOL     OW17149   3.850   0.146   4.969
 5417SOL    HW117150   3.929   0.154   4.909
 5417SOL    HW217151   3.822   0.050   4.975
 5418SOL     OW17152   5.799   5.642   5.003
 5418SOL    HW117153   5.730   5.710   4.976
 5418SOL    HW217154   5.768   5.551   4.978
 5419SOL     OW17155   3.691   6.035   0.548
 5419SOL    HW117156   3.652   5.980   0.621
 5419SOL    HW217157   3.732   5.975   0.479
 5420SOL     OW17158   2.147   1.622   0.733
 5420SOL    HW117159   2.103   1.712   0.727
 5420SOL    HW217160   2.106   1.570   0.808
 5421SOL     OW17161   3.338   5.178   1.504
 5421SOL    HW117162   3.310   5.247   1.437
 5421SOL    HW217163   3.371   5.097   1.457
 5422SOL     OW17164   1.087   4.521   4.495
 5422SOL    HW117165   1.145   4.493   4.571
 5422SOL    HW217166   1.063   4.618   4.504
 5423SOL     OW17167   5.186   4.941   6.939
 5423SOL    HW117168   5.088   4.939   6.961
 5423SOL    HW217169   5.209   5.029   6.898
 5424SOL     OW17170   5.677   3.736   4.356
 5424SOL    HW117171   5.636   3.688   4.278
 5424SOL    HW217172   5.620   3.723   4.437
 5425SOL     OW17173   6.082   2.072   5.026
 5425SOL    HW117174   6.107   2.084   4.930
 5425SOL    HW217175   6.155   2.107   5.085
 5426SOL     OW17176   5.210   5.736   2.454
 5426SOL    HW117177   5.137   5.750   2.521
 5426SOL    HW217178   5.225   5.821   2.404
 5427SOL     OW17179   5.127   3.323   0.197
 5427SOL    HW117180   5.155   3.227   0.195
 5427SOL    HW217181   5.194   3.379   0.148
 5428SOL     OW17182   5.476   6.711   1.543
 5428SOL    HW117183   5.573   6.717   1.569
 5428SOL    HW217184   5.449   6.614   1.539
 5429SOL     OW17185   1.770   0.038   5.285
 5429SOL    HW117186   1.777   0.122   5.339
 5429SOL    HW217187   1.809   0.054   5.194
 5430SOL     OW17188   1.957   3.001   4.832
 5430SOL    HW117189   2.015   3.064   4.884
 5430SOL    HW217190   1.995   2.909   4.835
 5431SOL     OW17191   2.751   3.974   6.500
 5431SOL    HW117192   2.713   4.067   6.497
 5431SOL    HW217193   2.837   3.972   6.450
 5432SOL     OW17194   3.699   5.590   6.334
 5432SOL    HW117195   3.635   5.572   6.260
 5432SOL    HW217196   3.790   5.608   6.296
 5433SOL     OW17197   0.959   0.595   1.725
 5433SOL    HW117198   1.022   0.630   1.656
 5433SOL    HW217199   0.873   0.646   1.721
 5434SOL     OW17200   3.938   1.061   4.669
 5434SOL    HW117201   3.953   0.963   4.661
 5434SOL    HW217202   3.993   1.109   4.600
 5435SOL     OW17203   6.635   3.613   0.581
 5435SOL    HW117204   6.715   3.635   0.636
 5435SOL    HW217205   6.642   3.658   0.492
 5436SOL     OW17206   6.222   4.618   3.996
 5436SOL    HW117207   6.308   4.580   3.962
 5436SOL    HW217208   6.147   4.555   3.975
 5437SOL     OW17209   3.304   4.983   4.958
 5437SOL    HW117210   3.323   4.892   4.996
 5437SOL    HW217211   3.221   5.019   5.000
 5438SOL     OW17212   5.619   4.388   2.153
 5438SOL    HW117213   5.624   4.474   2.103
 5438SOL    HW217214   5.678   4.392   2.234
 5439SOL     OW17215   0.299   3.410   6.643
 5439SOL    HW117216   0.309   3.362   6.731
 5439SOL    HW217217   0.270   3.346   6.573
 5440SOL     OW17218   6.546   6.245   3.636
 5440SOL    HW117219   6.466   6.223   3.692
 5440SOL    HW217220   6.580   6.162   3.592
 5441SOL     OW17221   5.089   3.384   3.667
 5441SOL    HW117222   5.006   3.357   3.717
 5441SOL    HW217223   5.073   3.471   3.621
 5442SOL     OW17224   3.957   0.159   3.658
 5442SOL    HW117225   3.897   0.189   3.732
 5442SOL    HW217226   3.902   0.129   3.580
 5443SOL     OW17227   4.035   5.965   3.707
 5443SOL    HW117228   3.945   5.969   3.663
 5443SOL    HW217229   4.025   5.930   3.800
 5444SOL     OW17230   0.254   0.612   4.117
 5444SOL    HW117231   0.229   0.625   4.021
 5444SOL    HW217232   0.327   0.544   4.123
 5445SOL     OW17233   6.137   4.246   3.611
 5445SOL    HW117234   6.081   4.166   3.633
 5445SOL    HW217235   6.151   4.300   3.694
 5446SOL     OW17236   5.884   5.617   4.127
 5446SOL    HW117237   5.850   5.632   4.219
 5446SOL    HW217238   5.944   5.693   4.100
 5447SOL     OW17239   1.644   1.084   0.809
 5447SOL    HW117240   1.681   1.113   0.897
 5447SOL    HW217241   1.685   1.137   0.735
 5448SOL     OW17242   4.443   4.647   3.476
 5448SOL    HW117243   4.456   4.601   3.388
 5448SOL    HW217244   4.377   4.721   3.465
 5449SOL     OW17245   2.169   0.968   0.765
 5449SOL    HW117246   2.268   0.959   0.775
 5449SOL    HW217247   2.148   1.013   0.678
 5450SOL     OW17248   3.308   0.328   1.284
 5450SOL    HW117249   3.223   0.276   1.273
 5450SOL    HW217250   3.290   0.425   1.272
 5451SOL     OW17251   2.013   6.134   3.514
 5451SOL    HW117252   1.936   6.117   3.452
 5451SOL    HW217253   2.006   6.227   3.550
 5452SOL     OW17254   2.724   4.383   1.086
 5452SOL    HW117255   2.785   4.374   1.007
 5452SOL    HW217256   2.653   4.312   1.080
 5453SOL     OW17257   4.952   3.775   2.260
 5453SOL    HW117258   5.048   3.802   2.270
 5453SOL    HW217259   4.900   3.852   2.223
 5454SOL     OW17260   5.822   5.921   1.054
 5454SOL    HW117261   5.881   5.963   1.123
 5454SOL    HW217262   5.797   5.829   1.083
 5455SOL     OW17263   0.376   2.055   3.563
 5455SOL    HW117264   0.428   1.969   3.555
 5455SOL    HW217265   0.312   2.062   3.487
 5456SOL     OW17266   3.464   1.992   6.613
 5456SOL    HW117267   3.488   1.921   6.547
 5456SOL    HW217268   3.469   2.082   6.569
 5457SOL     OW17269   6.522   1.983   1.391
 5457SOL    HW117270   6.561   1.910   1.334
 5457SOL    HW217271   6.595   2.028   1.443
 5458SOL     OW17272   6.724   5.332   0.346
 5458SOL    HW117273   6.660   5.400   0.311
 5458SOL    HW217274   6.816   5.354   0.314
 5459SOL     OW17275   2.095   4.577   5.675
 5459SOL    HW117276   2.016   4.635   5.693
 5459SOL    HW217277   2.155   4.623   5.609
 5460SOL     OW17278   2.913   6.936   2.268
 5460SOL    HW117279   2.967   6.949   2.351
 5460SOL    HW217280   2.878   0.001   2.236
 5461SOL     OW17281   0.865   0.013   4.379
 5461SOL    HW117282   0.800   7.016   4.452
 5461SOL    HW217283   0.937   6.968   4.377
 5462SOL     OW17284   5.450   6.032   6.973
 5462SOL    HW117285   5.517   5.959   6.958
 5462SOL    HW217286   5.480   6.115   6.927
 5463SOL     OW17287   0.504   1.921   0.033
 5463SOL    HW117288   0.489   1.822   0.023
 5463SOL    HW217289   0.419   1.970   0.014
 5464SOL     OW17290   5.614   6.206   4.425
 5464SOL    HW117291   5.697   6.241   4.469
 5464SOL    HW217292   5.578   6.274   4.362
 5465SOL     OW17293   6.484   0.872   3.301
 5465SOL    HW117294   6.527   0.848   3.214
 5465SOL    HW217295   6.443   0.963   3.293
 5466SOL     OW17296   4.986   2.675   5.802
 5466SOL    HW117297   4.946   2.754   5.849
 5466SOL    HW217298   5.016   2.702   5.711
 5467SOL     OW17299   6.487   3.575   3.509
 5467SOL    HW117300   6.461   3.495   3.454
 5467SOL    HW217301   6.414   3.596   3.573
 5468SOL     OW17302   6.715   1.633   4.930
 5468SOL    HW117303   6.726   1.686   5.014
 5468SOL    HW217304   6.793   1.650   4.869
 5469SOL     OW17305   3.245   5.621   5.267
 5469SOL    HW117306   3.320   5.667   5.218
 5469SOL    HW217307   3.158   5.647   5.225
 5470SOL     OW17308   3.984   5.514   4.431
 5470SOL    HW117309   4.065   5.457   4.421
 5470SOL    HW217310   3.922   5.497   4.354
 5471SOL     OW17311   6.274   0.610   2.684
 5471SOL    HW117312   6.222   0.691   2.656
 5471SOL    HW217313   6.334   0.581   2.610
 5472SOL     OW17314   3.179   3.278   6.536
 5472SOL    HW117315   3.124   3.361   6.531
 5472SOL    HW217316   3.213   3.255   6.445
 5473SOL     OW17317   1.703   3.389   0.892
 5473SOL    HW117318   1.651   3.414   0.974
 5473SOL    HW217319   1.801   3.393   0.912
 5474SOL     OW17320   1.075   4.715   5.000
 5474SOL    HW117321   1.090   4.702   5.098
 5474SOL    HW217322   1.146   4.776   4.963
 5475SOL     OW17323   1.562   2.201   0.469
 5475SOL    HW117324   1.519   2.290   0.457
 5475SOL    HW217325   1.595   2.192   0.563
 5476SOL     OW17326   2.216   4.575   5.028
 5476SOL    HW117327   2.279   4.532   4.964
 5476SOL    HW217328   2.129   4.593   4.982
 5477SOL     OW17329   2.133   3.971   3.341
 5477SOL    HW117330   2.196   4.028   3.392
 5477SOL    HW217331   2.051   4.024   3.318
 5478SOL     OW17332   4.408   0.181   5.478
 5478SOL    HW117333   4.398   0.083   5.497
 5478SOL    HW217334   4.431   0.193   5.381
 5479SOL     OW17335   4.999   2.218   4.914
 5479SOL    HW117336   4.939   2.235   4.836
 5479SOL    HW217337   4.985   2.289   4.984
 5480SOL     OW17338   5.262   5.474   4.386
 5480SOL    HW117339   5.283   5.569   4.407
 5480SOL    HW217340   5.334   5.415   4.422
 5481SOL     OW17341   4.625   1.713   4.579
 5481SOL    HW117342   4.572   1.638   4.620
 5481SOL    HW217343   4.633   1.698   4.481
 5482SOL     OW17344   3.745   3.767   2.029
 5482SOL    HW117345   3.778   3.860   2.012
 5482SOL    HW217346   3.793   3.703   1.968
 5483SOL     OW17347   0.690   1.882   5.034
 5483SOL    HW117348   0.681   1.912   5.129
 5483SOL    HW217349   0.713   1.784   5.032
 5484SOL     OW17350   5.099   0.559   4.100
 5484SOL    HW117351   5.016   0.603   4.067
 5484SOL    HW217352   5.178   0.600   4.055
 5485SOL     OW17353   3.182   0.118   5.123
 5485SOL    HW117354   3.187   0.058   5.042
 5485SOL    HW217355   3.092   0.159   5.128
 5486SOL     OW17356   1.855   5.719   5.162
 5486SOL    HW117357   1.886   5.664   5.084
 5486SOL    HW217358   1.769   5.682   5.196
 5487SOL     OW17359   4.927   3.287   6.646
 5487SOL    HW117360   4.962   3.195   6.626
 5487SOL    HW217361   4.846   3.281   6.703
 5488SOL     OW17362   5.224   1.332   1.001
 5488SOL    HW117363   5.125   1.322   1.011
 5488SOL    HW217364   5.267   1.243   1.014
 5489SOL     OW17365   1.162   4.922   0.868
 5489SOL    HW117366   1.249   4.880   0.843
 5489SOL    HW217367   1.112   4.860   0.930
 5490SOL     OW17368   3.600   0.059   0.339
 5490SOL    HW117369   3.598   0.024   0.432
 5490SOL    HW217370   3.657   0.000   0.282
 5491SOL     OW17371   2.145   4.570   0.818
 5491SOL    HW117372   2.238   4.549   0.847
 5491SOL    HW217373   2.086   4.577   0.899
 5492SOL     OW17374   0.648   2.334   6.379
 5492SOL    HW117375   0.646   2.265   6.451
 5492SOL    HW217376   0.671   2.423   6.418
 5493SOL     OW17377   3.861   4.007   4.168
 5493SOL    HW117378   3.768   3.970   4.167
 5493SOL    HW217379   3.871   4.076   4.096
 5494SOL     OW17380   6.903   2.700   6.281
 5494SOL    HW117381   6.833   2.661   6.221
 5494SOL    HW217382   6.993   2.665   6.255
 5495SOL     OW17383   4.144   2.423   1.517
 5495SOL    HW117384   4.234   2.388   1.494
 5495SOL    HW217385   4.100   2.361   1.581
 5496SOL     OW17386   2.412   0.031   3.021
 5496SOL    HW117387   2.420   0.019   2.922
 5496SOL    HW217388   2.483   7.002   3.067
 5497SOL     OW17389   0.365   1.357   4.153
 5497SOL    HW117390   0.459   1.382   4.130
 5497SOL    HW217391   0.303   1.405   4.091
 5498SOL     OW17392   5.412   6.632   1.168
 5498SOL    HW117393   5.325   6.624   1.217
 5498SOL    HW217394   5.474   6.560   1.198
 5499SOL     OW17395   6.867   0.888   4.613
 5499SOL    HW117396   6.920   0.912   4.531
 5499SOL    HW217397   6.832   0.795   4.604
 5500SOL     OW17398   1.675   0.061   0.632
 5500SOL    HW117399   1.726   0.030   0.713
 5500SOL    HW217400   1.591   0.008   0.624
 5501SOL     OW17401   4.195   6.588   0.437
 5501SOL    HW117402   4.266   6.650   0.405
 5501SOL    HW217403   4.106   6.618   0.403
 5502SOL     OW17404   5.852   3.343   0.210
 5502SOL    HW117405   5.757   3.335   0.242
 5502SOL    HW217406   5.856   3.327   0.112
 5503SOL     OW17407   0.157   5.131   2.754
 5503SOL    HW117408   0.100   5.191   2.698
 5503SOL    HW217409   0.201   5.062   2.696
 5504SOL     OW17410   3.916   1.174   4.975
 5504SOL    HW117411   3.917   1.194   4.877
 5504SOL    HW217412   3.865   1.091   4.992
 5505SOL     OW17413   1.659   5.793   4.585
 5505SOL    HW117414   1.714   5.772   4.504
 5505SOL    HW217415   1.716   5.782   4.667
 5506SOL     OW17416   1.739   1.619   5.945
 5506SOL    HW117417   1.793   1.541   5.914
 5506SOL    HW217418   1.662   1.587   6.000
 5507SOL     OW17419   2.703   0.256   3.771
 5507SOL    HW117420   2.638   0.182   3.754
 5507SOL    HW217421   2.686   0.295   3.861
 5508SOL     OW17422   1.686   0.807   6.216
 5508SOL    HW117423   1.698   0.894   6.263
 5508SOL    HW217424   1.692   0.732   6.282
 5509SOL     OW17425   0.917   6.330   0.720
 5509SOL    HW117426   0.975   6.265   0.770
 5509SOL    HW217427   0.965   6.417   0.711
 5510SOL     OW17428   4.561   5.763   1.340
 5510SOL    HW117429   4.630   5.692   1.322
 5510SOL    HW217430   4.584   5.846   1.289
 5511SOL     OW17431   2.364   1.281   4.378
 5511SOL    HW117432   2.445   1.315   4.329
 5511SOL    HW217433   2.324   1.205   4.327
 5512SOL     OW17434   5.640   1.773   1.899
 5512SOL    HW117435   5.617   1.701   1.965
 5512SOL    HW217436   5.611   1.745   1.808
 5513SOL     OW17437   4.359   5.105   6.520
 5513SOL    HW117438   4.401   5.196   6.512
 5513SOL    HW217439   4.372   5.055   6.434
 5514SOL     OW17440   4.085   6.561   3.273
 5514SOL    HW117441   4.040   6.627   3.333
 5514SOL    HW217442   4.127   6.489   3.328
 5515SOL     OW17443   0.472   4.854   1.067
 5515SOL    HW117444   0.401   4.785   1.070
 5515SOL    HW217445   0.431   4.945   1.061
 5516SOL     OW17446   1.509   3.782   6.651
 5516SOL    HW117447   1.416   3.804   6.679
 5516SOL    HW217448   1.509   3.750   6.557
 5517SOL     OW17449   2.125   3.236   2.009
 5517SOL    HW117450   2.162   3.328   2.019
 5517SOL    HW217451   2.027   3.242   1.987
 5518SOL     OW17452   6.529   6.970   6.674
 5518SOL    HW117453   6.435   6.965   6.709
 5518SOL    HW217454   6.546   0.038   6.638
 5519SOL     OW17455   5.360   3.189   3.213
 5519SOL    HW117456   5.340   3.282   3.183
 5519SOL    HW217457   5.300   3.125   3.168
 5520SOL     OW17458   6.332   5.928   1.754
 5520SOL    HW117459   6.233   5.912   1.759
 5520SOL    HW217460   6.348   6.022   1.723
 5521SOL     OW17461   5.071   6.969   1.777
 5521SOL    HW117462   5.049   0.039   1.750
 5521SOL    HW217463   4.987   6.917   1.788
 5522SOL     OW17464   6.777   5.173   0.575
 5522SOL    HW117465   6.775   5.232   0.494
 5522SOL    HW217466   6.836   5.214   0.645
 5523SOL     OW17467   3.671   0.296   2.206
 5523SOL    HW117468   3.634   0.321   2.117
 5523SOL    HW217469   3.770   0.280   2.197
 5524SOL     OW17470   5.071   5.139   4.963
 5524SOL    HW117471   5.148   5.184   5.009
 5524SOL    HW217472   5.012   5.095   5.031
 5525SOL     OW17473   0.044   2.394   0.424
 5525SOL    HW117474   0.031   2.452   0.343
 5525SOL    HW217475   7.005   2.317   0.420
 5526SOL     OW17476   4.814   4.635   4.436
 5526SOL    HW117477   4.865   4.708   4.481
 5526SOL    HW217478   4.838   4.633   4.338
 5527SOL     OW17479   5.773   3.778   3.880
 5527SOL    HW117480   5.816   3.792   3.969
 5527SOL    HW217481   5.685   3.825   3.879
 5528SOL     OW17482   1.277   1.452   6.827
 5528SOL    HW117483   1.281   1.534   6.769
 5528SOL    HW217484   1.216   1.469   6.905
 5529SOL     OW17485   2.137   0.448   3.063
 5529SOL    HW117486   2.206   0.431   2.993
 5529SOL    HW217487   2.154   0.390   3.143
 5530SOL     OW17488   6.238   2.315   2.346
 5530SOL    HW117489   6.213   2.286   2.253
 5530SOL    HW217490   6.245   2.235   2.405
 5531SOL     OW17491   3.826   2.944   2.089
 5531SOL    HW117492   3.806   2.937   2.186
 5531SOL    HW217493   3.925   2.955   2.076
 5532SOL     OW17494   0.960   2.331   0.552
 5532SOL    HW117495   1.021   2.280   0.491
 5532SOL    HW217496   0.938   2.419   0.511
 5533SOL     OW17497   3.400   0.856   3.470
 5533SOL    HW117498   3.489   0.866   3.424
 5533SOL    HW217499   3.343   0.791   3.420
 5534SOL     OW17500   0.968   1.957   5.902
 5534SOL    HW117501   0.886   2.013   5.898
 5534SOL    HW217502   1.049   2.016   5.901
 5535SOL     OW17503   0.057   3.028   3.605
 5535SOL    HW117504   0.081   3.118   3.571
 5535SOL    HW217505   0.086   3.019   3.700
 5536SOL     OW17506   3.074   1.360   4.243
 5536SOL    HW117507   3.162   1.408   4.238
 5536SOL    HW217508   3.085   1.266   4.210
 5537SOL     OW17509   2.175   0.916   2.801
 5537SOL    HW117510   2.119   0.917   2.884
 5537SOL    HW217511   2.177   0.823   2.764
 5538SOL     OW17512   2.685   6.936   5.625
 5538SOL    HW117513   2.727   6.851   5.657
 5538SOL    HW217514   2.630   6.917   5.544
 5539SOL     OW17515   1.046   3.755   0.903
 5539SOL    HW117516   1.057   3.662   0.937
 5539SOL    HW217517   1.098   3.818   0.960
 5540SOL     OW17518   5.818   3.507   3.825
 5540SOL    HW117519   5.792   3.602   3.838
 5540SOL    HW217520   5.880   3.499   3.747
 5541SOL     OW17521   6.050   0.541   6.581
 5541SOL    HW117522   6.107   0.588   6.513
 5541SOL    HW217523   5.959   0.524   6.543
 5542SOL     OW17524   6.210   4.642   6.164
 5542SOL    HW117525   6.269   4.584   6.107
 5542SOL    HW217526   6.173   4.587   6.239
 5543SOL     OW17527   3.760   5.407   5.585
 5543SOL    HW117528   3.768   5.366   5.494
 5543SOL    HW217529   3.759   5.507   5.577
 5544SOL     OW17530   5.776   6.559   5.972
 5544SOL    HW117531   5.825   6.497   5.911
 5544SOL    HW217532   5.828   6.569   6.057
 5545SOL     OW17533   4.060   1.933   2.203
 5545SOL    HW117534   4.068   1.874   2.123
 5545SOL    HW217535   4.146   1.982   2.216
 5546SOL     OW17536   0.768   6.017   4.630
 5546SOL    HW117537   0.668   6.023   4.636
 5546SOL    HW217538   0.794   5.986   4.539
 5547SOL     OW17539   3.338   6.871   4.490
 5547SOL    HW117540   3.426   6.838   4.456
 5547SOL    HW217541   3.283   6.903   4.413
 5548SOL     OW17542   5.516   3.483   5.864
 5548SOL    HW117543   5.435   3.526   5.824
 5548SOL    HW217544   5.512   3.491   5.964
 5549SOL     OW17545   4.550   3.837   0.133
 5549SOL    HW117546   4.451   3.840   0.121
 5549SOL    HW217547   4.577   3.744   0.160
 5550SOL     OW17548   2.360   4.255   2.182
 5550SOL    HW117549   2.385   4.270   2.087
 5550SOL    HW217550   2.429   4.297   2.242
 5551SOL     OW17551   1.781   0.176   3.182
 5551SOL    HW117552   1.869   0.145   3.217
 5551SOL    HW217553   1.711   0.167   3.254
 5552SOL     OW17554   6.952   0.169   0.122
 5552SOL    HW117555   0.013   0.219   0.137
 5552SOL    HW217556   6.907   0.204   0.039
 5553SOL     OW17557   5.349   6.368   6.623
 5553SOL    HW117558   5.349   6.282   6.571
 5553SOL    HW217559   5.305   6.440   6.569
 5554SOL     OW17560   4.545   1.340   5.384
 5554SOL    HW117561   4.568   1.263   5.442
 5554SOL    HW217562   4.519   1.307   5.293
 5555SOL     OW17563   2.070   4.599   4.087
 5555SOL    HW117564   2.127   4.517   4.081
 5555SOL    HW217565   2.024   4.602   4.176
 5556SOL     OW17566   6.807   1.364   3.555
 5556SOL    HW117567   6.809   1.424   3.635
 5556SOL    HW217568   6.853   1.408   3.478
 5557SOL     OW17569   3.684   6.868   2.655
 5557SOL    HW117570   3.585   6.871   2.668
 5557SOL    HW217571   3.703   6.847   2.559
 5558SOL     OW17572   4.729   3.611   6.100
 5558SOL    HW117573   4.708   3.536   6.163
 5558SOL    HW217574   4.672   3.603   6.019
 5559SOL     OW17575   2.086   0.567   2.263
 5559SOL    HW117576   2.154   0.638   2.281
 5559SOL    HW217577   2.133   0.481   2.243
 5560SOL     OW17578   1.232   0.171   2.972
 5560SOL    HW117579   1.277   0.091   3.013
 5560SOL    HW217580   1.301   0.239   2.948
 5561SOL     OW17581   1.475   2.217   4.233
 5561SOL    HW117582   1.493   2.291   4.169
 5561SOL    HW217583   1.524   2.234   4.319
 5562SOL     OW17584   3.333   2.251   6.759
 5562SOL    HW117585   3.394   2.306   6.815
 5562SOL    HW217586   3.352   2.154   6.773
 5563SOL     OW17587   4.384   5.422   2.407
 5563SOL    HW117588   4.291   5.460   2.404
 5563SOL    HW217589   4.391   5.360   2.485
 5564SOL     OW17590   4.365   1.207   1.877
 5564SOL    HW117591   4.400   1.277   1.940
 5564SOL    HW217592   4.265   1.206   1.881
 5565SOL     OW17593   4.695   1.845   5.814
 5565SOL    HW117594   4.789   1.851   5.781
 5565SOL    HW217595   4.640   1.794   5.747
 5566SOL     OW17596   1.966   5.289   6.955
 5566SOL    HW117597   1.891   5.238   6.912
 5566SOL    HW217598   2.035   5.310   6.886
 5567SOL     OW17599   0.102   3.423   1.584
 5567SOL    HW117600   0.170   3.497   1.587
 5567SOL    HW217601   0.035   3.443   1.512
 5568SOL     OW17602   4.218   2.298   3.302
 5568SOL    HW117603   4.197   2.307   3.205
 5568SOL    HW217604   4.313   2.327   3.319
 5569SOL     OW17605   1.667   1.439   2.726
 5569SOL    HW117606   1.750   1.488   2.700
 5569SOL    HW217607   1.621   1.487   2.800
 5570SOL     OW17608   5.714   4.324   4.937
 5570SOL    HW117609   5.798   4.281   4.904
 5570SOL    HW217610   5.657   4.254   4.982
 5571SOL     OW17611   0.063   5.489   0.656
 5571SOL    HW117612   0.076   5.449   0.565
 5571SOL    HW217613   0.152   5.494   0.702
 5572SOL     OW17614   0.876   2.337   5.053
 5572SOL    HW117615   0.781   2.312   5.070
 5572SOL    HW217616   0.894   2.428   5.089
 5573SOL     OW17617   1.836   3.588   6.613
 5573SOL    HW117618   1.882   3.517   6.667
 5573SOL    HW217619   1.818   3.553   6.521
 5574SOL     OW17620   6.524   1.873   3.388
 5574SOL    HW117621   6.547   1.853   3.293
 5574SOL    HW217622   6.457   1.947   3.392
 5575SOL     OW17623   6.869   1.538   1.079
 5575SOL    HW117624   6.770   1.528   1.090
 5575SOL    HW217625   6.894   1.510   0.986
 5576SOL     OW17626   1.195   5.975   2.883
 5576SOL    HW117627   1.158   6.048   2.826
 5576SOL    HW217628   1.252   6.014   2.955
 5577SOL     OW17629   2.807   2.570   5.264
 5577SOL    HW117630   2.746   2.634   5.217
 5577SOL    HW217631   2.800   2.585   5.362
 5578SOL     OW17632   4.115   4.118   0.209
 5578SOL    HW117633   4.171   4.169   0.274
 5578SOL    HW217634   4.086   4.032   0.250
 5579SOL     OW17635   0.281   3.736   6.111
 5579SOL    HW117636   0.263   3.833   6.128
 5579SOL    HW217637   0.315   3.693   6.195
 5580SOL     OW17638   5.368   2.911   5.954
 5580SOL    HW117639   5.302   2.838   5.973
 5580SOL    HW217640   5.328   2.975   5.889
 5581SOL     OW17641   2.552   0.299   1.673
 5581SOL    HW117642   2.546   0.225   1.607
 5581SOL    HW217643   2.617   0.368   1.641
 5582SOL     OW17644   3.632   3.437   4.306
 5582SOL    HW117645   3.600   3.531   4.313
 5582SOL    HW217646   3.636   3.395   4.397
 5583SOL     OW17647   4.167   0.824   3.056
 5583SOL    HW117648   4.138   0.830   3.151
 5583SOL    HW217649   4.086   0.828   2.996
 5584SOL     OW17650   5.690   4.225   3.805
 5584SOL    HW117651   5.631   4.155   3.845
 5584SOL    HW217652   5.658   4.315   3.833
 5585SOL     OW17653   4.839   6.414   4.016
 5585SOL    HW117654   4.894   6.457   4.088
 5585SOL    HW217655   4.815   6.321   4.044
 5586SOL     OW17656   0.267   2.133   6.755
 5586SOL    HW117657   0.293   2.229   6.751
 5586SOL    HW217658   0.277   2.099   6.848
 5587SOL     OW17659   4.073   6.209   2.661
 5587SOL    HW117660   4.024   6.190   2.576
 5587SOL    HW217661   4.157   6.258   2.640
 5588SOL     OW17662   1.568   0.021   2.661
 5588SOL    HW117663   1.645   0.058   2.609
 5588SOL    HW217664   1.539   6.958   2.619
 5589SOL     OW17665   5.917   3.191   6.080
 5589SOL    HW117666   5.869   3.230   6.002
 5589SOL    HW217667   5.922   3.258   6.154
 5590SOL     OW17668   6.698   5.440   3.240
 5590SOL    HW117669   6.685   5.518   3.179
 5590SOL    HW217670   6.679   5.468   3.334
 5591SOL     OW17671   6.020   1.314   7.004
 5591SOL    HW117672   5.947   1.312   0.048
 5591SOL    HW217673   6.079   1.234   7.016
 5592SOL     OW17674   0.417   4.432   2.854
 5592SOL    HW117675   0.321   4.411   2.833
 5592SOL    HW217676   0.469   4.440   2.769
 5593SOL     OW17677   0.159   2.417   5.873
 5593SOL    HW117678   0.121   2.496   5.921
 5593SOL    HW217679   0.091   2.380   5.810
 5594SOL     OW17680   3.099   1.050   6.712
 5594SOL    HW117681   3.027   0.993   6.672
 5594SOL    HW217682   3.180   1.047   6.654
 5595SOL     OW17683   6.009   0.081   5.284
 5595SOL    HW117684   6.068   0.110   5.209
 5595SOL    HW217685   6.059   0.089   5.371
 5596SOL     OW17686   4.992   0.260   3.053
 5596SOL    HW117687   5.033   0.198   2.986
 5596SOL    HW217688   5.004   0.354   3.023
 5597SOL     OW17689   6.592   1.635   5.546
 5597SOL    HW117690   6.525   1.700   5.580
 5597SOL    HW217691   6.672   1.635   5.606
 5598SOL     OW17692   6.517   2.560   4.325
 5598SOL    HW117693   6.494   2.654   4.350
 5598SOL    HW217694   6.434   2.506   4.322
 5599SOL     OW17695   0.256   2.307   1.846
 5599SOL    HW117696   0.186   2.311   1.775
 5599SOL    HW217697   0.276   2.399   1.878
 5600SOL     OW17698   2.383   0.023   2.486
 5600SOL    HW117699   2.440   6.969   2.460
 5600SOL    HW217700   2.344   0.065   2.404
 5601SOL     OW17701   3.294   1.221   6.386
 5601SOL    HW117702   3.244   1.176   6.312
 5601SOL    HW217703   3.365   1.160   6.421
 5602SOL     OW17704   0.498   0.286   1.989
 5602SOL    HW117705   0.448   0.220   2.046
 5602SOL    HW217706   0.486   0.378   2.027
 5603SOL     OW17707   5.345   1.815   6.772
 5603SOL    HW117708   5.421   1.788   6.831
 5603SOL    HW217709   5.379   1.835   6.680
 5604SOL     OW17710   6.836   2.256   5.263
 5604SOL    HW117711   6.839   2.342   5.314
 5604SOL    HW217712   6.829   2.180   5.328
 5605SOL     OW17713   1.823   0.278   4.549
 5605SOL    HW117714   1.793   0.330   4.469
 5605SOL    HW217715   1.923   0.267   4.545
 5606SOL     OW17716   5.719   1.037   0.897
 5606SOL    HW117717   5.692   0.978   0.973
 5606SOL    HW217718   5.776   1.112   0.931
 5607SOL     OW17719   5.728   1.341   3.738
 5607SOL    HW117720   5.745   1.243   3.750
 5607SOL    HW217721   5.650   1.369   3.795
 5608SOL     OW17722   6.438   1.650   3.089
 5608SOL    HW117723   6.339   1.660   3.085
 5608SOL    HW217724   6.468   1.586   3.018
 5609SOL     OW17725   4.335   5.972   1.525
 5609SOL    HW117726   4.245   5.946   1.490
 5609SOL    HW217727   4.335   6.068   1.550
 5610SOL     OW17728   5.015   4.471   1.189
 5610SOL    HW117729   5.017   4.559   1.237
 5610SOL    HW217730   5.088   4.412   1.223
 5611SOL     OW17731   0.925   5.230   2.921
 5611SOL    HW117732   0.983   5.295   2.970
 5611SOL    HW217733   0.954   5.225   2.825
 5612SOL     OW17734   4.146   3.278   0.498
 5612SOL    HW117735   4.050   3.282   0.527
 5612SOL    HW217736   4.152   3.293   0.400
 5613SOL     OW17737   5.507   5.282   5.082
 5613SOL    HW117738   5.526   5.185   5.069
 5613SOL    HW217739   5.430   5.294   5.145
 5614SOL     OW17740   5.078   3.592   5.170
 5614SOL    HW117741   5.022   3.518   5.131
 5614SOL    HW217742   5.169   3.590   5.130
 5615SOL     OW17743   6.438   1.558   3.994
 5615SOL    HW117744   6.475   1.525   4.081
 5615SOL    HW217745   6.514   1.577   3.931
 5616SOL     OW17746   2.111   2.639   4.480
 5616SOL    HW117747   2.154   2.603   4.397
 5616SOL    HW217748   2.054   2.718   4.457
 5617SOL     OW17749   1.477   4.404   4.862
 5617SOL    HW117750   1.493   4.373   4.956
 5617SOL    HW217751   1.556   4.457   4.831
 5618SOL     OW17752   6.430   5.018   3.254
 5618SOL    HW117753   6.493   4.951   3.293
 5618SOL    HW217754   6.471   5.109   3.259
 5619SOL     OW17755   3.125   4.016   3.945
 5619SOL    HW117756   3.132   3.974   3.855
 5619SOL    HW217757   3.208   4.068   3.964
 5620SOL     OW17758   4.691   4.033   7.019
 5620SOL    HW117759   4.649   3.957   0.045
 5620SOL    HW217760   4.677   4.021   6.921
 5621SOL     OW17761   1.576   2.936   0.149
 5621SOL    HW117762   1.558   3.028   0.184
 5621SOL    HW217763   1.643   2.941   0.075
 5622SOL     OW17764   5.036   0.395   5.702
 5622SOL    HW117765   4.998   0.398   5.609
 5622SOL    HW217766   5.131   0.426   5.700
 5623SOL     OW17767   4.753   6.737   4.911
 5623SOL    HW117768   4.836   6.727   4.966
 5623SOL    HW217769   4.771   6.798   4.834
 5624SOL     OW17770   0.435   4.409   4.261
 5624SOL    HW117771   0.454   4.360   4.176
 5624SOL    HW217772   0.336   4.410   4.277
 5625SOL     OW17773   6.907   6.432   5.628
 5625SOL    HW117774   6.887   6.529   5.643
 5625SOL    HW217775   6.827   6.388   5.587
 5626SOL     OW17776   2.763   5.022   3.915
 5626SOL    HW117777   2.765   5.066   4.005
 5626SOL    HW217778   2.804   4.931   3.921
 5627SOL     OW17779   0.237   4.779   6.606
 5627SOL    HW117780   0.292   4.802   6.686
 5627SOL    HW217781   0.175   4.704   6.629
 5628SOL     OW17782   1.955   2.587   1.316
 5628SOL    HW117783   1.859   2.595   1.343
 5628SOL    HW217784   1.975   2.491   1.293
 5629SOL     OW17785   4.916   3.291   1.963
 5629SOL    HW117786   4.940   3.299   1.866
 5629SOL    HW217787   4.875   3.201   1.979
 5630SOL     OW17788   1.693   4.512   6.571
 5630SOL    HW117789   1.783   4.479   6.599
 5630SOL    HW217790   1.654   4.449   6.504
 5631SOL     OW17791   4.721   1.971   1.504
 5631SOL    HW117792   4.668   1.888   1.482
 5631SOL    HW217793   4.818   1.952   1.489
 5632SOL     OW17794   3.337   2.124   5.238
 5632SOL    HW117795   3.320   2.056   5.167
 5632SOL    HW217796   3.269   2.197   5.231
 5633SOL     OW17797   6.017   4.778   4.333
 5633SOL    HW117798   6.024   4.854   4.268
 5633SOL    HW217799   6.016   4.814   4.426
 5634SOL     OW17800   2.050   4.630   4.811
 5634SOL    HW117801   2.029   4.652   4.715
 5634SOL    HW217802   1.987   4.560   4.844
 5635SOL     OW17803   1.517   6.071   6.703
 5635SOL    HW117804   1.543   6.102   6.611
 5635SOL    HW217805   1.424   6.099   6.723
 5636SOL     OW17806   6.647   6.823   5.105
 5636SOL    HW117807   6.666   6.906   5.158
 5636SOL    HW217808   6.636   6.847   5.008
 5637SOL     OW17809   4.023   6.739   3.466
 5637SOL    HW117810   4.065   6.827   3.442
 5637SOL    HW217811   4.046   6.716   3.561
 5638SOL     OW17812   6.268   4.097   0.975
 5638SOL    HW117813   6.184   4.116   1.027
 5638SOL    HW217814   6.330   4.175   0.982
 5639SOL     OW17815   2.502   0.440   2.113
 5639SOL    HW117816   2.576   0.377   2.090
 5639SOL    HW217817   2.534   0.504   2.183
 5640SOL     OW17818   2.882   0.872   2.276
 5640SOL    HW117819   2.921   0.961   2.252
 5640SOL    HW217820   2.894   0.856   2.374
 5641SOL     OW17821   0.890   4.530   6.000
 5641SOL    HW117822   0.922   4.617   6.038
 5641SOL    HW217823   0.819   4.548   5.931
 5642SOL     OW17824   0.411   5.871   4.916
 5642SOL    HW117825   0.332   5.920   4.952
 5642SOL    HW217826   0.477   5.856   4.990
 5643SOL     OW17827   3.082   0.713   4.349
 5643SOL    HW117828   3.132   0.711   4.262
 5643SOL    HW217829   3.017   0.789   4.348
 5644SOL     OW17830   3.878   0.085   4.506
 5644SOL    HW117831   3.847   0.145   4.432
 5644SOL    HW217832   3.841   7.018   4.493
 5645SOL     OW17833   5.728   4.945   2.710
 5645SOL    HW117834   5.736   5.023   2.649
 5645SOL    HW217835   5.816   4.927   2.754
 5646SOL     OW17836   1.068   5.474   3.205
 5646SOL    HW117837   1.012   5.411   3.258
 5646SOL    HW217838   1.164   5.446   3.209
 5647SOL     OW17839   5.797   0.441   1.187
 5647SOL    HW117840   5.862   0.393   1.129
 5647SOL    HW217841   5.713   0.460   1.135
 5648SOL     OW17842   1.704   0.929   3.384
 5648SOL    HW117843   1.750   1.016   3.405
 5648SOL    HW217844   1.721   0.905   3.288
 5649SOL     OW17845   6.864   0.007   4.907
 5649SOL    HW117846   6.917   7.016   4.823
 5649SOL    HW217847   6.781   6.976   4.905
 5650SOL     OW17848   1.433   5.242   1.011
 5650SOL    HW117849   1.418   5.207   1.104
 5650SOL    HW217850   1.460   5.167   0.951
 5651SOL     OW17851   0.635   1.165   1.457
 5651SOL    HW117852   0.731   1.146   1.433
 5651SOL    HW217853   0.632   1.229   1.534
 5652SOL     OW17854   6.604   6.949   2.205
 5652SOL    HW117855   6.521   6.943   2.149
 5652SOL    HW217856   6.676   6.896   2.161
 5653SOL     OW17857   0.788   6.129   6.710
 5653SOL    HW117858   0.886   6.108   6.713
 5653SOL    HW217859   0.746   6.106   6.797
 5654SOL     OW17860   6.657   0.222   5.882
 5654SOL    HW117861   6.726   0.288   5.852
 5654SOL    HW217862   6.700   0.133   5.896
 5655SOL     OW17863   1.857   3.651   4.901
 5655SOL    HW117864   1.925   3.657   4.827
 5655SOL    HW217865   1.893   3.694   4.983
 5656SOL     OW17866   0.259   3.454   0.055
 5656SOL    HW117867   0.194   3.528   0.034
 5656SOL    HW217868   0.258   3.436   0.153
 5657SOL     OW17869   5.658   1.466   6.900
 5657SOL    HW117870   5.660   1.367   6.887
 5657SOL    HW217871   5.638   1.511   6.814
 5658SOL     OW17872   3.897   4.768   6.028
 5658SOL    HW117873   3.977   4.805   6.075
 5658SOL    HW217874   3.836   4.843   6.002
 5659SOL     OW17875   3.419   3.461   3.854
 5659SOL    HW117876   3.372   3.541   3.817
 5659SOL    HW217877   3.354   3.405   3.905
 5660SOL     OW17878   5.721   0.884   6.982
 5660SOL    HW117879   5.756   0.968   6.939
 5660SOL    HW217880   5.658   0.838   6.920
 5661SOL     OW17881   1.469   5.228   4.998
 5661SOL    HW117882   1.401   5.276   4.943
 5661SOL    HW217883   1.549   5.287   5.013
 5662SOL     OW17884   2.804   5.386   2.811
 5662SOL    HW117885   2.785   5.474   2.856
 5662SOL    HW217886   2.842   5.322   2.877
 5663SOL     OW17887   2.360   3.333   0.304
 5663SOL    HW117888   2.443   3.301   0.350
 5663SOL    HW217889   2.362   3.303   0.208
 5664SOL     OW17890   6.587   4.346   4.528
 5664SOL    HW117891   6.496   4.384   4.508
 5664SOL    HW217892   6.589   4.249   4.502
 5665SOL     OW17893   1.738   1.570   0.207
 5665SOL    HW117894   1.742   1.583   0.306
 5665SOL    HW217895   1.787   1.486   0.183
 5666SOL     OW17896   5.997   6.197   1.864
 5666SOL    HW117897   5.900   6.206   1.841
 5666SOL    HW217898   6.051   6.258   1.806
 5667SOL     OW17899   1.215   4.876   4.414
 5667SOL    HW117900   1.136   4.829   4.454
 5667SOL    HW217901   1.193   4.973   4.404
 5668SOL     OW17902   5.464   2.065   4.882
 5668SOL    HW117903   5.396   2.134   4.905
 5668SOL    HW217904   5.555   2.103   4.891
 5669SOL     OW17905   0.345   3.266   6.888
 5669SOL    HW117906   0.298   3.322   6.956
 5669SOL    HW217907   0.443   3.285   6.890
 5670SOL     OW17908   6.781   2.557   3.585
 5670SOL    HW117909   6.823   2.516   3.666
 5670SOL    HW217910   6.763   2.654   3.603
 5671SOL     OW17911   0.193   6.445   0.009
 5671SOL    HW117912   0.197   6.432   6.934
 5671SOL    HW217913   0.247   6.374   0.055
 5672SOL     OW17914   4.153   4.938   6.070
 5672SOL    HW117915   4.217   4.878   6.023
 5672SOL    HW217916   4.157   4.922   6.169
 5673SOL     OW17917   0.467   6.840   2.227
 5673SOL    HW117918   0.435   6.749   2.205
 5673SOL    HW217919   0.537   6.835   2.299
 5674SOL     OW17920   6.935   5.073   5.066
 5674SOL    HW117921   6.906   4.980   5.044
 5674SOL    HW217922   0.011   5.078   5.062
 5675SOL     OW17923   3.967   2.196   5.875
 5675SOL    HW117924   3.991   2.176   5.780
 5675SOL    HW217925   4.006   2.125   5.935
 5676SOL     OW17926   1.411   2.733   2.162
 5676SOL    HW117927   1.360   2.729   2.075
 5676SOL    HW217928   1.349   2.763   2.235
 5677SOL     OW17929   0.205   0.958   1.418
 5677SOL    HW117930   0.170   1.045   1.454
 5677SOL    HW217931   0.271   0.920   1.483
 5678SOL     OW17932   4.256   6.569   2.997
 5678SOL    HW117933   4.301   6.482   2.976
 5678SOL    HW217934   4.184   6.554   3.065
 5679SOL     OW17935   0.937   1.333   4.190
 5679SOL    HW117936   0.893   1.244   4.189
 5679SOL    HW217937   0.976   1.353   4.100
 5680SOL     OW17938   1.443   5.276   6.393
 5680SOL    HW117939   1.465   5.258   6.297
 5680SOL    HW217940   1.345   5.265   6.408
 5681SOL     OW17941   0.351   4.773   0.356
 5681SOL    HW117942   0.394   4.807   0.440
 5681SOL    HW217943   0.261   4.814   0.346
 5682SOL     OW17944   2.601   4.127   5.582
 5682SOL    HW117945   2.669   4.115   5.510
 5682SOL    HW217946   2.555   4.040   5.599
 5683SOL     OW17947   3.911   0.681   6.476
 5683SOL    HW117948   3.837   0.621   6.447
 5683SOL    HW217949   3.969   0.703   6.398
 5684SOL     OW17950   2.853   3.472   5.702
 5684SOL    HW117951   2.812   3.530   5.772
 5684SOL    HW217952   2.892   3.529   5.630
 5685SOL     OW17953   1.517   3.205   2.521
 5685SOL    HW117954   1.488   3.146   2.446
 5685SOL    HW217955   1.455   3.191   2.599
 5686SOL     OW17956   3.309   1.195   5.938
 5686SOL    HW117957   3.336   1.287   5.908
 5686SOL    HW217958   3.220   1.172   5.899
 5687SOL     OW17959   0.263   4.853   6.333
 5687SOL    HW117960   0.275   4.831   6.430
 5687SOL    HW217961   0.219   4.776   6.287
 5688SOL     OW17962   0.511   2.439   0.883
 5688SOL    HW117963   0.519   2.479   0.792
 5688SOL    HW217964   0.564   2.493   0.948
 5689SOL     OW17965   4.087   1.359   0.936
 5689SOL    HW117966   4.021   1.398   0.871
 5689SOL    HW217967   4.127   1.432   0.990
 5690SOL     OW17968   2.393   6.136   0.397
 5690SOL    HW117969   2.337   6.178   0.470
 5690SOL    HW217970   2.412   6.204   0.327
 5691SOL     OW17971   3.174   0.258   1.981
 5691SOL    HW117972   3.080   0.275   2.011
 5691SOL    HW217973   3.191   0.159   1.980
 5692SOL     OW17974   5.933   3.261   0.458
 5692SOL    HW117975   6.023   3.217   0.466
 5692SOL    HW217976   5.924   3.301   0.367
 5693SOL     OW17977   5.716   1.986   2.572
 5693SOL    HW117978   5.760   2.074   2.591
 5693SOL    HW217979   5.695   1.979   2.474
 5694SOL     OW17980   0.490   1.833   3.223
 5694SOL    HW117981   0.580   1.877   3.222
 5694SOL    HW217982   0.470   1.796   3.133
 5695SOL     OW17983   0.986   2.460   2.831
 5695SOL    HW117984   1.025   2.494   2.746
 5695SOL    HW217985   1.056   2.461   2.903
 5696SOL     OW17986   1.016   0.937   3.001
 5696SOL    HW117987   1.003   0.914   2.905
 5696SOL    HW217988   1.081   0.872   3.042
 5697SOL     OW17989   5.867   2.252   1.686
 5697SOL    HW117990   5.769   2.250   1.669
 5697SOL    HW217991   5.908   2.165   1.658
 5698SOL     OW17992   0.798   3.758   3.458
 5698SOL    HW117993   0.831   3.852   3.472
 5698SOL    HW217994   0.775   3.745   3.362
 5699SOL     OW17995   0.638   2.042   3.117
 5699SOL    HW117996   0.546   2.071   3.092
 5699SOL    HW217997   0.656   2.065   3.212
 5700SOL     OW17998   0.179   7.008   4.236
 5700SOL    HW117999   0.214   6.946   4.166
 5700SOL    HW218000   0.135   0.063   4.192
 5701SOL     OW18001   1.606   0.731   2.426
 5701SOL    HW118002   1.699   0.768   2.428
 5701SOL    HW218003   1.594   0.668   2.502
 5702SOL     OW18004   2.632   6.010   4.875
 5702SOL    HW118005   2.689   6.054   4.944
 5702SOL    HW218006   2.606   6.077   4.805
 5703SOL     OW18007   6.470   4.708   1.196
 5703SOL    HW118008   6.445   4.730   1.290
 5703SOL    HW218009   6.534   4.777   1.162
 5704SOL     OW18010   4.484   4.634   2.478
 5704SOL    HW118011   4.497   4.554   2.420
 5704SOL    HW218012   4.387   4.643   2.501
 5705SOL     OW18013   5.162   0.927   0.732
 5705SOL    HW118014   5.111   0.970   0.657
 5705SOL    HW218015   5.245   0.884   0.696
 5706SOL     OW18016   6.859   4.107   0.516
 5706SOL    HW118017   6.935   4.170   0.532
 5706SOL    HW218018   6.876   4.055   0.432
 5707SOL     OW18019   0.304   6.725   0.553
 5707SOL    HW118020   0.318   6.808   0.499
 5707SOL    HW218021   0.299   6.646   0.492
 5708SOL     OW18022   5.047   6.316   1.543
 5708SOL    HW118023   5.140   6.282   1.562
 5708SOL    HW218024   5.038   6.409   1.578
 5709SOL     OW18025   1.186   0.016   2.416
 5709SOL    HW118026   1.203   6.944   2.395
 5709SOL    HW218027   1.245   0.045   2.491
 5710SOL     OW18028   2.802   2.629   0.328
 5710SOL    HW118029   2.792   2.649   0.425
 5710SOL    HW218030   2.790   2.531   0.312
 5711SOL     OW18031   4.962   1.335   2.409
 5711SOL    HW118032   4.892   1.311   2.476
 5711SOL    HW218033   5.051   1.306   2.443
 5712SOL     OW18034   0.345   6.369   6.418
 5712SOL    HW118035   0.389   6.451   6.380
 5712SOL    HW218036   0.406   6.324   6.482
 5713SOL     OW18037   2.845   2.897   1.534
 5713SOL    HW118038   2.872   2.810   1.575
 5713SOL    HW218039   2.826   2.964   1.606
 5714SOL     OW18040   0.477   5.879   0.211
 5714SOL    HW118041   0.502   5.936   0.289
 5714SOL    HW218042   0.394   5.916   0.168
 5715SOL     OW18043   0.558   6.590   3.440
 5715SOL    HW118044   0.503   6.638   3.372
 5715SOL    HW218045   0.503   6.521   3.486
 5716SOL     OW18046   1.318   3.678   7.018
 5716SOL    HW118047   1.233   3.681   6.965
 5716SOL    HW218048   1.335   3.767   0.035
 5717SOL     OW18049   2.246   5.614   0.466
 5717SOL    HW118050   2.184   5.615   0.544
 5717SOL    HW218051   2.232   5.696   0.411
 5718SOL     OW18052   0.175   2.742   5.777
 5718SOL    HW118053   0.242   2.668   5.773
 5718SOL    HW218054   0.100   2.723   5.714
 5719SOL     OW18055   2.982   1.340   6.794
 5719SOL    HW118056   2.981   1.269   6.864
 5719SOL    HW218057   2.993   1.429   6.837
 5720SOL     OW18058   1.776   5.371   5.377
 5720SOL    HW118059   1.863   5.413   5.399
 5720SOL    HW218060   1.773   5.347   5.280
 5721SOL     OW18061   0.465   3.789   1.211
 5721SOL    HW118062   0.487   3.883   1.184
 5721SOL    HW218063   0.525   3.760   1.285
 5722SOL     OW18064   6.355   1.785   5.602
 5722SOL    HW118065   6.345   1.790   5.701
 5722SOL    HW218066   6.274   1.742   5.562
 5723SOL     OW18067   4.698   3.648   0.344
 5723SOL    HW118068   4.745   3.604   0.420
 5723SOL    HW218069   4.683   3.582   0.271
 5724SOL     OW18070   5.178   3.174   4.882
 5724SOL    HW118071   5.105   3.114   4.915
 5724SOL    HW218072   5.142   3.232   4.809
 5725SOL     OW18073   5.226   4.905   3.513
 5725SOL    HW118074   5.293   4.847   3.559
 5725SOL    HW218075   5.274   4.964   3.448
 5726SOL     OW18076   0.104   4.685   5.448
 5726SOL    HW118077   0.024   4.694   5.508
 5726SOL    HW218078   0.177   4.636   5.497
 5727SOL     OW18079   6.642   1.258   4.073
 5727SOL    HW118080   6.654   1.158   4.077
 5727SOL    HW218081   6.645   1.288   3.978
 5728SOL     OW18082   3.890   1.044   6.130
 5728SOL    HW118083   3.967   1.091   6.173
 5728SOL    HW218084   3.811   1.105   6.126
 5729SOL     OW18085   1.190   1.087   0.674
 5729SOL    HW118086   1.169   1.159   0.740
 5729SOL    HW218087   1.289   1.084   0.659
 5730SOL     OW18088   4.921   5.449   5.994
 5730SOL    HW118089   4.972   5.388   5.933
 5730SOL    HW218090   4.929   5.416   6.088
 5731SOL     OW18091   0.574   6.833   3.866
 5731SOL    HW118092   0.625   6.748   3.880
 5731SOL    HW218093   0.637   6.911   3.875
 5732SOL     OW18094   6.110   5.401   4.379
 5732SOL    HW118095   6.173   5.324   4.375
 5732SOL    HW218096   6.064   5.412   4.291
 5733SOL     OW18097   4.022   6.785   4.900
 5733SOL    HW118098   3.997   6.705   4.954
 5733SOL    HW218099   4.118   6.777   4.872
 5734SOL     OW18100   0.963   6.815   5.865
 5734SOL    HW118101   0.911   6.819   5.950
 5734SOL    HW218102   0.941   6.730   5.817
 5735SOL     OW18103   3.909   2.123   1.971
 5735SOL    HW118104   3.931   2.061   1.896
 5735SOL    HW218105   3.815   2.155   1.961
 5736SOL     OW18106   5.965   4.251   0.546
 5736SOL    HW118107   5.992   4.181   0.613
 5736SOL    HW218108   6.044   4.309   0.526
 5737SOL     OW18109   4.789   6.257   0.569
 5737SOL    HW118110   4.808   6.198   0.491
 5737SOL    HW218111   4.691   6.274   0.574
 5738SOL     OW18112   2.872   3.337   6.447
 5738SOL    HW118113   2.960   3.377   6.421
 5738SOL    HW218114   2.887   3.253   6.498
 5739SOL     OW18115   1.106   0.510   5.645
 5739SOL    HW118116   1.130   0.474   5.555
 5739SOL    HW218117   1.090   0.609   5.638
 5740SOL     OW18118   4.204   3.599   1.310
 5740SOL    HW118119   4.239   3.606   1.403
 5740SOL    HW218120   4.278   3.570   1.249
 5741SOL     OW18121   0.161   3.993   4.313
 5741SOL    HW118122   0.202   4.044   4.389
 5741SOL    HW218123   0.181   3.896   4.323
 5742SOL     OW18124   4.900   6.596   2.975
 5742SOL    HW118125   4.951   6.663   3.029
 5742SOL    HW218126   4.803   6.604   2.995
 5743SOL     OW18127   2.737   5.205   5.558
 5743SOL    HW118128   2.732   5.265   5.478
 5743SOL    HW218129   2.687   5.120   5.539
 5744SOL     OW18130   5.313   1.527   2.148
 5744SOL    HW118131   5.308   1.499   2.245
 5744SOL    HW218132   5.248   1.601   2.132
 5745SOL     OW18133   2.004   0.739   4.140
 5745SOL    HW118134   2.023   0.787   4.226
 5745SOL    HW218135   1.934   0.669   4.156
 5746SOL     OW18136   5.362   6.453   1.471
 5746SOL    HW118137   5.427   6.428   1.400
 5746SOL    HW218138   5.289   6.509   1.431
 5747SOL     OW18139   0.158   4.393   2.825
 5747SOL    HW118140   0.079   4.436   2.783
 5747SOL    HW218141   0.129   4.319   2.885
 5748SOL     OW18142   1.712   5.591   0.443
 5748SOL    HW118143   1.632   5.552   0.396
 5748SOL    HW218144   1.712   5.560   0.538
 5749SOL     OW18145   1.505   6.659   4.632
 5749SOL    HW118146   1.497   6.565   4.665
 5749SOL    HW218147   1.530   6.658   4.535
 5750SOL     OW18148   6.804   5.910   4.284
 5750SOL    HW118149   6.821   5.820   4.245
 5750SOL    HW218150   6.840   5.981   4.223
 5751SOL     OW18151   2.919   2.281   4.580
 5751SOL    HW118152   2.938   2.270   4.677
 5751SOL    HW218153   2.829   2.324   4.569
 5752SOL     OW18154   6.537   0.792   0.303
 5752SOL    HW118155   6.511   0.885   0.276
 5752SOL    HW218156   6.604   0.756   0.238
 5753SOL     OW18157   3.842   2.977   4.573
 5753SOL    HW118158   3.923   2.920   4.577
 5753SOL    HW218159   3.847   3.038   4.493
 5754SOL     OW18160   6.900   4.907   1.331
 5754SOL    HW118161   6.965   4.918   1.406
 5754SOL    HW218162   6.831   4.840   1.356
 5755SOL     OW18163   2.228   3.758   6.101
 5755SOL    HW118164   2.151   3.749   6.164
 5755SOL    HW218165   2.212   3.700   6.021
 5756SOL     OW18166   6.139   7.021   3.445
 5756SOL    HW118167   6.094   0.075   3.403
 5756SOL    HW218168   6.142   6.945   3.380
 5757SOL     OW18169   6.486   6.509   2.939
 5757SOL    HW118170   6.559   6.479   3.002
 5757SOL    HW218171   6.398   6.505   2.987
 5758SOL     OW18172   2.506   0.963   4.535
 5758SOL    HW118173   2.440   0.969   4.459
 5758SOL    HW218174   2.479   0.889   4.596
 5759SOL     OW18175   5.100   1.774   6.658
 5759SOL    HW118176   5.117   1.742   6.565
 5759SOL    HW218177   5.187   1.800   6.701
 5760SOL     OW18178   0.285   4.462   0.891
 5760SOL    HW118179   0.249   4.439   0.801
 5760SOL    HW218180   0.336   4.384   0.927
 5761SOL     OW18181   5.555   6.707   6.314
 5761SOL    HW118182   5.570   6.756   6.229
 5761SOL    HW218183   5.558   6.771   6.391
 5762SOL     OW18184   4.690   5.829   0.245
 5762SOL    HW118185   4.716   5.735   0.222
 5762SOL    HW218186   4.736   5.892   0.183
 5763SOL     OW18187   0.252   6.942   0.384
 5763SOL    HW118188   0.239   0.014   0.407
 5763SOL    HW218189   0.276   6.933   0.288
 5764SOL     OW18190   5.235   5.254   5.178
 5764SOL    HW118191   5.162   5.276   5.243
 5764SOL    HW218192   5.282   5.171   5.206
 5765SOL     OW18193   6.188   3.326   0.124
 5765SOL    HW118194   6.236   3.371   0.200
 5765SOL    HW218195   6.153   3.395   0.061
 5766SOL     OW18196   1.762   2.620   6.594
 5766SOL    HW118197   1.801   2.598   6.504
 5766SOL    HW218198   1.669   2.654   6.582
 5767SOL     OW18199   2.205   1.026   0.183
 5767SOL    HW118200   2.287   1.065   0.142
 5767SOL    HW218201   2.228   0.986   0.271
 5768SOL     OW18202   0.864   6.274   3.163
 5768SOL    HW118203   0.839   6.357   3.113
 5768SOL    HW218204   0.864   6.196   3.101
 5769SOL     OW18205   2.233   5.792   4.141
 5769SOL    HW118206   2.135   5.778   4.157
 5769SOL    HW218207   2.279   5.704   4.134
 5770SOL     OW18208   5.896   6.776   0.649
 5770SOL    HW118209   5.952   6.854   0.676
 5770SOL    HW218210   5.801   6.791   0.676
 5771SOL     OW18211   1.682   6.842   3.507
 5771SOL    HW118212   1.656   6.778   3.434
 5771SOL    HW218213   1.780   6.862   3.500
 5772SOL     OW18214   5.946   1.789   1.004
 5772SOL    HW118215   6.018   1.846   0.964
 5772SOL    HW218216   5.857   1.827   0.980
 5773SOL     OW18217   4.418   1.063   3.798
 5773SOL    HW118218   4.419   1.053   3.699
 5773SOL    HW218219   4.324   1.060   3.832
 5774SOL     OW18220   3.121   5.446   3.673
 5774SOL    HW118221   3.140   5.544   3.665
 5774SOL    HW218222   3.064   5.417   3.596
 5775SOL     OW18223   1.432   1.014   2.253
 5775SOL    HW118224   1.400   0.959   2.330
 5775SOL    HW218225   1.489   0.958   2.193
 5776SOL     OW18226   0.192   0.636   5.672
 5776SOL    HW118227   0.160   0.626   5.766
 5776SOL    HW218228   0.137   0.578   5.612
 5777SOL     OW18229   6.306   7.009   4.869
 5777SOL    HW118230   6.296   0.066   4.812
 5777SOL    HW218231   6.322   0.012   4.963
 5778SOL     OW18232   1.435   0.444   1.652
 5778SOL    HW118233   1.364   0.442   1.723
 5778SOL    HW218234   1.407   0.385   1.576
 5779SOL     OW18235   4.622   2.128   0.588
 5779SOL    HW118236   4.568   2.132   0.672
 5779SOL    HW218237   4.703   2.071   0.603
 5780SOL     OW18238   6.044   5.142   3.088
 5780SOL    HW118239   5.948   5.115   3.081
 5780SOL    HW218240   6.099   5.063   3.111
 5781SOL     OW18241   6.896   3.950   4.499
 5781SOL    HW118242   6.974   4.001   4.534
 5781SOL    HW218243   6.821   3.955   4.565
 5782SOL     OW18244   0.891   1.131   0.734
 5782SOL    HW118245   0.900   1.050   0.792
 5782SOL    HW218246   0.979   1.152   0.690
 5783SOL     OW18247   1.778   1.000   1.416
 5783SOL    HW118248   1.817   0.944   1.343
 5783SOL    HW218249   1.682   0.975   1.430
 5784SOL     OW18250   6.955   6.404   6.871
 5784SOL    HW118251   7.016   6.437   6.944
 5784SOL    HW218252   6.938   6.478   6.806
 5785SOL     OW18253   1.702   1.843   0.907
 5785SOL    HW118254   1.608   1.815   0.924
 5785SOL    HW218255   1.760   1.816   0.984
 5786SOL     OW18256   0.669   4.250   0.873
 5786SOL    HW118257   0.757   4.207   0.895
 5786SOL    HW218258   0.660   4.259   0.774
 5787SOL     OW18259   4.038   2.815   5.617
 5787SOL    HW118260   4.034   2.797   5.518
 5787SOL    HW218261   4.089   2.741   5.662
 5788SOL     OW18262   2.866   1.663   1.286
 5788SOL    HW118263   2.855   1.683   1.383
 5788SOL    HW218264   2.899   1.569   1.275
 5789SOL     OW18265   3.285   4.381   6.854
 5789SOL    HW118266   3.218   4.326   6.804
 5789SOL    HW218267   3.377   4.345   6.838
 5790SOL     OW18268   0.322   4.528   4.982
 5790SOL    HW118269   0.387   4.602   4.963
 5790SOL    HW218270   0.317   4.513   5.081
 5791SOL     OW18271   3.186   1.830   2.160
 5791SOL    HW118272   3.171   1.912   2.105
 5791SOL    HW218273   3.170   1.749   2.104
 5792SOL     OW18274   5.128   2.393   2.384
 5792SOL    HW118275   5.130   2.322   2.314
 5792SOL    HW218276   5.087   2.476   2.346
 5793SOL     OW18277   6.144   0.606   4.455
 5793SOL    HW118278   6.237   0.590   4.423
 5793SOL    HW218279   6.090   0.650   4.384
 5794SOL     OW18280   2.762   0.334   6.044
 5794SOL    HW118281   2.699   0.411   6.050
 5794SOL    HW218282   2.757   0.281   6.129
 5795SOL     OW18283   0.254   6.240   0.781
 5795SOL    HW118284   0.353   6.226   0.790
 5795SOL    HW218285   0.234   6.338   0.778
 5796SOL     OW18286   4.870   1.463   6.573
 5796SOL    HW118287   4.826   1.395   6.514
 5796SOL    HW218288   4.954   1.495   6.529
 5797SOL     OW18289   5.107   2.157   0.023
 5797SOL    HW118290   5.109   2.159   0.123
 5797SOL    HW218291   5.160   2.079   7.014
 5798SOL     OW18292   6.736   5.369   4.670
 5798SOL    HW118293   6.728   5.338   4.765
 5798SOL    HW218294   6.653   5.419   4.645
 5799SOL     OW18295   0.102   0.353   4.590
 5799SOL    HW118296   0.137   0.304   4.670
 5799SOL    HW218297   0.157   0.329   4.510
 5800SOL     OW18298   0.475   6.922   1.944
 5800SOL    HW118299   0.394   6.866   1.959
 5800SOL    HW218300   0.519   6.941   2.031
 5801SOL     OW18301   1.630   2.182   3.235
 5801SOL    HW118302   1.600   2.184   3.139
 5801SOL    HW218303   1.559   2.139   3.291
 5802SOL     OW18304   6.411   3.048   2.716
 5802SOL    HW118305   6.447   2.993   2.792
 5802SOL    HW218306   6.429   3.145   2.734
 5803SOL     OW18307   1.822   5.967   3.022
 5803SOL    HW118308   1.863   5.934   2.936
 5803SOL    HW218309   1.816   6.066   3.021
 5804SOL     OW18310   0.277   5.413   3.284
 5804SOL    HW118311   0.181   5.441   3.285
 5804SOL    HW218312   0.284   5.319   3.250
 5805SOL     OW18313   1.759   3.094   0.953
 5805SOL    HW118314   1.771   3.129   0.860
 5805SOL    HW218315   1.699   3.014   0.950
 5806SOL     OW18316   6.495   5.473   4.878
 5806SOL    HW118317   6.409   5.511   4.844
 5806SOL    HW218318   6.476   5.389   4.930
 5807SOL     OW18319   1.273   5.358   0.460
 5807SOL    HW118320   1.266   5.308   0.375
 5807SOL    HW218321   1.257   5.296   0.537
 5808SOL     OW18322   7.020   6.206   4.129
 5808SOL    HW118323   7.019   6.233   4.225
 5808SOL    HW218324   0.077   6.243   4.084
 5809SOL     OW18325   6.641   1.682   5.244
 5809SOL    HW118326   6.632   1.663   5.342
 5809SOL    HW218327   6.727   1.731   5.228
 5810SOL     OW18328   5.108   0.842   5.888
 5810SOL    HW118329   5.083   0.939   5.885
 5810SOL    HW218330   5.025   0.786   5.891
 5811SOL     OW18331   3.223   1.292   5.190
 5811SOL    HW118332   3.319   1.313   5.173
 5811SOL    HW218333   3.194   1.219   5.127
 5812SOL     OW18334   5.258   3.210   5.677
 5812SOL    HW118335   5.174   3.263   5.671
 5812SOL    HW218336   5.240   3.125   5.726
 5813SOL     OW18337   2.551   0.704   0.857
 5813SOL    HW118338   2.637   0.658   0.835
 5813SOL    HW218339   2.493   0.642   0.911
 5814SOL     OW18340   6.777   3.100   2.273
 5814SOL    HW118341   6.778   3.160   2.353
 5814SOL    HW218342   6.708   3.133   2.208
 5815SOL     OW18343   3.838   1.378   3.872
 5815SOL    HW118344   3.809   1.336   3.958
 5815SOL    HW218345   3.895   1.458   3.892
 5816SOL     OW18346   4.816   4.497   0.172
 5816SOL    HW118347   4.819   4.403   0.137
 5816SOL    HW218348   4.723   4.534   0.160
 5817SOL     OW18349   6.131   4.965   5.746
 5817SOL    HW118350   6.166   4.887   5.696
 5817SOL    HW218351   6.197   5.041   5.740
 5818SOL     OW18352   6.421   5.442   5.575
 5818SOL    HW118353   6.506   5.490   5.596
 5818SOL    HW218354   6.343   5.502   5.595
 5819SOL     OW18355   4.005   6.904   6.947
 5819SOL    HW118356   4.074   6.973   6.924
 5819SOL    HW218357   4.014   6.827   6.884
 5820SOL     OW18358   4.129   4.784   2.909
 5820SOL    HW118359   4.064   4.708   2.902
 5820SOL    HW218360   4.199   4.762   2.977
 5821SOL     OW18361   0.031   0.646   1.742
 5821SOL    HW118362   0.033   0.583   1.820
 5821SOL    HW218363   0.122   0.650   1.700
 5822SOL     OW18364   1.833   2.341   1.487
 5822SOL    HW118365   1.780   2.423   1.507
 5822SOL    HW218366   1.869   2.346   1.394
 5823SOL     OW18367   2.796   0.506   4.650
 5823SOL    HW118368   2.836   0.596   4.633
 5823SOL    HW218369   2.865   0.436   4.635
 5824SOL     OW18370   6.993   5.957   2.935
 5824SOL    HW118371   6.939   6.031   2.974
 5824SOL    HW218372   0.049   5.940   2.992
 5825SOL     OW18373   0.208   6.641   4.531
 5825SOL    HW118374   0.287   6.666   4.588
 5825SOL    HW218375   0.124   6.665   4.579
 5826SOL     OW18376   0.225   5.594   6.769
 5826SOL    HW118377   0.207   5.509   6.820
 5826SOL    HW218378   0.158   5.604   6.696
 5827SOL     OW18379   1.708   3.487   4.731
 5827SOL    HW118380   1.645   3.538   4.671
 5827SOL    HW218381   1.722   3.539   4.815
 5828SOL     OW18382   5.211   1.831   2.766
 5828SOL    HW118383   5.140   1.761   2.777
 5828SOL    HW218384   5.289   1.792   2.717
 5829SOL     OW18385   1.634   0.200   4.253
 5829SOL    HW118386   1.594   0.170   4.166
 5829SOL    HW218387   1.733   0.187   4.251
 5830SOL     OW18388   5.567   0.044   6.051
 5830SOL    HW118389   5.600   0.128   6.007
 5830SOL    HW218390   5.580   6.991   5.988
 5831SOL     OW18391   1.196   0.759   5.823
 5831SOL    HW118392   1.271   0.826   5.824
 5831SOL    HW218393   1.129   0.782   5.894
 5832SOL     OW18394   3.287   4.691   6.810
 5832SOL    HW118395   3.354   4.765   6.805
 5832SOL    HW218396   3.327   4.607   6.773
 5833SOL     OW18397   4.275   3.757   5.234
 5833SOL    HW118398   4.374   3.760   5.247
 5833SOL    HW218399   4.254   3.707   5.150
 5834SOL     OW18400   0.087   3.677   0.009
 5834SOL    HW118401   0.104   3.763   0.057
 5834SOL    HW218402   0.078   3.696   6.935
 5835SOL     OW18403   5.770   2.341   3.363
 5835SOL    HW118404   5.671   2.340   3.353
 5835SOL    HW218405   5.804   2.434   3.346
 5836SOL     OW18406   3.449   0.306   1.549
 5836SOL    HW118407   3.411   0.340   1.463
 5836SOL    HW218408   3.378   0.304   1.619
 5837SOL     OW18409   3.300   3.523   0.096
 5837SOL    HW118410   3.350   3.566   0.021
 5837SOL    HW218411   3.202   3.525   0.077
 5838SOL     OW18412   2.729   1.861   0.814
 5838SOL    HW118413   2.710   1.797   0.739
 5838SOL    HW218414   2.780   1.814   0.885
 5839SOL     OW18415   0.540   2.014   1.332
 5839SOL    HW118416   0.546   1.969   1.421
 5839SOL    HW218417   0.444   2.017   1.302
 5840SOL     OW18418   1.540   4.422   6.238
 5840SOL    HW118419   1.474   4.355   6.202
 5840SOL    HW218420   1.603   4.448   6.165
 5841SOL     OW18421   5.112   1.552   2.396
 5841SOL    HW118422   5.059   1.467   2.388
 5841SOL    HW218423   5.049   1.628   2.414
 5842SOL     OW18424   4.631   2.776   1.815
 5842SOL    HW118425   4.647   2.871   1.841
 5842SOL    HW218426   4.688   2.753   1.737
 5843SOL     OW18427   1.345   4.532   2.099
 5843SOL    HW118428   1.409   4.605   2.122
 5843SOL    HW218429   1.372   4.490   2.012
 5844SOL     OW18430   1.611   6.096   5.717
 5844SOL    HW118431   1.573   6.185   5.742
 5844SOL    HW218432   1.544   6.045   5.665
 5845SOL     OW18433   0.566   0.709   1.858
 5845SOL    HW118434   0.474   0.727   1.893
 5845SOL    HW218435   0.572   0.736   1.762
 5846SOL     OW18436   6.140   3.617   6.124
 5846SOL    HW118437   6.178   3.686   6.186
 5846SOL    HW218438   6.119   3.659   6.036
 5847SOL     OW18439   2.676   2.218   2.092
 5847SOL    HW118440   2.749   2.279   2.063
 5847SOL    HW218441   2.707   2.163   2.169
 5848SOL     OW18442   1.439   5.281   3.410
 5848SOL    HW118443   1.438   5.195   3.460
 5848SOL    HW218444   1.483   5.352   3.465
 5849SOL     OW18445   1.913   0.406   5.102
 5849SOL    HW118446   1.903   0.307   5.091
 5849SOL    HW218447   1.822   0.449   5.101
 5850SOL     OW18448   6.805   3.504   1.874
 5850SOL    HW118449   6.882   3.550   1.831
 5850SOL    HW218450   6.833   3.466   1.962
 5851SOL     OW18451   5.235   3.241   3.451
 5851SOL    HW118452   5.260   3.232   3.355
 5851SOL    HW218453   5.308   3.205   3.509
 5852SOL     OW18454   5.468   6.300   3.214
 5852SOL    HW118455   5.552   6.285   3.161
 5852SOL    HW218456   5.433   6.212   3.246
 5853SOL     OW18457   4.072   5.233   5.146
 5853SOL    HW118458   3.986   5.205   5.105
 5853SOL    HW218459   4.080   5.333   5.143
 5854SOL     OW18460   4.242   4.265   5.926
 5854SOL    HW118461   4.200   4.215   6.003
 5854SOL    HW218462   4.313   4.208   5.884
 5855SOL     OW18463   1.722   0.829   4.480
 5855SOL    HW118464   1.818   0.843   4.459
 5855SOL    HW218465   1.699   0.732   4.475
 5856SOL     OW18466   1.858   5.392   3.491
 5856SOL    HW118467   1.900   5.341   3.566
 5856SOL    HW218468   1.845   5.332   3.413
 5857SOL     OW18469   6.092   2.986   5.796
 5857SOL    HW118470   6.154   3.026   5.863
 5857SOL    HW218471   6.000   2.982   5.835
 5858SOL     OW18472   2.588   2.346   2.499
 5858SOL    HW118473   2.573   2.414   2.428
 5858SOL    HW218474   2.534   2.264   2.479
 5859SOL     OW18475   6.646   6.264   1.653
 5859SOL    HW118476   6.681   6.242   1.745
 5859SOL    HW218477   6.702   6.218   1.585
 5860SOL     OW18478   6.967   4.387   3.325
 5860SOL    HW118479   6.998   4.474   3.290
 5860SOL    HW218480   6.879   4.399   3.371
 5861SOL     OW18481   5.440   1.510   4.265
 5861SOL    HW118482   5.369   1.578   4.283
 5861SOL    HW218483   5.473   1.472   4.352
 5862SOL     OW18484   5.918   5.672   0.889
 5862SOL    HW118485   5.934   5.605   0.817
 5862SOL    HW218486   5.867   5.629   0.963
 5863SOL     OW18487   3.050   2.005   5.062
 5863SOL    HW118488   3.102   1.952   5.129
 5863SOL    HW218489   3.084   2.099   5.060
 5864SOL     OW18490   3.661   4.100   2.419
 5864SOL    HW118491   3.581   4.134   2.369
 5864SOL    HW218492   3.698   4.020   2.372
 5865SOL     OW18493   6.196   0.394   5.964
 5865SOL    HW118494   6.230   0.416   6.055
 5865SOL    HW218495   6.101   0.365   5.969
 5866SOL     OW18496   3.562   3.531   1.015
 5866SOL    HW118497   3.652   3.542   0.972
 5866SOL    HW218498   3.490   3.552   0.948
 5867SOL     OW18499   2.281   3.741   0.986
 5867SOL    HW118500   2.186   3.752   1.014
 5867SOL    HW218501   2.309   3.818   0.929
 5868SOL     OW18502   1.342   1.514   5.439
 5868SOL    HW118503   1.317   1.507   5.342
 5868SOL    HW218504   1.385   1.603   5.456
 5869SOL     OW18505   1.674   6.643   3.291
 5869SOL    HW118506   1.771   6.640   3.268
 5869SOL    HW218507   1.652   6.567   3.352
 5870SOL     OW18508   4.803   6.844   4.671
 5870SOL    HW118509   4.889   6.809   4.633
 5870SOL    HW218510   4.785   6.936   4.635
 5871SOL     OW18511   3.323   3.016   1.657
 5871SOL    HW118512   3.275   2.988   1.740
 5871SOL    HW218513   3.262   3.009   1.579
 5872SOL     OW18514   4.889   6.782   1.009
 5872SOL    HW118515   4.796   6.778   1.047
 5872SOL    HW218516   4.910   6.695   0.964
 5873SOL     OW18517   3.452   0.901   2.142
 5873SOL    HW118518   3.513   0.885   2.220
 5873SOL    HW218519   3.362   0.929   2.174
 5874SOL     OW18520   2.589   4.600   5.704
 5874SOL    HW118521   2.513   4.589   5.767
 5874SOL    HW218522   2.554   4.603   5.610
 5875SOL     OW18523   4.288   1.501   0.034
 5875SOL    HW118524   4.374   1.460   0.066
 5875SOL    HW218525   4.216   1.433   0.035
 5876SOL     OW18526   3.620   2.964   1.701
 5876SOL    HW118527   3.636   2.925   1.791
 5876SOL    HW218528   3.521   2.970   1.685
 5877SOL     OW18529   0.336   6.690   1.511
 5877SOL    HW118530   0.342   6.604   1.562
 5877SOL    HW218531   0.241   6.720   1.508
 5878SOL     OW18532   0.014   5.438   4.314
 5878SOL    HW118533   0.066   5.470   4.393
 5878SOL    HW218534   6.962   5.380   4.345
 5879SOL     OW18535   1.401   4.107   6.476
 5879SOL    HW118536   1.388   4.151   6.565
 5879SOL    HW218537   1.333   4.034   6.465
 5880SOL     OW18538   4.426   4.430   6.303
 5880SOL    HW118539   4.398   4.341   6.265
 5880SOL    HW218540   4.486   4.476   6.238
 5881SOL     OW18541   1.007   6.818   2.599
 5881SOL    HW118542   1.086   6.868   2.634
 5881SOL    HW218543   1.026   6.787   2.506
 5882SOL     OW18544   0.180   5.429   1.535
 5882SOL    HW118545   0.274   5.463   1.524
 5882SOL    HW218546   0.127   5.453   1.453
 5883SOL     OW18547   0.848   1.149   6.649
 5883SOL    HW118548   0.890   1.239   6.635
 5883SOL    HW218549   0.903   1.096   6.714
 5884SOL     OW18550   3.272   1.559   4.816
 5884SOL    HW118551   3.274   1.653   4.782
 5884SOL    HW218552   3.312   1.498   4.747
 5885SOL     OW18553   0.807   7.001   2.588
 5885SOL    HW118554   0.845   0.060   2.629
 5885SOL    HW218555   0.874   6.927   2.597
 5886SOL     OW18556   0.818   2.033   4.839
 5886SOL    HW118557   0.803   1.986   4.926
 5886SOL    HW218558   0.835   1.965   4.768
 5887SOL     OW18559   2.597   1.836   2.732
 5887SOL    HW118560   2.672   1.858   2.795
 5887SOL    HW218561   2.589   1.736   2.724
 5888SOL     OW18562   3.050   0.932   1.442
 5888SOL    HW118563   3.083   0.841   1.466
 5888SOL    HW218564   3.055   0.945   1.343
 5889SOL     OW18565   1.276   6.752   0.483
 5889SOL    HW118566   1.269   6.752   0.383
 5889SOL    HW218567   1.290   6.658   0.515
 5890SOL     OW18568   2.158   1.060   3.456
 5890SOL    HW118569   2.163   0.988   3.387
 5890SOL    HW218570   2.202   1.028   3.540
 5891SOL     OW18571   3.506   3.026   6.357
 5891SOL    HW118572   3.472   3.099   6.416
 5891SOL    HW218573   3.438   2.953   6.352
 5892SOL     OW18574   0.864   5.443   1.477
 5892SOL    HW118575   0.792   5.378   1.501
 5892SOL    HW218576   0.930   5.398   1.416
 5893SOL     OW18577   2.148   3.937   4.074
 5893SOL    HW118578   2.139   3.866   4.144
 5893SOL    HW218579   2.098   3.910   3.993
 5894SOL     OW18580   6.652   5.208   4.172
 5894SOL    HW118581   6.653   5.253   4.262
 5894SOL    HW218582   6.734   5.234   4.121
 5895SOL     OW18583   5.566   3.989   3.876
 5895SOL    HW118584   5.483   3.995   3.821
 5895SOL    HW218585   5.543   3.960   3.969
 5896SOL     OW18586   3.914   0.697   0.473
 5896SOL    HW118587   3.825   0.739   0.494
 5896SOL    HW218588   3.962   0.676   0.558
 5897SOL     OW18589   4.343   0.601   1.385
 5897SOL    HW118590   4.364   0.529   1.451
 5897SOL    HW218591   4.424   0.621   1.330
 5898SOL     OW18592   2.177   6.383   3.847
 5898SOL    HW118593   2.248   6.454   3.850
 5898SOL    HW218594   2.203   6.313   3.780
 5899SOL     OW18595   5.914   5.946   6.373
 5899SOL    HW118596   5.907   6.044   6.356
 5899SOL    HW218597   5.822   5.906   6.378
 5900SOL     OW18598   5.790   5.350   3.622
 5900SOL    HW118599   5.843   5.265   3.622
 5900SOL    HW218600   5.768   5.375   3.527
 5901SOL     OW18601   2.170   0.700   0.064
 5901SOL    HW118602   2.188   0.796   0.040
 5901SOL    HW218603   2.074   0.679   0.045
 5902SOL     OW18604   6.534   2.673   5.673
 5902SOL    HW118605   6.538   2.673   5.773
 5902SOL    HW218606   6.452   2.723   5.643
 5903SOL     OW18607   4.967   4.887   0.114
 5903SOL    HW118608   4.969   4.982   0.145
 5903SOL    HW218609   4.879   4.868   0.070
 5904SOL     OW18610   1.256   4.353   1.609
 5904SOL    HW118611   1.290   4.288   1.541
 5904SOL    HW218612   1.293   4.444   1.590
 5905SOL     OW18613   6.118   6.390   3.445
 5905SOL    HW118614   6.148   6.436   3.528
 5905SOL    HW218615   6.021   6.410   3.429
 5906SOL     OW18616   3.664   2.115   4.125
 5906SOL    HW118617   3.641   2.019   4.106
 5906SOL    HW218618   3.640   2.136   4.220
 5907SOL     OW18619   1.498   5.081   0.807
 5907SOL    HW118620   1.445   4.998   0.822
 5907SOL    HW218621   1.509   5.096   0.708
 5908SOL     OW18622   0.179   2.686   0.144
 5908SOL    HW118623   0.270   2.645   0.139
 5908SOL    HW218624   0.188   2.785   0.150
 5909SOL     OW18625   6.334   5.583   0.787
 5909SOL    HW118626   6.353   5.485   0.790
 5909SOL    HW218627   6.235   5.598   0.794
 5910SOL     OW18628   0.174   3.655   4.151
 5910SOL    HW118629   0.186   3.718   4.228
 5910SOL    HW218630   0.078   3.647   4.127
 5911SOL     OW18631   6.896   6.381   6.512
 5911SOL    HW118632   6.888   6.294   6.561
 5911SOL    HW218633   6.904   6.456   6.578
 5912SOL     OW18634   6.659   1.497   6.153
 5912SOL    HW118635   6.627   1.592   6.160
 5912SOL    HW218636   6.626   1.458   6.067
 5913SOL     OW18637   5.164   3.108   6.385
 5913SOL    HW118638   5.214   3.115   6.299
 5913SOL    HW218639   5.069   3.085   6.366
 5914SOL     OW18640   1.186   4.548   5.636
 5914SOL    HW118641   1.224   4.614   5.700
 5914SOL    HW218642   1.173   4.460   5.681
 5915SOL     OW18643   4.637   5.724   1.060
 5915SOL    HW118644   4.684   5.687   1.140
 5915SOL    HW218645   4.691   5.798   1.021
 5916SOL     OW18646   5.425   6.919   3.892
 5916SOL    HW118647   5.381   6.996   3.846
 5916SOL    HW218648   5.435   6.843   3.828
 5917SOL     OW18649   2.906   3.530   4.511
 5917SOL    HW118650   2.911   3.626   4.537
 5917SOL    HW218651   2.891   3.474   4.592
 5918SOL     OW18652   1.830   3.574   6.118
 5918SOL    HW118653   1.766   3.545   6.190
 5918SOL    HW218654   1.911   3.615   6.160
 5919SOL     OW18655   3.461   3.262   3.100
 5919SOL    HW118656   3.422   3.220   3.182
 5919SOL    HW218657   3.540   3.318   3.126
 5920SOL     OW18658   4.774   0.957   6.707
 5920SOL    HW118659   4.871   0.941   6.691
 5920SOL    HW218660   4.729   0.869   6.726
 5921SOL     OW18661   3.607   5.647   6.567
 5921SOL    HW118662   3.556   5.570   6.605
 5921SOL    HW218663   3.652   5.619   6.482
 5922SOL     OW18664   5.356   4.879   2.731
 5922SOL    HW118665   5.264   4.910   2.753
 5922SOL    HW218666   5.390   4.819   2.804
 5923SOL     OW18667   6.283   1.398   1.492
 5923SOL    HW118668   6.350   1.326   1.473
 5923SOL    HW218669   6.276   1.411   1.591
 5924SOL     OW18670   5.917   0.201   2.736
 5924SOL    HW118671   5.880   0.154   2.656
 5924SOL    HW218672   5.947   0.133   2.803
 5925SOL     OW18673   3.935   6.966   2.161
 5925SOL    HW118674   3.915   0.040   2.163
 5925SOL    HW218675   4.034   6.952   2.172
 5926SOL     OW18676   4.137   5.505   1.574
 5926SOL    HW118677   4.109   5.584   1.520
 5926SOL    HW218678   4.230   5.518   1.607
 5927SOL     OW18679   1.380   3.850   2.470
 5927SOL    HW118680   1.384   3.946   2.500
 5927SOL    HW218681   1.341   3.845   2.378
 5928SOL     OW18682   4.165   0.360   1.134
 5928SOL    HW118683   4.080   0.385   1.088
 5928SOL    HW218684   4.224   0.441   1.142
 5929SOL     OW18685   6.940   7.019   6.568
 5929SOL    HW118686   6.881   6.939   6.582
 5929SOL    HW218687   6.884   0.073   6.539
 5930SOL     OW18688   6.617   3.615   2.794
 5930SOL    HW118689   6.635   3.713   2.780
 5930SOL    HW218690   6.691   3.562   2.753
 5931SOL     OW18691   0.382   5.344   2.952
 5931SOL    HW118692   0.426   5.342   3.042
 5931SOL    HW218693   0.401   5.431   2.907
 5932SOL     OW18694   3.335   0.243   0.283
 5932SOL    HW118695   3.251   0.290   0.313
 5932SOL    HW218696   3.313   0.183   0.206
 5933SOL     OW18697   0.107   5.293   2.966
 5933SOL    HW118698   0.102   5.235   2.884
 5933SOL    HW218699   0.203   5.300   2.994
 5934SOL     OW18700   3.478   2.865   4.820
 5934SOL    HW118701   3.454   2.770   4.801
 5934SOL    HW218702   3.399   2.912   4.859
 5935SOL     OW18703   5.389   5.086   6.449
 5935SOL    HW118704   5.444   5.136   6.382
 5935SOL    HW218705   5.449   5.035   6.510
 5936SOL     OW18706   3.527   2.448   1.342
 5936SOL    HW118707   3.625   2.446   1.361
 5936SOL    HW218708   3.478   2.473   1.426
 5937SOL     OW18709   6.644   3.990   2.389
 5937SOL    HW118710   6.735   3.968   2.353
 5937SOL    HW218711   6.653   4.031   2.480
 5938SOL     OW18712   0.096   5.689   3.049
 5938SOL    HW118713   0.144   5.756   3.106
 5938SOL    HW218714   0.005   5.724   3.027
 5939SOL     OW18715   2.416   6.659   3.219
 5939SOL    HW118716   2.495   6.677   3.277
 5939SOL    HW218717   2.352   6.599   3.268
 5940SOL     OW18718   4.378   5.518   1.682
 5940SOL    HW118719   4.414   5.429   1.711
 5940SOL    HW218720   4.454   5.577   1.654
 5941SOL     OW18721   6.056   2.906   2.320
 5941SOL    HW118722   6.091   2.890   2.413
 5941SOL    HW218723   6.116   2.861   2.254
 5942SOL     OW18724   5.304   3.854   0.244
 5942SOL    HW118725   5.402   3.870   0.253
 5942SOL    HW218726   5.258   3.878   0.329
 5943SOL     OW18727   3.514   4.687   5.913
 5943SOL    HW118728   3.421   4.662   5.939
 5943SOL    HW218729   3.555   4.613   5.860
 5944SOL     OW18730   6.847   2.696   1.098
 5944SOL    HW118731   6.927   2.721   1.151
 5944SOL    HW218732   6.774   2.666   1.160
 5945SOL     OW18733   6.464   5.235   4.666
 5945SOL    HW118734   6.401   5.255   4.742
 5945SOL    HW218735   6.446   5.298   4.591
 5946SOL     OW18736   3.748   3.452   6.198
 5946SOL    HW118737   3.690   3.372   6.181
 5946SOL    HW218738   3.839   3.436   6.161
 5947SOL     OW18739   2.973   3.424   2.201
 5947SOL    HW118740   2.990   3.327   2.216
 5947SOL    HW218741   2.972   3.471   2.290
 5948SOL     OW18742   4.282   4.701   3.132
 5948SOL    HW118743   4.348   4.646   3.184
 5948SOL    HW218744   4.198   4.710   3.185
 5949SOL     OW18745   5.236   3.750   1.836
 5949SOL    HW118746   5.206   3.846   1.830
 5949SOL    HW218747   5.172   3.693   1.785
 5950SOL     OW18748   4.913   1.082   5.298
 5950SOL    HW118749   4.890   1.168   5.343
 5950SOL    HW218750   4.940   1.100   5.203
 5951SOL     OW18751   1.275   5.949   3.785
 5951SOL    HW118752   1.224   5.989   3.861
 5951SOL    HW218753   1.247   5.854   3.772
 5952SOL     OW18754   5.802   4.587   3.414
 5952SOL    HW118755   5.736   4.661   3.428
 5952SOL    HW218756   5.768   4.504   3.457
 5953SOL     OW18757   6.431   3.384   5.760
 5953SOL    HW118758   6.361   3.452   5.736
 5953SOL    HW218759   6.519   3.413   5.722
 5954SOL     OW18760   6.392   5.040   5.111
 5954SOL    HW118761   6.319   5.100   5.141
 5954SOL    HW218762   6.450   5.015   5.189
 5955SOL     OW18763   5.100   5.756   2.145
 5955SOL    HW118764   5.056   5.700   2.216
 5955SOL    HW218765   5.042   5.834   2.123
 5956SOL     OW18766   4.545   1.957   4.529
 5956SOL    HW118767   4.615   1.991   4.466
 5956SOL    HW218768   4.578   1.873   4.572
 5957SOL     OW18769   3.871   1.193   5.396
 5957SOL    HW118770   3.804   1.224   5.328
 5957SOL    HW218771   3.946   1.259   5.401
 5958SOL     OW18772   5.870   6.383   2.891
 5958SOL    HW118773   5.813   6.343   2.962
 5958SOL    HW218774   5.833   6.472   2.864
 5959SOL     OW18775   4.423   3.011   5.351
 5959SOL    HW118776   4.331   3.045   5.367
 5959SOL    HW218777   4.418   2.923   5.304
 5960SOL     OW18778   4.320   5.435   4.850
 5960SOL    HW118779   4.276   5.346   4.862
 5960SOL    HW218780   4.251   5.507   4.852
 5961SOL     OW18781   4.921   1.743   2.859
 5961SOL    HW118782   4.931   1.669   2.926
 5961SOL    HW218783   4.861   1.712   2.785
 5962SOL     OW18784   5.815   6.434   0.394
 5962SOL    HW118785   5.807   6.390   0.304
 5962SOL    HW218786   5.912   6.451   0.413
 5963SOL     OW18787   4.051   3.624   6.311
 5963SOL    HW118788   3.989   3.693   6.274
 5963SOL    HW218789   4.047   3.626   6.411
 5964SOL     OW18790   0.359   5.488   5.517
 5964SOL    HW118791   0.405   5.405   5.547
 5964SOL    HW218792   0.261   5.480   5.535
 5965SOL     OW18793   2.013   1.988   6.764
 5965SOL    HW118794   2.081   1.951   6.827
 5965SOL    HW218795   1.976   2.073   6.801
 5966SOL     OW18796   2.196   5.909   4.886
 5966SOL    HW118797   2.180   5.811   4.875
 5966SOL    HW218798   2.245   5.926   4.971
 5967SOL     OW18799   4.102   6.593   6.210
 5967SOL    HW118800   4.151   6.511   6.239
 5967SOL    HW218801   4.102   6.660   6.284
 5968SOL     OW18802   5.081   2.341   0.565
 5968SOL    HW118803   5.075   2.314   0.661
 5968SOL    HW218804   4.993   2.329   0.521
 5969SOL     OW18805   6.248   6.972   6.789
 5969SOL    HW118806   6.268   0.046   6.789
 5969SOL    HW218807   6.184   6.951   6.863
 5970SOL     OW18808   0.218   4.055   2.699
 5970SOL    HW118809   0.183   4.126   2.760
 5970SOL    HW218810   0.310   4.030   2.727
 5971SOL     OW18811   0.314   1.040   2.613
 5971SOL    HW118812   0.408   1.004   2.615
 5971SOL    HW218813   0.286   1.056   2.518
 5972SOL     OW18814   5.949   5.604   6.143
 5972SOL    HW118815   5.850   5.607   6.148
 5972SOL    HW218816   5.981   5.668   6.074
 5973SOL     OW18817   1.472   3.743   2.707
 5973SOL    HW118818   1.452   3.773   2.613
 5973SOL    HW218819   1.410   3.669   2.731
 5974SOL     OW18820   5.806   6.125   6.739
 5974SOL    HW118821   5.778   6.197   6.802
 5974SOL    HW218822   5.724   6.079   6.704
 5975SOL     OW18823   4.635   0.112   0.611
 5975SOL    HW118824   4.677   0.135   0.523
 5975SOL    HW218825   4.687   0.154   0.685
 5976SOL     OW18826   3.781   2.423   6.330
 5976SOL    HW118827   3.861   2.372   6.299
 5976SOL    HW218828   3.737   2.467   6.252
 5977SOL     OW18829   1.577   5.838   6.443
 5977SOL    HW118830   1.661   5.887   6.418
 5977SOL    HW218831   1.521   5.824   6.361
 5978SOL     OW18832   4.498   5.308   1.795
 5978SOL    HW118833   4.566   5.360   1.846
 5978SOL    HW218834   4.542   5.230   1.751
 5979SOL     OW18835   5.196   0.622   3.169
 5979SOL    HW118836   5.109   0.581   3.142
 5979SOL    HW218837   5.257   0.626   3.089
 5980SOL     OW18838   3.408   3.636   1.210
 5980SOL    HW118839   3.339   3.687   1.160
 5980SOL    HW218840   3.481   3.607   1.148
 5981SOL     OW18841   5.385   2.170   1.346
 5981SOL    HW118842   5.308   2.169   1.408
 5981SOL    HW218843   5.458   2.227   1.384
 5982SOL     OW18844   6.057   3.291   2.063
 5982SOL    HW118845   6.144   3.253   2.032
 5982SOL    HW218846   6.048   3.278   2.162
 5983SOL     OW18847   1.601   1.549   3.843
 5983SOL    HW118848   1.593   1.453   3.869
 5983SOL    HW218849   1.510   1.591   3.846
 5984SOL     OW18850   6.876   5.490   3.737
 5984SOL    HW118851   6.837   5.510   3.826
 5984SOL    HW218852   6.875   5.572   3.680
 5985SOL     OW18853   6.779   2.478   4.327
 5985SOL    HW118854   6.819   2.448   4.240
 5985SOL    HW218855   6.680   2.488   4.317
 5986SOL     OW18856   3.429   3.723   4.617
 5986SOL    HW118857   3.524   3.731   4.648
 5986SOL    HW218858   3.383   3.811   4.626
 5987SOL     OW18859   5.588   0.196   3.858
 5987SOL    HW118860   5.603   0.113   3.912
 5987SOL    HW218861   5.566   0.172   3.764
 5988SOL     OW18862   4.770   0.388   6.034
 5988SOL    HW118863   4.822   0.330   5.971
 5988SOL    HW218864   4.722   0.459   5.982
 5989SOL     OW18865   2.267   5.901   6.358
 5989SOL    HW118866   2.283   5.996   6.332
 5989SOL    HW218867   2.309   5.883   6.446
 5990SOL     OW18868   3.950   3.547   0.660
 5990SOL    HW118869   4.048   3.557   0.674
 5990SOL    HW218870   3.924   3.451   0.667
 5991SOL     OW18871   3.689   5.167   6.764
 5991SOL    HW118872   3.777   5.186   6.720
 5991SOL    HW218873   3.706   5.123   6.853
 5992SOL     OW18874   3.549   0.617   2.046
 5992SOL    HW118875   3.572   0.601   1.950
 5992SOL    HW218876   3.496   0.701   2.055
 5993SOL     OW18877   3.548   5.097   5.943
 5993SOL    HW118878   3.473   5.034   5.964
 5993SOL    HW218879   3.544   5.123   5.847
 5994SOL     OW18880   5.705   2.593   2.129
 5994SOL    HW118881   5.756   2.637   2.055
 5994SOL    HW218882   5.679   2.662   2.197
 5995SOL     OW18883   4.833   3.704   2.755
 5995SOL    HW118884   4.865   3.767   2.826
 5995SOL    HW218885   4.784   3.628   2.798
 5996SOL     OW18886   1.187   5.998   1.620
 5996SOL    HW118887   1.236   5.918   1.655
 5996SOL    HW218888   1.101   5.968   1.578
 5997SOL     OW18889   0.392   5.760   2.967
 5997SOL    HW118890   0.396   5.691   3.040
 5997SOL    HW218891   0.315   5.822   2.984
 5998SOL     OW18892   5.949   1.300   3.230
 5998SOL    HW118893   5.856   1.329   3.206
 5998SOL    HW218894   5.946   1.244   3.312
 5999SOL     OW18895   2.130   2.135   1.850
 5999SOL    HW118896   2.124   2.038   1.823
 5999SOL    HW218897   2.221   2.154   1.885
 6000SOL     OW18898   3.178   0.034   0.825
 6000SOL    HW118899   3.210   6.970   0.790
 6000SOL    HW218900   3.252   0.079   0.875
 6001SOL     OW18901   0.581   4.026   6.804
 6001SOL    HW118902   0.620   3.939   6.772
 6001SOL    HW218903   0.501   4.008   6.861
 6002SOL     OW18904   6.095   1.376   0.729
 6002SOL    HW118905   6.193   1.376   0.747
 6002SOL    HW218906   6.046   1.419   0.804
 6003SOL     OW18907   5.804   1.870   4.614
 6003SOL    HW118908   5.787   1.884   4.711
 6003SOL    HW218909   5.822   1.958   4.570
 6004SOL     OW18910   6.998   3.955   2.942
 6004SOL    HW118911   7.006   3.871   2.888
 6004SOL    HW218912   7.003   3.933   3.039
 6005SOL     OW18913   4.652   5.587   4.070
 6005SOL    HW118914   4.736   5.546   4.106
 6005SOL    HW218915   4.675   5.668   4.016
 6006SOL     OW18916   2.319   1.311   5.171
 6006SOL    HW118917   2.363   1.364   5.244
 6006SOL    HW218918   2.335   1.356   5.083
 6007SOL     OW18919   5.475   4.224   5.333
 6007SOL    HW118920   5.415   4.148   5.310
 6007SOL    HW218921   5.525   4.204   5.417
 6008SOL     OW18922   2.431   4.606   5.441
 6008SOL    HW118923   2.462   4.603   5.346
 6008SOL    HW218924   2.361   4.535   5.454
 6009SOL     OW18925   2.042   1.263   3.001
 6009SOL    HW118926   2.054   1.169   3.035
 6009SOL    HW218927   2.026   1.260   2.903
 6010SOL     OW18928   0.806   4.927   4.213
 6010SOL    HW118929   0.771   4.990   4.282
 6010SOL    HW218930   0.743   4.851   4.202
 6011SOL     OW18931   5.001   2.922   3.529
 6011SOL    HW118932   5.017   2.829   3.562
 6011SOL    HW218933   5.026   2.928   3.433
 6012SOL     OW18934   5.582   0.791   0.179
 6012SOL    HW118935   5.511   0.739   0.132
 6012SOL    HW218936   5.628   0.851   0.114
 6013SOL     OW18937   4.764   2.180   2.525
 6013SOL    HW118938   4.708   2.217   2.599
 6013SOL    HW218939   4.744   2.082   2.514
 6014SOL     OW18940   4.068   3.279   2.733
 6014SOL    HW118941   4.058   3.345   2.659
 6014SOL    HW218942   4.011   3.199   2.713
 6015SOL     OW18943   5.933   3.739   3.675
 6015SOL    HW118944   5.890   3.714   3.588
 6015SOL    HW218945   5.862   3.755   3.743
 6016SOL     OW18946   6.850   2.045   5.453
 6016SOL    HW118947   6.806   1.956   5.441
 6016SOL    HW218948   6.921   2.057   5.383
 6017SOL     OW18949   6.453   4.554   3.462
 6017SOL    HW118950   6.455   4.584   3.557
 6017SOL    HW218951   6.360   4.565   3.425
 6018SOL     OW18952   4.389   0.367   6.570
 6018SOL    HW118953   4.435   0.371   6.482
 6018SOL    HW218954   4.296   0.333   6.558
 6019SOL     OW18955   6.963   1.877   4.230
 6019SOL    HW118956   0.018   1.936   4.242
 6019SOL    HW218957   6.992   1.790   4.190
 6020SOL     OW18958   1.174   5.200   0.645
 6020SOL    HW118959   1.102   5.140   0.678
 6020SOL    HW218960   1.151   5.295   0.666
 6021SOL     OW18961   4.436   0.387   3.343
 6021SOL    HW118962   4.442   0.386   3.443
 6021SOL    HW218963   4.450   0.481   3.310
 6022SOL     OW18964   5.426   1.909   3.822
 6022SOL    HW118965   5.430   1.857   3.737
 6022SOL    HW218966   5.462   1.852   3.897
 6023SOL     OW18967   5.785   0.630   1.741
 6023SOL    HW118968   5.760   0.662   1.833
 6023SOL    HW218969   5.726   0.673   1.673
 6024SOL     OW18970   1.624   4.714   2.858
 6024SOL    HW118971   1.695   4.757   2.913
 6024SOL    HW218972   1.569   4.784   2.813
 6025SOL     OW18973   3.345   1.495   3.231
 6025SOL    HW118974   3.298   1.558   3.170
 6025SOL    HW218975   3.320   1.515   3.326
 6026SOL     OW18976   0.127   4.262   5.252
 6026SOL    HW118977   0.140   4.269   5.153
 6026SOL    HW218978   0.034   4.289   5.276
 6027SOL     OW18979   0.368   3.400   5.931
 6027SOL    HW118980   0.280   3.444   5.950
 6027SOL    HW218981   0.441   3.453   5.974
 6028SOL     OW18982   6.539   5.501   0.247
 6028SOL    HW118983   6.442   5.485   0.227
 6028SOL    HW218984   6.555   5.600   0.255
 6029SOL     OW18985   2.483   6.709   5.199
 6029SOL    HW118986   2.439   6.621   5.214
 6029SOL    HW218987   2.454   6.746   5.111
 6030SOL     OW18988   3.974   5.329   2.299
 6030SOL    HW118989   3.874   5.320   2.298
 6030SOL    HW218990   4.014   5.245   2.337
 6031SOL     OW18991   2.974   5.305   3.863
 6031SOL    HW118992   3.039   5.342   3.797
 6031SOL    HW218993   2.882   5.305   3.824
 6032SOL     OW18994   2.061   4.309   2.509
 6032SOL    HW118995   2.038   4.361   2.427
 6032SOL    HW218996   2.037   4.362   2.590
 6033SOL     OW18997   2.742   2.168   2.666
 6033SOL    HW118998   2.672   2.224   2.621
 6033SOL    HW218999   2.743   2.188   2.764
 6034SOL     OW19000   1.463   6.670   5.367
 6034SOL    HW119001   1.379   6.721   5.386
 6034SOL    HW219002   1.442   6.573   5.360
 6035SOL     OW19003   0.007   0.821   2.450
 6035SOL    HW119004   7.023   0.917   2.424
 6035SOL    HW219005   7.003   0.810   2.546
 6036SOL     OW19006   5.284   4.460   3.246
 6036SOL    HW119007   5.230   4.521   3.304
 6036SOL    HW219008   5.223   4.401   3.194
 6037SOL     OW19009   4.452   5.808   0.112
 6037SOL    HW119010   4.538   5.817   0.162
 6037SOL    HW219011   4.378   5.787   0.176
 6038SOL     OW19012   1.824   2.670   5.698
 6038SOL    HW119013   1.784   2.584   5.729
 6038SOL    HW219014   1.853   2.723   5.778
 6039SOL     OW19015   2.967   3.506   2.478
 6039SOL    HW119016   2.971   3.412   2.513
 6039SOL    HW219017   2.937   3.567   2.551
 6040SOL     OW19018   1.356   1.334   0.415
 6040SOL    HW119019   1.257   1.338   0.425
 6040SOL    HW219020   1.395   1.281   0.490
 6041SOL     OW19021   3.045   0.786   4.778
 6041SOL    HW119022   3.139   0.801   4.749
 6041SOL    HW219023   2.998   0.874   4.786
 6042SOL     OW19024   4.630   6.266   2.264
 6042SOL    HW119025   4.696   6.331   2.302
 6042SOL    HW219026   4.574   6.228   2.337
 6043SOL     OW19027   0.834   4.726   5.684
 6043SOL    HW119028   0.907   4.771   5.633
 6043SOL    HW219029   0.827   4.631   5.654
 6044SOL     OW19030   1.565   2.541   1.239
 6044SOL    HW119031   1.558   2.608   1.313
 6044SOL    HW219032   1.628   2.574   1.169
 6045SOL     OW19033   5.871   4.032   2.604
 6045SOL    HW119034   5.906   4.119   2.569
 6045SOL    HW219035   5.849   3.971   2.528
 6046SOL     OW19036   3.563   2.267   0.268
 6046SOL    HW119037   3.483   2.286   0.211
 6046SOL    HW219038   3.533   2.216   0.350
 6047SOL     OW19039   4.879   1.801   2.049
 6047SOL    HW119040   4.852   1.750   1.968
 6047SOL    HW219041   4.911   1.892   2.023
 6048SOL     OW19042   4.776   5.776   5.282
 6048SOL    HW119043   4.800   5.835   5.205
 6048SOL    HW219044   4.810   5.684   5.264
 6049SOL     OW19045   4.668   3.328   0.316
 6049SOL    HW119046   4.661   3.258   0.387
 6049SOL    HW219047   4.633   3.292   0.230
 6050SOL     OW19048   4.142   5.510   5.175
 6050SOL    HW119049   4.059   5.539   5.222
 6050SOL    HW219050   4.186   5.589   5.133
 6051SOL     OW19051   2.172   0.056   3.672
 6051SOL    HW119052   2.114   7.000   3.687
 6051SOL    HW219053   2.115   0.139   3.671
 6052SOL     OW19054   6.569   1.031   0.025
 6052SOL    HW119055   6.541   1.063   0.116
 6052SOL    HW219056   6.612   1.106   6.999
 6053SOL     OW19057   3.743   1.955   6.793
 6053SOL    HW119058   3.801   1.874   6.781
 6053SOL    HW219059   3.665   1.949   6.730
 6054SOL     OW19060   2.557   3.081   0.474
 6054SOL    HW119061   2.597   3.154   0.529
 6054SOL    HW219062   2.458   3.079   0.487
 6055SOL     OW19063   4.859   0.381   5.107
 6055SOL    HW119064   4.945   0.433   5.107
 6055SOL    HW219065   4.793   0.426   5.047
 6056SOL     OW19066   5.147   3.329   4.393
 6056SOL    HW119067   5.203   3.411   4.402
 6056SOL    HW219068   5.193   3.263   4.333
 6057SOL     OW19069   5.970   2.343   3.695
 6057SOL    HW119070   5.909   2.274   3.654
 6057SOL    HW219071   6.064   2.324   3.669
 6058SOL     OW19072   5.025   3.608   1.694
 6058SOL    HW119073   4.958   3.612   1.768
 6058SOL    HW219074   5.038   3.513   1.665
 6059SOL     OW19075   5.211   4.953   5.250
 6059SOL    HW119076   5.196   4.854   5.252
 6059SOL    HW219077   5.126   5.000   5.276
 6060SOL     OW19078   3.111   3.846   0.154
 6060SOL    HW119079   3.159   3.793   0.224
 6060SOL    HW219080   3.139   3.815   0.063
 6061SOL     OW19081   3.555   2.618   1.137
 6061SOL    HW119082   3.541   2.712   1.168
 6061SOL    HW219083   3.550   2.556   1.215
 6062SOL     OW19084   2.354   0.765   5.132
 6062SOL    HW119085   2.410   0.693   5.173
 6062SOL    HW219086   2.407   0.850   5.127
 6063SOL     OW19087   4.139   2.847   6.088
 6063SOL    HW119088   4.095   2.880   6.172
 6063SOL    HW219089   4.088   2.880   6.009
 6064SOL     OW19090   1.698   6.060   0.871
 6064SOL    HW119091   1.631   6.069   0.798
 6064SOL    HW219092   1.775   6.121   0.854
 6065SOL     OW19093   0.139   6.625   2.247
 6065SOL    HW119094   0.135   6.652   2.151
 6065SOL    HW219095   0.160   6.705   2.303
 6066SOL     OW19096   4.913   1.355   6.002
 6066SOL    HW119097   5.004   1.391   5.982
 6066SOL    HW219098   4.856   1.428   6.039
 6067SOL     OW19099   5.656   0.632   5.446
 6067SOL    HW119100   5.697   0.710   5.399
 6067SOL    HW219101   5.638   0.559   5.380
 6068SOL     OW19102   5.584   3.420   4.410
 6068SOL    HW119103   5.486   3.404   4.403
 6068SOL    HW219104   5.602   3.494   4.474
 6069SOL     OW19105   6.041   3.377   5.680
 6069SOL    HW119106   6.046   3.300   5.744
 6069SOL    HW219107   5.962   3.365   5.621
 6070SOL     OW19108   2.706   2.267   0.841
 6070SOL    HW119109   2.751   2.355   0.822
 6070SOL    HW219110   2.743   2.197   0.780
 6071SOL     OW19111   5.305   5.530   3.919
 6071SOL    HW119112   5.387   5.536   3.863
 6071SOL    HW219113   5.275   5.622   3.944
 6072SOL     OW19114   6.935   0.362   1.522
 6072SOL    HW119115   6.923   0.421   1.442
 6072SOL    HW219116   6.981   0.278   1.495
 6073SOL     OW19117   5.752   3.128   0.018
 6073SOL    HW119118   5.666   3.137   0.068
 6073SOL    HW219119   5.805   3.052   0.057
 6074SOL     OW19120   1.022   6.432   3.349
 6074SOL    HW119121   0.989   6.368   3.279
 6074SOL    HW219122   0.989   6.403   3.439
 6075SOL     OW19123   6.495   1.095   6.232
 6075SOL    HW119124   6.555   1.047   6.296
 6075SOL    HW219125   6.478   1.037   6.152
 6076SOL     OW19126   3.156   5.663   4.098
 6076SOL    HW119127   3.246   5.684   4.062
 6076SOL    HW219128   3.120   5.742   4.148
 6077SOL     OW19129   6.158   5.874   0.913
 6077SOL    HW119130   6.187   5.807   0.981
 6077SOL    HW219131   6.219   5.954   0.916
 6078SOL     OW19132   4.500   4.874   0.237
 6078SOL    HW119133   4.460   4.787   0.211
 6078SOL    HW219134   4.529   4.870   0.333
 6079SOL     OW19135   4.244   3.890   6.140
 6079SOL    HW119136   4.223   3.987   6.149
 6079SOL    HW219137   4.159   3.839   6.130
 6080SOL     OW19138   0.343   0.078   1.511
 6080SOL    HW119139   0.428   0.027   1.528
 6080SOL    HW219140   0.327   0.141   1.587
 6081SOL     OW19141   0.120   3.367   5.522
 6081SOL    HW119142   0.148   3.282   5.566
 6081SOL    HW219143   0.028   3.356   5.484
 6082SOL     OW19144   2.229   1.502   3.973
 6082SOL    HW119145   2.272   1.588   3.945
 6082SOL    HW219146   2.193   1.511   4.066
 6083SOL     OW19147   6.618   5.612   6.739
 6083SOL    HW119148   6.548   5.679   6.764
 6083SOL    HW219149   6.639   5.556   6.819
 6084SOL     OW19150   0.823   7.005   3.989
 6084SOL    HW119151   0.903   6.979   4.043
 6084SOL    HW219152   0.774   0.055   4.036
 6085SOL     OW19153   0.599   5.449   0.456
 6085SOL    HW119154   0.625   5.524   0.395
 6085SOL    HW219155   0.601   5.480   0.551
 6086SOL     OW19156   4.187   0.547   5.787
 6086SOL    HW119157   4.227   0.466   5.743
 6086SOL    HW219158   4.134   0.598   5.719
 6087SOL     OW19159   3.540   5.529   0.847
 6087SOL    HW119160   3.463   5.475   0.881
 6087SOL    HW219161   3.624   5.500   0.894
 6088SOL     OW19162   5.158   5.744   3.740
 6088SOL    HW119163   5.088   5.705   3.799
 6088SOL    HW219164   5.183   5.835   3.772
 6089SOL     OW19165   5.004   3.306   1.702
 6089SOL    HW119166   5.038   3.212   1.706
 6089SOL    HW219167   5.015   3.341   1.609
 6090SOL     OW19168   2.241   5.852   5.181
 6090SOL    HW119169   2.143   5.869   5.193
 6090SOL    HW219170   2.293   5.919   5.235
 6091SOL     OW19171   1.973   1.168   6.974
 6091SOL    HW119172   1.954   1.083   7.024
 6091SOL    HW219173   1.964   1.151   6.876
 6092SOL     OW19174   4.403   6.795   2.965
 6092SOL    HW119175   4.355   6.710   2.985
 6092SOL    HW219176   4.416   6.804   2.867
 6093SOL     OW19177   1.789   3.555   1.861
 6093SOL    HW119178   1.823   3.501   1.783
 6093SOL    HW219179   1.864   3.608   1.900
 6094SOL     OW19180   2.563   6.714   1.790
 6094SOL    HW119181   2.492   6.753   1.731
 6094SOL    HW219182   2.526   6.634   1.837
 6095SOL     OW19183   5.137   4.015   0.388
 6095SOL    HW119184   5.041   4.001   0.362
 6095SOL    HW219185   5.141   4.050   0.482
 6096SOL     OW19186   6.607   6.516   3.597
 6096SOL    HW119187   6.587   6.418   3.601
 6096SOL    HW219188   6.699   6.533   3.633
 6097SOL     OW19189   2.384   6.541   2.419
 6097SOL    HW119190   2.332   6.523   2.503
 6097SOL    HW219191   2.479   6.515   2.433
 6098SOL     OW19192   2.247   1.891   5.105
 6098SOL    HW119193   2.245   1.800   5.146
 6098SOL    HW219194   2.273   1.958   5.175
 6099SOL     OW19195   6.157   6.207   6.986
 6099SOL    HW119196   6.253   6.208   7.016
 6099SOL    HW219197   6.108   6.282   0.005
 6100SOL     OW19198   5.151   5.524   7.002
 6100SOL    HW119199   5.147   5.424   7.005
 6100SOL    HW219200   5.203   5.557   0.058
 6101SOL     OW19201   6.588   2.729   4.103
 6101SOL    HW119202   6.661   2.797   4.111
 6101SOL    HW219203   6.586   2.672   4.185
 6102SOL     OW19204   3.533   6.660   3.523
 6102SOL    HW119205   3.472   6.582   3.505
 6102SOL    HW219206   3.483   6.745   3.507
 6103SOL     OW19207   6.340   1.798   2.142
 6103SOL    HW119208   6.361   1.838   2.053
 6103SOL    HW219209   6.347   1.868   2.213
 6104SOL     OW19210   6.189   0.620   5.181
 6104SOL    HW119211   6.133   0.550   5.226
 6104SOL    HW219212   6.282   0.617   5.218
 6105SOL     OW19213   3.086   6.781   6.186
 6105SOL    HW119214   3.017   6.853   6.178
 6105SOL    HW219215   3.177   6.821   6.186
 6106SOL     OW19216   2.010   3.911   6.419
 6106SOL    HW119217   1.949   3.881   6.493
 6106SOL    HW219218   2.099   3.935   6.458
 6107SOL     OW19219   3.421   5.448   4.197
 6107SOL    HW119220   3.459   5.356   4.210
 6107SOL    HW219221   3.486   5.516   4.230
 6108SOL     OW19222   1.836   3.206   1.998
 6108SOL    HW119223   1.763   3.261   1.957
 6108SOL    HW219224   1.818   3.194   2.096
 6109SOL     OW19225   5.452   2.412   5.215
 6109SOL    HW119226   5.523   2.354   5.255
 6109SOL    HW219227   5.364   2.365   5.220
 6110SOL     OW19228   3.969   4.080   0.545
 6110SOL    HW119229   3.910   4.041   0.615
 6110SOL    HW219230   4.049   4.021   0.532
 6111SOL     OW19231   1.968   4.091   2.322
 6111SOL    HW119232   1.935   4.004   2.286
 6111SOL    HW219233   1.924   4.109   2.410
 6112SOL     OW19234   4.302   0.465   2.722
 6112SOL    HW119235   4.362   0.392   2.754
 6112SOL    HW219236   4.247   0.431   2.645
 6113SOL     OW19237   2.633   1.118   6.024
 6113SOL    HW119238   2.584   1.175   6.090
 6113SOL    HW219239   2.578   1.038   6.002
 6114SOL     OW19240   5.058   5.609   1.151
 6114SOL    HW119241   5.066   5.696   1.200
 6114SOL    HW219242   5.147   5.582   1.117
 6115SOL     OW19243   5.305   6.944   4.166
 6115SOL    HW119244   5.311   0.017   4.191
 6115SOL    HW219245   5.375   6.924   4.098
 6116SOL     OW19246   3.743   0.809   6.087
 6116SOL    HW119247   3.808   0.875   6.125
 6116SOL    HW219248   3.650   0.845   6.098
 6117SOL     OW19249   1.676   1.136   4.113
 6117SOL    HW119250   1.775   1.121   4.113
 6117SOL    HW219251   1.635   1.087   4.190
 6118SOL     OW19252   6.863   0.845   2.663
 6118SOL    HW119253   6.831   0.938   2.644
 6118SOL    HW219254   6.793   0.780   2.635
 6119SOL     OW19255   1.247   3.789   6.700
 6119SOL    HW119256   1.255   3.820   6.605
 6119SOL    HW219257   1.171   3.725   6.708
 6120SOL     OW19258   3.851   6.519   4.823
 6120SOL    HW119259   3.755   6.503   4.804
 6120SOL    HW219260   3.891   6.573   4.748
 6121SOL     OW19261   1.027   3.329   5.434
 6121SOL    HW119262   1.008   3.241   5.479
 6121SOL    HW219263   1.121   3.356   5.455
 6122SOL     OW19264   4.185   5.534   0.978
 6122SOL    HW119265   4.170   5.547   0.880
 6122SOL    HW219266   4.249   5.603   1.012
 6123SOL     OW19267   5.492   6.985   0.003
 6123SOL    HW119268   5.438   6.966   6.945
 6123SOL    HW219269   5.556   6.910   0.019
 6124SOL     OW19270   2.411   6.869   5.979
 6124SOL    HW119271   2.445   6.777   5.963
 6124SOL    HW219272   2.422   6.892   6.076
 6125SOL     OW19273   1.848   5.184   0.639
 6125SOL    HW119274   1.796   5.256   0.686
 6125SOL    HW219275   1.867   5.212   0.546
 6126SOL     OW19276   1.301   0.122   4.388
 6126SOL    HW119277   1.363   0.046   4.408
 6126SOL    HW219278   1.252   0.147   4.472
 6127SOL     OW19279   3.617   0.137   0.850
 6127SOL    HW119280   3.551   0.108   0.919
 6127SOL    HW219281   3.646   0.231   0.869
 6128SOL     OW19282   5.945   3.930   0.707
 6128SOL    HW119283   6.035   3.972   0.716
 6128SOL    HW219284   5.948   3.859   0.637
 6129SOL     OW19285   6.729   3.087   3.562
 6129SOL    HW119286   6.807   3.120   3.510
 6129SOL    HW219287   6.743   3.106   3.660
 6130SOL     OW19288   6.381   2.557   3.712
 6130SOL    HW119289   6.454   2.570   3.778
 6130SOL    HW219290   6.409   2.593   3.623
 6131SOL     OW19291   0.349   1.281   5.101
 6131SOL    HW119292   0.314   1.353   5.042
 6131SOL    HW219293   0.285   1.265   5.176
 6132SOL     OW19294   4.739   2.714   6.697
 6132SOL    HW119295   4.787   2.779   6.756
 6132SOL    HW219296   4.658   2.757   6.659
 6133SOL     OW19297   1.659   2.786   1.917
 6133SOL    HW119298   1.604   2.707   1.893
 6133SOL    HW219299   1.706   2.769   2.004
 6134SOL     OW19300   3.723   4.285   6.639
 6134SOL    HW119301   3.707   4.382   6.626
 6134SOL    HW219302   3.802   4.256   6.585
 6135SOL     OW19303   0.436   0.942   1.655
 6135SOL    HW119304   0.492   0.873   1.610
 6135SOL    HW219305   0.494   1.019   1.682
 6136SOL     OW19306   0.903   2.471   2.112
 6136SOL    HW119307   0.811   2.492   2.080
 6136SOL    HW219308   0.970   2.510   2.049
 6137SOL     OW19309   6.267   2.639   3.057
 6137SOL    HW119310   6.324   2.623   2.976
 6137SOL    HW219311   6.218   2.555   3.080
 6138SOL     OW19312   3.617   6.452   3.198
 6138SOL    HW119313   3.687   6.521   3.180
 6138SOL    HW219314   3.637   6.407   3.285
 6139SOL     OW19315   1.120   6.963   6.164
 6139SOL    HW119316   1.197   6.982   6.102
 6139SOL    HW219317   1.053   0.012   6.156
 6140SOL     OW19318   0.322   6.256   1.468
 6140SOL    HW119319   0.305   6.174   1.413
 6140SOL    HW219320   0.389   6.314   1.421
 6141SOL     OW19321   6.624   6.549   6.625
 6141SOL    HW119322   6.669   6.460   6.620
 6141SOL    HW219323   6.581   6.559   6.715
 6142SOL     OW19324   1.505   6.247   0.164
 6142SOL    HW119325   1.482   6.343   0.182
 6142SOL    HW219326   1.574   6.217   0.229
 6143SOL     OW19327   6.636   3.812   1.326
 6143SOL    HW119328   6.567   3.741   1.315
 6143SOL    HW219329   6.591   3.899   1.348
 6144SOL     OW19330   5.621   4.701   2.717
 6144SOL    HW119331   5.589   4.669   2.806
 6144SOL    HW219332   5.660   4.793   2.726
 6145SOL     OW19333   5.158   5.013   3.108
 6145SOL    HW119334   5.071   5.059   3.096
 6145SOL    HW219335   5.144   4.914   3.108
 6146SOL     OW19336   3.123   5.728   3.611
 6146SOL    HW119337   3.167   5.817   3.623
 6146SOL    HW219338   3.024   5.737   3.617
 6147SOL     OW19339   1.945   2.359   4.541
 6147SOL    HW119340   1.940   2.317   4.450
 6147SOL    HW219341   1.981   2.451   4.533
 6148SOL     OW19342   5.885   6.740   3.835
 6148SOL    HW119343   5.948   6.760   3.911
 6148SOL    HW219344   5.934   6.691   3.763
 6149SOL     OW19345   3.028   6.059   0.685
 6149SOL    HW119346   2.989   6.024   0.770
 6149SOL    HW219347   3.022   6.159   0.685
 6150SOL     OW19348   4.453   5.644   6.898
 6150SOL    HW119349   4.540   5.600   6.876
 6150SOL    HW219350   4.455   5.680   6.991
 6151SOL     OW19351   5.905   4.282   6.572
 6151SOL    HW119352   5.974   4.304   6.502
 6151SOL    HW219353   5.839   4.218   6.535
 6152SOL     OW19354   5.924   5.161   4.661
 6152SOL    HW119355   5.959   5.075   4.625
 6152SOL    HW219356   5.831   5.177   4.626
 6153SOL     OW19357   5.040   4.702   1.354
 6153SOL    HW119358   5.052   4.667   1.447
 6153SOL    HW219359   5.069   4.798   1.351
 6154SOL     OW19360   6.207   2.039   2.530
 6154SOL    HW119361   6.126   2.033   2.471
 6154SOL    HW219362   6.178   2.035   2.626
 6155SOL     OW19363   1.402   1.973   4.128
 6155SOL    HW119364   1.453   2.054   4.157
 6155SOL    HW219365   1.342   1.943   4.202
 6156SOL     OW19366   4.167   4.695   1.275
 6156SOL    HW119367   4.189   4.599   1.291
 6156SOL    HW219368   4.067   4.706   1.275
 6157SOL     OW19369   0.105   0.441   5.072
 6157SOL    HW119370   0.135   0.425   5.166
 6157SOL    HW219371   0.006   0.452   5.070
 6158SOL     OW19372   3.824   1.816   5.755
 6158SOL    HW119373   3.771   1.737   5.723
 6158SOL    HW219374   3.911   1.819   5.706
 6159SOL     OW19375   5.048   2.692   2.217
 6159SOL    HW119376   5.057   2.709   2.315
 6159SOL    HW219377   5.134   2.658   2.181
 6160SOL     OW19378   5.278   1.482   6.472
 6160SOL    HW119379   5.228   1.568   6.461
 6160SOL    HW219380   5.288   1.438   6.383
 6161SOL     OW19381   4.792   1.514   4.965
 6161SOL    HW119382   4.829   1.553   5.050
 6161SOL    HW219383   4.821   1.570   4.888
 6162SOL     OW19384   0.962   6.027   3.512
 6162SOL    HW119385   0.960   5.959   3.585
 6162SOL    HW219386   0.979   5.982   3.424
 6163SOL     OW19387   5.963   6.893   0.986
 6163SOL    HW119388   5.906   6.943   1.051
 6163SOL    HW219389   5.962   6.796   1.009
 6164SOL     OW19390   4.109   3.384   1.896
 6164SOL    HW119391   4.141   3.311   1.956
 6164SOL    HW219392   4.081   3.463   1.951
 6165SOL     OW19393   4.868   1.104   0.096
 6165SOL    HW119394   4.927   1.046   0.040
 6165SOL    HW219395   4.786   1.054   0.122
 6166SOL     OW19396   5.350   1.376   6.240
 6166SOL    HW119397   5.296   1.424   6.170
 6166SOL    HW219398   5.439   1.350   6.201
 6167SOL     OW19399   1.369   5.117   3.625
 6167SOL    HW119400   1.338   5.022   3.634
 6167SOL    HW219401   1.296   5.179   3.652
 6168SOL     OW19402   0.766   4.317   1.877
 6168SOL    HW119403   0.737   4.314   1.781
 6168SOL    HW219404   0.765   4.224   1.915
 6169SOL     OW19405   1.296   2.210   1.094
 6169SOL    HW119406   1.395   2.206   1.103
 6169SOL    HW219407   1.263   2.297   1.131
 6170SOL     OW19408   0.699   4.265   6.132
 6170SOL    HW119409   0.650   4.282   6.218
 6170SOL    HW219410   0.784   4.215   6.152
 6171SOL     OW19411   1.098   2.658   0.711
 6171SOL    HW119412   1.099   2.584   0.645
 6171SOL    HW219413   1.007   2.665   0.752
 6172SOL     OW19414   1.672   2.789   2.725
 6172SOL    HW119415   1.639   2.819   2.636
 6172SOL    HW219416   1.729   2.861   2.765
 6173SOL     OW19417   6.768   5.595   1.564
 6173SOL    HW119418   6.707   5.641   1.628
 6173SOL    HW219419   6.751   5.496   1.567
 6174SOL     OW19420   5.235   5.283   2.784
 6174SOL    HW119421   5.334   5.271   2.770
 6174SOL    HW219422   5.189   5.286   2.695
 6175SOL     OW19423   4.403   0.587   3.593
 6175SOL    HW119424   4.457   0.670   3.607
 6175SOL    HW219425   4.446   0.511   3.641
 6176SOL     OW19426   5.023   4.129   6.349
 6176SOL    HW119427   4.975   4.135   6.261
 6176SOL    HW219428   5.020   4.035   6.382
 6177SOL     OW19429   5.849   1.260   0.972
 6177SOL    HW119430   5.784   1.321   0.927
 6177SOL    HW219431   5.872   1.297   1.062
 6178SOL     OW19432   4.782   4.702   2.311
 6178SOL    HW119433   4.802   4.686   2.214
 6178SOL    HW219434   4.691   4.743   2.319
 6179SOL     OW19435   6.354   4.902   2.683
 6179SOL    HW119436   6.298   4.819   2.677
 6179SOL    HW219437   6.353   4.935   2.777
 6180SOL     OW19438   3.599   4.269   0.747
 6180SOL    HW119439   3.689   4.312   0.745
 6180SOL    HW219440   3.556   4.276   0.656
 6181SOL     OW19441   4.396   6.829   0.956
 6181SOL    HW119442   4.315   6.829   1.015
 6181SOL    HW219443   4.367   6.839   0.861
 6182SOL     OW19444   5.415   3.501   5.540
 6182SOL    HW119445   5.434   3.587   5.493
 6182SOL    HW219446   5.352   3.518   5.616
 6183SOL     OW19447   1.242   2.543   3.336
 6183SOL    HW119448   1.176   2.619   3.330
 6183SOL    HW219449   1.194   2.459   3.361
 6184SOL     OW19450   2.447   6.900   6.252
 6184SOL    HW119451   2.513   6.825   6.258
 6184SOL    HW219452   2.418   6.927   6.344
 6185SOL     OW19453   0.729   3.651   5.932
 6185SOL    HW119454   0.699   3.570   5.981
 6185SOL    HW219455   0.813   3.686   5.973
 6186SOL     OW19456   0.564   0.249   0.477
 6186SOL    HW119457   0.662   0.238   0.461
 6186SOL    HW219458   0.536   0.341   0.450
 6187SOL     OW19459   5.019   4.445   3.969
 6187SOL    HW119460   4.957   4.462   4.045
 6187SOL    HW219461   5.109   4.420   4.005
 6188SOL     OW19462   2.501   1.499   6.794
 6188SOL    HW119463   2.475   1.458   6.707
 6188SOL    HW219464   2.553   1.433   6.848
 6189SOL     OW19465   4.455   4.637   2.775
 6189SOL    HW119466   4.481   4.617   2.680
 6189SOL    HW219467   4.372   4.691   2.776
 6190SOL     OW19468   1.119   4.031   5.485
 6190SOL    HW119469   1.192   3.965   5.504
 6190SOL    HW219470   1.157   4.111   5.439
 6191SOL     OW19471   3.098   1.790   6.972
 6191SOL    HW119472   3.174   1.841   6.932
 6191SOL    HW219473   3.020   1.851   6.985
 6192SOL     OW19474   3.349   2.449   5.652
 6192SOL    HW119475   3.251   2.440   5.667
 6192SOL    HW219476   3.366   2.477   5.557
 6193SOL     OW19477   4.619   0.272   1.790
 6193SOL    HW119478   4.711   0.304   1.766
 6193SOL    HW219479   4.568   0.251   1.706
 6194SOL     OW19480   1.346   0.254   1.456
 6194SOL    HW119481   1.333   0.307   1.372
 6194SOL    HW219482   1.387   0.165   1.433
 6195SOL     OW19483   4.240   5.994   5.387
 6195SOL    HW119484   4.274   6.088   5.380
 6195SOL    HW219485   4.240   5.951   5.297
 6196SOL     OW19486   5.540   3.081   1.766
 6196SOL    HW119487   5.520   3.076   1.864
 6196SOL    HW219488   5.618   3.023   1.745
 6197SOL     OW19489   3.620   5.099   0.750
 6197SOL    HW119490   3.612   5.043   0.832
 6197SOL    HW219491   3.551   5.172   0.753
 6198SOL     OW19492   4.007   6.950   1.496
 6198SOL    HW119493   4.093   6.940   1.446
 6198SOL    HW219494   3.932   6.968   1.432
 6199SOL     OW19495   1.057   1.355   0.434
 6199SOL    HW119496   0.980   1.356   0.497
 6199SOL    HW219497   1.024   1.345   0.340
 6200SOL     OW19498   0.886   0.988   5.586
 6200SOL    HW119499   0.893   1.065   5.649
 6200SOL    HW219500   0.977   0.949   5.571
 6201SOL     OW19501   0.295   3.987   5.342
 6201SOL    HW119502   0.222   3.932   5.383
 6201SOL    HW219503   0.255   4.065   5.294
 6202SOL     OW19504   4.079   1.521   2.124
 6202SOL    HW119505   4.018   1.598   2.105
 6202SOL    HW219506   4.059   1.446   2.061
 6203SOL     OW19507   6.637   5.354   2.102
 6203SOL    HW119508   6.555   5.378   2.154
 6203SOL    HW219509   6.686   5.281   2.149
 6204SOL     OW19510   0.084   4.885   3.932
 6204SOL    HW119511   0.139   4.827   3.992
 6204SOL    HW219512   0.130   4.972   3.918
 6205SOL     OW19513   6.241   5.597   0.459
 6205SOL    HW119514   6.326   5.544   0.456
 6205SOL    HW219515   6.262   5.694   0.468
 6206SOL     OW19516   5.323   2.141   3.478
 6206SOL    HW119517   5.369   2.091   3.551
 6206SOL    HW219518   5.277   2.075   3.417
 6207SOL     OW19519   1.136   5.134   5.119
 6207SOL    HW119520   1.039   5.160   5.124
 6207SOL    HW219521   1.192   5.208   5.155
 6208SOL     OW19522   5.426   2.610   5.659
 6208SOL    HW119523   5.362   2.582   5.587
 6208SOL    HW219524   5.463   2.701   5.638
 6209SOL     OW19525   3.813   6.304   6.751
 6209SOL    HW119526   3.780   6.242   6.680
 6209SOL    HW219527   3.865   6.379   6.708
 6210SOL     OW19528   5.478   3.915   4.120
 6210SOL    HW119529   5.480   3.824   4.159
 6210SOL    HW219530   5.385   3.936   4.090
 6211SOL     OW19531   2.954   6.366   6.135
 6211SOL    HW119532   2.924   6.272   6.117
 6211SOL    HW219533   3.050   6.376   6.109
 6212SOL     OW19534   2.413   4.927   4.537
 6212SOL    HW119535   2.465   4.904   4.455
 6212SOL    HW219536   2.453   4.882   4.616
 6213SOL     OW19537   6.313   0.627   0.428
 6213SOL    HW119538   6.277   0.719   0.438
 6213SOL    HW219539   6.401   0.620   0.475
 6214SOL     OW19540   4.411   5.443   3.989
 6214SOL    HW119541   4.494   5.478   4.032
 6214SOL    HW219542   4.343   5.516   3.982
 6215SOL     OW19543   4.469   2.241   6.963
 6215SOL    HW119544   4.539   2.208   0.003
 6215SOL    HW219545   4.392   2.278   7.014
 6216SOL     OW19546   6.856   1.396   2.552
 6216SOL    HW119547   6.814   1.360   2.468
 6216SOL    HW219548   6.865   1.496   2.545
 6217SOL     OW19549   0.687   3.581   2.470
 6217SOL    HW119550   0.701   3.672   2.432
 6217SOL    HW219551   0.673   3.587   2.569
 6218SOL     OW19552   3.909   6.541   6.591
 6218SOL    HW119553   3.877   6.504   6.504
 6218SOL    HW219554   3.849   6.615   6.620
 6219SOL     OW19555   1.740   2.018   4.416
 6219SOL    HW119556   1.696   1.971   4.492
 6219SOL    HW219557   1.670   2.053   4.354
 6220SOL     OW19558   2.588   1.287   4.663
 6220SOL    HW119559   2.493   1.262   4.645
 6220SOL    HW219560   2.635   1.209   4.704
 6221SOL     OW19561   5.667   6.516   0.608
 6221SOL    HW119562   5.719   6.476   0.533
 6221SOL    HW219563   5.702   6.482   0.696
 6222SOL     OW19564   1.258   6.420   1.488
 6222SOL    HW119565   1.293   6.326   1.483
 6222SOL    HW219566   1.257   6.460   1.396
 6223SOL     OW19567   1.425   4.679   3.826
 6223SOL    HW119568   1.465   4.608   3.768
 6223SOL    HW219569   1.494   4.749   3.845
 6224SOL     OW19570   3.620   1.431   6.015
 6224SOL    HW119571   3.652   1.513   6.062
 6224SOL    HW219572   3.556   1.457   5.942
 6225SOL     OW19573   4.083   3.245   6.232
 6225SOL    HW119574   4.174   3.204   6.217
 6225SOL    HW219575   4.066   3.255   6.330
 6226SOL     OW19576   0.421   1.864   5.383
 6226SOL    HW119577   0.414   1.948   5.436
 6226SOL    HW219578   0.338   1.809   5.397
 6227SOL     OW19579   3.589   5.257   5.360
 6227SOL    HW119580   3.624   5.204   5.437
 6227SOL    HW219581   3.645   5.239   5.279
 6228SOL     OW19582   0.886   3.447   2.081
 6228SOL    HW119583   0.803   3.447   2.138
 6228SOL    HW219584   0.922   3.354   2.075
 6229SOL     OW19585   0.929   1.892   3.870
 6229SOL    HW119586   0.866   1.958   3.912
 6229SOL    HW219587   1.023   1.924   3.883
 6230SOL     OW19588   0.691   2.065   3.927
 6230SOL    HW119589   0.742   2.150   3.939
 6230SOL    HW219590   0.672   2.025   4.017
 6231SOL     OW19591   6.300   6.380   0.602
 6231SOL    HW119592   6.331   6.335   0.518
 6231SOL    HW219593   6.244   6.317   0.655
 6232SOL     OW19594   6.402   1.386   0.823
 6232SOL    HW119595   6.474   1.352   0.764
 6232SOL    HW219596   6.384   1.483   0.802
 6233SOL     OW19597   6.696   1.905   1.750
 6233SOL    HW119598   6.625   1.858   1.698
 6233SOL    HW219599   6.785   1.864   1.729
 6234SOL     OW19600   6.973   0.757   5.537
 6234SOL    HW119601   0.024   0.795   5.591
 6234SOL    HW219602   7.007   0.731   5.447
 6235SOL     OW19603   0.173   0.104   1.060
 6235SOL    HW119604   0.146   0.023   1.113
 6235SOL    HW219605   0.134   0.097   0.968
 6236SOL     OW19606   0.825   4.111   1.430
 6236SOL    HW119607   0.852   4.059   1.349
 6236SOL    HW219608   0.811   4.207   1.406
 6237SOL     OW19609   4.204   0.527   6.288
 6237SOL    HW119610   4.161   0.615   6.308
 6237SOL    HW219611   4.168   0.491   6.202
 6238SOL     OW19612   4.384   5.246   2.594
 6238SOL    HW119613   4.322   5.256   2.672
 6238SOL    HW219614   4.444   5.167   2.609
 6239SOL     OW19615   3.365   0.783   1.402
 6239SOL    HW119616   3.348   0.793   1.499
 6239SOL    HW219617   3.464   0.780   1.385
 6240SOL     OW19618   2.300   3.950   5.721
 6240SOL    HW119619   2.260   3.999   5.798
 6240SOL    HW219620   2.281   3.999   5.636
 6241SOL     OW19621   3.273   0.365   1.755
 6241SOL    HW119622   3.274   0.464   1.741
 6241SOL    HW219623   3.270   0.345   1.853
 6242SOL     OW19624   4.002   0.577   4.129
 6242SOL    HW119625   4.091   0.575   4.176
 6242SOL    HW219626   3.996   0.499   4.067
 6243SOL     OW19627   6.734   6.667   5.315
 6243SOL    HW119628   6.829   6.634   5.321
 6243SOL    HW219629   6.709   6.677   5.219
 6244SOL     OW19630   5.769   2.652   2.961
 6244SOL    HW119631   5.706   2.581   2.930
 6244SOL    HW219632   5.730   2.742   2.941
 6245SOL     OW19633   1.697   3.674   0.326
 6245SOL    HW119634   1.731   3.625   0.406
 6245SOL    HW219635   1.619   3.624   0.287
 6246SOL     OW19636   1.485   2.044   5.820
 6246SOL    HW119637   1.456   2.070   5.728
 6246SOL    HW219638   1.493   2.126   5.877
 6247SOL     OW19639   0.440   5.855   3.997
 6247SOL    HW119640   0.447   5.822   3.903
 6247SOL    HW219641   0.371   5.928   4.002
 6248SOL     OW19642   3.333   4.003   6.850
 6248SOL    HW119643   3.386   4.079   6.812
 6248SOL    HW219644   3.380   3.965   6.929
 6249SOL     OW19645   6.859   3.740   0.369
 6249SOL    HW119646   6.844   3.809   0.298
 6249SOL    HW219647   6.926   3.774   0.435
 6250SOL     OW19648   6.688   0.429   0.623
 6250SOL    HW119649   6.605   0.458   0.672
 6250SOL    HW219650   6.748   0.507   0.609
 6251SOL     OW19651   4.098   5.995   5.598
 6251SOL    HW119652   4.157   5.991   5.517
 6251SOL    HW219653   4.066   5.903   5.620
 6252SOL     OW19654   2.161   6.143   5.471
 6252SOL    HW119655   2.113   6.229   5.450
 6252SOL    HW219656   2.207   6.110   5.388
 6253SOL     OW19657   2.562   5.180   4.386
 6253SOL    HW119658   2.548   5.180   4.485
 6253SOL    HW219659   2.473   5.169   4.341
 6254SOL     OW19660   5.564   1.500   1.477
 6254SOL    HW119661   5.468   1.473   1.472
 6254SOL    HW219662   5.596   1.528   1.387
 6255SOL     OW19663   2.661   0.802   0.422
 6255SOL    HW119664   2.680   0.709   0.391
 6255SOL    HW219665   2.746   0.855   0.421
 6256SOL     OW19666   3.745   5.104   1.812
 6256SOL    HW119667   3.690   5.155   1.745
 6256SOL    HW219668   3.700   5.107   1.901
 6257SOL     OW19669   4.830   2.274   0.484
 6257SOL    HW119670   4.814   2.357   0.430
 6257SOL    HW219671   4.743   2.239   0.519
 6258SOL     OW19672   2.890   0.884   3.282
 6258SOL    HW119673   2.942   0.809   3.324
 6258SOL    HW219674   2.947   0.966   3.278
 6259SOL     OW19675   1.426   2.418   6.836
 6259SOL    HW119676   1.348   2.360   6.858
 6259SOL    HW219677   1.400   2.514   6.843
 6260SOL     OW19678   3.411   5.918   0.367
 6260SOL    HW119679   3.484   5.906   0.299
 6260SOL    HW219680   3.400   5.834   0.419
 6261SOL     OW19681   4.152   1.243   6.867
 6261SOL    HW119682   4.110   1.281   6.949
 6261SOL    HW219683   4.228   1.183   6.893
 6262SOL     OW19684   2.398   5.955   1.716
 6262SOL    HW119685   2.424   6.048   1.692
 6262SOL    HW219686   2.378   5.951   1.814
 6263SOL     OW19687   6.991   6.758   4.280
 6263SOL    HW119688   0.009   6.669   4.261
 6263SOL    HW219689   0.032   6.816   4.329
 6264SOL     OW19690   2.170   0.480   1.677
 6264SOL    HW119691   2.147   0.398   1.729
 6264SOL    HW219692   2.265   0.506   1.695
 6265SOL     OW19693   3.500   3.920   0.020
 6265SOL    HW119694   3.537   3.828   0.011
 6265SOL    HW219695   3.567   3.978   0.066
 6266SOL     OW19696   4.398   0.944   3.506
 6266SOL    HW119697   4.313   0.907   3.542
 6266SOL    HW219698   4.385   1.040   3.480
 6267SOL     OW19699   2.541   6.894   5.403
 6267SOL    HW119700   2.517   6.821   5.339
 6267SOL    HW219701   2.491   6.977   5.380
 6268SOL     OW19702   2.655   0.617   2.704
 6268SOL    HW119703   2.600   0.536   2.685
 6268SOL    HW219704   2.658   0.634   2.802
 6269SOL     OW19705   0.055   6.710   2.000
 6269SOL    HW119706   0.049   6.626   1.946
 6269SOL    HW219707   0.086   6.785   1.941
 6270SOL     OW19708   1.049   0.545   6.180
 6270SOL    HW119709   1.065   0.510   6.088
 6270SOL    HW219710   1.132   0.591   6.213
 6271SOL     OW19711   5.884   2.720   6.161
 6271SOL    HW119712   5.936   2.636   6.173
 6271SOL    HW219713   5.790   2.706   6.194
 6272SOL     OW19714   0.709   2.665   0.216
 6272SOL    HW119715   0.713   2.569   0.245
 6272SOL    HW219716   0.613   2.692   0.206
 6273SOL     OW19717   0.530   6.343   2.506
 6273SOL    HW119718   0.460   6.387   2.450
 6273SOL    HW219719   0.576   6.273   2.452
 6274SOL     OW19720   3.311   6.663   5.425
 6274SOL    HW119721   3.243   6.597   5.392
 6274SOL    HW219722   3.340   6.637   5.517
 6275SOL     OW19723   2.427   6.313   6.508
 6275SOL    HW119724   2.425   6.413   6.506
 6275SOL    HW219725   2.520   6.282   6.524
 6276SOL     OW19726   2.187   4.826   3.946
 6276SOL    HW119727   2.183   4.729   3.969
 6276SOL    HW219728   2.120   4.846   3.874
 6277SOL     OW19729   4.977   3.266   0.911
 6277SOL    HW119730   4.910   3.197   0.941
 6277SOL    HW219731   4.956   3.293   0.817
 6278SOL     OW19732   5.040   0.068   4.828
 6278SOL    HW119733   4.972   0.099   4.895
 6278SOL    HW219734   5.014   0.101   4.737
 6279SOL     OW19735   3.874   6.569   6.985
 6279SOL    HW119736   3.840   6.479   6.959
 6279SOL    HW219737   3.947   6.596   6.923
 6280SOL     OW19738   0.520   1.324   6.546
 6280SOL    HW119739   0.456   1.401   6.543
 6280SOL    HW219740   0.490   1.259   6.615
 6281SOL     OW19741   0.130   4.939   4.330
 6281SOL    HW119742   0.034   4.912   4.320
 6281SOL    HW219743   0.141   5.033   4.298
 6282SOL     OW19744   6.714   5.200   5.941
 6282SOL    HW119745   6.615   5.205   5.935
 6282SOL    HW219746   6.743   5.218   6.035
 6283SOL     OW19747   6.986   3.705   4.550
 6283SOL    HW119748   6.965   3.802   4.536
 6283SOL    HW219749   0.009   3.694   4.637
 6284SOL     OW19750   1.551   4.973   5.067
 6284SOL    HW119751   1.644   4.963   5.030
 6284SOL    HW219752   1.514   5.062   5.039
 6285SOL     OW19753   6.915   3.480   4.417
 6285SOL    HW119754   6.826   3.454   4.454
 6285SOL    HW219755   6.950   3.560   4.466
 6286SOL     OW19756   6.300   2.118   4.007
 6286SOL    HW119757   6.207   2.153   4.010
 6286SOL    HW219758   6.363   2.191   3.980
 6287SOL     OW19759   3.569   4.943   4.761
 6287SOL    HW119760   3.546   5.038   4.737
 6287SOL    HW219761   3.489   4.885   4.749
 6288SOL     OW19762   4.757   4.432   2.402
 6288SOL    HW119763   4.841   4.384   2.377
 6288SOL    HW219764   4.767   4.529   2.383
 6289SOL     OW19765   2.653   4.773   0.048
 6289SOL    HW119766   2.600   4.708   7.017
 6289SOL    HW219767   2.748   4.744   0.050
 6290SOL     OW19768   6.048   5.025   5.990
 6290SOL    HW119769   6.022   5.121   5.982
 6290SOL    HW219770   6.082   4.993   5.901
 6291SOL     OW19771   3.865   3.403   3.942
 6291SOL    HW119772   3.838   3.477   3.881
 6291SOL    HW219773   3.788   3.340   3.954
 6292SOL     OW19774   1.667   2.234   4.702
 6292SOL    HW119775   1.653   2.290   4.620
 6292SOL    HW219776   1.757   2.191   4.697
 6293SOL     OW19777   4.601   1.501   1.024
 6293SOL    HW119778   4.503   1.489   1.041
 6293SOL    HW219779   4.620   1.493   0.926
 6294SOL     OW19780   3.887   6.929   4.305
 6294SOL    HW119781   3.902   6.975   4.217
 6294SOL    HW219782   3.975   6.919   4.352
 6295SOL     OW19783   5.349   4.506   4.700
 6295SOL    HW119784   5.302   4.448   4.633
 6295SOL    HW219785   5.448   4.493   4.692
 6296SOL     OW19786   6.677   5.610   5.560
 6296SOL    HW119787   6.658   5.704   5.589
 6296SOL    HW219788   6.681   5.606   5.460
 6297SOL     OW19789   5.374   0.522   5.113
 6297SOL    HW119790   5.395   0.603   5.058
 6297SOL    HW219791   5.299   0.471   5.070
 6298SOL     OW19792   1.507   3.546   0.160
 6298SOL    HW119793   1.442   3.560   0.085
 6298SOL    HW219794   1.593   3.511   0.124
 6299SOL     OW19795   6.177   2.212   2.090
 6299SOL    HW119796   6.224   2.182   2.007
 6299SOL    HW219797   6.095   2.157   2.104
 6300SOL     OW19798   6.901   1.745   6.938
 6300SOL    HW119799   6.994   1.778   6.920
 6300SOL    HW219800   6.906   1.663   6.995
 6301SOL     OW19801   3.221   0.148   6.829
 6301SOL    HW119802   3.165   0.158   6.747
 6301SOL    HW219803   3.293   0.217   6.829
 6302SOL     OW19804   1.527   1.299   3.939
 6302SOL    HW119805   1.440   1.330   3.977
 6302SOL    HW219806   1.583   1.260   4.011
 6303SOL     OW19807   1.095   1.038   4.628
 6303SOL    HW119808   1.090   0.938   4.632
 6303SOL    HW219809   1.099   1.067   4.533
 6304SOL     OW19810   2.825   0.832   1.242
 6304SOL    HW119811   2.771   0.904   1.286
 6304SOL    HW219812   2.841   0.855   1.146
 6305SOL     OW19813   6.004   6.548   0.738
 6305SOL    HW119814   6.102   6.569   0.745
 6305SOL    HW219815   5.953   6.632   0.721
 6306SOL     OW19816   0.057   4.093   4.643
 6306SOL    HW119817   0.073   4.174   4.587
 6306SOL    HW219818   0.144   4.046   4.660
 6307SOL     OW19819   3.567   4.118   4.496
 6307SOL    HW119820   3.480   4.077   4.523
 6307SOL    HW219821   3.629   4.119   4.574
 6308SOL     OW19822   2.205   2.379   4.168
 6308SOL    HW119823   2.125   2.439   4.163
 6308SOL    HW219824   2.274   2.420   4.228
 6309SOL     OW19825   6.016   5.469   4.619
 6309SOL    HW119826   5.918   5.451   4.625
 6309SOL    HW219827   6.054   5.419   4.541
 6310SOL     OW19828   1.988   5.897   2.548
 6310SOL    HW119829   2.035   5.983   2.525
 6310SOL    HW219830   1.892   5.917   2.566
 6311SOL     OW19831   5.475   1.592   5.881
 6311SOL    HW119832   5.523   1.659   5.937
 6311SOL    HW219833   5.536   1.559   5.809
 6312SOL     OW19834   0.335   6.387   5.279
 6312SOL    HW119835   0.392   6.356   5.355
 6312SOL    HW219836   0.371   6.474   5.245
 6313SOL     OW19837   0.193   6.127   3.807
 6313SOL    HW119838   0.285   6.140   3.769
 6313SOL    HW219839   0.197   6.060   3.881
 6314SOL     OW19840   4.180   0.043   1.783
 6314SOL    HW119841   4.093   7.016   1.781
 6314SOL    HW219842   4.180   0.105   1.862
 6315SOL     OW19843   2.749   2.128   5.515
 6315SOL    HW119844   2.738   2.184   5.597
 6315SOL    HW219845   2.847   2.119   5.494
 6316SOL     OW19846   5.483   2.149   6.666
 6316SOL    HW119847   5.472   2.199   6.751
 6316SOL    HW219848   5.410   2.173   6.603
 6317SOL     OW19849   5.023   4.898   1.645
 6317SOL    HW119850   5.075   4.901   1.559
 6317SOL    HW219851   5.036   4.984   1.694
 6318SOL     OW19852   4.258   0.314   5.715
 6318SOL    HW119853   4.275   0.247   5.787
 6318SOL    HW219854   4.344   0.338   5.671
 6319SOL     OW19855   6.215   1.636   5.025
 6319SOL    HW119856   6.275   1.693   5.082
 6319SOL    HW219857   6.257   1.624   4.935
 6320SOL     OW19858   6.261   6.336   5.207
 6320SOL    HW119859   6.324   6.288   5.146
 6320SOL    HW219860   6.222   6.414   5.158
 6321SOL     OW19861   4.417   3.501   1.107
 6321SOL    HW119862   4.495   3.451   1.146
 6321SOL    HW219863   4.379   3.450   1.031
 6322SOL     OW19864   1.465   2.370   0.849
 6322SOL    HW119865   1.407   2.451   0.837
 6322SOL    HW219866   1.522   2.382   0.930
 6323SOL     OW19867   2.239   1.752   1.499
 6323SOL    HW119868   2.285   1.809   1.430
 6323SOL    HW219869   2.307   1.718   1.564
 6324SOL     OW19870   5.061   1.143   0.584
 6324SOL    HW119871   4.992   1.166   0.653
 6324SOL    HW219872   5.020   1.148   0.493
 6325SOL     OW19873   1.761   3.284   2.630
 6325SOL    HW119874   1.678   3.248   2.588
 6325SOL    HW219875   1.754   3.384   2.637
 6326SOL     OW19876   5.171   4.974   1.426
 6326SOL    HW119877   5.259   5.014   1.452
 6326SOL    HW219878   5.118   5.041   1.375
 6327SOL     OW19879   0.268   1.462   4.885
 6327SOL    HW119880   0.277   1.556   4.853
 6327SOL    HW219881   0.351   1.411   4.864
 6328SOL     OW19882   3.735   3.815   0.347
 6328SOL    HW119883   3.727   3.886   0.277
 6328SOL    HW219884   3.699   3.850   0.433
 6329SOL     OW19885   1.764   2.744   3.224
 6329SOL    HW119886   1.673   2.707   3.243
 6329SOL    HW219887   1.766   2.842   3.245
 6330SOL     OW19888   5.718   0.136   1.772
 6330SOL    HW119889   5.777   0.206   1.812
 6330SOL    HW219890   5.677   0.171   1.688
 6331SOL     OW19891   6.599   3.156   5.028
 6331SOL    HW119892   6.586   3.082   5.094
 6331SOL    HW219893   6.639   3.119   4.944
 6332SOL     OW19894   0.347   2.747   1.029
 6332SOL    HW119895   0.291   2.829   1.036
 6332SOL    HW219896   0.296   2.675   0.983
 6333SOL     OW19897   4.533   6.701   5.364
 6333SOL    HW119898   4.595   6.757   5.310
 6333SOL    HW219899   4.441   6.706   5.324
 6334SOL     OW19900   2.624   1.271   2.534
 6334SOL    HW119901   2.671   1.317   2.458
 6334SOL    HW219902   2.544   1.324   2.560
 6335SOL     OW19903   4.436   1.046   0.675
 6335SOL    HW119904   4.374   1.115   0.713
 6335SOL    HW219905   4.383   0.979   0.623
 6336SOL     OW19906   1.608   2.364   0.095
 6336SOL    HW119907   1.559   2.277   0.087
 6336SOL    HW219908   1.593   2.419   0.014
 6337SOL     OW19909   4.732   4.927   5.317
 6337SOL    HW119910   4.633   4.923   5.300
 6337SOL    HW219911   4.751   4.985   5.396
 6338SOL     OW19912   3.219   2.118   3.777
 6338SOL    HW119913   3.204   2.114   3.875
 6338SOL    HW219914   3.308   2.078   3.754
 6339SOL     OW19915   0.724   4.217   3.700
 6339SOL    HW119916   0.762   4.157   3.629
 6339SOL    HW219917   0.628   4.193   3.715
 6340SOL     OW19918   1.730   5.202   1.719
 6340SOL    HW119919   1.821   5.241   1.709
 6340SOL    HW219920   1.661   5.273   1.706
 6341SOL     OW19921   6.505   4.020   4.476
 6341SOL    HW119922   6.414   4.006   4.515
 6341SOL    HW219923   6.574   3.990   4.542
 6342SOL     OW19924   2.606   0.948   1.364
 6342SOL    HW119925   2.609   1.046   1.345
 6342SOL    HW219926   2.516   0.924   1.401
 6343SOL     OW19927   4.428   1.083   6.131
 6343SOL    HW119928   4.375   1.145   6.073
 6343SOL    HW219929   4.444   1.126   6.220
 6344SOL     OW19930   4.937   2.003   4.499
 6344SOL    HW119931   4.909   2.087   4.546
 6344SOL    HW219932   5.037   1.999   4.495
 6345SOL     OW19933   5.908   2.491   2.638
 6345SOL    HW119934   5.927   2.459   2.545
 6345SOL    HW219935   5.891   2.590   2.636
 6346SOL     OW19936   6.738   5.519   4.225
 6346SOL    HW119937   6.723   5.584   4.300
 6346SOL    HW219938   6.789   5.440   4.258
 6347SOL     OW19939   2.180   0.571   1.045
 6347SOL    HW119940   2.280   0.567   1.052
 6347SOL    HW219941   2.151   0.667   1.043
 6348SOL     OW19942   1.620   2.910   5.833
 6348SOL    HW119943   1.658   2.820   5.811
 6348SOL    HW219944   1.661   2.944   5.917
 6349SOL     OW19945   1.807   0.370   1.211
 6349SOL    HW119946   1.878   0.310   1.249
 6349SOL    HW219947   1.730   0.314   1.178
 6350SOL     OW19948   0.686   5.266   4.070
 6350SOL    HW119949   0.695   5.306   3.978
 6350SOL    HW219950   0.716   5.171   4.068
 6351SOL     OW19951   6.103   3.323   3.889
 6351SOL    HW119952   6.012   3.301   3.925
 6351SOL    HW219953   6.169   3.320   3.963
 6352SOL     OW19954   3.404   6.861   4.754
 6352SOL    HW119955   3.394   6.857   4.655
 6352SOL    HW219956   3.327   6.911   4.794
 6353SOL     OW19957   0.873   6.517   6.097
 6353SOL    HW119958   0.895   6.441   6.158
 6353SOL    HW219959   0.830   6.481   6.014
 6354SOL     OW19960   2.836   5.113   3.622
 6354SOL    HW119961   2.797   5.092   3.712
 6354SOL    HW219962   2.894   5.037   3.592
 6355SOL     OW19963   2.213   5.300   6.808
 6355SOL    HW119964   2.261   5.249   6.736
 6355SOL    HW219965   2.219   5.398   6.790
 6356SOL     OW19966   4.457   6.096   1.838
 6356SOL    HW119967   4.543   6.121   1.882
 6356SOL    HW219968   4.451   5.996   1.831
 6357SOL     OW19969   6.372   3.527   2.911
 6357SOL    HW119970   6.295   3.590   2.902
 6357SOL    HW219971   6.455   3.571   2.879
 6358SOL     OW19972   7.014   2.449   6.753
 6358SOL    HW119973   6.971   2.406   6.674
 6358SOL    HW219974   6.944   2.491   6.811
 6359SOL     OW19975   6.200   0.414   0.732
 6359SOL    HW119976   6.189   0.329   0.680
 6359SOL    HW219977   6.155   0.489   0.684
 6360SOL     OW19978   1.115   4.174   5.033
 6360SOL    HW119979   1.207   4.153   5.068
 6360SOL    HW219980   1.064   4.225   5.102
 6361SOL     OW19981   1.478   6.865   0.856
 6361SOL    HW119982   1.489   6.813   0.771
 6361SOL    HW219983   1.507   6.809   0.934
 6362SOL     OW19984   0.391   5.618   0.134
 6362SOL    HW119985   0.477   5.576   0.104
 6362SOL    HW219986   0.403   5.716   0.144
 6363SOL     OW19987   2.296   5.517   3.703
 6363SOL    HW119988   2.356   5.596   3.690
 6363SOL    HW219989   2.238   5.532   3.783
 6364SOL     OW19990   2.426   1.608   5.585
 6364SOL    HW119991   2.445   1.686   5.525
 6364SOL    HW219992   2.334   1.616   5.622
 6365SOL     OW19993   5.402   0.145   4.246
 6365SOL    HW119994   5.421   0.240   4.222
 6365SOL    HW219995   5.489   0.096   4.261
 6366SOL     OW19996   0.752   5.575   5.122
 6366SOL    HW119997   0.667   5.540   5.162
 6366SOL    HW219998   0.829   5.544   5.178
 6367SOL     OW19999   4.004   1.342   4.242
 6367SOL    HW120000   3.966   1.434   4.245
 6367SOL    HW220001   4.103   1.347   4.229
 6368SOL     OW20002   3.585   4.984   3.769
 6368SOL    HW120003   3.610   5.033   3.686
 6368SOL    HW220004   3.510   5.032   3.815
 6369SOL     OW20005   2.453   6.964   4.657
 6369SOL    HW120006   2.355   6.982   4.647
 6369SOL    HW220007   2.503   7.011   4.585
 6370SOL     OW20008   6.980   2.923   3.378
 6370SOL    HW120009   0.002   2.968   3.454
 6370SOL    HW220010   6.887   2.900   3.405
 6371SOL     OW20011   5.396   5.098   3.016
 6371SOL    HW120012   5.393   5.153   2.933
 6371SOL    HW220013   5.305   5.060   3.034
 6372SOL     OW20014   1.933   1.317   1.149
 6372SOL    HW120015   1.867   1.347   1.219
 6372SOL    HW220016   2.003   1.387   1.138
 6373SOL     OW20017   4.299   4.590   2.173
 6373SOL    HW120018   4.326   4.574   2.078
 6373SOL    HW220019   4.342   4.522   2.232
 6374SOL     OW20020   4.130   3.382   2.978
 6374SOL    HW120021   4.215   3.342   3.012
 6374SOL    HW220022   4.101   3.332   2.896
 6375SOL     OW20023   0.397   2.115   3.038
 6375SOL    HW120024   0.316   2.159   3.076
 6375SOL    HW220025   0.381   2.016   3.033
 6376SOL     OW20026   5.258   2.591   5.452
 6376SOL    HW120027   5.299   2.665   5.398
 6376SOL    HW220028   5.191   2.542   5.396
 6377SOL     OW20029   0.184   1.188   5.293
 6377SOL    HW120030   0.133   1.109   5.258
 6377SOL    HW220031   0.163   1.201   5.390
 6378SOL     OW20032   4.653   4.500   3.624
 6378SOL    HW120033   4.612   4.456   3.704
 6378SOL    HW220034   4.581   4.534   3.563
 6379SOL     OW20035   1.628   4.339   5.118
 6379SOL    HW120036   1.700   4.380   5.173
 6379SOL    HW220037   1.668   4.292   5.039
 6380SOL     OW20038   0.429   1.574   5.127
 6380SOL    HW120039   0.487   1.620   5.193
 6380SOL    HW220040   0.428   1.476   5.146
 6381SOL     OW20041   3.815   2.912   1.368
 6381SOL    HW120042   3.737   2.855   1.340
 6381SOL    HW220043   3.890   2.900   1.303
 6382SOL     OW20044   2.996   1.605   0.772
 6382SOL    HW120045   3.048   1.689   0.786
 6382SOL    HW220046   3.008   1.574   0.678
 6383SOL     OW20047   2.475   2.666   2.956
 6383SOL    HW120048   2.385   2.624   2.943
 6383SOL    HW220049   2.533   2.645   2.877
 6384SOL     OW20050   6.265   3.873   2.989
 6384SOL    HW120051   6.360   3.857   3.014
 6384SOL    HW220052   6.207   3.858   3.069
 6385SOL     OW20053   0.027   3.678   3.500
 6385SOL    HW120054   6.982   3.612   3.530
 6385SOL    HW220055   0.110   3.666   3.555
 6386SOL     OW20056   2.409   3.682   6.443
 6386SOL    HW120057   2.447   3.661   6.353
 6386SOL    HW220058   2.482   3.680   6.512
 6387SOL     OW20059   6.601   2.149   6.251
 6387SOL    HW120060   6.611   2.165   6.349
 6387SOL    HW220061   6.636   2.058   6.228
 6388SOL     OW20062   4.171   6.595   1.650
 6388SOL    HW120063   4.106   6.606   1.725
 6388SOL    HW220064   4.232   6.674   1.647
 6389SOL     OW20065   0.026   5.850   1.647
 6389SOL    HW120066   7.017   5.795   1.570
 6389SOL    HW220067   0.022   5.947   1.624
 6390SOL     OW20068   0.550   0.663   5.849
 6390SOL    HW120069   0.595   0.632   5.933
 6390SOL    HW220070   0.482   0.733   5.872
 6391SOL     OW20071   1.651   0.090   5.999
 6391SOL    HW120072   1.687   0.002   5.967
 6391SOL    HW220073   1.697   0.164   5.950
 6392SOL     OW20074   2.677   5.612   2.915
 6392SOL    HW120075   2.734   5.673   2.972
 6392SOL    HW220076   2.605   5.572   2.972
 6393SOL     OW20077   0.439   6.057   1.727
 6393SOL    HW120078   0.407   5.964   1.709
 6393SOL    HW220079   0.384   6.122   1.674
 6394SOL     OW20080   2.400   5.267   0.678
 6394SOL    HW120081   2.404   5.273   0.578
 6394SOL    HW220082   2.384   5.172   0.705
 6395SOL     OW20083   0.082   2.617   1.278
 6395SOL    HW120084   0.119   2.706   1.251
 6395SOL    HW220085   0.151   2.547   1.261
 6396SOL     OW20086   5.315   3.380   6.981
 6396SOL    HW120087   5.335   3.477   6.992
 6396SOL    HW220088   5.235   3.368   6.923
 6397SOL     OW20089   5.707   1.602   1.261
 6397SOL    HW120090   5.763   1.522   1.240
 6397SOL    HW220091   5.766   1.682   1.273
 6398SOL     OW20092   2.952   6.674   1.634
 6398SOL    HW120093   2.905   6.759   1.658
 6398SOL    HW220094   2.956   6.666   1.534
 6399SOL     OW20095   2.004   0.033   6.893
 6399SOL    HW120096   1.950   7.016   6.820
 6399SOL    HW220097   2.078   6.995   6.919
 6400SOL     OW20098   2.774   5.476   2.155
 6400SOL    HW120099   2.693   5.417   2.157
 6400SOL    HW220100   2.855   5.421   2.137
 6401SOL     OW20101   5.420   6.171   3.532
 6401SOL    HW120102   5.471   6.109   3.472
 6401SOL    HW220103   5.326   6.137   3.542
 6402SOL     OW20104   2.562   2.524   3.184
 6402SOL    HW120105   2.478   2.469   3.176
 6402SOL    HW220106   2.565   2.591   3.110
 6403SOL     OW20107   6.902   5.383   6.178
 6403SOL    HW120108   6.811   5.390   6.219
 6403SOL    HW220109   6.913   5.454   6.108
 6404SOL     OW20110   4.116   0.679   2.731
 6404SOL    HW120111   4.170   0.757   2.765
 6404SOL    HW220112   4.177   0.601   2.719
 6405SOL     OW20113   3.663   0.215   4.038
 6405SOL    HW120114   3.569   0.234   4.007
 6405SOL    HW220115   3.689   0.123   4.010
 6406SOL     OW20116   0.739   3.053   2.998
 6406SOL    HW120117   0.831   3.086   3.019
 6406SOL    HW220118   0.697   3.018   3.082
 6407SOL     OW20119   2.526   6.890   3.868
 6407SOL    HW120120   2.597   6.851   3.926
 6407SOL    HW220121   2.456   6.934   3.925
 6408SOL     OW20122   5.282   1.217   0.421
 6408SOL    HW120123   5.258   1.198   0.326
 6408SOL    HW220124   5.214   1.175   0.482
 6409SOL     OW20125   6.229   4.334   3.857
 6409SOL    HW120126   6.321   4.373   3.862
 6409SOL    HW220127   6.221   4.259   3.923
 6410SOL     OW20128   2.047   1.456   6.397
 6410SOL    HW120129   2.069   1.506   6.481
 6410SOL    HW220130   2.047   1.519   6.320
 6411SOL     OW20131   0.635   2.996   3.238
 6411SOL    HW120132   0.667   3.044   3.320
 6411SOL    HW220133   0.572   2.923   3.264
 6412SOL     OW20134   1.400   2.148   4.778
 6412SOL    HW120135   1.478   2.188   4.730
 6412SOL    HW220136   1.330   2.218   4.792
 6413SOL     OW20137   3.891   4.840   3.516
 6413SOL    HW120138   3.968   4.821   3.578
 6413SOL    HW220139   3.826   4.901   3.561
 6414SOL     OW20140   6.164   0.937   0.214
 6414SOL    HW120141   6.197   0.867   0.151
 6414SOL    HW220142   6.074   0.970   0.184
 6415SOL     OW20143   2.056   3.210   3.030
 6415SOL    HW120144   2.082   3.307   3.029
 6415SOL    HW220145   1.997   3.191   2.952
 6416SOL     OW20146   1.086   0.724   6.713
 6416SOL    HW120147   1.073   0.768   6.625
 6416SOL    HW220148   1.100   0.794   6.784
 6417SOL     OW20149   5.760   4.868   0.995
 6417SOL    HW120150   5.837   4.804   0.987
 6417SOL    HW220151   5.693   4.849   0.923
 6418SOL     OW20152   4.892   3.591   2.493
 6418SOL    HW120153   4.863   3.628   2.581
 6418SOL    HW220154   4.885   3.663   2.423
 6419SOL     OW20155   1.468   4.745   3.177
 6419SOL    HW120156   1.506   4.654   3.165
 6419SOL    HW220157   1.438   4.781   3.089
 6420SOL     OW20158   2.647   6.143   4.127
 6420SOL    HW120159   2.603   6.057   4.102
 6420SOL    HW220160   2.588   6.219   4.100
 6421SOL     OW20161   4.947   7.019   2.768
 6421SOL    HW120162   5.043   7.009   2.797
 6421SOL    HW220163   4.944   0.042   2.680
 6422SOL     OW20164   6.855   0.995   5.054
 6422SOL    HW120165   6.865   1.087   5.016
 6422SOL    HW220166   6.788   0.997   5.128
 6423SOL     OW20167   5.238   5.261   3.223
 6423SOL    HW120168   5.237   5.172   3.177
 6423SOL    HW220169   5.261   5.332   3.157
 6424SOL     OW20170   0.192   4.981   5.458
 6424SOL    HW120171   0.182   4.895   5.409
 6424SOL    HW220172   0.225   5.052   5.395
 6425SOL     OW20173   6.572   6.191   2.908
 6425SOL    HW120174   6.593   6.276   2.860
 6425SOL    HW220175   6.474   6.188   2.927
 6426SOL     OW20176   1.074   5.070   3.230
 6426SOL    HW120177   1.010   5.129   3.279
 6426SOL    HW220178   1.124   5.013   3.295
 6427SOL     OW20179   3.329   3.996   4.563
 6427SOL    HW120180   3.247   3.992   4.506
 6427SOL    HW220181   3.303   4.008   4.659
 6428SOL     OW20182   5.842   3.639   6.403
 6428SOL    HW120183   5.769   3.699   6.368
 6428SOL    HW220184   5.813   3.600   6.490
 6429SOL     OW20185   0.571   1.924   5.672
 6429SOL    HW120186   0.519   1.988   5.616
 6429SOL    HW220187   0.511   1.853   5.707
 6430SOL     OW20188   5.927   1.214   3.482
 6430SOL    HW120189   5.978   1.153   3.543
 6430SOL    HW220190   5.829   1.199   3.493
 6431SOL     OW20191   4.695   6.511   3.797
 6431SOL    HW120192   4.768   6.478   3.857
 6431SOL    HW220193   4.646   6.433   3.758
 6432SOL     OW20194   4.565   4.659   6.195
 6432SOL    HW120195   4.528   4.711   6.271
 6432SOL    HW220196   4.662   4.680   6.184
 6433SOL     OW20197   1.551   5.528   5.805
 6433SOL    HW120198   1.507   5.460   5.863
 6433SOL    HW220199   1.648   5.535   5.829
 6434SOL     OW20200   2.359   5.304   6.104
 6434SOL    HW120201   2.448   5.342   6.130
 6434SOL    HW220202   2.368   5.206   6.085
 6435SOL     OW20203   5.160   6.507   1.054
 6435SOL    HW120204   5.242   6.502   0.997
 6435SOL    HW220205   5.079   6.507   0.996
 6436SOL     OW20206   1.257   2.721   2.912
 6436SOL    HW120207   1.221   2.644   2.963
 6436SOL    HW220208   1.334   2.761   2.962
 6437SOL     OW20209   2.353   1.073   0.561
 6437SOL    HW120210   2.354   0.983   0.517
 6437SOL    HW220211   2.406   1.069   0.646
 6438SOL     OW20212   6.598   4.303   5.241
 6438SOL    HW120213   6.662   4.255   5.181
 6438SOL    HW220214   6.521   4.243   5.263
 6439SOL     OW20215   5.659   1.347   1.908
 6439SOL    HW120216   5.571   1.300   1.911
 6439SOL    HW220217   5.704   1.328   1.821
 6440SOL     OW20218   2.296   1.809   6.228
 6440SOL    HW120219   2.394   1.813   6.209
 6440SOL    HW220220   2.276   1.860   6.312
 6441SOL     OW20221   6.882   6.864   2.148
 6441SOL    HW120222   6.963   6.813   2.119
 6441SOL    HW220223   6.887   6.958   2.114
 6442SOL     OW20224   2.593   1.340   4.206
 6442SOL    HW120225   2.613   1.411   4.274
 6442SOL    HW220226   2.659   1.346   4.132
 6443SOL     OW20227   3.748   2.254   5.283
 6443SOL    HW120228   3.664   2.286   5.327
 6443SOL    HW220229   3.726   2.187   5.212
 6444SOL     OW20230   5.251   3.463   4.711
 6444SOL    HW120231   5.157   3.486   4.735
 6444SOL    HW220232   5.286   3.529   4.645
 6445SOL     OW20233   3.680   3.052   4.772
 6445SOL    HW120234   3.735   3.027   4.692
 6445SOL    HW220235   3.596   2.997   4.773
 6446SOL     OW20236   1.136   1.247   0.009
 6446SOL    HW120237   1.230   1.234   7.002
 6446SOL    HW220238   1.124   1.340   0.042
 6447SOL     OW20239   5.666   4.875   3.519
 6447SOL    HW120240   5.615   4.835   3.442
 6447SOL    HW220241   5.608   4.874   3.601
 6448SOL     OW20242   4.407   5.795   1.839
 6448SOL    HW120243   4.338   5.730   1.870
 6448SOL    HW220244   4.425   5.782   1.742
 6449SOL     OW20245   3.373   6.104   1.148
 6449SOL    HW120246   3.414   6.017   1.119
 6449SOL    HW220247   3.406   6.178   1.090
 6450SOL     OW20248   0.936   3.930   1.220
 6450SOL    HW120249   0.902   3.839   1.196
 6450SOL    HW220250   1.029   3.922   1.255
 6451SOL     OW20251   2.094   0.559   5.231
 6451SOL    HW120252   2.015   0.510   5.195
 6451SOL    HW220253   2.169   0.494   5.248
 6452SOL     OW20254   4.628   5.153   3.078
 6452SOL    HW120255   4.582   5.234   3.115
 6452SOL    HW220256   4.591   5.132   2.987
 6453SOL     OW20257   2.560   6.398   2.168
 6453SOL    HW120258   2.576   6.432   2.261
 6453SOL    HW220259   2.627   6.327   2.147
 6454SOL     OW20260   0.734   2.349   3.041
 6454SOL    HW120261   0.793   2.365   3.121
 6454SOL    HW220262   0.639   2.366   3.067
 6455SOL     OW20263   6.940   3.556   4.163
 6455SOL    HW120264   6.937   3.475   4.104
 6455SOL    HW220265   6.936   3.527   4.259
 6456SOL     OW20266   1.221   1.266   3.686
 6456SOL    HW120267   1.161   1.333   3.643
 6456SOL    HW220268   1.171   1.180   3.700
 6457SOL     OW20269   5.269   1.622   1.408
 6457SOL    HW120270   5.189   1.651   1.355
 6457SOL    HW220271   5.337   1.695   1.407
 6458SOL     OW20272   1.172   5.714   4.670
 6458SOL    HW120273   1.117   5.678   4.745
 6458SOL    HW220274   1.166   5.814   4.670
 6459SOL     OW20275   6.200   2.820   1.114
 6459SOL    HW120276   6.113   2.863   1.088
 6459SOL    HW220277   6.257   2.886   1.162
 6460SOL     OW20278   5.559   6.203   6.274
 6460SOL    HW120279   5.565   6.144   6.194
 6460SOL    HW220280   5.552   6.299   6.244
 6461SOL     OW20281   1.848   4.288   6.619
 6461SOL    HW120282   1.752   4.277   6.591
 6461SOL    HW220283   1.875   4.209   6.675
 6462SOL     OW20284   2.312   2.891   4.196
 6462SOL    HW120285   2.218   2.859   4.211
 6462SOL    HW220286   2.371   2.813   4.174
 6463SOL     OW20287   5.983   2.462   0.068
 6463SOL    HW120288   5.969   2.456   6.993
 6463SOL    HW220289   5.917   2.526   0.107
 6464SOL     OW20290   1.424   4.853   4.606
 6464SOL    HW120291   1.368   4.830   4.527
 6464SOL    HW220292   1.378   4.923   4.661
 6465SOL     OW20293   6.790   2.997   2.684
 6465SOL    HW120294   6.734   2.950   2.615
 6465SOL    HW220295   6.744   2.993   2.773
 6466SOL     OW20296   0.760   0.882   6.017
 6466SOL    HW120297   0.721   0.949   6.080
 6466SOL    HW220298   0.720   0.792   6.035
 6467SOL     OW20299   4.114   1.260   0.133
 6467SOL    HW120300   4.031   1.204   0.126
 6467SOL    HW220301   4.181   1.212   0.190
 6468SOL     OW20302   2.980   6.930   0.519
 6468SOL    HW120303   3.005   6.838   0.548
 6468SOL    HW220304   3.058   6.974   0.475
 6469SOL     OW20305   4.002   1.842   3.687
 6469SOL    HW120306   4.024   1.784   3.608
 6469SOL    HW220307   3.992   1.937   3.658
 6470SOL     OW20308   5.861   2.697   0.745
 6470SOL    HW120309   5.849   2.653   0.834
 6470SOL    HW220310   5.774   2.738   0.717
 6471SOL     OW20311   0.134   6.341   5.719
 6471SOL    HW120312   0.109   6.327   5.815
 6471SOL    HW220313   0.052   6.359   5.666
 6472SOL     OW20314   0.175   5.884   1.873
 6472SOL    HW120315   0.118   5.876   1.791
 6472SOL    HW220316   0.133   5.832   1.948
 6473SOL     OW20317   2.847   1.793   4.499
 6473SOL    HW120318   2.931   1.844   4.521
 6473SOL    HW220319   2.871   1.708   4.453
 6474SOL     OW20320   3.095   4.849   6.239
 6474SOL    HW120321   3.014   4.907   6.227
 6474SOL    HW220322   3.164   4.899   6.293
 6475SOL     OW20323   6.037   4.873   3.558
 6475SOL    HW120324   6.002   4.863   3.464
 6475SOL    HW220325   6.025   4.967   3.588
 6476SOL     OW20326   4.517   3.716   0.964
 6476SOL    HW120327   4.575   3.777   1.018
 6476SOL    HW220328   4.483   3.642   1.022
 6477SOL     OW20329   5.988   4.567   0.654
 6477SOL    HW120330   6.029   4.652   0.619
 6477SOL    HW220331   6.023   4.549   0.746
 6478SOL     OW20332   3.279   0.491   2.167
 6478SOL    HW120333   3.258   0.397   2.142
 6478SOL    HW220334   3.196   0.536   2.199
 6479SOL     OW20335   4.166   5.145   3.540
 6479SOL    HW120336   4.261   5.141   3.572
 6479SOL    HW220337   4.150   5.074   3.472
 6480SOL     OW20338   3.239   0.965   6.945
 6480SOL    HW120339   3.194   0.930   0.004
 6480SOL    HW220340   3.169   0.987   6.877
 6481SOL     OW20341   3.473   2.027   1.978
 6481SOL    HW120342   3.411   2.062   2.048
 6481SOL    HW220343   3.554   2.085   1.973
 6482SOL     OW20344   6.451   0.843   5.584
 6482SOL    HW120345   6.477   0.766   5.643
 6482SOL    HW220346   6.451   0.813   5.489
 6483SOL     OW20347   1.014   6.973   2.944
 6483SOL    HW120348   0.996   0.046   2.955
 6483SOL    HW220349   1.072   6.959   2.863
 6484SOL     OW20350   3.327   0.091   1.041
 6484SOL    HW120351   3.265   0.097   1.119
 6484SOL    HW220352   3.411   0.044   1.068
 6485SOL     OW20353   2.158   4.977   3.576
 6485SOL    HW120354   2.219   4.898   3.563
 6485SOL    HW220355   2.064   4.945   3.587
 6486SOL     OW20356   1.495   3.981   3.416
 6486SOL    HW120357   1.427   4.042   3.375
 6486SOL    HW220358   1.581   4.030   3.428
 6487SOL     OW20359   0.528   6.388   4.977
 6487SOL    HW120360   0.581   6.356   4.898
 6487SOL    HW220361   0.512   6.312   5.039
 6488SOL     OW20362   3.596   5.777   4.540
 6488SOL    HW120363   3.683   5.783   4.491
 6488SOL    HW220364   3.610   5.731   4.628
 6489SOL     OW20365   2.787   2.965   6.066
 6489SOL    HW120366   2.777   2.901   6.142
 6489SOL    HW220367   2.697   2.983   6.025
 6490SOL     OW20368   3.713   0.988   6.828
 6490SOL    HW120369   3.757   0.946   6.749
 6490SOL    HW220370   3.704   1.086   6.812
 6491SOL     OW20371   3.961   0.915   1.003
 6491SOL    HW120372   4.035   0.854   1.031
 6491SOL    HW220373   3.966   0.932   0.905
 6492SOL     OW20374   4.140   4.687   6.564
 6492SOL    HW120375   4.105   4.690   6.658
 6492SOL    HW220376   4.163   4.593   6.540
 6493SOL     OW20377   1.629   4.183   5.343
 6493SOL    HW120378   1.594   4.263   5.392
 6493SOL    HW220379   1.648   4.209   5.248
 6494SOL     OW20380   6.681   0.323   3.620
 6494SOL    HW120381   6.661   0.344   3.524
 6494SOL    HW220382   6.625   0.381   3.678
 6495SOL     OW20383   6.325   0.317   4.416
 6495SOL    HW120384   6.349   0.382   4.489
 6495SOL    HW220385   6.269   0.244   4.455
 6496SOL     OW20386   6.195   1.403   3.310
 6496SOL    HW120387   6.214   1.464   3.387
 6496SOL    HW220388   6.097   1.385   3.305
 6497SOL     OW20389   0.689   1.421   1.082
 6497SOL    HW120390   0.645   1.511   1.083
 6497SOL    HW220391   0.747   1.412   1.163
 6498SOL     OW20392   1.594   3.515   3.776
 6498SOL    HW120393   1.691   3.500   3.755
 6498SOL    HW220394   1.571   3.468   3.861
 6499SOL     OW20395   5.732   3.090   5.695
 6499SOL    HW120396   5.645   3.111   5.650
 6499SOL    HW220397   5.790   3.039   5.632
 6500SOL     OW20398   6.541   3.547   4.859
 6500SOL    HW120399   6.595   3.573   4.779
 6500SOL    HW220400   6.445   3.537   4.833
 6501SOL     OW20401   0.098   1.637   6.536
 6501SOL    HW120402   0.161   1.595   6.602
 6501SOL    HW220403   0.137   1.633   6.445
 6502SOL     OW20404   6.905   2.510   2.492
 6502SOL    HW120405   6.821   2.463   2.518
 6502SOL    HW220406   6.885   2.576   2.419
 6503SOL     OW20407   5.351   1.084   3.371
 6503SOL    HW120408   5.388   0.994   3.350
 6503SOL    HW220409   5.326   1.089   3.467
 6504SOL     OW20410   4.326   6.622   5.095
 6504SOL    HW120411   4.387   6.625   5.016
 6504SOL    HW220412   4.287   6.531   5.104
 6505SOL     OW20413   5.451   5.733   6.712
 6505SOL    HW120414   5.359   5.756   6.680
 6505SOL    HW220415   5.489   5.660   6.655
 6506SOL     OW20416   6.671   2.703   2.689
 6506SOL    HW120417   6.681   2.760   2.607
 6506SOL    HW220418   6.732   2.737   2.761
 6507SOL     OW20419   1.378   5.348   5.896
 6507SOL    HW120420   1.308   5.389   5.954
 6507SOL    HW220421   1.362   5.250   5.889
 6508SOL     OW20422   1.822   1.037   2.540
 6508SOL    HW120423   1.918   1.060   2.559
 6508SOL    HW220424   1.816   0.941   2.512
 6509SOL     OW20425   3.504   1.210   4.941
 6509SOL    HW120426   3.522   1.239   4.848
 6509SOL    HW220427   3.544   1.120   4.957
 6510SOL     OW20428   5.972   5.620   0.326
 6510SOL    HW120429   6.065   5.613   0.362
 6510SOL    HW220430   5.949   5.537   0.276
 6511SOL     OW20431   4.099   1.633   4.858
 6511SOL    HW120432   4.082   1.718   4.908
 6511SOL    HW220433   4.029   1.621   4.788
 6512SOL     OW20434   3.945   6.878   1.884
 6512SOL    HW120435   3.864   6.843   1.838
 6512SOL    HW220436   3.920   6.912   1.975
 6513SOL     OW20437   2.474   4.922   2.817
 6513SOL    HW120438   2.427   5.001   2.858
 6513SOL    HW220439   2.558   4.952   2.773
 6514SOL     OW20440   6.214   0.994   3.822
 6514SOL    HW120441   6.166   1.030   3.742
 6514SOL    HW220442   6.248   1.070   3.878
 6515SOL     OW20443   0.440   5.127   4.100
 6515SOL    HW120444   0.530   5.170   4.107
 6515SOL    HW220445   0.373   5.184   4.148
 6516SOL     OW20446   0.873   3.576   1.842
 6516SOL    HW120447   0.965   3.576   1.804
 6516SOL    HW220448   0.872   3.523   1.927
 6517SOL     OW20449   6.342   1.113   1.591
 6517SOL    HW120450   6.291   1.033   1.559
 6517SOL    HW220451   6.279   1.175   1.638
 6518SOL     OW20452   0.417   1.001   6.999
 6518SOL    HW120453   0.341   1.055   0.013
 6518SOL    HW220454   0.408   0.906   0.005
 6519SOL     OW20455   1.019   2.744   3.322
 6519SOL    HW120456   0.964   2.779   3.398
 6519SOL    HW220457   1.034   2.816   3.254
 6520SOL     OW20458   5.943   5.450   1.252
 6520SOL    HW120459   6.012   5.443   1.180
 6520SOL    HW220460   5.986   5.429   1.340
 6521SOL     OW20461   1.897   2.810   3.976
 6521SOL    HW120462   1.888   2.758   3.891
 6521SOL    HW220463   1.837   2.890   3.972
 6522SOL     OW20464   3.336   5.314   5.614
 6522SOL    HW120465   3.339   5.408   5.579
 6522SOL    HW220466   3.254   5.269   5.581
 6523SOL     OW20467   3.317   1.979   6.877
 6523SOL    HW120468   3.362   1.977   6.787
 6523SOL    HW220469   3.380   1.946   6.947
 6524SOL     OW20470   3.607   3.499   1.745
 6524SOL    HW120471   3.552   3.421   1.714
 6524SOL    HW220472   3.579   3.524   1.837
 6525SOL     OW20473   2.235   5.181   2.659
 6525SOL    HW120474   2.237   5.090   2.618
 6525SOL    HW220475   2.313   5.192   2.720
 6526SOL     OW20476   2.314   6.988   6.511
 6526SOL    HW120477   2.279   0.047   6.468
 6526SOL    HW220478   2.365   7.012   6.594
 6527SOL     OW20479   0.615   1.683   5.298
 6527SOL    HW120480   0.712   1.703   5.282
 6527SOL    HW220481   0.573   1.760   5.347
 6528SOL     OW20482   6.792   0.930   5.734
 6528SOL    HW120483   6.872   0.974   5.694
 6528SOL    HW220484   6.761   0.855   5.674
 6529SOL     OW20485   1.920   0.712   2.773
 6529SOL    HW120486   2.005   0.690   2.724
 6529SOL    HW220487   1.911   0.653   2.853
 6530SOL     OW20488   6.794   2.657   0.670
 6530SOL    HW120489   6.849   2.584   0.710
 6530SOL    HW220490   6.803   2.740   0.725
 6531SOL     OW20491   5.167   3.041   5.438
 6531SOL    HW120492   5.185   2.991   5.354
 6531SOL    HW220493   5.202   3.135   5.429
 6532SOL     OW20494   6.315   0.917   1.278
 6532SOL    HW120495   6.372   0.867   1.343
 6532SOL    HW220496   6.219   0.895   1.294
 6533SOL     OW20497   4.487   0.088   0.856
 6533SOL    HW120498   4.553   0.096   0.781
 6533SOL    HW220499   4.496   7.021   0.898
 6534SOL     OW20500   4.386   4.845   1.330
 6534SOL    HW120501   4.350   4.820   1.240
 6534SOL    HW220502   4.387   4.764   1.389
 6535SOL     OW20503   6.072   3.881   4.546
 6535SOL    HW120504   5.998   3.836   4.595
 6535SOL    HW220505   6.147   3.816   4.533
 6536SOL     OW20506   0.653   1.114   5.825
 6536SOL    HW120507   0.672   1.051   5.900
 6536SOL    HW220508   0.737   1.161   5.799
 6537SOL     OW20509   6.879   5.379   6.867
 6537SOL    HW120510   6.782   5.359   6.874
 6537SOL    HW220511   6.894   5.478   6.877
 6538SOL     OW20512   2.674   3.843   6.271
 6538SOL    HW120513   2.618   3.761   6.267
 6538SOL    HW220514   2.699   3.862   6.366
 6539SOL     OW20515   4.128   0.781   6.253
 6539SOL    HW120516   4.143   0.878   6.237
 6539SOL    HW220517   4.062   0.746   6.186
 6540SOL     OW20518   4.373   2.030   5.611
 6540SOL    HW120519   4.440   2.013   5.538
 6540SOL    HW220520   4.375   2.127   5.636
 6541SOL     OW20521   4.253   2.228   4.831
 6541SOL    HW120522   4.186   2.155   4.817
 6541SOL    HW220523   4.220   2.290   4.902
 6542SOL     OW20524   6.550   3.039   4.346
 6542SOL    HW120525   6.558   3.047   4.246
 6542SOL    HW220526   6.502   2.954   4.368
 6543SOL     OW20527   5.193   2.678   6.014
 6543SOL    HW120528   5.115   2.651   5.957
 6543SOL    HW220529   5.160   2.708   6.104
 6544SOL     OW20530   1.224   6.244   3.087
 6544SOL    HW120531   1.312   6.292   3.084
 6544SOL    HW220532   1.152   6.305   3.055
 6545SOL     OW20533   4.324   1.722   0.166
 6545SOL    HW120534   4.255   1.791   0.144
 6545SOL    HW220535   4.304   1.638   0.117
 6546SOL     OW20536   3.152   4.376   0.191
 6546SOL    HW120537   3.121   4.285   0.165
 6546SOL    HW220538   3.251   4.384   0.175
 6547SOL     OW20539   4.609   1.165   5.930
 6547SOL    HW120540   4.535   1.149   5.995
 6547SOL    HW220541   4.692   1.190   5.979
 6548SOL     OW20542   0.654   4.316   0.622
 6548SOL    HW120543   0.672   4.233   0.569
 6548SOL    HW220544   0.656   4.396   0.561
 6549SOL     OW20545   5.156   1.117   1.235
 6549SOL    HW120546   5.192   1.043   1.292
 6549SOL    HW220547   5.198   1.204   1.262
 6550SOL     OW20548   0.271   6.301   3.370
 6550SOL    HW120549   0.197   6.235   3.355
 6550SOL    HW220550   0.323   6.311   3.286
 6551SOL     OW20551   2.064   4.653   2.529
 6551SOL    HW120552   1.999   4.699   2.469
 6551SOL    HW220553   2.153   4.649   2.484
 6552SOL     OW20554   1.747   6.810   0.063
 6552SOL    HW120555   1.814   6.845   7.022
 6552SOL    HW220556   1.696   6.886   0.103
 6553SOL     OW20557   0.212   1.871   3.288
 6553SOL    HW120558   0.311   1.859   3.281
 6553SOL    HW220559   0.192   1.967   3.309
 6554SOL     OW20560   0.540   0.465   4.694
 6554SOL    HW120561   0.631   0.425   4.681
 6554SOL    HW220562   0.485   0.447   4.613
 6555SOL     OW20563   6.015   1.919   3.119
 6555SOL    HW120564   5.942   1.943   3.055
 6555SOL    HW220565   5.984   1.845   3.178
 6556SOL     OW20566   5.108   4.695   4.225
 6556SOL    HW120567   5.189   4.642   4.198
 6556SOL    HW220568   5.105   4.703   4.324
 6557SOL     OW20569   3.516   6.566   2.702
 6557SOL    HW120570   3.528   6.620   2.619
 6557SOL    HW220571   3.582   6.596   2.771
 6558SOL     OW20572   6.898   5.139   0.057
 6558SOL    HW120573   6.821   5.091   0.099
 6558SOL    HW220574   6.901   5.118   6.983
 6559SOL     OW20575   0.635   3.135   6.297
 6559SOL    HW120576   0.612   3.122   6.393
 6559SOL    HW220577   0.658   3.047   6.256
 6560SOL     OW20578   4.580   5.048   1.278
 6560SOL    HW120579   4.497   5.004   1.314
 6560SOL    HW220580   4.601   5.129   1.331
 6561SOL     OW20581   3.623   3.780   1.472
 6561SOL    HW120582   3.710   3.827   1.460
 6561SOL    HW220583   3.606   3.720   1.394
 6562SOL     OW20584   5.830   3.547   0.904
 6562SOL    HW120585   5.890   3.531   0.826
 6562SOL    HW220586   5.744   3.498   0.889
 6563SOL     OW20587   5.450   6.293   6.885
 6563SOL    HW120588   5.416   6.338   6.968
 6563SOL    HW220589   5.404   6.331   6.805
 6564SOL     OW20590   7.013   4.207   2.964
 6564SOL    HW120591   6.997   4.111   2.941
 6564SOL    HW220592   6.929   4.260   2.950
 6565SOL     OW20593   5.415   1.778   3.429
 6565SOL    HW120594   5.410   1.723   3.345
 6565SOL    HW220595   5.466   1.862   3.410
 6566SOL     OW20596   3.953   6.348   2.407
 6566SOL    HW120597   3.901   6.427   2.441
 6566SOL    HW220598   3.890   6.273   2.386
 6567SOL     OW20599   4.455   0.931   3.091
 6567SOL    HW120600   4.497   1.004   3.038
 6567SOL    HW220601   4.364   0.912   3.053
 6568SOL     OW20602   3.073   0.722   3.396
 6568SOL    HW120603   3.111   0.650   3.338
 6568SOL    HW220604   3.076   0.693   3.492
 6569SOL     OW20605   2.902   3.705   6.918
 6569SOL    HW120606   2.902   3.786   6.861
 6569SOL    HW220607   2.996   3.678   6.938
 6570SOL     OW20608   3.955   0.474   2.334
 6570SOL    HW120609   3.875   0.533   2.319
 6570SOL    HW220610   4.024   0.494   2.265
 6571SOL     OW20611   3.072   5.565   1.529
 6571SOL    HW120612   3.091   5.553   1.432
 6571SOL    HW220613   3.139   5.515   1.584
 6572SOL     OW20614   6.423   4.736   5.599
 6572SOL    HW120615   6.333   4.717   5.640
 6572SOL    HW220616   6.410   4.762   5.503
 6573SOL     OW20617   1.692   2.075   2.063
 6573SOL    HW120618   1.694   1.978   2.086
 6573SOL    HW220619   1.684   2.129   2.147
 6574SOL     OW20620   3.188   5.579   2.295
 6574SOL    HW120621   3.274   5.631   2.298
 6574SOL    HW220622   3.166   5.546   2.387
 6575SOL     OW20623   0.845   6.705   3.462
 6575SOL    HW120624   0.922   6.682   3.402
 6575SOL    HW220625   0.763   6.658   3.429
 6576SOL     OW20626   2.311   6.116   6.671
 6576SOL    HW120627   2.349   6.180   6.604
 6576SOL    HW220628   2.345   6.024   6.652
 6577SOL     OW20629   0.722   1.442   4.475
 6577SOL    HW120630   0.712   1.372   4.403
 6577SOL    HW220631   0.784   1.408   4.545
 6578SOL     OW20632   1.144   5.421   3.734
 6578SOL    HW120633   1.145   5.392   3.639
 6578SOL    HW220634   1.051   5.417   3.769
 6579SOL     OW20635   6.742   3.656   4.689
 6579SOL    HW120636   6.782   3.590   4.753
 6579SOL    HW220637   6.801   3.665   4.609
 6580SOL     OW20638   0.951   2.550   1.132
 6580SOL    HW120639   0.912   2.458   1.127
 6580SOL    HW220640   0.877   2.618   1.131
 6581SOL     OW20641   3.043   0.531   6.824
 6581SOL    HW120642   3.063   0.463   6.895
 6581SOL    HW220643   2.953   0.513   6.785
 6582SOL     OW20644   1.271   1.228   2.393
 6582SOL    HW120645   1.333   1.304   2.373
 6582SOL    HW220646   1.308   1.144   2.353
 6583SOL     OW20647   4.209   1.136   5.028
 6583SOL    HW120648   4.243   1.181   5.110
 6583SOL    HW220649   4.113   1.161   5.013
 6584SOL     OW20650   4.743   2.842   1.168
 6584SOL    HW120651   4.727   2.745   1.183
 6584SOL    HW220652   4.754   2.888   1.256
 6585SOL     OW20653   5.671   6.776   0.114
 6585SOL    HW120654   5.716   6.721   0.044
 6585SOL    HW220655   5.645   6.718   0.191
 6586SOL     OW20656   7.022   1.453   4.881
 6586SOL    HW120657   6.974   1.515   4.818
 6586SOL    HW220658   0.094   1.446   4.855
 6587SOL     OW20659   1.931   6.318   5.135
 6587SOL    HW120660   1.840   6.291   5.166
 6587SOL    HW220661   1.990   6.334   5.214
 6588SOL     OW20662   0.990   3.397   1.387
 6588SOL    HW120663   1.015   3.412   1.483
 6588SOL    HW220664   0.897   3.430   1.371
 6589SOL     OW20665   5.314   0.967   0.218
 6589SOL    HW120666   5.411   0.979   0.241
 6589SOL    HW220667   5.281   1.049   0.170
 6590SOL     OW20668   1.084   1.023   6.191
 6590SOL    HW120669   1.093   0.943   6.131
 6590SOL    HW220670   1.004   1.011   6.250
 6591SOL     OW20671   5.657   5.688   2.710
 6591SOL    HW120672   5.706   5.773   2.730
 6591SOL    HW220673   5.594   5.703   2.635
 6592SOL     OW20674   5.552   0.057   3.461
 6592SOL    HW120675   5.576   6.985   3.473
 6592SOL    HW220676   5.598   0.093   3.380
 6593SOL     OW20677   1.955   2.026   2.282
 6593SOL    HW120678   1.881   2.093   2.284
 6593SOL    HW220679   1.982   2.010   2.187
 6594SOL     OW20680   3.624   1.809   0.333
 6594SOL    HW120681   3.626   1.843   0.239
 6594SOL    HW220682   3.587   1.716   0.333
 6595SOL     OW20683   0.937   3.706   6.542
 6595SOL    HW120684   0.878   3.657   6.606
 6595SOL    HW220685   0.902   3.799   6.530
 6596SOL     OW20686   3.286   6.110   4.522
 6596SOL    HW120687   3.223   6.188   4.520
 6596SOL    HW220688   3.336   6.110   4.608
 6597SOL     OW20689   1.516   5.399   1.733
 6597SOL    HW120690   1.535   5.492   1.701
 6597SOL    HW220691   1.439   5.361   1.682
 6598SOL     OW20692   1.334   6.057   4.417
 6598SOL    HW120693   1.242   6.082   4.447
 6598SOL    HW220694   1.331   6.027   4.321
 6599SOL     OW20695   4.825   6.611   6.444
 6599SOL    HW120696   4.793   6.554   6.519
 6599SOL    HW220697   4.900   6.565   6.397
 6600SOL     OW20698   4.878   4.990   5.099
 6600SOL    HW120699   4.837   4.965   5.187
 6600SOL    HW220700   4.822   4.954   5.025
 6601SOL     OW20701   1.531   2.226   5.277
 6601SOL    HW120702   1.532   2.313   5.326
 6601SOL    HW220703   1.497   2.241   5.184
 6602SOL     OW20704   1.429   0.893   1.884
 6602SOL    HW120705   1.412   0.859   1.977
 6602SOL    HW220706   1.419   0.817   1.820
 6603SOL     OW20707   0.033   2.665   3.855
 6603SOL    HW120708   6.967   2.708   3.847
 6603SOL    HW220709   0.068   2.680   3.947
 6604SOL     OW20710   1.857   0.283   0.533
 6604SOL    HW120711   1.802   0.201   0.548
 6604SOL    HW220712   1.870   0.297   0.435
 6605SOL     OW20713   5.154   4.175   2.112
 6605SOL    HW120714   5.252   4.188   2.123
 6605SOL    HW220715   5.138   4.096   2.052
 6606SOL     OW20716   7.006   6.177   1.771
 6606SOL    HW120717   0.054   6.209   1.833
 6606SOL    HW220718   7.011   6.228   1.685
 6607SOL     OW20719   1.866   3.671   2.488
 6607SOL    HW120720   1.795   3.695   2.421
 6607SOL    HW220721   1.956   3.686   2.448
 6608SOL     OW20722   5.985   6.306   1.135
 6608SOL    HW120723   5.931   6.369   1.190
 6608SOL    HW220724   6.037   6.357   1.067
 6609SOL     OW20725   4.740   0.612   6.370
 6609SOL    HW120726   4.791   0.558   6.438
 6609SOL    HW220727   4.642   0.594   6.381
 6610SOL     OW20728   2.872   6.722   6.668
 6610SOL    HW120729   2.822   6.641   6.636
 6610SOL    HW220730   2.889   6.783   6.590
 6611SOL     OW20731   4.915   2.523   3.945
 6611SOL    HW120732   4.845   2.581   3.987
 6611SOL    HW220733   4.884   2.493   3.855
 6612SOL     OW20734   5.698   2.486   5.678
 6612SOL    HW120735   5.711   2.579   5.643
 6612SOL    HW220736   5.600   2.468   5.688
 6613SOL     OW20737   6.311   6.691   5.458
 6613SOL    HW120738   6.315   6.773   5.515
 6613SOL    HW220739   6.368   6.705   5.377
 6614SOL     OW20740   5.069   6.348   0.653
 6614SOL    HW120741   5.088   6.391   0.565
 6614SOL    HW220742   4.977   6.309   0.652
 6615SOL     OW20743   1.385   5.528   2.159
 6615SOL    HW120744   1.331   5.569   2.085
 6615SOL    HW220745   1.367   5.577   2.244
 6616SOL     OW20746   4.766   0.853   6.217
 6616SOL    HW120747   4.788   0.770   6.267
 6616SOL    HW220748   4.684   0.837   6.161
 6617SOL     OW20749   4.515   4.930   3.203
 6617SOL    HW120750   4.567   5.008   3.168
 6617SOL    HW220751   4.463   4.888   3.129
 6618SOL     OW20752   0.512   2.744   2.389
 6618SOL    HW120753   0.477   2.650   2.389
 6618SOL    HW220754   0.611   2.743   2.381
 6619SOL     OW20755   6.163   6.483   3.757
 6619SOL    HW120756   6.155   6.499   3.855
 6619SOL    HW220757   6.173   6.385   3.740
 6620SOL     OW20758   1.990   2.874   5.326
 6620SOL    HW120759   2.053   2.874   5.248
 6620SOL    HW220760   2.041   2.855   5.410
 6621SOL     OW20761   3.035   3.006   5.987
 6621SOL    HW120762   2.946   2.970   6.015
 6621SOL    HW220763   3.048   2.989   5.889
 6622SOL     OW20764   5.910   6.624   0.990
 6622SOL    HW120765   5.965   6.588   0.914
 6622SOL    HW220766   5.837   6.559   1.012
 6623SOL     OW20767   2.905   3.212   5.780
 6623SOL    HW120768   2.857   3.188   5.864
 6623SOL    HW220769   2.906   3.312   5.770
 6624SOL     OW20770   0.049   5.146   6.124
 6624SOL    HW120771   7.022   5.229   6.145
 6624SOL    HW220772   0.147   5.166   6.120
 6625SOL     OW20773   5.155   1.950   5.432
 6625SOL    HW120774   5.254   1.961   5.430
 6625SOL    HW220775   5.133   1.860   5.468
 6626SOL     OW20776   4.435   4.936   4.909
 6626SOL    HW120777   4.422   4.999   4.985
 6626SOL    HW220778   4.347   4.899   4.881
 6627SOL     OW20779   2.314   6.134   4.689
 6627SOL    HW120780   2.319   6.087   4.601
 6627SOL    HW220781   2.233   6.193   4.691
 6628SOL     OW20782   4.701   4.915   4.849
 6628SOL    HW120783   4.721   5.006   4.811
 6628SOL    HW220784   4.603   4.908   4.868
 6629SOL     OW20785   4.327   6.006   6.982
 6629SOL    HW120786   4.369   5.918   7.007
 6629SOL    HW220787   4.399   6.070   6.954
 6630SOL     OW20788   4.377   1.679   1.593
 6630SOL    HW120789   4.358   1.605   1.658
 6630SOL    HW220790   4.321   1.667   1.512
 6631SOL     OW20791   2.528   5.406   3.321
 6631SOL    HW120792   2.482   5.384   3.408
 6631SOL    HW220793   2.463   5.451   3.260
 6632SOL     OW20794   0.238   0.234   1.308
 6632SOL    HW120795   0.219   0.191   1.220
 6632SOL    HW220796   0.278   0.167   1.370
 6633SOL     OW20797   1.179   4.701   6.311
 6633SOL    HW120798   1.275   4.720   6.328
 6633SOL    HW220799   1.171   4.636   6.235
 6634SOL     OW20800   5.278   2.321   4.473
 6634SOL    HW120801   5.215   2.398   4.466
 6634SOL    HW220802   5.354   2.345   4.534
 6635SOL     OW20803   4.883   4.859   2.948
 6635SOL    HW120804   4.942   4.879   3.026
 6635SOL    HW220805   4.926   4.789   2.891
 6636SOL     OW20806   5.018   2.027   6.089
 6636SOL    HW120807   4.939   2.066   6.043
 6636SOL    HW220808   5.016   1.927   6.080
 6637SOL     OW20809   1.334   6.928   6.921
 6637SOL    HW120810   1.247   6.894   6.956
 6637SOL    HW220811   1.376   6.858   6.863
 6638SOL     OW20812   3.156   3.930   3.686
 6638SOL    HW120813   3.083   3.897   3.627
 6638SOL    HW220814   3.204   4.004   3.640
 6639SOL     OW20815   5.561   5.180   6.262
 6639SOL    HW120816   5.549   5.141   6.171
 6639SOL    HW220817   5.637   5.133   6.308
 6640SOL     OW20818   1.399   1.653   4.842
 6640SOL    HW120819   1.393   1.726   4.773
 6640SOL    HW220820   1.307   1.629   4.872
 6641SOL     OW20821   1.990   2.317   6.254
 6641SOL    HW120822   1.947   2.248   6.195
 6641SOL    HW220823   2.089   2.308   6.249
 6642SOL     OW20824   2.070   5.781   6.532
 6642SOL    HW120825   2.121   5.697   6.548
 6642SOL    HW220826   2.129   5.848   6.487
 6643SOL     OW20827   6.131   5.059   0.090
 6643SOL    HW120828   6.157   5.026   7.023
 6643SOL    HW220829   6.131   5.159   0.091
 6644SOL     OW20830   2.280   5.539   1.674
 6644SOL    HW120831   2.304   5.462   1.615
 6644SOL    HW220832   2.351   5.552   1.743
 6645SOL     OW20833   6.199   4.914   0.323
 6645SOL    HW120834   6.159   4.957   0.241
 6645SOL    HW220835   6.282   4.963   0.348
 6646SOL     OW20836   4.056   0.825   4.636
 6646SOL    HW120837   4.127   0.893   4.615
 6646SOL    HW220838   4.051   0.759   4.561
 6647SOL     OW20839   4.828   1.279   1.459
 6647SOL    HW120840   4.917   1.256   1.499
 6647SOL    HW220841   4.756   1.260   1.525
 6648SOL     OW20842   4.422   6.459   3.474
 6648SOL    HW120843   4.492   6.397   3.510
 6648SOL    HW220844   4.384   6.513   3.549
 6649SOL     OW20845   5.153   1.100   6.619
 6649SOL    HW120846   5.086   1.168   6.589
 6649SOL    HW220847   5.199   1.133   6.701
 6650SOL     OW20848   4.156   1.530   5.331
 6650SOL    HW120849   4.068   1.547   5.287
 6650SOL    HW220850   4.208   1.615   5.336
 6651SOL     OW20851   2.180   1.691   5.632
 6651SOL    HW120852   2.159   1.778   5.677
 6651SOL    HW220853   2.114   1.674   5.559
 6652SOL     OW20854   1.159   4.304   0.510
 6652SOL    HW120855   1.253   4.303   0.475
 6652SOL    HW220856   1.158   4.347   0.600
 6653SOL     OW20857   3.348   3.893   2.439
 6653SOL    HW120858   3.303   3.980   2.418
 6653SOL    HW220859   3.288   3.818   2.412
 6654SOL     OW20860   1.438   5.007   1.465
 6654SOL    HW120861   1.479   4.930   1.514
 6654SOL    HW220862   1.497   5.087   1.473
 6655SOL     OW20863   1.147   0.208   3.788
 6655SOL    HW120864   1.181   0.298   3.760
 6655SOL    HW220865   1.047   0.211   3.795
 6656SOL     OW20866   5.985   1.890   4.070
 6656SOL    HW120867   6.075   1.870   4.029
 6656SOL    HW220868   5.918   1.906   3.997
 6657SOL     OW20869   6.243   5.145   6.277
 6657SOL    HW120870   6.267   5.084   6.202
 6657SOL    HW220871   6.190   5.222   6.242
 6658SOL     OW20872   6.850   1.312   4.539
 6658SOL    HW120873   6.814   1.374   4.608
 6658SOL    HW220874   6.774   1.259   4.500
 6659SOL     OW20875   1.990   2.699   0.574
 6659SOL    HW120876   1.972   2.773   0.639
 6659SOL    HW220877   1.982   2.734   0.481
 6660SOL     OW20878   1.001   4.864   1.241
 6660SOL    HW120879   1.027   4.780   1.192
 6660SOL    HW220880   0.933   4.841   1.311
 6661SOL     OW20881   1.352   6.181   4.891
 6661SOL    HW120882   1.389   6.132   4.971
 6661SOL    HW220883   1.309   6.116   4.829
 6662SOL     OW20884   1.385   0.401   6.900
 6662SOL    HW120885   1.362   0.339   6.975
 6662SOL    HW220886   1.439   0.351   6.831
 6663SOL     OW20887   6.527   5.006   4.337
 6663SOL    HW120888   6.593   5.068   4.294
 6663SOL    HW220889   6.516   4.924   4.280
 6664SOL     OW20890   1.798   6.370   0.684
 6664SOL    HW120891   1.848   6.309   0.745
 6664SOL    HW220892   1.810   6.340   0.589
 6665SOL     OW20893   2.010   5.890   4.512
 6665SOL    HW120894   2.073   5.815   4.531
 6665SOL    HW220895   1.978   5.928   4.598
 6666SOL     OW20896   6.292   0.210   6.262
 6666SOL    HW120897   6.357   0.153   6.211
 6666SOL    HW220898   6.198   0.182   6.239
 6667SOL     OW20899   6.798   6.162   6.672
 6667SOL    HW120900   6.727   6.212   6.722
 6667SOL    HW220901   6.760   6.123   6.589
 6668SOL     OW20902   6.860   5.104   1.129
 6668SOL    HW120903   6.843   5.044   1.208
 6668SOL    HW220904   6.783   5.097   1.065
 6669SOL     OW20905   1.734   2.557   2.813
 6669SOL    HW120906   1.663   2.500   2.853
 6669SOL    HW220907   1.695   2.646   2.789
 6670SOL     OW20908   3.704   1.609   5.640
 6670SOL    HW120909   3.609   1.614   5.608
 6670SOL    HW220910   3.717   1.525   5.693
 6671SOL     OW20911   5.555   6.197   0.813
 6671SOL    HW120912   5.594   6.171   0.901
 6671SOL    HW220913   5.514   6.288   0.820
 6672SOL     OW20914   6.213   2.655   6.671
 6672SOL    HW120915   6.205   2.690   6.578
 6672SOL    HW220916   6.141   2.587   6.688
 6673SOL     OW20917   4.926   5.498   4.156
 6673SOL    HW120918   5.018   5.468   4.131
 6673SOL    HW220919   4.902   5.461   4.246
 6674SOL     OW20920   0.439   4.472   6.136
 6674SOL    HW120921   0.505   4.426   6.195
 6674SOL    HW220922   0.395   4.406   6.076
 6675SOL     OW20923   4.799   3.531   1.375
 6675SOL    HW120924   4.857   3.593   1.322
 6675SOL    HW220925   4.857   3.477   1.437
 6676SOL     OW20926   0.796   3.730   5.593
 6676SOL    HW120927   0.812   3.633   5.605
 6676SOL    HW220928   0.847   3.763   5.513
 6677SOL     OW20929   1.498   1.543   6.113
 6677SOL    HW120930   1.491   1.634   6.071
 6677SOL    HW220931   1.532   1.552   6.207
 6678SOL     OW20932   3.043   3.169   6.929
 6678SOL    HW120933   3.026   3.133   7.021
 6678SOL    HW220934   3.137   3.148   6.902
 6679SOL     OW20935   3.052   0.947   3.823
 6679SOL    HW120936   2.990   0.912   3.753
 6679SOL    HW220937   2.999   0.986   3.898
 6680SOL     OW20938   5.184   6.656   6.896
 6680SOL    HW120939   5.166   6.587   6.966
 6680SOL    HW220940   5.105   6.662   6.835
 6681SOL     OW20941   3.394   6.128   1.404
 6681SOL    HW120942   3.385   6.222   1.435
 6681SOL    HW220943   3.378   6.123   1.306
 6682SOL     OW20944   0.592   4.451   2.611
 6682SOL    HW120945   0.587   4.403   2.524
 6682SOL    HW220946   0.668   4.415   2.665
 6683SOL     OW20947   5.757   3.149   5.225
 6683SOL    HW120948   5.709   3.201   5.296
 6683SOL    HW220949   5.696   3.079   5.188
 6684SOL     OW20950   3.001   0.338   1.604
 6684SOL    HW120951   2.992   0.250   1.558
 6684SOL    HW220952   3.081   0.337   1.663
 6685SOL     OW20953   6.556   3.552   6.016
 6685SOL    HW120954   6.512   3.574   6.103
 6685SOL    HW220955   6.648   3.518   6.033
 6686SOL     OW20956   5.416   5.913   4.574
 6686SOL    HW120957   5.486   5.954   4.514
 6686SOL    HW220958   5.461   5.859   4.644
 6687SOL     OW20959   1.177   3.345   0.170
 6687SOL    HW120960   1.127   3.429   0.194
 6687SOL    HW220961   1.243   3.324   0.243
 6688SOL     OW20962   6.998   3.940   2.577
 6688SOL    HW120963   0.045   3.909   2.640
 6688SOL    HW220964   6.960   3.862   2.528
 6689SOL     OW20965   4.291   2.883   0.469
 6689SOL    HW120966   4.276   2.892   0.567
 6689SOL    HW220967   4.264   2.968   0.423
 6690SOL     OW20968   1.621   1.595   0.746
 6690SOL    HW120969   1.596   1.689   0.769
 6690SOL    HW220970   1.663   1.551   0.826
 6691SOL     OW20971   2.898   6.587   2.289
 6691SOL    HW120972   2.936   6.606   2.380
 6691SOL    HW220973   2.966   6.540   2.234
 6692SOL     OW20974   3.797   3.683   5.674
 6692SOL    HW120975   3.789   3.586   5.652
 6692SOL    HW220976   3.791   3.737   5.591
 6693SOL     OW20977   4.280   3.443   5.333
 6693SOL    HW120978   4.380   3.454   5.340
 6693SOL    HW220979   4.236   3.523   5.373
 6694SOL     OW20980   3.592   5.843   0.720
 6694SOL    HW120981   3.550   5.772   0.777
 6694SOL    HW220982   3.691   5.838   0.728
 6695SOL     OW20983   2.758   1.995   0.587
 6695SOL    HW120984   2.705   2.080   0.586
 6695SOL    HW220985   2.732   1.940   0.666
 6696SOL     OW20986   2.608   3.099   5.907
 6696SOL    HW120987   2.523   3.051   5.885
 6696SOL    HW220988   2.602   3.193   5.872
 6697SOL     OW20989   4.859   2.678   2.652
 6697SOL    HW120990   4.900   2.609   2.712
 6697SOL    HW220991   4.761   2.660   2.643
 6698SOL     OW20992   2.594   2.461   1.565
 6698SOL    HW120993   2.537   2.476   1.645
 6698SOL    HW220994   2.600   2.364   1.545
 6699SOL     OW20995   2.633   5.762   5.971
 6699SOL    HW120996   2.572   5.841   5.968
 6699SOL    HW220997   2.625   5.711   5.885
 6700SOL     OW20998   0.266   6.410   1.680
 6700SOL    HW120999   0.349   6.416   1.735
 6700SOL    HW221000   0.277   6.340   1.610
 6701SOL     OW21001   5.237   3.830   2.249
 6701SOL    HW121002   5.312   3.823   2.315
 6701SOL    HW221003   5.274   3.833   2.157
 6702SOL     OW21004   3.198   1.979   1.577
 6702SOL    HW121005   3.215   1.920   1.498
 6702SOL    HW221006   3.284   1.996   1.626
 6703SOL     OW21007   5.982   2.239   6.854
 6703SOL    HW121008   5.976   2.161   6.916
 6703SOL    HW221009   5.909   2.234   6.785
 6704SOL     OW21010   2.987   1.619   3.310
 6704SOL    HW121011   2.932   1.567   3.244
 6704SOL    HW221012   3.066   1.659   3.263
 6705SOL     OW21013   6.960   2.839   1.513
 6705SOL    HW121014   6.870   2.846   1.470
 6705SOL    HW221015   0.001   2.803   1.447
 6706SOL     OW21016   1.777   3.979   2.537
 6706SOL    HW121017   1.794   3.939   2.627
 6706SOL    HW221018   1.745   3.908   2.474
 6707SOL     OW21019   6.995   6.161   3.169
 6707SOL    HW121020   7.015   6.259   3.158
 6707SOL    HW221021   6.907   6.141   3.128
 6708SOL     OW21022   6.910   5.625   1.827
 6708SOL    HW121023   6.922   5.531   1.793
 6708SOL    HW221024   6.909   5.689   1.750
 6709SOL     OW21025   2.839   6.327   3.321
 6709SOL    HW121026   2.877   6.241   3.354
 6709SOL    HW221027   2.757   6.350   3.375
 6710SOL     OW21028   3.750   0.485   5.840
 6710SOL    HW121029   3.831   0.470   5.783
 6710SOL    HW221030   3.672   0.437   5.801
 6711SOL     OW21031   4.529   5.375   5.961
 6711SOL    HW121032   4.599   5.311   5.930
 6711SOL    HW221033   4.567   5.434   6.032
 6712SOL     OW21034   5.509   4.269   0.205
 6712SOL    HW121035   5.584   4.334   0.193
 6712SOL    HW221036   5.502   4.243   0.301
 6713SOL     OW21037   2.154   0.060   2.616
 6713SOL    HW121038   2.244   0.041   2.576
 6713SOL    HW221039   2.101   6.999   2.620
 6714SOL     OW21040   6.167   0.993   5.856
 6714SOL    HW121041   6.249   1.043   5.827
 6714SOL    HW221042   6.086   1.037   5.818
 6715SOL     OW21043   0.679   0.090   0.214
 6715SOL    HW121044   0.644   7.024   0.239
 6715SOL    HW221045   0.724   0.132   0.293
 6716SOL     OW21046   0.451   5.480   1.472
 6716SOL    HW121047   0.513   5.558   1.471
 6716SOL    HW221048   0.417   5.463   1.379
 6717SOL     OW21049   3.951   3.406   0.031
 6717SOL    HW121050   3.877   3.362   7.004
 6717SOL    HW221051   3.918   3.494   0.067
 6718SOL     OW21052   5.228   0.631   0.881
 6718SOL    HW121053   5.206   0.599   0.973
 6718SOL    HW221054   5.187   0.721   0.866
 6719SOL     OW21055   2.782   0.510   6.664
 6719SOL    HW121056   2.786   0.561   6.578
 6719SOL    HW221057   2.692   0.522   6.706
 6720SOL     OW21058   1.403   6.724   3.994
 6720SOL    HW121059   1.448   6.813   4.006
 6720SOL    HW221060   1.463   6.652   4.027
 6721SOL     OW21061   6.679   0.477   6.849
 6721SOL    HW121062   6.757   0.523   6.806
 6721SOL    HW221063   6.601   0.478   6.785
 6722SOL     OW21064   6.699   2.659   1.465
 6722SOL    HW121065   6.697   2.647   1.564
 6722SOL    HW221066   6.689   2.755   1.442
 6723SOL     OW21067   2.553   6.075   3.211
 6723SOL    HW121068   2.554   6.164   3.257
 6723SOL    HW221069   2.458   6.049   3.193
 6724SOL     OW21070   1.773   3.329   5.649
 6724SOL    HW121071   1.720   3.247   5.628
 6724SOL    HW221072   1.761   3.353   5.745
 6725SOL     OW21073   0.433   3.550   1.087
 6725SOL    HW121074   0.453   3.646   1.108
 6725SOL    HW221075   0.508   3.493   1.119
 6726SOL     OW21076   0.736   1.982   5.298
 6726SOL    HW121077   0.812   1.965   5.360
 6726SOL    HW221078   0.694   2.070   5.319
 6727SOL     OW21079   6.889   4.381   5.254
 6727SOL    HW121080   6.931   4.444   5.189
 6727SOL    HW221081   6.792   4.372   5.234
 6728SOL     OW21082   3.607   1.692   3.247
 6728SOL    HW121083   3.611   1.709   3.345
 6728SOL    HW221084   3.524   1.642   3.225
 6729SOL     OW21085   6.652   1.097   2.907
 6729SOL    HW121086   6.663   1.099   2.808
 6729SOL    HW221087   6.741   1.110   2.951
 6730SOL     OW21088   2.797   6.921   0.303
 6730SOL    HW121089   2.849   6.927   0.388
 6730SOL    HW221090   2.780   7.013   0.267
 6731SOL     OW21091   0.652   5.663   1.500
 6731SOL    HW121092   0.692   5.628   1.584
 6731SOL    HW221093   0.722   5.668   1.429
 6732SOL     OW21094   5.506   4.485   5.069
 6732SOL    HW121095   5.499   4.584   5.084
 6732SOL    HW221096   5.572   4.467   4.996
 6733SOL     OW21097   4.331   5.558   0.519
 6733SOL    HW121098   4.306   5.617   0.442
 6733SOL    HW221099   4.425   5.576   0.546
 6734SOL     OW21100   6.200   2.374   4.976
 6734SOL    HW121101   6.250   2.381   4.889
 6734SOL    HW221102   6.265   2.376   5.052
 6735SOL     OW21103   6.760   4.442   4.762
 6735SOL    HW121104   6.807   4.508   4.703
 6735SOL    HW221105   6.714   4.374   4.705
 6736SOL     OW21106   3.175   3.771   6.932
 6736SOL    HW121107   3.214   3.854   6.893
 6736SOL    HW221108   3.195   3.693   6.872
 6737SOL     OW21109   2.028   2.427   0.643
 6737SOL    HW121110   1.979   2.369   0.578
 6737SOL    HW221111   2.018   2.523   0.617
 6738SOL     OW21112   1.886   5.434   2.671
 6738SOL    HW121113   1.789   5.411   2.680
 6738SOL    HW221114   1.942   5.353   2.690
 6739SOL     OW21115   3.516   6.164   5.242
 6739SOL    HW121116   3.417   6.175   5.234
 6739SOL    HW221117   3.542   6.160   5.338
 6740SOL     OW21118   2.001   0.379   4.812
 6740SOL    HW121119   1.984   0.421   4.901
 6740SOL    HW221120   1.918   0.387   4.755
 6741SOL     OW21121   4.655   1.116   5.566
 6741SOL    HW121122   4.582   1.048   5.566
 6741SOL    HW221123   4.739   1.075   5.601
 6742SOL     OW21124   6.619   6.017   2.379
 6742SOL    HW121125   6.532   6.051   2.343
 6742SOL    HW221126   6.644   6.069   2.460
 6743SOL     OW21127   3.605   4.835   0.266
 6743SOL    HW121128   3.658   4.750   0.273
 6743SOL    HW221129   3.664   4.913   0.287
 6744SOL     OW21130   6.071   4.014   6.488
 6744SOL    HW121131   5.974   4.021   6.511
 6744SOL    HW221132   6.084   4.036   6.392
 6745SOL     OW21133   6.860   0.114   2.802
 6745SOL    HW121134   6.807   0.157   2.874
 6745SOL    HW221135   6.799   0.065   2.740
 6746SOL     OW21136   0.902   0.860   3.322
 6746SOL    HW121137   0.859   0.821   3.240
 6746SOL    HW221138   0.985   0.909   3.296
 6747SOL     OW21139   5.812   1.156   5.027
 6747SOL    HW121140   5.852   1.234   5.074
 6747SOL    HW221141   5.722   1.182   4.992
 6748SOL     OW21142   1.941   1.119   3.835
 6748SOL    HW121143   1.941   1.202   3.778
 6748SOL    HW221144   1.889   1.047   3.789
 6749SOL     OW21145   2.815   6.746   0.056
 6749SOL    HW121146   2.803   6.802   0.138
 6749SOL    HW221147   2.860   6.660   0.081
 6750SOL     OW21148   4.004   2.174   5.125
 6750SOL    HW121149   3.983   2.172   5.027
 6750SOL    HW221150   3.963   2.256   5.165
 6751SOL     OW21151   4.223   0.268   3.727
 6751SOL    HW121152   4.214   0.367   3.717
 6751SOL    HW221153   4.133   0.225   3.719
 6752SOL     OW21154   0.548   2.570   2.739
 6752SOL    HW121155   0.561   2.588   2.837
 6752SOL    HW221156   0.471   2.622   2.705
 6753SOL     OW21157   4.174   1.022   6.410
 6753SOL    HW121158   4.171   1.102   6.351
 6753SOL    HW221159   4.269   1.000   6.432
 6754SOL     OW21160   0.403   1.685   7.021
 6754SOL    HW121161   0.304   1.691   0.004
 6754SOL    HW221162   0.436   1.611   0.055
 6755SOL     OW21163   3.557   0.574   3.374
 6755SOL    HW121164   3.529   0.627   3.294
 6755SOL    HW221165   3.617   0.630   3.431
 6756SOL     OW21166   3.896   4.993   5.120
 6756SOL    HW121167   3.813   5.008   5.173
 6756SOL    HW221168   3.970   4.965   5.181
 6757SOL     OW21169   4.077   1.098   2.386
 6757SOL    HW121170   4.080   1.131   2.480
 6757SOL    HW221171   4.079   0.998   2.386
 6758SOL     OW21172   6.430   2.157   1.751
 6758SOL    HW121173   6.433   2.224   1.677
 6758SOL    HW221174   6.507   2.172   1.813
 6759SOL     OW21175   0.802   4.529   4.529
 6759SOL    HW121176   0.771   4.466   4.601
 6759SOL    HW221177   0.902   4.534   4.530
 6760SOL     OW21178   6.184   4.475   3.447
 6760SOL    HW121179   6.106   4.478   3.384
 6760SOL    HW221180   6.185   4.386   3.494
 6761SOL     OW21181   6.359   2.436   6.139
 6761SOL    HW121182   6.406   2.524   6.151
 6761SOL    HW221183   6.359   2.387   6.226
 6762SOL     OW21184   0.338   5.130   3.838
 6762SOL    HW121185   0.390   5.208   3.805
 6762SOL    HW221186   0.342   5.127   3.938
 6763SOL     OW21187   0.493   4.908   2.934
 6763SOL    HW121188   0.543   4.919   3.020
 6763SOL    HW221189   0.420   4.840   2.946
 6764SOL     OW21190   2.421   5.176   6.674
 6764SOL    HW121191   2.464   5.087   6.687
 6764SOL    HW221192   2.451   5.239   6.745
 6765SOL     OW21193   5.321   4.322   3.732
 6765SOL    HW121194   5.345   4.351   3.639
 6765SOL    HW221195   5.384   4.364   3.797
 6766SOL     OW21196   5.125   6.949   6.180
 6766SOL    HW121197   5.162   6.867   6.223
 6766SOL    HW221198   5.197   7.018   6.172
 6767SOL     OW21199   1.243   1.791   0.711
 6767SOL    HW121200   1.211   1.699   0.733
 6767SOL    HW221201   1.213   1.817   0.620
 6768SOL     OW21202   0.906   6.263   3.599
 6768SOL    HW121203   0.943   6.179   3.559
 6768SOL    HW221204   0.922   6.263   3.698
 6769SOL     OW21205   2.437   6.998   5.740
 6769SOL    HW121206   2.524   6.994   5.692
 6769SOL    HW221207   2.444   6.948   5.827
 6770SOL     OW21208   4.711   2.143   3.674
 6770SOL    HW121209   4.648   2.087   3.620
 6770SOL    HW221210   4.794   2.091   3.692
 6771SOL     OW21211   4.191   1.003   2.096
 6771SOL    HW121212   4.283   0.966   2.110
 6771SOL    HW221213   4.128   0.959   2.160
 6772SOL     OW21214   4.610   2.320   2.711
 6772SOL    HW121215   4.510   2.318   2.710
 6772SOL    HW221216   4.642   2.312   2.806
 6773SOL     OW21217   0.249   6.419   2.021
 6773SOL    HW121218   0.176   6.457   1.965
 6773SOL    HW221219   0.254   6.320   2.008
 6774SOL     OW21220   1.567   3.335   4.358
 6774SOL    HW121221   1.504   3.411   4.374
 6774SOL    HW221222   1.531   3.276   4.285
 6775SOL     OW21223   1.138   2.276   3.339
 6775SOL    HW121224   1.095   2.226   3.414
 6775SOL    HW221225   1.135   2.221   3.256
 6776SOL     OW21226   4.233   4.254   0.654
 6776SOL    HW121227   4.309   4.313   0.679
 6776SOL    HW221228   4.222   4.255   0.554
 6777SOL     OW21229   5.037   5.554   0.782
 6777SOL    HW121230   5.069   5.468   0.823
 6777SOL    HW221231   5.047   5.628   0.848
 6778SOL     OW21232   6.267   3.952   2.030
 6778SOL    HW121233   6.236   3.864   1.995
 6778SOL    HW221234   6.366   3.952   2.039
 6779SOL     OW21235   5.662   4.355   5.989
 6779SOL    HW121236   5.669   4.428   6.057
 6779SOL    HW221237   5.604   4.386   5.913
 6780SOL     OW21238   0.486   3.034   2.856
 6780SOL    HW121239   0.582   3.037   2.885
 6780SOL    HW221240   0.466   3.116   2.802
 6781SOL     OW21241   6.899   1.735   4.476
 6781SOL    HW121242   6.806   1.759   4.504
 6781SOL    HW221243   6.940   1.811   4.426
 6782SOL     OW21244   0.676   0.988   2.920
 6782SOL    HW121245   0.582   0.976   2.889
 6782SOL    HW221246   0.739   0.965   2.845
 6783SOL     OW21247   1.039   2.512   6.145
 6783SOL    HW121248   1.096   2.553   6.074
 6783SOL    HW221249   1.052   2.413   6.145
 6784SOL     OW21250   2.714   3.752   0.466
 6784SOL    HW121251   2.707   3.696   0.384
 6784SOL    HW221252   2.800   3.801   0.466
 6785SOL     OW21253   5.501   4.775   5.055
 6785SOL    HW121254   5.423   4.769   4.993
 6785SOL    HW221255   5.514   4.870   5.083
 6786SOL     OW21256   0.850   2.293   0.067
 6786SOL    HW121257   0.822   2.311   0.162
 6786SOL    HW221258   0.896   2.373   0.030
 6787SOL     OW21259   3.313   2.501   0.786
 6787SOL    HW121260   3.302   2.562   0.864
 6787SOL    HW221261   3.235   2.438   0.782
 6788SOL     OW21262   0.706   4.497   2.314
 6788SOL    HW121263   0.794   4.525   2.351
 6788SOL    HW221264   0.688   4.401   2.337
 6789SOL     OW21265   6.995   4.238   3.907
 6789SOL    HW121266   6.898   4.231   3.929
 6789SOL    HW221267   0.017   4.153   3.930
 6790SOL     OW21268   1.188   4.053   6.744
 6790SOL    HW121269   1.197   3.955   6.732
 6790SOL    HW221270   1.170   4.074   6.840
 6791SOL     OW21271   4.094   2.120   2.508
 6791SOL    HW121272   4.120   2.209   2.473
 6791SOL    HW221273   4.022   2.081   2.450
 6792SOL     OW21274   5.284   0.256   5.308
 6792SOL    HW121275   5.201   0.202   5.328
 6792SOL    HW221276   5.267   0.352   5.333
 6793SOL     OW21277   3.348   1.045   6.616
 6793SOL    HW121278   3.362   0.968   6.678
 6793SOL    HW221279   3.429   1.056   6.559
 6794SOL     OW21280   5.406   1.430   5.261
 6794SOL    HW121281   5.362   1.359   5.316
 6794SOL    HW221282   5.503   1.407   5.249
 6795SOL     OW21283   1.311   5.734   0.723
 6795SOL    HW121284   1.384   5.750   0.657
 6795SOL    HW221285   1.262   5.650   0.699
 6796SOL     OW21286   6.446   0.330   2.260
 6796SOL    HW121287   6.525   0.291   2.309
 6796SOL    HW221288   6.366   0.273   2.274
 6797SOL     OW21289   6.682   2.195   1.885
 6797SOL    HW121290   6.699   2.128   1.813
 6797SOL    HW221291   6.767   2.239   1.911
 6798SOL     OW21292   6.755   6.899   1.835
 6798SOL    HW121293   6.711   6.816   1.869
 6798SOL    HW221294   6.685   6.967   1.811
 6799SOL     OW21295   6.197   0.241   2.352
 6799SOL    HW121296   6.196   0.238   2.452
 6799SOL    HW221297   6.160   0.156   2.316
 6800SOL     OW21298   2.601   2.440   2.211
 6800SOL    HW121299   2.687   2.473   2.172
 6800SOL    HW221300   2.589   2.344   2.187
 6801SOL     OW21301   1.233   6.938   3.966
 6801SOL    HW121302   1.263   7.006   3.900
 6801SOL    HW221303   1.301   6.865   3.972
 6802SOL     OW21304   3.102   6.292   1.690
 6802SOL    HW121305   3.083   6.344   1.607
 6802SOL    HW221306   3.016   6.256   1.727
 6803SOL     OW21307   4.252   4.426   6.515
 6803SOL    HW121308   4.323   4.416   6.445
 6803SOL    HW221309   4.277   4.373   6.596
 6804SOL     OW21310   4.300   5.265   2.878
 6804SOL    HW121311   4.357   5.182   2.880
 6804SOL    HW221312   4.299   5.306   2.969
 6805SOL     OW21313   0.417   5.083   6.340
 6805SOL    HW121314   0.378   5.139   6.267
 6805SOL    HW221315   0.362   5.000   6.352
 6806SOL     OW21316   6.765   1.014   4.165
 6806SOL    HW121317   6.751   1.038   4.261
 6806SOL    HW221318   6.855   0.973   4.153
 6807SOL     OW21319   3.781   3.648   2.540
 6807SOL    HW121320   3.795   3.650   2.639
 6807SOL    HW221321   3.686   3.625   2.520
 6808SOL     OW21322   6.922   1.500   5.433
 6808SOL    HW121323   6.822   1.493   5.440
 6808SOL    HW221324   6.948   1.514   5.337
 6809SOL     OW21325   6.456   3.198   1.180
 6809SOL    HW121326   6.509   3.118   1.153
 6809SOL    HW221327   6.394   3.225   1.107
 6810SOL     OW21328   2.588   1.146   1.863
 6810SOL    HW121329   2.687   1.156   1.851
 6810SOL    HW221330   2.570   1.080   1.936
 6811SOL     OW21331   6.479   3.594   2.184
 6811SOL    HW121332   6.494   3.497   2.202
 6811SOL    HW221333   6.544   3.648   2.238
 6812SOL     OW21334   3.663   4.356   5.244
 6812SOL    HW121335   3.636   4.452   5.253
 6812SOL    HW221336   3.619   4.316   5.164
 6813SOL     OW21337   5.890   3.142   2.425
 6813SOL    HW121338   5.908   3.239   2.407
 6813SOL    HW221339   5.976   3.091   2.422
 6814SOL     OW21340   4.525   2.149   6.413
 6814SOL    HW121341   4.596   2.218   6.402
 6814SOL    HW221342   4.510   2.132   6.510
 6815SOL     OW21343   2.408   6.576   6.447
 6815SOL    HW121344   2.315   6.612   6.442
 6815SOL    HW221345   2.470   6.638   6.399
 6816SOL     OW21346   6.828   0.862   6.000
 6816SOL    HW121347   6.839   0.764   6.018
 6816SOL    HW221348   6.814   0.876   5.902
 6817SOL     OW21349   2.224   2.917   3.662
 6817SOL    HW121350   2.220   2.991   3.595
 6817SOL    HW221351   2.221   2.955   3.754
 6818SOL     OW21352   2.039   6.734   0.522
 6818SOL    HW121353   2.011   6.722   0.617
 6818SOL    HW221354   1.995   6.665   0.465
 6819SOL     OW21355   4.227   1.400   3.256
 6819SOL    HW121356   4.144   1.350   3.278
 6819SOL    HW221357   4.288   1.401   3.335
 6820SOL     OW21358   1.417   6.057   1.792
 6820SOL    HW121359   1.359   6.021   1.865
 6820SOL    HW221360   1.360   6.080   1.712
 6821SOL     OW21361   4.381   2.732   5.256
 6821SOL    HW121362   4.306   2.671   5.232
 6821SOL    HW221363   4.392   2.734   5.356
 6822SOL     OW21364   5.879   2.597   5.887
 6822SOL    HW121365   5.819   2.591   5.807
 6822SOL    HW221366   5.824   2.591   5.970
 6823SOL     OW21367   6.120   4.161   6.112
 6823SOL    HW121368   6.077   4.249   6.090
 6823SOL    HW221369   6.202   4.178   6.168
 6824SOL     OW21370   1.179   1.541   0.767
 6824SOL    HW121371   1.253   1.474   0.759
 6824SOL    HW221372   1.091   1.494   0.753
 6825SOL     OW21373   5.820   0.536   0.278
 6825SOL    HW121374   5.920   0.546   0.279
 6825SOL    HW221375   5.782   0.573   0.362
 6826SOL     OW21376   1.843   3.453   3.765
 6826SOL    HW121377   1.910   3.528   3.764
 6826SOL    HW221378   1.886   3.371   3.802
 6827SOL     OW21379   5.722   5.371   6.424
 6827SOL    HW121380   5.744   5.322   6.339
 6827SOL    HW221381   5.624   5.364   6.441
 6828SOL     OW21382   3.735   1.879   2.178
 6828SOL    HW121383   3.643   1.885   2.217
 6828SOL    HW221384   3.752   1.959   2.120
 6829SOL     OW21385   5.329   6.328   5.273
 6829SOL    HW121386   5.413   6.312   5.326
 6829SOL    HW221387   5.254   6.350   5.335
 6830SOL     OW21388   5.079   0.509   3.587
 6830SOL    HW121389   5.136   0.474   3.661
 6830SOL    HW221390   4.983   0.498   3.611
 6831SOL     OW21391   1.786   1.483   5.332
 6831SOL    HW121392   1.752   1.571   5.297
 6831SOL    HW221393   1.883   1.474   5.310
 6832SOL     OW21394   2.639   4.078   0.883
 6832SOL    HW121395   2.633   4.160   0.827
 6832SOL    HW221396   2.712   4.019   0.848
 6833SOL     OW21397   2.447   4.508   6.367
 6833SOL    HW121398   2.448   4.452   6.449
 6833SOL    HW221399   2.420   4.601   6.391
 6834SOL     OW21400   6.322   6.839   0.570
 6834SOL    HW121401   6.346   6.923   0.617
 6834SOL    HW221402   6.312   6.857   0.472
 6835SOL     OW21403   3.581   1.306   4.701
 6835SOL    HW121404   3.652   1.357   4.749
 6835SOL    HW221405   3.623   1.247   4.632
 6836SOL     OW21406   2.705   4.470   6.516
 6836SOL    HW121407   2.748   4.528   6.586
 6836SOL    HW221408   2.708   4.516   6.428
 6837SOL     OW21409   0.725   2.056   3.376
 6837SOL    HW121410   0.725   2.154   3.399
 6837SOL    HW221411   0.740   2.003   3.459
 6838SOL     OW21412   2.880   5.155   6.502
 6838SOL    HW121413   2.951   5.120   6.564
 6838SOL    HW221414   2.916   5.233   6.450
 6839SOL     OW21415   5.213   1.259   4.927
 6839SOL    HW121416   5.143   1.266   4.856
 6839SOL    HW221417   5.256   1.348   4.941
 6840SOL     OW21418   3.090   6.541   5.276
 6840SOL    HW121419   3.044   6.625   5.304
 6840SOL    HW221420   3.088   6.534   5.176
 6841SOL     OW21421   3.841   4.773   0.643
 6841SOL    HW121422   3.787   4.784   0.727
 6841SOL    HW221423   3.887   4.859   0.621
 6842SOL     OW21424   2.493   2.534   0.521
 6842SOL    HW121425   2.456   2.612   0.471
 6842SOL    HW221426   2.531   2.565   0.608
 6843SOL     OW21427   5.567   6.949   1.828
 6843SOL    HW121428   5.617   0.004   1.794
 6843SOL    HW221429   5.595   6.867   1.777
 6844SOL     OW21430   5.681   6.836   3.628
 6844SOL    HW121431   5.607   6.785   3.674
 6844SOL    HW221432   5.768   6.815   3.672
 6845SOL     OW21433   5.566   4.583   2.460
 6845SOL    HW121434   5.563   4.614   2.555
 6845SOL    HW221435   5.518   4.495   2.452
 6846SOL     OW21436   4.048   3.096   1.198
 6846SOL    HW121437   4.113   3.132   1.265
 6846SOL    HW221438   3.964   3.152   1.199
 6847SOL     OW21439   6.697   4.536   2.825
 6847SOL    HW121440   6.724   4.542   2.921
 6847SOL    HW221441   6.603   4.569   2.815
 6848SOL     OW21442   3.156   6.357   3.298
 6848SOL    HW121443   3.142   6.258   3.302
 6848SOL    HW221444   3.073   6.405   3.328
 6849SOL     OW21445   3.342   5.561   4.839
 6849SOL    HW121446   3.313   5.521   4.752
 6849SOL    HW221447   3.343   5.489   4.910
 6850SOL     OW21448   5.543   3.676   2.184
 6850SOL    HW121449   5.444   3.671   2.189
 6850SOL    HW221450   5.582   3.584   2.195
 6851SOL     OW21451   1.400   3.108   3.797
 6851SOL    HW121452   1.493   3.143   3.787
 6851SOL    HW221453   1.393   3.020   3.751
 6852SOL     OW21454   1.732   4.535   0.875
 6852SOL    HW121455   1.767   4.588   0.798
 6852SOL    HW221456   1.637   4.509   0.858
 6853SOL     OW21457   6.874   4.026   0.243
 6853SOL    HW121458   6.886   3.993   0.149
 6853SOL    HW221459   6.802   4.096   0.244
 6854SOL     OW21460   5.986   2.177   6.025
 6854SOL    HW121461   6.045   2.255   6.002
 6854SOL    HW221462   6.035   2.092   6.009
 6855SOL     OW21463   2.869   5.873   3.252
 6855SOL    HW121464   2.818   5.904   3.171
 6855SOL    HW221465   2.850   5.776   3.268
 6856SOL     OW21466   5.386   4.614   5.566
 6856SOL    HW121467   5.310   4.559   5.600
 6856SOL    HW221468   5.442   4.559   5.504
 6857SOL     OW21469   2.873   1.588   6.896
 6857SOL    HW121470   2.816   1.609   6.816
 6857SOL    HW221471   2.916   1.672   6.928
 6858SOL     OW21472   3.619   3.560   4.036
 6858SOL    HW121473   3.576   3.488   3.980
 6858SOL    HW221474   3.635   3.525   4.128
 6859SOL     OW21475   1.206   0.140   1.030
 6859SOL    HW121476   1.189   0.108   1.123
 6859SOL    HW221477   1.161   0.227   1.015
 6860SOL     OW21478   5.768   5.643   1.148
 6860SOL    HW121479   5.735   5.712   1.212
 6860SOL    HW221480   5.826   5.578   1.196
 6861SOL     OW21481   5.679   4.160   1.131
 6861SOL    HW121482   5.595   4.188   1.177
 6861SOL    HW221483   5.713   4.235   1.074
 6862SOL     OW21484   1.909   4.484   4.983
 6862SOL    HW121485   1.898   4.545   5.062
 6862SOL    HW221486   1.914   4.389   5.014
 6863SOL     OW21487   6.139   1.352   5.641
 6863SOL    HW121488   6.164   1.381   5.548
 6863SOL    HW221489   6.223   1.340   5.695
 6864SOL     OW21490   3.315   5.906   3.999
 6864SOL    HW121491   3.285   5.970   4.070
 6864SOL    HW221492   3.238   5.883   3.939
 6865SOL     OW21493   0.405   5.664   3.213
 6865SOL    HW121494   0.395   5.727   3.290
 6865SOL    HW221495   0.372   5.573   3.239
 6866SOL     OW21496   6.779   4.590   2.332
 6866SOL    HW121497   6.842   4.562   2.259
 6866SOL    HW221498   6.830   4.644   2.399
 6867SOL     OW21499   1.633   5.192   1.408
 6867SOL    HW121500   1.607   5.286   1.427
 6867SOL    HW221501   1.701   5.162   1.474
 6868SOL     OW21502   1.141   5.195   6.188
 6868SOL    HW121503   1.156   5.241   6.276
 6868SOL    HW221504   1.202   5.117   6.180
 6869SOL     OW21505   5.470   0.686   4.761
 6869SOL    HW121506   5.502   0.617   4.695
 6869SOL    HW221507   5.544   0.710   4.823
 6870SOL     OW21508   6.886   4.844   2.190
 6870SOL    HW121509   6.819   4.815   2.258
 6870SOL    HW221510   6.972   4.868   2.235
 6871SOL     OW21511   6.115   4.332   2.843
 6871SOL    HW121512   6.031   4.361   2.797
 6871SOL    HW221513   6.131   4.234   2.825
 6872SOL     OW21514   0.496   2.978   1.137
 6872SOL    HW121515   0.492   2.878   1.145
 6872SOL    HW221516   0.486   3.019   1.228
 6873SOL     OW21517   6.489   3.810   5.145
 6873SOL    HW121518   6.553   3.875   5.104
 6873SOL    HW221519   6.444   3.853   5.224
 6874SOL     OW21520   0.939   5.350   2.398
 6874SOL    HW121521   0.967   5.373   2.305
 6874SOL    HW221522   0.921   5.252   2.404
 6875SOL     OW21523   1.498   2.623   3.266
 6875SOL    HW121524   1.486   2.685   3.188
 6875SOL    HW221525   1.412   2.618   3.317
 6876SOL     OW21526   4.133   6.339   4.529
 6876SOL    HW121527   4.141   6.267   4.598
 6876SOL    HW221528   4.194   6.318   4.452
 6877SOL     OW21529   2.766   4.160   0.180
 6877SOL    HW121530   2.782   4.061   0.180
 6877SOL    HW221531   2.688   4.181   0.239
 6878SOL     OW21532   3.025   2.186   5.487
 6878SOL    HW121533   3.110   2.137   5.467
 6878SOL    HW221534   3.012   2.259   5.419
 6879SOL     OW21535   0.903   1.869   0.186
 6879SOL    HW121536   0.967   1.944   0.168
 6879SOL    HW221537   0.921   1.794   0.124
 6880SOL     OW21538   2.009   3.801   5.062
 6880SOL    HW121539   2.076   3.854   5.010
 6880SOL    HW221540   2.055   3.754   5.138
 6881SOL     OW21541   0.794   3.814   2.328
 6881SOL    HW121542   0.762   3.843   2.238
 6881SOL    HW221543   0.892   3.832   2.336
 6882SOL     OW21544   3.735   0.510   6.359
 6882SOL    HW121545   3.658   0.493   6.420
 6882SOL    HW221546   3.706   0.498   6.264
 6883SOL     OW21547   3.989   1.626   0.494
 6883SOL    HW121548   3.962   1.714   0.533
 6883SOL    HW221549   3.992   1.634   0.394
 6884SOL     OW21550   1.615   3.967   4.470
 6884SOL    HW121551   1.672   3.920   4.537
 6884SOL    HW221552   1.572   4.047   4.512
 6885SOL     OW21553   3.833   6.130   4.586
 6885SOL    HW121554   3.841   6.066   4.663
 6885SOL    HW221555   3.884   6.094   4.508
 6886SOL     OW21556   6.795   0.573   4.131
 6886SOL    HW121557   6.742   0.531   4.204
 6886SOL    HW221558   6.834   0.659   4.163
 6887SOL     OW21559   5.181   6.629   5.315
 6887SOL    HW121560   5.224   6.620   5.225
 6887SOL    HW221561   5.140   6.542   5.342
 6888SOL     OW21562   5.325   6.444   6.262
 6888SOL    HW121563   5.415   6.467   6.224
 6888SOL    HW221564   5.301   6.351   6.235
 6889SOL     OW21565   1.836   2.648   5.236
 6889SOL    HW121566   1.889   2.730   5.258
 6889SOL    HW221567   1.829   2.590   5.317
 6890SOL     OW21568   3.566   7.015   1.096
 6890SOL    HW121569   3.633   0.048   1.143
 6890SOL    HW221570   3.570   6.922   1.132
 6891SOL     OW21571   2.369   4.657   4.445
 6891SOL    HW121572   2.376   4.560   4.470
 6891SOL    HW221573   2.273   4.683   4.438
 6892SOL     OW21574   3.319   1.546   3.497
 6892SOL    HW121575   3.272   1.629   3.528
 6892SOL    HW221576   3.367   1.505   3.574
 6893SOL     OW21577   5.326   5.158   6.849
 6893SOL    HW121578   5.417   5.200   6.848
 6893SOL    HW221579   5.285   5.167   6.758
 6894SOL     OW21580   6.289   4.523   0.495
 6894SOL    HW121581   6.356   4.541   0.567
 6894SOL    HW221582   6.202   4.565   0.520
 6895SOL     OW21583   2.659   5.677   6.232
 6895SOL    HW121584   2.654   5.577   6.222
 6895SOL    HW221585   2.640   5.720   6.144
 6896SOL     OW21586   1.396   6.670   3.496
 6896SOL    HW121587   1.383   6.658   3.594
 6896SOL    HW221588   1.371   6.587   3.448
 6897SOL     OW21589   2.741   2.781   0.108
 6897SOL    HW121590   2.644   2.771   0.130
 6897SOL    HW221591   2.796   2.760   0.188
 6898SOL     OW21592   3.914   1.274   2.247
 6898SOL    HW121593   3.992   1.228   2.291
 6898SOL    HW221594   3.946   1.329   2.170
 6899SOL     OW21595   5.184   6.591   1.303
 6899SOL    HW121596   5.126   6.564   1.226
 6899SOL    HW221597   5.152   6.679   1.339
 6900SOL     OW21598   6.637   0.170   5.593
 6900SOL    HW121599   6.643   0.162   5.692
 6900SOL    HW221600   6.729   0.166   5.554
 6901SOL     OW21601   0.551   6.729   6.068
 6901SOL    HW121602   0.588   6.721   5.975
 6901SOL    HW221603   0.600   6.801   6.117
 6902SOL     OW21604   5.516   6.807   0.477
 6902SOL    HW121605   5.590   6.843   0.534
 6902SOL    HW221606   5.539   6.714   0.448
 6903SOL     OW21607   3.858   5.464   4.668
 6903SOL    HW121608   3.896   5.484   4.578
 6903SOL    HW221609   3.888   5.374   4.698
 6904SOL     OW21610   6.009   1.975   4.343
 6904SOL    HW121611   6.000   1.965   4.244
 6904SOL    HW221612   6.041   1.889   4.383
 6905SOL     OW21613   6.371   6.445   0.019
 6905SOL    HW121614   6.436   6.489   6.981
 6905SOL    HW221615   6.373   6.491   0.107
 6906SOL     OW21616   4.421   1.315   3.970
 6906SOL    HW121617   4.478   1.243   3.932
 6906SOL    HW221618   4.477   1.396   3.987
 6907SOL     OW21619   5.027   2.026   1.153
 6907SOL    HW121620   5.001   2.120   1.174
 6907SOL    HW221621   5.055   1.979   1.237
 6908SOL     OW21622   1.190   6.084   6.516
 6908SOL    HW121623   1.112   6.138   6.485
 6908SOL    HW221624   1.249   6.061   6.438
 6909SOL     OW21625   6.466   4.035   1.375
 6909SOL    HW121626   6.379   3.988   1.390
 6909SOL    HW221627   6.450   4.134   1.367
 6910SOL     OW21628   0.219   2.389   3.808
 6910SOL    HW121629   0.313   2.420   3.798
 6910SOL    HW221630   0.161   2.436   3.741
 6911SOL     OW21631   4.603   6.301   3.626
 6911SOL    HW121632   4.533   6.233   3.647
 6911SOL    HW221633   4.669   6.262   3.562
 6912SOL     OW21634   3.484   4.887   0.539
 6912SOL    HW121635   3.542   4.836   0.476
 6912SOL    HW221636   3.541   4.931   0.609
 6913SOL     OW21637   5.184   4.685   5.297
 6913SOL    HW121638   5.222   4.600   5.260
 6913SOL    HW221639   5.186   4.682   5.397
 6914SOL     OW21640   5.354   4.296   6.871
 6914SOL    HW121641   5.424   4.245   6.921
 6914SOL    HW221642   5.360   4.275   6.774
 6915SOL     OW21643   6.193   3.990   1.417
 6915SOL    HW121644   6.103   4.016   1.382
 6915SOL    HW221645   6.208   4.032   1.506
 6916SOL     OW21646   6.141   3.799   6.931
 6916SOL    HW121647   6.115   3.868   6.998
 6916SOL    HW221648   6.240   3.804   6.914
 6917SOL     OW21649   3.004   5.684   0.995
 6917SOL    HW121650   2.997   5.761   0.931
 6917SOL    HW221651   3.056   5.712   1.075
 6918SOL     OW21652   0.250   3.330   4.308
 6918SOL    HW121653   0.205   3.257   4.360
 6918SOL    HW221654   0.202   3.416   4.324
 6919SOL     OW21655   0.245   6.777   2.553
 6919SOL    HW121656   0.182   6.830   2.497
 6919SOL    HW221657   0.323   6.749   2.497
 6920SOL     OW21658   4.743   5.428   5.537
 6920SOL    HW121659   4.724   5.406   5.441
 6920SOL    HW221660   4.658   5.457   5.581
 6921SOL     OW21661   5.244   6.072   3.151
 6921SOL    HW121662   5.166   6.042   3.205
 6921SOL    HW221663   5.281   5.995   3.099
 6922SOL     OW21664   2.123   5.692   6.236
 6922SOL    HW121665   2.199   5.741   6.279
 6922SOL    HW221666   2.038   5.714   6.283
 6923SOL     OW21667   4.898   5.122   3.160
 6923SOL    HW121668   4.889   5.088   3.254
 6923SOL    HW221669   4.809   5.120   3.115
 6924SOL     OW21670   1.594   4.249   6.934
 6924SOL    HW121671   1.632   4.340   6.920
 6924SOL    HW221672   1.541   4.248   7.019
 6925SOL     OW21673   3.862   5.958   4.811
 6925SOL    HW121674   3.862   5.859   4.822
 6925SOL    HW221675   3.782   5.997   4.857
 6926SOL     OW21676   3.019   3.801   2.164
 6926SOL    HW121677   3.058   3.827   2.076
 6926SOL    HW221678   2.924   3.772   2.152
 6927SOL     OW21679   5.347   3.319   6.502
 6927SOL    HW121680   5.289   3.246   6.465
 6927SOL    HW221681   5.373   3.296   6.596
 6928SOL     OW21682   5.958   6.148   0.707
 6928SOL    HW121683   5.991   6.133   0.614
 6928SOL    HW221684   5.898   6.229   0.708
 6929SOL     OW21685   5.276   5.436   0.922
 6929SOL    HW121686   5.307   5.526   0.954
 6929SOL    HW221687   5.261   5.439   0.824
 6930SOL     OW21688   0.160   6.882   2.296
 6930SOL    HW121689   0.089   6.952   2.291
 6930SOL    HW221690   0.250   6.926   2.296
 6931SOL     OW21691   1.908   0.778   2.465
 6931SOL    HW121692   2.005   0.799   2.454
 6931SOL    HW221693   1.894   0.679   2.458
 6932SOL     OW21694   3.598   0.006   0.619
 6932SOL    HW121695   3.596   0.059   0.704
 6932SOL    HW221696   3.622   6.935   0.639
 6933SOL     OW21697   2.882   6.080   5.110
 6933SOL    HW121698   2.829   6.020   5.169
 6933SOL    HW221699   2.914   6.159   5.163
 6934SOL     OW21700   5.128   3.803   6.118
 6934SOL    HW121701   5.046   3.807   6.061
 6934SOL    HW221702   5.156   3.707   6.129
 6935SOL     OW21703   4.438   5.672   3.568
 6935SOL    HW121704   4.533   5.702   3.568
 6935SOL    HW221705   4.431   5.582   3.611
 6936SOL     OW21706   6.567   2.426   3.474
 6936SOL    HW121707   6.630   2.483   3.526
 6936SOL    HW221708   6.529   2.479   3.398
 6937SOL     OW21709   0.057   5.979   0.378
 6937SOL    HW121710   0.082   5.988   0.475
 6937SOL    HW221711   0.074   5.886   0.348
 6938SOL     OW21712   5.020   3.550   5.863
 6938SOL    HW121713   4.931   3.573   5.823
 6938SOL    HW221714   5.009   3.534   5.961
 6939SOL     OW21715   0.427   4.468   1.987
 6939SOL    HW121716   0.520   4.491   2.016
 6939SOL    HW221717   0.430   4.427   1.896
 6940SOL     OW21718   4.957   1.053   0.356
 6940SOL    HW121719   4.861   1.031   0.378
 6940SOL    HW221720   4.977   1.026   0.263
 6941SOL     OW21721   3.150   3.174   2.940
 6941SOL    HW121722   3.116   3.132   2.856
 6941SOL    HW221723   3.248   3.156   2.950
 6942SOL     OW21724   6.121   2.435   1.248
 6942SOL    HW121725   6.031   2.467   1.218
 6942SOL    HW221726   6.131   2.452   1.346
 6943SOL     OW21727   4.596   6.065   6.898
 6943SOL    HW121728   4.606   5.992   6.830
 6943SOL    HW221729   4.674   6.128   6.891
 6944SOL     OW21730   1.439   3.415   6.298
 6944SOL    HW121731   1.389   3.473   6.363
 6944SOL    HW221732   1.399   3.425   6.207
 6945SOL     OW21733   6.557   3.030   6.598
 6945SOL    HW121734   6.478   3.090   6.589
 6945SOL    HW221735   6.622   3.047   6.524
 6946SOL     OW21736   6.283   6.335   1.367
 6946SOL    HW121737   6.339   6.368   1.290
 6946SOL    HW221738   6.290   6.400   1.443
 6947SOL     OW21739   3.566   6.411   5.478
 6947SOL    HW121740   3.481   6.414   5.531
 6947SOL    HW221741   3.605   6.319   5.484
 6948SOL     OW21742   6.208   0.312   6.508
 6948SOL    HW121743   6.123   0.263   6.523
 6948SOL    HW221744   6.252   0.278   6.425
 6949SOL     OW21745   5.189   6.843   3.450
 6949SOL    HW121746   5.108   6.785   3.451
 6949SOL    HW221747   5.161   6.938   3.465
 6950SOL     OW21748   2.479   0.545   3.911
 6950SOL    HW121749   2.465   0.620   3.976
 6950SOL    HW221750   2.481   0.582   3.818
 6951SOL     OW21751   6.894   6.188   5.766
 6951SOL    HW121752   6.810   6.145   5.732
 6951SOL    HW221753   6.922   6.261   5.704
 6952SOL     OW21754   0.323   5.433   3.994
 6952SOL    HW121755   0.388   5.425   3.918
 6952SOL    HW221756   0.374   5.442   4.080
 6953SOL     OW21757   4.848   0.096   0.044
 6953SOL    HW121758   4.934   0.062   0.083
 6953SOL    HW221759   4.802   0.153   0.112
 6954SOL     OW21760   0.272   3.310   3.642
 6954SOL    HW121761   0.342   3.329   3.711
 6954SOL    HW221762   0.297   3.228   3.591
 6955SOL     OW21763   6.276   0.793   1.783
 6955SOL    HW121764   6.310   0.863   1.846
 6955SOL    HW221765   6.344   0.777   1.711
 6956SOL     OW21766   4.774   6.846   3.763
 6956SOL    HW121767   4.821   6.798   3.837
 6956SOL    HW221768   4.692   6.794   3.736
 6957SOL     OW21769   6.022   5.526   0.609
 6957SOL    HW121770   6.045   5.472   0.690
 6957SOL    HW221771   6.105   5.541   0.554
 6958SOL     OW21772   3.210   4.124   5.018
 6958SOL    HW121773   3.310   4.130   5.015
 6958SOL    HW221774   3.172   4.208   5.057
 6959SOL     OW21775   1.896   1.693   4.480
 6959SOL    HW121776   1.892   1.719   4.383
 6959SOL    HW221777   1.804   1.678   4.514
 6960SOL     OW21778   1.505   5.817   1.429
 6960SOL    HW121779   1.586   5.863   1.466
 6960SOL    HW221780   1.530   5.767   1.346
 6961SOL     OW21781   5.995   2.227   4.475
 6961SOL    HW121782   5.998   2.153   4.408
 6961SOL    HW221783   5.985   2.314   4.428
 6962SOL     OW21784   5.518   6.262   2.006
 6962SOL    HW121785   5.467   6.311   2.077
 6962SOL    HW221786   5.482   6.169   1.996
 6963SOL     OW21787   6.005   5.737   1.341
 6963SOL    HW121788   6.035   5.709   1.250
 6963SOL    HW221789   5.983   5.835   1.340
 6964SOL     OW21790   3.356   6.605   5.029
 6964SOL    HW121791   3.413   6.687   5.026
 6964SOL    HW221792   3.415   6.525   5.044
 6965SOL     OW21793   0.535   3.012   0.401
 6965SOL    HW121794   0.479   3.037   0.480
 6965SOL    HW221795   0.526   3.082   0.330
 6966SOL     OW21796   6.968   2.149   3.522
 6966SOL    HW121797   6.894   2.081   3.526
 6966SOL    HW221798   6.946   2.218   3.453
 6967SOL     OW21799   1.387   0.162   5.434
 6967SOL    HW121800   1.340   0.132   5.517
 6967SOL    HW221801   1.459   0.097   5.411
 6968SOL     OW21802   4.493   6.640   2.729
 6968SOL    HW121803   4.437   6.596   2.659
 6968SOL    HW221804   4.546   6.714   2.688
 6969SOL     OW21805   2.451   2.567   1.143
 6969SOL    HW121806   2.438   2.516   1.058
 6969SOL    HW221807   2.408   2.518   1.219
 6970SOL     OW21808   3.007   4.043   6.296
 6970SOL    HW121809   2.994   4.122   6.356
 6970SOL    HW221810   2.987   4.069   6.202
 6971SOL     OW21811   6.248   4.534   1.736
 6971SOL    HW121812   6.347   4.521   1.746
 6971SOL    HW221813   6.223   4.625   1.767
 6972SOL     OW21814   5.752   4.795   3.116
 6972SOL    HW121815   5.776   4.866   3.050
 6972SOL    HW221816   5.656   4.769   3.102
 6973SOL     OW21817   0.369   3.254   5.326
 6973SOL    HW121818   0.443   3.306   5.369
 6973SOL    HW221819   0.306   3.221   5.396
 6974SOL     OW21820   3.050   3.069   2.707
 6974SOL    HW121821   3.094   3.042   2.621
 6974SOL    HW221822   2.968   3.123   2.687
 6975SOL     OW21823   2.110   5.635   5.984
 6975SOL    HW121824   2.116   5.662   6.080
 6975SOL    HW221825   2.184   5.571   5.963
 6976SOL     OW21826   4.761   6.084   4.865
 6976SOL    HW121827   4.765   6.182   4.847
 6976SOL    HW221828   4.773   6.033   4.779
 6977SOL     OW21829   4.417   2.379   1.681
 6977SOL    HW121830   4.488   2.376   1.610
 6977SOL    HW221831   4.460   2.370   1.771
 6978SOL     OW21832   4.351   1.817   2.460
 6978SOL    HW121833   4.353   1.917   2.470
 6978SOL    HW221834   4.270   1.791   2.407
 6979SOL     OW21835   1.424   4.570   1.311
 6979SOL    HW121836   1.503   4.519   1.345
 6979SOL    HW221837   1.453   4.628   1.235
 6980SOL     OW21838   1.201   1.306   3.965
 6980SOL    HW121839   1.213   1.241   4.040
 6980SOL    HW221840   1.253   1.275   3.886
 6981SOL     OW21841   3.962   2.864   5.877
 6981SOL    HW121842   3.985   2.874   5.780
 6981SOL    HW221843   3.898   2.787   5.888
 6982SOL     OW21844   1.480   0.336   4.882
 6982SOL    HW121845   1.430   0.292   4.956
 6982SOL    HW221846   1.464   0.287   4.796
 6983SOL     OW21847   4.314   2.319   3.867
 6983SOL    HW121848   4.330   2.312   3.768
 6983SOL    HW221849   4.367   2.396   3.903
 6984SOL     OW21850   2.788   1.462   4.053
 6984SOL    HW121851   2.740   1.474   3.967
 6984SOL    HW221852   2.868   1.521   4.056
 6985SOL     OW21853   4.433   5.259   1.461
 6985SOL    HW121854   4.446   5.341   1.407
 6985SOL    HW221855   4.344   5.262   1.507
 6986SOL     OW21856   2.002   6.658   6.065
 6986SOL    HW121857   2.088   6.699   6.094
 6986SOL    HW221858   1.926   6.716   6.095
 6987SOL     OW21859   0.249   1.509   6.037
 6987SOL    HW121860   0.250   1.436   5.969
 6987SOL    HW221861   0.341   1.522   6.073
 6988SOL     OW21862   0.113   0.714   5.929
 6988SOL    HW121863   0.155   0.681   6.013
 6988SOL    HW221864   0.054   0.793   5.950
 6989SOL     OW21865   0.206   3.990   3.317
 6989SOL    HW121866   0.197   3.891   3.316
 6989SOL    HW221867   0.124   4.032   3.277
 6990SOL     OW21868   4.897   2.519   1.100
 6990SOL    HW121869   4.802   2.534   1.127
 6990SOL    HW221870   4.957   2.571   1.161
 6991SOL     OW21871   3.669   4.891   4.025
 6991SOL    HW121872   3.625   4.817   4.076
 6991SOL    HW221873   3.654   4.879   3.927
 6992SOL     OW21874   5.110   6.007   5.676
 6992SOL    HW121875   5.210   5.997   5.673
 6992SOL    HW221876   5.068   5.918   5.693
 6993SOL     OW21877   6.610   0.668   3.517
 6993SOL    HW121878   6.592   0.575   3.486
 6993SOL    HW221879   6.542   0.694   3.585
 6994SOL     OW21880   0.227   1.857   4.463
 6994SOL    HW121881   0.260   1.943   4.426
 6994SOL    HW221882   0.252   1.782   4.401
 6995SOL     OW21883   6.808   4.496   6.249
 6995SOL    HW121884   6.812   4.584   6.201
 6995SOL    HW221885   6.869   4.431   6.204
 6996SOL     OW21886   2.030   0.530   6.562
 6996SOL    HW121887   1.985   0.567   6.643
 6996SOL    HW221888   2.015   0.431   6.558
 6997SOL     OW21889   5.850   6.048   5.373
 6997SOL    HW121890   5.821   6.112   5.302
 6997SOL    HW221891   5.794   6.060   5.454
 6998SOL     OW21892   1.740   1.776   1.315
 6998SOL    HW121893   1.666   1.737   1.371
 6998SOL    HW221894   1.778   1.855   1.362
 6999SOL     OW21895   2.347   3.009   5.821
 6999SOL    HW121896   2.287   2.991   5.899
 6999SOL    HW221897   2.315   3.090   5.772
 7000SOL     OW21898   6.382   6.158   1.618
 7000SOL    HW121899   6.472   6.197   1.597
 7000SOL    HW221900   6.313   6.199   1.559
 7001SOL     OW21901   2.255   3.018   5.388
 7001SOL    HW121902   2.308   3.045   5.309
 7001SOL    HW221903   2.201   3.096   5.420
 7002SOL     OW21904   2.085   5.240   3.631
 7002SOL    HW121905   2.150   5.300   3.678
 7002SOL    HW221906   2.120   5.146   3.632
 7003SOL     OW21907   3.874   5.544   0.034
 7003SOL    HW121908   3.871   5.555   6.958
 7003SOL    HW221909   3.796   5.489   0.063
 7004SOL     OW21910   1.377   4.479   2.498
 7004SOL    HW121911   1.421   4.409   2.443
 7004SOL    HW221912   1.287   4.447   2.528
 7005SOL     OW21913   1.402   6.904   0.225
 7005SOL    HW121914   1.463   6.957   0.166
 7005SOL    HW221915   1.318   6.884   0.175
 7006SOL     OW21916   4.663   4.826   3.856
 7006SOL    HW121917   4.747   4.845   3.906
 7006SOL    HW221918   4.589   4.884   3.891
 7007SOL     OW21919   4.697   0.187   3.975
 7007SOL    HW121920   4.792   0.185   4.008
 7007SOL    HW221921   4.642   0.125   4.031
 7008SOL     OW21922   1.232   4.488   4.750
 7008SOL    HW121923   1.304   4.464   4.815
 7008SOL    HW221924   1.143   4.459   4.786
 7009SOL     OW21925   6.221   6.191   2.039
 7009SOL    HW121926   6.136   6.184   1.987
 7009SOL    HW221927   6.273   6.106   2.030
 7010SOL     OW21928   5.291   4.740   4.881
 7010SOL    HW121929   5.316   4.651   4.843
 7010SOL    HW221930   5.196   4.737   4.914
 7011SOL     OW21931   4.169   6.814   6.384
 7011SOL    HW121932   4.130   6.894   6.429
 7011SOL    HW221933   4.267   6.829   6.369
 7012SOL     OW21934   2.096   1.872   1.756
 7012SOL    HW121935   2.104   1.773   1.765
 7012SOL    HW221936   2.079   1.896   1.660
 7013SOL     OW21937   0.978   0.480   0.776
 7013SOL    HW121938   0.927   0.536   0.711
 7013SOL    HW221939   1.074   0.475   0.747
 7014SOL     OW21940   3.872   3.276   1.099
 7014SOL    HW121941   3.775   3.272   1.126
 7014SOL    HW221942   3.917   3.351   1.147
 7015SOL     OW21943   5.973   4.129   1.787
 7015SOL    HW121944   5.885   4.085   1.766
 7015SOL    HW221945   5.977   4.151   1.885
 7016SOL     OW21946   3.512   4.885   1.433
 7016SOL    HW121947   3.546   4.956   1.371
 7016SOL    HW221948   3.566   4.886   1.517
 7017SOL     OW21949   2.977   5.868   2.955
 7017SOL    HW121950   3.034   5.889   2.876
 7017SOL    HW221951   2.897   5.928   2.956
 7018SOL     OW21952   5.912   4.196   4.031
 7018SOL    HW121953   5.866   4.235   3.951
 7018SOL    HW221954   5.887   4.100   4.041
 7019SOL     OW21955   2.607   4.526   6.917
 7019SOL    HW121956   2.649   4.436   6.929
 7019SOL    HW221957   2.508   4.516   6.905
 7020SOL     OW21958   6.111   6.495   6.886
 7020SOL    HW121959   6.136   6.527   6.795
 7020SOL    HW221960   6.190   6.448   6.927
 7021SOL     OW21961   1.591   1.272   6.069
 7021SOL    HW121962   1.572   1.370   6.064
 7021SOL    HW221963   1.561   1.237   6.157
 7022SOL     OW21964   4.563   6.420   0.297
 7022SOL    HW121965   4.512   6.378   0.221
 7022SOL    HW221966   4.545   6.518   0.298
 7023SOL     OW21967   0.418   1.536   3.643
 7023SOL    HW121968   0.318   1.538   3.636
 7023SOL    HW221969   0.456   1.474   3.575
 7024SOL     OW21970   2.138   4.017   5.247
 7024SOL    HW121971   2.211   4.014   5.178
 7024SOL    HW221972   2.131   3.927   5.291
 7025SOL     OW21973   2.635   0.851   6.746
 7025SOL    HW121974   2.635   0.772   6.808
 7025SOL    HW221975   2.620   0.935   6.799
 7026SOL     OW21976   3.349   2.447   1.604
 7026SOL    HW121977   3.404   2.381   1.654
 7026SOL    HW221978   3.252   2.429   1.620
 7027SOL     OW21979   2.821   5.095   4.406
 7027SOL    HW121980   2.731   5.121   4.371
 7027SOL    HW221981   2.842   5.151   4.486
 7028SOL     OW21982   4.101   0.723   3.893
 7028SOL    HW121983   4.081   0.814   3.928
 7028SOL    HW221984   4.116   0.660   3.969
 7029SOL     OW21985   5.254   4.682   5.794
 7029SOL    HW121986   5.302   4.677   5.881
 7029SOL    HW221987   5.320   4.690   5.719
 7030SOL     OW21988   1.218   1.199   5.540
 7030SOL    HW121989   1.182   1.235   5.626
 7030SOL    HW221990   1.187   1.104   5.528
 7031SOL     OW21991   2.614   6.183   5.127
 7031SOL    HW121992   2.607   6.191   5.227
 7031SOL    HW221993   2.663   6.261   5.090
 7032SOL     OW21994   3.430   0.777   2.777
 7032SOL    HW121995   3.335   0.758   2.753
 7032SOL    HW221996   3.490   0.714   2.728
 7033SOL     OW21997   1.606   2.415   3.425
 7033SOL    HW121998   1.700   2.382   3.423
 7033SOL    HW221999   1.588   2.470   3.343
 7034SOL     OW22000   5.901   0.609   2.852
 7034SOL    HW122001   5.980   0.650   2.806
 7034SOL    HW222002   5.847   0.557   2.785
 7035SOL     OW22003   1.953   6.817   1.634
 7035SOL    HW122004   2.001   6.737   1.598
 7035SOL    HW222005   1.920   6.797   1.727
 7036SOL     OW22006   0.520   0.669   2.698
 7036SOL    HW122007   0.455   0.650   2.772
 7036SOL    HW222008   0.601   0.611   2.709
 7037SOL     OW22009   2.094   1.001   6.313
 7037SOL    HW122010   2.078   0.930   6.382
 7037SOL    HW222011   2.022   0.997   6.244
 7038SOL     OW22012   1.857   3.378   4.992
 7038SOL    HW122013   1.809   3.326   4.921
 7038SOL    HW222014   1.891   3.463   4.954
 7039SOL     OW22015   2.758   4.425   1.495
 7039SOL    HW122016   2.807   4.402   1.411
 7039SOL    HW222017   2.817   4.480   1.554
 7040SOL     OW22018   6.097   2.148   4.735
 7040SOL    HW122019   6.168   2.081   4.712
 7040SOL    HW222020   6.052   2.179   4.651
 7041SOL     OW22021   0.266   1.694   2.008
 7041SOL    HW122022   0.267   1.791   2.030
 7041SOL    HW222023   0.360   1.658   2.013
 7042SOL     OW22024   5.524   4.863   5.481
 7042SOL    HW122025   5.595   4.863   5.411
 7042SOL    HW222026   5.472   4.777   5.476
 7043SOL     OW22027   1.955   3.603   2.825
 7043SOL    HW122028   2.034   3.643   2.780
 7043SOL    HW222029   1.884   3.583   2.758
 7044SOL     OW22030   4.482   4.501   3.246
 7044SOL    HW122031   4.575   4.540   3.246
 7044SOL    HW222032   4.488   4.402   3.259
 7045SOL     OW22033   5.374   5.092   3.382
 7045SOL    HW122034   5.327   5.155   3.320
 7045SOL    HW222035   5.411   5.144   3.459
 7046SOL     OW22036   3.116   1.859   2.897
 7046SOL    HW122037   3.051   1.931   2.922
 7046SOL    HW222038   3.134   1.863   2.799
 7047SOL     OW22039   0.111   2.488   2.241
 7047SOL    HW122040   0.131   2.551   2.316
 7047SOL    HW222041   0.099   2.396   2.277
 7048SOL     OW22042   5.982   6.134   2.458
 7048SOL    HW122043   6.012   6.229   2.459
 7048SOL    HW222044   5.927   6.115   2.540
 7049SOL     OW22045   3.591   1.584   1.279
 7049SOL    HW122046   3.530   1.606   1.203
 7049SOL    HW222047   3.614   1.668   1.328
 7050SOL     OW22048   4.099   3.888   1.925
 7050SOL    HW122049   4.131   3.855   2.014
 7050SOL    HW222050   4.034   3.962   1.939
 7051SOL     OW22051   6.977   0.092   2.051
 7051SOL    HW122052   0.013   0.144   2.112
 7051SOL    HW222053   6.906   0.152   2.015
 7052SOL     OW22054   5.426   2.572   4.065
 7052SOL    HW122055   5.353   2.504   4.056
 7052SOL    HW222056   5.514   2.526   4.062
 7053SOL     OW22057   0.432   3.344   5.050
 7053SOL    HW122058   0.515   3.399   5.056
 7053SOL    HW222059   0.416   3.296   5.136
 7054SOL     OW22060   0.677   6.835   0.348
 7054SOL    HW122061   0.696   6.773   0.425
 7054SOL    HW222062   0.743   6.819   0.275
 7055SOL     OW22063   2.992   6.768   5.369
 7055SOL    HW122064   3.004   6.736   5.463
 7055SOL    HW222065   3.035   6.858   5.358
 7056SOL     OW22066   6.824   5.539   2.108
 7056SOL    HW122067   6.820   5.569   2.012
 7056SOL    HW222068   6.762   5.462   2.121
 7057SOL     OW22069   1.096   5.527   4.015
 7057SOL    HW122070   1.167   5.530   3.945
 7057SOL    HW222071   1.127   5.472   4.092
 7058SOL     OW22072   6.053   5.310   5.967
 7058SOL    HW122073   6.144   5.350   5.984
 7058SOL    HW222074   6.016   5.347   5.881
 7059SOL     OW22075   6.954   0.779   4.263
 7059SOL    HW122076   6.947   0.703   4.327
 7059SOL    HW222077   0.009   0.836   4.286
 7060SOL     OW22078   4.167   0.172   2.261
 7060SOL    HW122079   4.197   0.089   2.310
 7060SOL    HW222080   4.241   0.239   2.260
 7061SOL     OW22081   1.256   3.256   3.967
 7061SOL    HW122082   1.301   3.181   3.919
 7061SOL    HW222083   1.246   3.334   3.905
 7062SOL     OW22084   4.366   1.466   5.111
 7062SOL    HW122085   4.406   1.535   5.051
 7062SOL    HW222086   4.297   1.508   5.169
 7063SOL     OW22087   1.223   0.179   1.977
 7063SOL    HW122088   1.284   0.180   1.897
 7063SOL    HW222089   1.171   0.264   1.979
 7064SOL     OW22090   3.801   2.189   1.464
 7064SOL    HW122091   3.874   2.120   1.457
 7064SOL    HW222092   3.818   2.247   1.544
 7065SOL     OW22093   3.920   3.826   6.095
 7065SOL    HW122094   3.825   3.799   6.112
 7065SOL    HW222095   3.923   3.893   6.021
 7066SOL     OW22096   4.784   0.713   0.483
 7066SOL    HW122097   4.768   0.632   0.427
 7066SOL    HW222098   4.842   0.688   0.561
 7067SOL     OW22099   2.375   2.022   4.901
 7067SOL    HW122100   2.467   2.042   4.936
 7067SOL    HW222101   2.340   1.939   4.945
 7068SOL     OW22102   0.123   3.987   3.969
 7068SOL    HW122103   0.185   3.944   3.904
 7068SOL    HW222104   0.174   4.012   4.052
 7069SOL     OW22105   5.580   1.283   4.967
 7069SOL    HW122106   5.527   1.367   4.978
 7069SOL    HW222107   5.554   1.238   4.881
 7070SOL     OW22108   6.766   6.028   4.886
 7070SOL    HW122109   6.690   6.076   4.841
 7070SOL    HW222110   6.822   6.094   4.937
 7071SOL     OW22111   2.388   5.847   6.605
 7071SOL    HW122112   2.471   5.821   6.555
 7071SOL    HW222113   2.368   5.777   6.674
 7072SOL     OW22114   1.496   5.864   6.890
 7072SOL    HW122115   1.437   5.792   6.855
 7072SOL    HW222116   1.529   5.920   6.815
 7073SOL     OW22117   4.961   0.130   4.571
 7073SOL    HW122118   4.888   0.088   4.518
 7073SOL    HW222119   5.043   0.138   4.515
 7074SOL     OW22120   4.605   2.612   2.626
 7074SOL    HW122121   4.628   2.524   2.668
 7074SOL    HW222122   4.577   2.596   2.531
 7075SOL     OW22123   1.630   4.590   5.296
 7075SOL    HW122124   1.568   4.556   5.225
 7075SOL    HW222125   1.641   4.689   5.285
 7076SOL     OW22126   5.747   1.747   6.503
 7076SOL    HW122127   5.824   1.748   6.566
 7076SOL    HW222128   5.760   1.817   6.432
 7077SOL     OW22129   2.426   4.602   4.016
 7077SOL    HW122130   2.504   4.606   3.954
 7077SOL    HW222131   2.353   4.548   3.974
 7078SOL     OW22132   6.912   6.815   1.627
 7078SOL    HW122133   7.009   6.826   1.605
 7078SOL    HW222134   6.888   6.875   1.703
 7079SOL     OW22135   6.838   6.089   3.982
 7079SOL    HW122136   6.783   6.165   3.949
 7079SOL    HW222137   6.909   6.123   4.044
 7080SOL     OW22138   2.819   1.692   4.809
 7080SOL    HW122139   2.726   1.728   4.808
 7080SOL    HW222140   2.847   1.672   4.715
 7081SOL     OW22141   3.074   6.925   6.542
 7081SOL    HW122142   3.130   6.967   6.470
 7081SOL    HW222143   3.023   6.996   6.590
 7082SOL     OW22144   6.626   4.077   6.741
 7082SOL    HW122145   6.535   4.094   6.780
 7082SOL    HW222146   6.625   3.991   6.690
 7083SOL     OW22147   2.851   0.482   0.426
 7083SOL    HW122148   2.937   0.480   0.375
 7083SOL    HW222149   2.869   0.500   0.522
 7084SOL     OW22150   0.302   6.059   5.959
 7084SOL    HW122151   0.277   6.155   5.968
 7084SOL    HW222152   0.252   6.018   5.882
 7085SOL     OW22153   0.977   1.596   2.045
 7085SOL    HW122154   1.062   1.617   1.995
 7085SOL    HW222155   0.965   1.662   2.118
 7086SOL     OW22156   5.251   0.509   5.358
 7086SOL    HW122157   5.290   0.503   5.266
 7086SOL    HW222158   5.282   0.593   5.402
 7087SOL     OW22159   6.152   3.032   4.305
 7087SOL    HW122160   6.176   3.060   4.398
 7087SOL    HW222161   6.057   3.055   4.286
 7088SOL     OW22162   6.002   2.678   3.646
 7088SOL    HW122163   6.031   2.625   3.567
 7088SOL    HW222164   6.054   2.764   3.649
 7089SOL     OW22165   3.023   2.001   4.575
 7089SOL    HW122166   3.022   2.075   4.508
 7089SOL    HW222167   2.953   2.018   4.645
 7090SOL     OW22168   2.192   0.391   6.881
 7090SOL    HW122169   2.222   0.298   6.897
 7090SOL    HW222170   2.234   0.425   6.796
 7091SOL     OW22171   0.820   1.575   6.785
 7091SOL    HW122172   0.872   1.568   6.699
 7091SOL    HW222173   0.811   1.484   6.825
 7092SOL     OW22174   4.463   3.006   5.638
 7092SOL    HW122175   4.412   3.036   5.719
 7092SOL    HW222176   4.410   3.026   5.556
 7093SOL     OW22177   3.043   3.877   3.187
 7093SOL    HW122178   3.109   3.908   3.256
 7093SOL    HW222179   3.060   3.926   3.101
 7094SOL     OW22180   6.944   6.427   5.998
 7094SOL    HW122181   6.991   6.515   6.005
 7094SOL    HW222182   6.883   6.427   5.919
 7095SOL     OW22183   3.844   4.044   5.912
 7095SOL    HW122184   3.868   4.093   5.828
 7095SOL    HW222185   3.803   3.956   5.889
 7096SOL     OW22186   6.525   0.430   3.776
 7096SOL    HW122187   6.429   0.439   3.749
 7096SOL    HW222188   6.546   0.494   3.849
 7097SOL     OW22189   5.855   2.143   1.241
 7097SOL    HW122190   5.859   2.053   1.285
 7097SOL    HW222191   5.926   2.149   1.171
 7098SOL     OW22192   1.626   6.331   5.136
 7098SOL    HW122193   1.605   6.417   5.089
 7098SOL    HW222194   1.564   6.318   5.213
 7099SOL     OW22195   3.457   1.320   5.542
 7099SOL    HW122196   3.439   1.400   5.484
 7099SOL    HW222197   3.450   1.237   5.487
 7100SOL     OW22198   5.401   2.880   1.046
 7100SOL    HW122199   5.428   2.945   1.117
 7100SOL    HW222200   5.311   2.903   1.011
 7101SOL     OW22201   2.181   0.647   4.554
 7101SOL    HW122202   2.230   0.682   4.634
 7101SOL    HW222203   2.175   0.548   4.560
 7102SOL     OW22204   5.277   6.808   0.649
 7102SOL    HW122205   5.359   6.783   0.597
 7102SOL    HW222206   5.196   6.776   0.600
 7103SOL     OW22207   4.913   4.449   1.605
 7103SOL    HW122208   4.879   4.358   1.582
 7103SOL    HW222209   4.961   4.446   1.692
 7104SOL     OW22210   0.171   2.712   4.078
 7104SOL    HW122211   0.167   2.613   4.090
 7104SOL    HW222212   0.253   2.749   4.122
 7105SOL     OW22213   3.057   2.972   5.732
 7105SOL    HW122214   2.993   3.049   5.731
 7105SOL    HW222215   3.069   2.938   5.639
 7106SOL     OW22216   4.113   3.647   2.922
 7106SOL    HW122217   4.118   3.678   2.827
 7106SOL    HW222218   4.109   3.547   2.924
 7107SOL     OW22219   4.526   1.244   0.508
 7107SOL    HW122220   4.438   1.289   0.494
 7107SOL    HW222221   4.512   1.156   0.553
 7108SOL     OW22222   4.378   5.879   2.901
 7108SOL    HW122223   4.435   5.827   2.966
 7108SOL    HW222224   4.341   5.960   2.947
 7109SOL     OW22225   3.045   0.443   6.041
 7109SOL    HW122226   2.945   0.437   6.051
 7109SOL    HW222227   3.067   0.498   5.960
 7110SOL     OW22228   2.879   5.848   4.375
 7110SOL    HW122229   2.900   5.856   4.472
 7110SOL    HW222230   2.962   5.864   4.321
 7111SOL     OW22231   0.967   2.517   4.830
 7111SOL    HW122232   0.880   2.563   4.846
 7111SOL    HW222233   1.037   2.558   4.889
 7112SOL     OW22234   1.873   4.902   4.683
 7112SOL    HW122235   1.967   4.885   4.653
 7112SOL    HW222236   1.821   4.945   4.610
 7113SOL     OW22237   4.153   3.585   4.739
 7113SOL    HW122238   4.243   3.568   4.698
 7113SOL    HW222239   4.097   3.503   4.731
 7114SOL     OW22240   4.468   6.485   1.560
 7114SOL    HW122241   4.492   6.569   1.608
 7114SOL    HW222242   4.375   6.458   1.584
 7115SOL     OW22243   5.341   2.943   1.371
 7115SOL    HW122244   5.288   3.024   1.345
 7115SOL    HW222245   5.341   2.877   1.295
 7116SOL     OW22246   6.199   3.849   3.449
 7116SOL    HW122247   6.262   3.918   3.486
 7116SOL    HW222248   6.126   3.895   3.399
 7117SOL     OW22249   0.583   6.172   5.130
 7117SOL    HW122250   0.618   6.112   5.058
 7117SOL    HW222251   0.659   6.215   5.178
 7118SOL     OW22252   2.892   4.350   0.848
 7118SOL    HW122253   2.961   4.296   0.896
 7118SOL    HW222254   2.879   4.314   0.755
 7119SOL     OW22255   4.948   2.372   3.479
 7119SOL    HW122256   4.887   2.410   3.549
 7119SOL    HW222257   5.035   2.346   3.522
 7120SOL     OW22258   3.910   1.702   2.305
 7120SOL    HW122259   3.991   1.761   2.312
 7120SOL    HW222260   3.835   1.753   2.262
 7121SOL     OW22261   1.182   0.018   3.368
 7121SOL    HW122262   1.244   6.987   3.313
 7121SOL    HW222263   1.149   6.988   3.446
 7122SOL     OW22264   0.751   0.081   5.679
 7122SOL    HW122265   0.826   0.139   5.647
 7122SOL    HW222266   0.664   0.122   5.652
 7123SOL     OW22267   1.654   4.207   3.620
 7123SOL    HW122268   1.711   4.157   3.685
 7123SOL    HW222269   1.606   4.281   3.668
 7124SOL     OW22270   6.831   2.289   1.154
 7124SOL    HW122271   6.808   2.385   1.167
 7124SOL    HW222272   6.747   2.236   1.140
 7125SOL     OW22273   0.222   6.768   1.084
 7125SOL    HW122274   0.316   6.795   1.104
 7125SOL    HW222275   0.205   6.778   0.986
 7126SOL     OW22276   3.520   5.259   0.333
 7126SOL    HW122277   3.441   5.200   0.345
 7126SOL    HW222278   3.529   5.320   0.412
 7127SOL     OW22279   1.458   5.123   5.449
 7127SOL    HW122280   1.506   5.102   5.534
 7127SOL    HW222281   1.408   5.209   5.460
 7128SOL     OW22282   2.879   4.963   0.258
 7128SOL    HW122283   2.834   5.025   0.193
 7128SOL    HW222284   2.852   4.986   0.351
 7129SOL     OW22285   2.268   1.913   6.898
 7129SOL    HW122286   2.276   1.813   6.906
 7129SOL    HW222287   2.342   1.948   6.840
 7130SOL     OW22288   4.434   6.115   5.068
 7130SOL    HW122289   4.491   6.152   4.994
 7130SOL    HW222290   4.486   6.046   5.119
 7131SOL     OW22291   3.004   0.196   0.689
 7131SOL    HW122292   2.911   0.166   0.704
 7131SOL    HW222293   3.068   0.131   0.730
 7132SOL     OW22294   3.908   4.212   0.044
 7132SOL    HW122295   3.831   4.260   0.086
 7132SOL    HW222296   3.986   4.213   0.107
 7133SOL     OW22297   5.012   5.796   6.130
 7133SOL    HW122298   4.963   5.758   6.208
 7133SOL    HW222299   5.075   5.728   6.093
 7134SOL     OW22300   5.144   0.187   2.062
 7134SOL    HW122301   5.217   0.125   2.090
 7134SOL    HW222302   5.149   0.202   1.963
 7135SOL     OW22303   1.511   3.193   3.254
 7135SOL    HW122304   1.505   3.284   3.214
 7135SOL    HW222305   1.441   3.134   3.215
 7136SOL     OW22306   2.722   3.146   1.382
 7136SOL    HW122307   2.657   3.083   1.424
 7136SOL    HW222308   2.815   3.111   1.396
 7137SOL     OW22309   4.161   0.052   6.527
 7137SOL    HW122310   4.097   0.128   6.518
 7137SOL    HW222311   4.184   0.040   6.624
 7138SOL     OW22312   2.154   2.883   0.320
 7138SOL    HW122313   2.113   2.944   0.388
 7138SOL    HW222314   2.149   2.926   0.230
 7139SOL     OW22315   5.804   4.267   1.539
 7139SOL    HW122316   5.883   4.328   1.554
 7139SOL    HW222317   5.765   4.241   1.627
 7140SOL     OW22318   6.112   4.013   3.240
 7140SOL    HW122319   6.208   4.040   3.240
 7140SOL    HW222320   6.054   4.095   3.233
 7141SOL     OW22321   3.758   5.544   1.228
 7141SOL    HW122322   3.852   5.529   1.198
 7141SOL    HW222323   3.758   5.604   1.309
 7142SOL     OW22324   4.062   0.387   3.212
 7142SOL    HW122325   4.043   0.456   3.282
 7142SOL    HW222326   4.085   0.431   3.126
 7143SOL     OW22327   1.113   2.189   5.848
 7143SOL    HW122328   1.208   2.205   5.822
 7143SOL    HW222329   1.053   2.247   5.794
 7144SOL     OW22330   1.944   2.625   2.016
 7144SOL    HW122331   2.039   2.648   2.038
 7144SOL    HW222332   1.882   2.684   2.069
 7145SOL     OW22333   4.613   0.500   0.382
 7145SOL    HW122334   4.671   0.470   0.458
 7145SOL    HW222335   4.621   0.436   0.306
 7146SOL     OW22336   2.038   0.156   0.811
 7146SOL    HW122337   2.033   0.252   0.839
 7146SOL    HW222338   1.950   0.112   0.829
 7147SOL     OW22339   6.909   6.944   3.064
 7147SOL    HW122340   6.971   6.875   3.101
 7147SOL    HW222341   6.862   6.908   2.984
 7148SOL     OW22342   0.528   5.956   1.074
 7148SOL    HW122343   0.542   5.948   1.172
 7148SOL    HW222344   0.524   5.865   1.033
 7149SOL     OW22345   6.224   6.132   3.374
 7149SOL    HW122346   6.207   6.221   3.418
 7149SOL    HW222347   6.150   6.112   3.311
 7150SOL     OW22348   3.120   2.350   1.701
 7150SOL    HW122349   3.043   2.397   1.743
 7150SOL    HW222350   3.113   2.252   1.718
 7151SOL     OW22351   2.538   6.022   0.698
 7151SOL    HW122352   2.499   5.954   0.636
 7151SOL    HW222353   2.591   6.089   0.645
 7152SOL     OW22354   0.687   0.611   5.293
 7152SOL    HW122355   0.739   0.633   5.375
 7152SOL    HW222356   0.654   0.696   5.251
 7153SOL     OW22357   3.642   5.645   1.646
 7153SOL    HW122358   3.696   5.611   1.723
 7153SOL    HW222359   3.545   5.638   1.668
 7154SOL     OW22360   4.488   0.318   3.623
 7154SOL    HW122361   4.562   0.261   3.660
 7154SOL    HW222362   4.401   0.290   3.664
 7155SOL     OW22363   1.765   3.748   1.097
 7155SOL    HW122364   1.750   3.786   1.189
 7155SOL    HW222365   1.787   3.651   1.104
 7156SOL     OW22366   0.018   3.380   3.734
 7156SOL    HW122367   0.108   3.367   3.693
 7156SOL    HW222368   0.016   3.468   3.782
 7157SOL     OW22369   0.329   3.598   1.611
 7157SOL    HW122370   0.420   3.585   1.650
 7157SOL    HW222371   0.330   3.677   1.549
 7158SOL     OW22372   1.594   0.142   3.879
 7158SOL    HW122373   1.513   0.195   3.904
 7158SOL    HW222374   1.593   0.055   3.929
 7159SOL     OW22375   0.469   5.041   2.489
 7159SOL    HW122376   0.547   4.990   2.452
 7159SOL    HW222377   0.484   5.059   2.586
 7160SOL     OW22378   5.395   0.338   2.650
 7160SOL    HW122379   5.353   0.327   2.741
 7160SOL    HW222380   5.409   0.247   2.609
 7161SOL     OW22381   3.373   4.115   4.290
 7161SOL    HW122382   3.295   4.171   4.318
 7161SOL    HW222383   3.453   4.142   4.344
 7162SOL     OW22384   0.851   5.173   6.163
 7162SOL    HW122385   0.949   5.188   6.172
 7162SOL    HW222386   0.816   5.124   6.243
 7163SOL     OW22387   3.074   6.980   2.522
 7163SOL    HW122388   3.065   0.047   2.563
 7163SOL    HW222389   3.100   6.914   2.593
 7164SOL     OW22390   2.162   0.692   3.940
 7164SOL    HW122391   2.120   0.727   4.023
 7164SOL    HW222392   2.184   0.595   3.952
 7165SOL     OW22393   6.790   1.104   2.627
 7165SOL    HW122394   6.703   1.099   2.578
 7165SOL    HW222395   6.823   1.198   2.629
 7166SOL     OW22396   6.002   2.278   0.847
 7166SOL    HW122397   5.909   2.269   0.882
 7166SOL    HW222398   6.003   2.259   0.749
 7167SOL     OW22399   5.340   3.219   4.209
 7167SOL    HW122400   5.390   3.168   4.279
 7167SOL    HW222401   5.263   3.165   4.177
 7168SOL     OW22402   1.080   2.905   2.849
 7168SOL    HW122403   1.154   2.837   2.852
 7168SOL    HW222404   1.002   2.867   2.798
 7169SOL     OW22405   0.535   2.445   4.918
 7169SOL    HW122406   0.459   2.472   4.976
 7169SOL    HW222407   0.552   2.347   4.927
 7170SOL     OW22408   4.590   0.103   4.211
 7170SOL    HW122409   4.652   0.168   4.256
 7170SOL    HW222410   4.620   0.010   4.231
 7171SOL     OW22411   5.911   3.780   0.491
 7171SOL    HW122412   5.953   3.705   0.439
 7171SOL    HW222413   5.812   3.783   0.472
 7172SOL     OW22414   1.195   7.019   4.750
 7172SOL    HW122415   1.295   7.013   4.746
 7172SOL    HW222416   1.167   0.091   4.748
 7173SOL     OW22417   6.673   4.511   6.491
 7173SOL    HW122418   6.588   4.543   6.450
 7173SOL    HW222419   6.743   4.499   6.420
 7174SOL     OW22420   1.257   4.495   0.269
 7174SOL    HW122421   1.315   4.446   0.334
 7174SOL    HW222422   1.293   4.588   0.256
 7175SOL     OW22423   5.702   2.573   6.636
 7175SOL    HW122424   5.687   2.496   6.573
 7175SOL    HW222425   5.719   2.656   6.583
 7176SOL     OW22426   6.721   7.023   3.232
 7176SOL    HW122427   6.794   7.011   3.164
 7176SOL    HW222428   6.691   0.095   3.232
 7177SOL     OW22429   1.632   4.949   4.451
 7177SOL    HW122430   1.548   4.928   4.501
 7177SOL    HW222431   1.634   5.047   4.429
 7178SOL     OW22432   1.930   1.829   5.974
 7178SOL    HW122433   1.944   1.874   5.886
 7178SOL    HW222434   1.860   1.758   5.965
 7179SOL     OW22435   2.042   3.716   4.710
 7179SOL    HW122436   2.099   3.668   4.643
 7179SOL    HW222437   2.090   3.798   4.741
 7180SOL     OW22438   2.420   5.255   0.416
 7180SOL    HW122439   2.339   5.310   0.395
 7180SOL    HW222440   2.428   5.181   0.349
 7181SOL     OW22441   2.021   6.661   0.162
 7181SOL    HW122442   2.050   6.655   0.066
 7181SOL    HW222443   1.954   6.735   0.171
 7182SOL     OW22444   0.409   2.347   4.621
 7182SOL    HW122445   0.356   2.395   4.692
 7182SOL    HW222446   0.429   2.410   4.546
 7183SOL     OW22447   2.310   6.046   6.926
 7183SOL    HW122448   2.376   5.972   6.941
 7183SOL    HW222449   2.316   6.076   6.831
 7184SOL     OW22450   0.123   0.886   3.663
 7184SOL    HW122451   0.101   0.859   3.757
 7184SOL    HW222452   0.042   0.877   3.605
 7185SOL     OW22453   5.844   0.094   5.030
 7185SOL    HW122454   5.891   0.062   5.113
 7185SOL    HW222455   5.877   0.186   5.007
 7186SOL     OW22456   6.636   1.895   0.493
 7186SOL    HW122457   6.577   1.857   0.564
 7186SOL    HW222458   6.725   1.850   0.495
 7187SOL     OW22459   4.064   4.779   6.316
 7187SOL    HW122460   4.082   4.746   6.409
 7187SOL    HW222461   4.114   4.721   6.251
 7188SOL     OW22462   6.179   0.856   0.483
 7188SOL    HW122463   6.160   0.890   0.390
 7188SOL    HW222464   6.181   0.933   0.547
 7189SOL     OW22465   0.244   1.339   5.836
 7189SOL    HW122466   0.226   1.241   5.826
 7189SOL    HW222467   0.168   1.391   5.797
 7190SOL     OW22468   0.291   3.440   2.293
 7190SOL    HW122469   0.251   3.357   2.333
 7190SOL    HW222470   0.360   3.477   2.354
 7191SOL     OW22471   0.835   4.369   2.740
 7191SOL    HW122472   0.775   4.324   2.806
 7191SOL    HW222473   0.921   4.319   2.733
 7192SOL     OW22474   3.104   4.497   5.810
 7192SOL    HW122475   3.006   4.511   5.822
 7192SOL    HW222476   3.123   4.400   5.799
 7193SOL     OW22477   0.891   2.212   2.147
 7193SOL    HW122478   0.927   2.303   2.127
 7193SOL    HW222479   0.949   2.143   2.105
 7194SOL     OW22480   2.734   1.923   0.189
 7194SOL    HW122481   2.732   1.845   0.252
 7194SOL    HW222482   2.642   1.944   0.159
 7195SOL     OW22483   0.224   3.932   6.667
 7195SOL    HW122484   0.126   3.926   6.686
 7195SOL    HW222485   0.271   3.965   6.749
 7196SOL     OW22486   3.357   4.116   1.008
 7196SOL    HW122487   3.453   4.093   1.019
 7196SOL    HW222488   3.347   4.189   0.940
 7197SOL     OW22489   0.516   2.537   6.177
 7197SOL    HW122490   0.578   2.505   6.105
 7197SOL    HW222491   0.529   2.636   6.191
 7198SOL     OW22492   6.811   0.677   0.613
 7198SOL    HW122493   6.839   0.762   0.568
 7198SOL    HW222494   6.838   0.679   0.709
 7199SOL     OW22495   1.882   0.789   2.126
 7199SOL    HW122496   1.930   0.792   2.213
 7199SOL    HW222497   1.837   0.700   2.115
 7200SOL     OW22498   2.446   2.440   6.805
 7200SOL    HW122499   2.423   2.385   6.885
 7200SOL    HW222500   2.489   2.525   6.834
 7201SOL     OW22501   1.025   5.463   5.042
 7201SOL    HW122502   1.004   5.380   5.092
 7201SOL    HW222503   1.124   5.482   5.048
 7202SOL     OW22504   4.903   0.101   6.792
 7202SOL    HW122505   4.820   0.121   6.740
 7202SOL    HW222506   4.883   0.109   6.890
 7203SOL     OW22507   0.651   1.693   1.074
 7203SOL    HW122508   0.704   1.693   1.158
 7203SOL    HW222509   0.603   1.781   1.065
 7204SOL     OW22510   0.579   6.821   5.379
 7204SOL    HW122511   0.632   6.860   5.303
 7204SOL    HW222512   0.638   6.814   5.460
 7205SOL     OW22513   0.902   5.070   4.003
 7205SOL    HW122514   0.991   5.106   4.028
 7205SOL    HW222515   0.873   5.002   4.070
 7206SOL     OW22516   1.211   0.453   1.858
 7206SOL    HW122517   1.116   0.447   1.826
 7206SOL    HW222518   1.221   0.534   1.916
 7207SOL     OW22519   3.754   0.110   2.722
 7207SOL    HW122520   3.773   0.157   2.636
 7207SOL    HW222521   3.713   0.021   2.703
 7208SOL     OW22522   4.051   0.054   2.864
 7208SOL    HW122523   4.112   0.053   2.785
 7208SOL    HW222524   4.104   0.045   2.948
 7209SOL     OW22525   3.099   3.916   1.503
 7209SOL    HW122526   3.151   3.836   1.533
 7209SOL    HW222527   3.027   3.936   1.570
 7210SOL     OW22528   4.600   1.097   4.013
 7210SOL    HW122529   4.688   1.096   3.967
 7210SOL    HW222530   4.534   1.042   3.962
 7211SOL     OW22531   3.127   6.553   4.221
 7211SOL    HW122532   3.132   6.590   4.313
 7211SOL    HW222533   3.170   6.616   4.157
 7212SOL     OW22534   0.491   6.016   4.607
 7212SOL    HW122535   0.463   5.922   4.622
 7212SOL    HW222536   0.412   6.077   4.610
 7213SOL     OW22537   5.304   6.105   0.278
 7213SOL    HW122538   5.207   6.083   0.266
 7213SOL    HW222539   5.360   6.040   0.228
 7214SOL     OW22540   6.564   5.833   5.724
 7214SOL    HW122541   6.654   5.857   5.760
 7214SOL    HW222542   6.545   5.888   5.642
 7215SOL     OW22543   6.702   3.993   5.099
 7215SOL    HW122544   6.766   3.937   5.047
 7215SOL    HW222545   6.721   3.984   5.197
 7216SOL     OW22546   3.587   6.471   0.180
 7216SOL    HW122547   3.571   6.467   0.279
 7216SOL    HW222548   3.684   6.482   0.162
 7217SOL     OW22549   2.301   4.272   3.122
 7217SOL    HW122550   2.233   4.240   3.188
 7217SOL    HW222551   2.374   4.320   3.170
 7218SOL     OW22552   5.216   2.900   5.204
 7218SOL    HW122553   5.165   2.876   5.122
 7218SOL    HW222554   5.299   2.844   5.209
 7219SOL     OW22555   4.853   0.424   3.688
 7219SOL    HW122556   4.763   0.442   3.729
 7219SOL    HW222557   4.840   0.372   3.603
 7220SOL     OW22558   0.893   5.242   5.169
 7220SOL    HW122559   0.794   5.247   5.157
 7220SOL    HW222560   0.916   5.275   5.260
 7221SOL     OW22561   3.558   6.044   4.836
 7221SOL    HW122562   3.558   6.118   4.769
 7221SOL    HW222563   3.578   5.957   4.790
 7222SOL     OW22564   5.864   0.596   3.264
 7222SOL    HW122565   5.964   0.596   3.273
 7222SOL    HW222566   5.830   0.504   3.283
 7223SOL     OW22567   2.823   1.171   1.307
 7223SOL    HW122568   2.814   1.188   1.406
 7223SOL    HW222569   2.869   1.248   1.265
 7224SOL     OW22570   5.481   1.586   3.688
 7224SOL    HW122571   5.528   1.587   3.600
 7224SOL    HW222572   5.544   1.615   3.760
 7225SOL     OW22573   0.928   5.872   0.411
 7225SOL    HW122574   0.985   5.796   0.441
 7225SOL    HW222575   0.960   5.905   0.322
 7226SOL     OW22576   6.584   1.454   1.117
 7226SOL    HW122577   6.558   1.375   1.061
 7226SOL    HW222578   6.516   1.526   1.106
 7227SOL     OW22579   1.318   1.206   1.057
 7227SOL    HW122580   1.306   1.289   1.002
 7227SOL    HW222581   1.277   1.219   1.147
 7228SOL     OW22582   1.152   1.678   2.972
 7228SOL    HW122583   1.155   1.668   3.072
 7228SOL    HW222584   1.092   1.755   2.949
 7229SOL     OW22585   1.391   6.052   5.542
 7229SOL    HW122586   1.367   5.956   5.555
 7229SOL    HW222587   1.326   6.095   5.480
 7230SOL     OW22588   4.289   5.595   4.495
 7230SOL    HW122589   4.255   5.503   4.512
 7230SOL    HW222590   4.349   5.594   4.414
 7231SOL     OW22591   4.426   0.581   0.001
 7231SOL    HW122592   4.507   0.527   7.002
 7231SOL    HW222593   4.374   0.600   6.941
 7232SOL     OW22594   5.348   5.710   3.160
 7232SOL    HW122595   5.399   5.730   3.076
 7232SOL    HW222596   5.250   5.705   3.140
 7233SOL     OW22597   0.210   1.491   3.983
 7233SOL    HW122598   0.196   1.408   3.929
 7233SOL    HW222599   0.240   1.565   3.923
 7234SOL     OW22600   5.712   3.223   3.564
 7234SOL    HW122601   5.762   3.138   3.549
 7234SOL    HW222602   5.772   3.301   3.548
 7235SOL     OW22603   6.798   4.119   1.929
 7235SOL    HW122604   6.802   4.164   1.840
 7235SOL    HW222605   6.849   4.033   1.924
 7236SOL     OW22606   2.224   2.185   1.252
 7236SOL    HW122607   2.226   2.127   1.171
 7236SOL    HW222608   2.255   2.132   1.331
 7237SOL     OW22609   4.366   0.889   4.522
 7237SOL    HW122610   4.431   0.900   4.447
 7237SOL    HW222611   4.349   0.978   4.565
 7238SOL     OW22612   3.934   1.799   0.906
 7238SOL    HW122613   3.965   1.705   0.895
 7238SOL    HW222614   4.008   1.862   0.881
 7239SOL     OW22615   1.206   2.661   2.665
 7239SOL    HW122616   1.220   2.564   2.644
 7239SOL    HW222617   1.235   2.680   2.759
 7240SOL     OW22618   1.669   5.811   6.038
 7240SOL    HW122619   1.600   5.781   5.973
 7240SOL    HW222620   1.723   5.885   5.998
 7241SOL     OW22621   1.916   0.939   0.103
 7241SOL    HW122622   2.002   0.964   0.148
 7241SOL    HW222623   1.856   0.893   0.169
 7242SOL     OW22624   6.575   5.834   0.566
 7242SOL    HW122625   6.487   5.862   0.604
 7242SOL    HW222626   6.642   5.906   0.581
 7243SOL     OW22627   6.430   4.629   6.389
 7243SOL    HW122628   6.402   4.661   6.299
 7243SOL    HW222629   6.351   4.626   6.450
 7244SOL     OW22630   5.923   1.526   1.673
 7244SOL    HW122631   5.911   1.600   1.607
 7244SOL    HW222632   5.859   1.539   1.749
 7245SOL     OW22633   1.097   1.868   4.561
 7245SOL    HW122634   1.053   1.780   4.581
 7245SOL    HW222635   1.038   1.921   4.500
 7246SOL     OW22636   6.432   0.453   4.616
 7246SOL    HW122637   6.514   0.403   4.645
 7246SOL    HW222638   6.446   0.551   4.628
 7247SOL     OW22639   2.566   6.900   4.186
 7247SOL    HW122640   2.575   6.854   4.274
 7247SOL    HW222641   2.620   6.985   4.187
 7248SOL     OW22642   2.395   1.536   3.485
 7248SOL    HW122643   2.477   1.592   3.496
 7248SOL    HW222644   2.389   1.505   3.391
 7249SOL     OW22645   6.703   4.347   2.487
 7249SOL    HW122646   6.719   4.410   2.410
 7249SOL    HW222647   6.777   4.281   2.491
 7250SOL     OW22648   4.011   0.139   6.075
 7250SOL    HW122649   4.068   0.221   6.076
 7250SOL    HW222650   3.951   0.139   6.155
 7251SOL     OW22651   0.468   6.599   5.574
 7251SOL    HW122652   0.474   6.621   5.477
 7251SOL    HW222653   0.423   6.510   5.586
 7252SOL     OW22654   3.263   3.440   2.750
 7252SOL    HW122655   3.276   3.344   2.722
 7252SOL    HW222656   3.242   3.444   2.847
 7253SOL     OW22657   2.516   6.568   5.935
 7253SOL    HW122658   2.466   6.491   5.975
 7253SOL    HW222659   2.613   6.560   5.957
 7254SOL     OW22660   4.418   5.083   3.668
 7254SOL    HW122661   4.438   5.098   3.764
 7254SOL    HW222662   4.501   5.055   3.620
 7255SOL     OW22663   3.244   3.327   0.890
 7255SOL    HW122664   3.152   3.299   0.864
 7255SOL    HW222665   3.310   3.258   0.861
 7256SOL     OW22666   4.338   4.704   4.249
 7256SOL    HW122667   4.252   4.744   4.281
 7256SOL    HW222668   4.374   4.642   4.319
 7257SOL     OW22669   5.474   2.879   3.919
 7257SOL    HW122670   5.523   2.815   3.978
 7257SOL    HW222671   5.474   2.845   3.825
 7258SOL     OW22672   4.020   1.271   3.358
 7258SOL    HW122673   3.938   1.312   3.318
 7258SOL    HW222674   4.019   1.284   3.457
 7259SOL     OW22675   3.013   3.184   0.859
 7259SOL    HW122676   3.001   3.122   0.781
 7259SOL    HW222677   3.007   3.131   0.944
 7260SOL     OW22678   3.553   1.778   1.938
 7260SOL    HW122679   3.539   1.720   2.019
 7260SOL    HW222680   3.541   1.874   1.963
 7261SOL     OW22681   1.343   2.740   1.672
 7261SOL    HW122682   1.374   2.674   1.740
 7261SOL    HW222683   1.288   2.693   1.603
 7262SOL     OW22684   5.278   1.718   5.730
 7262SOL    HW122685   5.265   1.687   5.636
 7262SOL    HW222686   5.350   1.665   5.773
 7263SOL     OW22687   0.766   6.445   1.228
 7263SOL    HW122688   0.703   6.384   1.179
 7263SOL    HW222689   0.817   6.392   1.296
 7264SOL     OW22690   5.494   1.047   6.061
 7264SOL    HW122691   5.575   1.000   6.024
 7264SOL    HW222692   5.523   1.115   6.128
 7265SOL     OW22693   5.515   5.586   5.954
 7265SOL    HW122694   5.578   5.571   6.030
 7265SOL    HW222695   5.561   5.639   5.883
 7266SOL     OW22696   5.914   0.219   1.340
 7266SOL    HW122697   5.917   0.280   1.261
 7266SOL    HW222698   5.857   0.261   1.412
 7267SOL     OW22699   6.543   5.899   5.469
 7267SOL    HW122700   6.514   5.844   5.390
 7267SOL    HW222701   6.494   5.986   5.468
 7268SOL     OW22702   5.488   4.901   3.215
 7268SOL    HW122703   5.453   4.974   3.273
 7268SOL    HW222704   5.474   4.925   3.119
 7269SOL     OW22705   6.945   6.121   1.004
 7269SOL    HW122706   0.017   6.093   1.002
 7269SOL    HW222707   6.890   6.047   1.043
 7270SOL     OW22708   0.747   3.480   5.096
 7270SOL    HW122709   0.830   3.424   5.109
 7270SOL    HW222710   0.750   3.558   5.158
 7271SOL     OW22711   0.466   6.128   3.748
 7271SOL    HW122712   0.530   6.094   3.678
 7271SOL    HW222713   0.514   6.135   3.836
 7272SOL     OW22714   5.520   5.342   2.177
 7272SOL    HW122715   5.428   5.374   2.198
 7272SOL    HW222716   5.532   5.337   2.078
 7273SOL     OW22717   5.447   4.266   1.633
 7273SOL    HW122718   5.524   4.209   1.662
 7273SOL    HW222719   5.366   4.208   1.624
 7274SOL     OW22720   0.972   5.823   0.147
 7274SOL    HW122721   0.881   5.783   0.153
 7274SOL    HW222722   0.988   5.853   0.053
 7275SOL     OW22723   6.696   0.292   2.961
 7275SOL    HW122724   6.741   0.309   3.049
 7275SOL    HW222725   6.597   0.292   2.974
 7276SOL     OW22726   3.410   1.741   2.845
 7276SOL    HW122727   3.455   1.821   2.884
 7276SOL    HW222728   3.310   1.752   2.852
 7277SOL     OW22729   4.293   0.962   4.067
 7277SOL    HW122730   4.305   1.049   4.115
 7277SOL    HW222731   4.199   0.956   4.033
 7278SOL     OW22732   3.405   2.163   1.407
 7278SOL    HW122733   3.330   2.151   1.472
 7278SOL    HW222734   3.466   2.236   1.438
 7279SOL     OW22735   4.348   3.274   6.655
 7279SOL    HW122736   4.398   3.214   6.593
 7279SOL    HW222737   4.408   3.347   6.687
 7280SOL     OW22738   0.143   1.546   3.579
 7280SOL    HW122739   0.069   1.599   3.539
 7280SOL    HW222740   0.157   1.463   3.525
 7281SOL     OW22741   1.633   0.532   0.265
 7281SOL    HW122742   1.623   0.434   0.248
 7281SOL    HW222743   1.578   0.584   0.201
 7282SOL     OW22744   5.937   6.776   1.596
 7282SOL    HW122745   5.922   6.798   1.500
 7282SOL    HW222746   6.023   6.726   1.606
 7283SOL     OW22747   3.474   0.313   1.996
 7283SOL    HW122748   3.383   0.271   2.004
 7283SOL    HW222749   3.468   0.410   2.022
 7284SOL     OW22750   0.009   2.029   5.273
 7284SOL    HW122751   7.020   1.994   5.180
 7284SOL    HW222752   0.106   2.042   5.290
 7285SOL     OW22753   5.669   3.443   1.754
 7285SOL    HW122754   5.578   3.456   1.793
 7285SOL    HW222755   5.700   3.350   1.773
 7286SOL     OW22756   1.098   0.690   1.076
 7286SOL    HW122757   1.160   0.693   0.998
 7286SOL    HW222758   1.081   0.784   1.108
 7287SOL     OW22759   6.717   3.054   4.790
 7287SOL    HW122760   6.753   3.141   4.758
 7287SOL    HW222761   6.702   2.993   4.712
 7288SOL     OW22762   1.252   1.625   1.325
 7288SOL    HW122763   1.196   1.546   1.349
 7288SOL    HW222764   1.214   1.670   1.245
 7289SOL     OW22765   6.134   1.718   3.334
 7289SOL    HW122766   6.171   1.753   3.420
 7289SOL    HW222767   6.037   1.696   3.346
 7290SOL     OW22768   2.606   0.961   4.991
 7290SOL    HW122769   2.649   1.029   5.050
 7290SOL    HW222770   2.648   0.871   5.007
 7291SOL     OW22771   2.136   0.101   0.520
 7291SOL    HW122772   2.104   0.102   0.615
 7291SOL    HW222773   2.235   0.087   0.518
 7292SOL     OW22774   3.014   6.976   2.852
 7292SOL    HW122775   3.069   6.902   2.812
 7292SOL    HW222776   3.074   0.028   2.876
 7293SOL     OW22777   1.497   1.788   5.908
 7293SOL    HW122778   1.454   1.749   5.826
 7293SOL    HW222779   1.517   1.885   5.892
 7294SOL     OW22780   3.349   4.360   0.860
 7294SOL    HW122781   3.438   4.332   0.822
 7294SOL    HW222782   3.316   4.441   0.811
 7295SOL     OW22783   6.848   4.667   0.940
 7295SOL    HW122784   6.871   4.647   0.845
 7295SOL    HW222785   6.918   4.726   0.980
 7296SOL     OW22786   4.314   5.322   1.982
 7296SOL    HW122787   4.358   5.293   1.897
 7296SOL    HW222788   4.371   5.391   2.027
 7297SOL     OW22789   2.405   6.690   1.317
 7297SOL    HW122790   2.347   6.768   1.339
 7297SOL    HW222791   2.386   6.660   1.223
 7298SOL     OW22792   5.178   4.948   6.313
 7298SOL    HW122793   5.156   4.855   6.343
 7298SOL    HW222794   5.256   4.981   6.365
 7299SOL     OW22795   1.181   1.987   0.978
 7299SOL    HW122796   1.216   2.059   1.037
 7299SOL    HW222797   1.149   1.911   1.034
 7300SOL     OW22798   0.614   6.776   2.447
 7300SOL    HW122799   0.553   6.752   2.523
 7300SOL    HW222800   0.701   6.810   2.483
 7301SOL     OW22801   6.229   2.397   5.560
 7301SOL    HW122802   6.170   2.354   5.492
 7301SOL    HW222803   6.179   2.471   5.606
 7302SOL     OW22804   0.214   2.355   6.172
 7302SOL    HW122805   0.127   2.334   6.218
 7302SOL    HW222806   0.212   2.316   6.080
 7303SOL     OW22807   3.549   1.099   6.437
 7303SOL    HW122808   3.564   1.022   6.374
 7303SOL    HW222809   3.638   1.135   6.466
 7304SOL     OW22810   2.822   5.503   1.549
 7304SOL    HW122811   2.915   5.532   1.528
 7304SOL    HW222812   2.758   5.550   1.488
 7305SOL     OW22813   4.975   2.361   1.475
 7305SOL    HW122814   5.039   2.284   1.469
 7305SOL    HW222815   4.896   2.336   1.530
 7306SOL     OW22816   3.459   1.679   1.695
 7306SOL    HW122817   3.480   1.735   1.615
 7306SOL    HW222818   3.486   1.728   1.778
 7307SOL     OW22819   4.006   6.656   2.483
 7307SOL    HW122820   4.078   6.648   2.551
 7307SOL    HW222821   3.924   6.608   2.514
 7308SOL     OW22822   6.519   1.575   4.489
 7308SOL    HW122823   6.563   1.539   4.406
 7308SOL    HW222824   6.442   1.633   4.462
 7309SOL     OW22825   3.749   6.699   1.349
 7309SOL    HW122826   3.669   6.644   1.375
 7309SOL    HW222827   3.813   6.701   1.425
 7310SOL     OW22828   2.259   3.568   0.680
 7310SOL    HW122829   2.312   3.627   0.619
 7310SOL    HW222830   2.221   3.623   0.754
 7311SOL     OW22831   1.781   0.829   0.312
 7311SOL    HW122832   1.693   0.781   0.318
 7311SOL    HW222833   1.805   0.865   0.402
 7312SOL     OW22834   1.324   2.222   5.036
 7312SOL    HW122835   1.383   2.171   4.975
 7312SOL    HW222836   1.229   2.192   5.024
 7313SOL     OW22837   2.092   1.255   0.321
 7313SOL    HW122838   2.130   1.179   0.267
 7313SOL    HW222839   2.094   1.231   0.418
 7314SOL     OW22840   0.021   4.129   5.841
 7314SOL    HW122841   0.115   4.114   5.872
 7314SOL    HW222842   0.016   4.121   5.742
 7315SOL     OW22843   4.926   6.007   1.777
 7315SOL    HW122844   4.902   6.101   1.800
 7315SOL    HW222845   4.843   5.957   1.750
 7316SOL     OW22846   3.157   2.823   6.949
 7316SOL    HW122847   3.138   2.759   0.000
 7316SOL    HW222848   3.106   2.794   6.868
 7317SOL     OW22849   3.988   1.443   1.680
 7317SOL    HW122850   3.911   1.478   1.733
 7317SOL    HW222851   3.962   1.357   1.636
 7318SOL     OW22852   2.835   0.160   2.204
 7318SOL    HW122853   2.861   0.190   2.112
 7318SOL    HW222854   2.821   0.240   2.262
 7319SOL     OW22855   5.614   2.922   0.213
 7319SOL    HW122856   5.580   2.975   0.135
 7319SOL    HW222857   5.705   2.886   0.191
 7320SOL     OW22858   0.330   3.550   0.854
 7320SOL    HW122859   0.360   3.535   0.949
 7320SOL    HW222860   0.243   3.502   0.839
 7321SOL     OW22861   2.400   6.651   5.703
 7321SOL    HW122862   2.450   6.648   5.789
 7321SOL    HW222863   2.330   6.721   5.707
 7322SOL     OW22864   6.989   2.201   3.083
 7322SOL    HW122865   6.905   2.241   3.046
 7322SOL    HW222866   6.998   2.107   3.052
 7323SOL     OW22867   2.299   3.071   1.409
 7323SOL    HW122868   2.227   3.104   1.469
 7323SOL    HW222869   2.370   3.027   1.464
 7324SOL     OW22870   5.651   4.610   1.990
 7324SOL    HW122871   5.691   4.570   1.908
 7324SOL    HW222872   5.700   4.694   2.014
 7325SOL     OW22873   2.672   0.257   5.400
 7325SOL    HW122874   2.614   0.306   5.464
 7325SOL    HW222875   2.710   0.322   5.333
 7326SOL     OW22876   3.650   6.139   5.524
 7326SOL    HW122877   3.665   6.050   5.482
 7326SOL    HW222878   3.720   6.156   5.593
 7327SOL     OW22879   5.999   3.011   4.842
 7327SOL    HW122880   5.914   3.006   4.790
 7327SOL    HW222881   6.061   3.076   4.798
 7328SOL     OW22882   4.393   6.943   5.499
 7328SOL    HW122883   4.332   6.890   5.440
 7328SOL    HW222884   4.395   6.903   5.591
 7329SOL     OW22885   0.609   3.939   0.643
 7329SOL    HW122886   0.603   3.960   0.741
 7329SOL    HW222887   0.609   3.840   0.630
 7330SOL     OW22888   2.614   3.228   0.717
 7330SOL    HW122889   2.551   3.227   0.795
 7330SOL    HW222890   2.689   3.291   0.736
 7331SOL     OW22891   5.813   6.320   1.574
 7331SOL    HW122892   5.900   6.292   1.534
 7331SOL    HW222893   5.791   6.258   1.650
 7332SOL     OW22894   2.656   4.216   6.436
 7332SOL    HW122895   2.695   4.297   6.479
 7332SOL    HW222896   2.568   4.240   6.394
 7333SOL     OW22897   6.176   3.158   2.963
 7333SOL    HW122898   6.197   3.064   2.991
 7333SOL    HW222899   6.092   3.158   2.907
 7334SOL     OW22900   2.304   6.196   6.276
 7334SOL    HW122901   2.344   6.232   6.361
 7334SOL    HW222902   2.378   6.166   6.215
 7335SOL     OW22903   6.830   2.809   2.915
 7335SOL    HW122904   6.792   2.754   2.989
 7335SOL    HW222905   6.922   2.838   2.939
 7336SOL     OW22906   2.486   6.459   1.893
 7336SOL    HW122907   2.584   6.440   1.904
 7336SOL    HW222908   2.436   6.426   1.974
 7337SOL     OW22909   2.116   3.175   1.597
 7337SOL    HW122910   2.019   3.160   1.620
 7337SOL    HW222911   2.149   3.257   1.644
 7338SOL     OW22912   5.317   1.794   1.847
 7338SOL    HW122913   5.306   1.793   1.946
 7338SOL    HW222914   5.238   1.749   1.804
 7339SOL     OW22915   6.316   0.040   5.199
 7339SOL    HW122916   6.355   0.022   5.290
 7339SOL    HW222917   6.244   6.997   5.180
 7340SOL     OW22918   3.886   1.096   0.041
 7340SOL    HW122919   3.822   1.096   6.988
 7340SOL    HW222920   3.841   1.134   0.122
 7341SOL     OW22921   0.744   4.813   5.056
 7341SOL    HW122922   0.836   4.796   5.020
 7341SOL    HW222923   0.703   4.726   5.084
 7342SOL     OW22924   6.583   6.555   6.888
 7342SOL    HW122925   6.598   6.654   6.890
 7342SOL    HW222926   6.640   6.511   6.957
 7343SOL     OW22927   4.917   4.197   1.221
 7343SOL    HW122928   4.938   4.280   1.168
 7343SOL    HW222929   4.866   4.223   1.303
 7344SOL     OW22930   1.933   0.672   6.199
 7344SOL    HW122931   1.854   0.720   6.160
 7344SOL    HW222932   1.960   0.716   6.284
 7345SOL     OW22933   4.932   6.499   5.694
 7345SOL    HW122934   4.980   6.419   5.732
 7345SOL    HW222935   4.999   6.562   5.655
 7346SOL     OW22936   3.773   4.450   1.407
 7346SOL    HW122937   3.781   4.476   1.503
 7346SOL    HW222938   3.791   4.352   1.397
 7347SOL     OW22939   6.793   3.134   0.949
 7347SOL    HW122940   6.838   3.186   0.877
 7347SOL    HW222941   6.839   3.151   1.036
 7348SOL     OW22942   1.291   3.303   3.555
 7348SOL    HW122943   1.382   3.263   3.568
 7348SOL    HW222944   1.273   3.369   3.628
 7349SOL     OW22945   4.392   2.079   0.748
 7349SOL    HW122946   4.349   2.167   0.770
 7349SOL    HW222947   4.321   2.009   0.738
 7350SOL     OW22948   1.495   3.495   4.924
 7350SOL    HW122949   1.561   3.440   4.872
 7350SOL    HW222950   1.511   3.482   5.022
 7351SOL     OW22951   4.592   6.394   4.954
 7351SOL    HW122952   4.605   6.344   4.868
 7351SOL    HW222953   4.549   6.482   4.936
 7352SOL     OW22954   1.311   3.016   2.681
 7352SOL    HW122955   1.312   3.080   2.758
 7352SOL    HW222956   1.218   3.007   2.646
 7353SOL     OW22957   0.459   0.066   6.120
 7353SOL    HW122958   0.516   7.014   6.148
 7353SOL    HW222959   0.367   0.033   6.099
 7354SOL     OW22960   1.153   1.540   0.031
 7354SOL    HW122961   1.083   1.598   7.013
 7354SOL    HW222962   1.186   1.583   0.115
 7355SOL     OW22963   1.441   1.399   0.862
 7355SOL    HW122964   1.451   1.412   0.960
 7355SOL    HW222965   1.494   1.468   0.813
 7356SOL     OW22966   4.334   3.197   6.264
 7356SOL    HW122967   4.407   3.253   6.225
 7356SOL    HW222968   4.366   3.157   6.350
 7357SOL     OW22969   4.287   0.540   1.916
 7357SOL    HW122970   4.354   0.467   1.927
 7357SOL    HW222971   4.334   0.628   1.913
 7358SOL     OW22972   1.027   2.799   2.233
 7358SOL    HW122973   0.929   2.813   2.245
 7358SOL    HW222974   1.058   2.727   2.296
 7359SOL     OW22975   2.728   3.095   6.785
 7359SOL    HW122976   2.663   3.025   6.758
 7359SOL    HW222977   2.802   3.100   6.718
 7360SOL     OW22978   3.194   3.681   5.969
 7360SOL    HW122979   3.148   3.768   5.990
 7360SOL    HW222980   3.211   3.676   5.871
 7361SOL     OW22981   4.275   0.619   2.363
 7361SOL    HW122982   4.270   0.525   2.397
 7361SOL    HW222983   4.371   0.642   2.343
 7362SOL     OW22984   0.973   5.703   4.893
 7362SOL    HW122985   0.954   5.637   4.965
 7362SOL    HW222986   0.900   5.700   4.824
 7363SOL     OW22987   4.025   1.574   1.158
 7363SOL    HW122988   3.963   1.651   1.171
 7363SOL    HW222989   4.032   1.522   1.244
 7364SOL     OW22990   4.705   0.683   1.341
 7364SOL    HW122991   4.682   0.608   1.403
 7364SOL    HW222992   4.623   0.711   1.291
 7365SOL     OW22993   1.505   6.682   1.431
 7365SOL    HW122994   1.460   6.668   1.520
 7365SOL    HW222995   1.435   6.698   1.361
 7366SOL     OW22996   2.280   5.730   0.096
 7366SOL    HW122997   2.187   5.706   0.125
 7366SOL    HW222998   2.314   5.806   0.152
 7367SOL     OW22999   4.620   3.758   1.402
 7367SOL    HW123000   4.561   3.777   1.481
 7367SOL    HW223001   4.674   3.676   1.420
 7368SOL     OW23002   3.830   2.956   3.694
 7368SOL    HW123003   3.809   2.952   3.791
 7368SOL    HW223004   3.926   2.981   3.681
 7369SOL     OW23005   4.490   2.730   0.400
 7369SOL    HW123006   4.554   2.720   0.476
 7369SOL    HW223007   4.413   2.787   0.428
 7370SOL     OW23008   2.711   0.720   4.990
 7370SOL    HW123009   2.773   0.658   4.941
 7370SOL    HW223010   2.618   0.706   4.959
 7371SOL     OW23011   1.918   5.937   3.738
 7371SOL    HW123012   1.973   5.996   3.678
 7371SOL    HW223013   1.902   5.850   3.693
 7372SOL     OW23014   3.438   1.423   5.815
 7372SOL    HW123015   3.373   1.499   5.817
 7372SOL    HW223016   3.437   1.379   5.725
 7373SOL     OW23017   5.529   1.360   4.486
 7373SOL    HW123018   5.519   1.443   4.540
 7373SOL    HW223019   5.574   1.290   4.540
 7374SOL     OW23020   2.632   1.968   5.949
 7374SOL    HW123021   2.719   1.994   5.908
 7374SOL    HW223022   2.606   1.877   5.918
 7375SOL     OW23023   2.242   2.860   2.705
 7375SOL    HW123024   2.321   2.915   2.677
 7375SOL    HW223025   2.215   2.887   2.798
 7376SOL     OW23026   4.003   1.707   6.928
 7376SOL    HW123027   4.007   1.805   6.913
 7376SOL    HW223028   4.032   1.659   6.844
 7377SOL     OW23029   5.349   5.711   1.023
 7377SOL    HW123030   5.360   5.723   1.122
 7377SOL    HW223031   5.429   5.747   0.976
 7378SOL     OW23032   0.473   1.134   5.362
 7378SOL    HW123033   0.383   1.129   5.318
 7378SOL    HW223034   0.500   1.229   5.371
 7379SOL     OW23035   3.190   2.147   2.614
 7379SOL    HW123036   3.235   2.196   2.688
 7379SOL    HW223037   3.239   2.062   2.595
 7380SOL     OW23038   6.900   3.173   5.328
 7380SOL    HW123039   6.843   3.242   5.283
 7380SOL    HW223040   6.844   3.118   5.389
 7381SOL     OW23041   4.723   3.865   1.724
 7381SOL    HW123042   4.793   3.834   1.788
 7381SOL    HW223043   4.765   3.887   1.636
 7382SOL     OW23044   7.011   5.638   6.629
 7382SOL    HW123045   7.015   5.563   6.562
 7382SOL    HW223046   6.930   5.695   6.611
 7383SOL     OW23047   0.761   6.709   1.316
 7383SOL    HW123048   0.817   6.755   1.248
 7383SOL    HW223049   0.750   6.613   1.290
 7384SOL     OW23050   5.417   0.692   2.731
 7384SOL    HW123051   5.455   0.783   2.748
 7384SOL    HW223052   5.463   0.650   2.653
 7385SOL     OW23053   4.184   5.986   2.085
 7385SOL    HW123054   4.141   6.069   2.050
 7385SOL    HW223055   4.281   6.003   2.101
 7386SOL     OW23056   0.969   1.983   5.569
 7386SOL    HW123057   0.930   2.062   5.616
 7386SOL    HW223058   0.908   1.904   5.581
 7387SOL     OW23059   4.738   6.178   4.133
 7387SOL    HW123060   4.646   6.190   4.170
 7387SOL    HW223061   4.781   6.098   4.175
 7388SOL     OW23062   0.086   4.612   3.206
 7388SOL    HW123063   0.175   4.605   3.162
 7388SOL    HW223064   0.030   4.680   3.159
 7389SOL     OW23065   0.387   3.650   6.351
 7389SOL    HW123066   0.476   3.697   6.348
 7389SOL    HW223067   0.402   3.552   6.359
 7390SOL     OW23068   2.334   1.650   6.934
 7390SOL    HW123069   2.294   1.587   7.000
 7390SOL    HW223070   2.402   1.602   6.879
 7391SOL     OW23071   5.052   4.281   5.243
 7391SOL    HW123072   5.124   4.348   5.263
 7391SOL    HW223073   5.040   4.222   5.323
 7392SOL     OW23074   2.591   6.206   6.962
 7392SOL    HW123075   2.497   6.220   6.996
 7392SOL    HW223076   2.618   6.111   6.980
 7393SOL     OW23077   5.388   4.674   1.377
 7393SOL    HW123078   5.422   4.726   1.299
 7393SOL    HW223079   5.391   4.730   1.459
 7394SOL     OW23080   3.239   2.639   6.037
 7394SOL    HW123081   3.245   2.739   6.032
 7394SOL    HW223082   3.298   2.599   5.968
 7395SOL     OW23083   2.512   1.646   0.173
 7395SOL    HW123084   2.485   1.550   0.163
 7395SOL    HW223085   2.431   1.703   0.172
 7396SOL     OW23086   1.051   6.504   0.357
 7396SOL    HW123087   0.963   6.490   0.312
 7396SOL    HW223088   1.036   6.532   0.452
 7397SOL     OW23089   4.522   5.094   4.628
 7397SOL    HW123090   4.471   5.033   4.689
 7397SOL    HW223091   4.554   5.043   4.548
 7398SOL     OW23092   2.479   5.443   4.580
 7398SOL    HW123093   2.453   5.504   4.655
 7398SOL    HW223094   2.516   5.358   4.617
 7399SOL     OW23095   0.778   2.563   5.413
 7399SOL    HW123096   0.680   2.562   5.394
 7399SOL    HW223097   0.828   2.535   5.331
 7400SOL     OW23098   3.932   3.247   5.818
 7400SOL    HW123099   4.003   3.181   5.793
 7400SOL    HW223100   3.888   3.217   5.902
 7401SOL     OW23101   1.259   1.025   4.901
 7401SOL    HW123102   1.324   0.958   4.938
 7401SOL    HW223103   1.190   1.046   4.971
 7402SOL     OW23104   3.218   5.635   5.866
 7402SOL    HW123105   3.168   5.681   5.793
 7402SOL    HW223106   3.244   5.543   5.836
 7403SOL     OW23107   2.179   4.096   2.752
 7403SOL    HW123108   2.229   4.178   2.780
 7403SOL    HW223109   2.198   4.077   2.656
 7404SOL     OW23110   2.575   5.067   1.156
 7404SOL    HW123111   2.567   5.009   1.236
 7404SOL    HW223112   2.567   5.011   1.073
 7405SOL     OW23113   3.883   4.915   4.185
 7405SOL    HW123114   3.796   4.887   4.145
 7405SOL    HW223115   3.900   5.012   4.163
 7406SOL     OW23116   0.795   3.178   3.413
 7406SOL    HW123117   0.865   3.165   3.483
 7406SOL    HW223118   0.755   3.269   3.422
 7407SOL     OW23119   0.118   6.304   4.767
 7407SOL    HW123120   0.108   6.403   4.754
 7407SOL    HW223121   0.045   6.270   4.825
 7408SOL     OW23122   1.514   3.658   6.411
 7408SOL    HW123123   1.482   3.677   6.318
 7408SOL    HW223124   1.580   3.584   6.409
 7409SOL     OW23125   0.626   1.366   6.078
 7409SOL    HW123126   0.600   1.304   6.004
 7409SOL    HW223127   0.712   1.334   6.118
 7410SOL     OW23128   0.270   5.388   1.061
 7410SOL    HW123129   0.275   5.447   0.980
 7410SOL    HW223130   0.180   5.343   1.063
 7411SOL     OW23131   2.716   0.114   4.234
 7411SOL    HW123132   2.725   0.184   4.163
 7411SOL    HW223133   2.784   0.042   4.219
 7412SOL     OW23134   4.579   0.615   2.266
 7412SOL    HW123135   4.590   0.578   2.358
 7412SOL    HW223136   4.668   0.614   2.219
 7413SOL     OW23137   4.874   5.915   5.056
 7413SOL    HW123138   4.933   5.849   5.010
 7413SOL    HW223139   4.838   5.980   4.988
 7414SOL     OW23140   0.426   0.107   3.625
 7414SOL    HW123141   0.458   0.134   3.534
 7414SOL    HW223142   0.461   0.016   3.647
 7415SOL     OW23143   0.973   3.869   3.721
 7415SOL    HW123144   0.928   3.903   3.639
 7415SOL    HW223145   0.910   3.812   3.773
 7416SOL     OW23146   2.906   1.291   3.745
 7416SOL    HW123147   2.952   1.367   3.699
 7416SOL    HW223148   2.883   1.220   3.678
 7417SOL     OW23149   2.275   0.570   6.400
 7417SOL    HW123150   2.209   0.554   6.474
 7417SOL    HW223151   2.267   0.665   6.369
 7418SOL     OW23152   3.301   5.415   1.009
 7418SOL    HW123153   3.232   5.344   1.022
 7418SOL    HW223154   3.387   5.385   1.052
 7419SOL     OW23155   5.634   2.992   5.046
 7419SOL    HW123156   5.546   3.035   5.066
 7419SOL    HW223157   5.619   2.895   5.025
 7420SOL     OW23158   0.561   6.981   1.686
 7420SOL    HW123159   0.517   6.954   1.771
 7420SOL    HW223160   0.598   6.900   1.640
 7421SOL     OW23161   3.219   3.438   1.279
 7421SOL    HW123162   3.288   3.489   1.229
 7421SOL    HW223163   3.132   3.487   1.274
 7422SOL     OW23164   7.022   2.865   2.575
 7422SOL    HW123165   6.944   2.901   2.626
 7422SOL    HW223166   6.999   2.860   2.478
 7423SOL     OW23167   6.459   4.728   5.299
 7423SOL    HW123168   6.459   4.667   5.219
 7423SOL    HW223169   6.525   4.801   5.285
 7424SOL     OW23170   6.733   0.270   4.969
 7424SOL    HW123171   6.707   0.266   5.065
 7424SOL    HW223172   6.788   0.190   4.946
 7425SOL     OW23173   4.659   5.535   6.191
 7425SOL    HW123174   4.694   5.628   6.181
 7425SOL    HW223175   4.564   5.538   6.221
 7426SOL     OW23176   2.074   1.350   6.057
 7426SOL    HW123177   2.008   1.388   5.993
 7426SOL    HW223178   2.113   1.424   6.112
 7427SOL     OW23179   3.551   6.774   3.982
 7427SOL    HW123180   3.467   6.779   3.927
 7427SOL    HW223181   3.539   6.706   4.055
 7428SOL     OW23182   4.274   1.253   5.984
 7428SOL    HW123183   4.246   1.196   5.907
 7428SOL    HW223184   4.258   1.349   5.961
 7429SOL     OW23185   6.255   6.528   3.245
 7429SOL    HW123186   6.190   6.561   3.177
 7429SOL    HW223187   6.210   6.462   3.305
 7430SOL     OW23188   0.635   3.759   6.733
 7430SOL    HW123189   0.700   3.684   6.742
 7430SOL    HW223190   0.543   3.721   6.720
 7431SOL     OW23191   0.231   3.230   2.776
 7431SOL    HW123192   0.178   3.253   2.858
 7431SOL    HW223193   0.207   3.138   2.745
 7432SOL     OW23194   7.009   0.170   3.280
 7432SOL    HW123195   0.034   0.178   3.367
 7432SOL    HW223196   0.011   0.085   3.235
 7433SOL     OW23197   5.487   4.853   6.617
 7433SOL    HW123198   5.430   4.852   6.699
 7433SOL    HW223199   5.571   4.801   6.634
 7434SOL     OW23200   5.689   0.415   5.597
 7434SOL    HW123201   5.783   0.425   5.632
 7434SOL    HW223202   5.669   0.492   5.536
 7435SOL     OW23203   4.054   5.824   0.498
 7435SOL    HW123204   3.962   5.817   0.459
 7435SOL    HW223205   4.059   5.768   0.581
 7436SOL     OW23206   5.411   3.253   6.774
 7436SOL    HW123207   5.501   3.211   6.778
 7436SOL    HW223208   5.401   3.317   6.850
 7437SOL     OW23209   0.619   5.780   0.571
 7437SOL    HW123210   0.525   5.810   0.556
 7437SOL    HW223211   0.661   5.755   0.483
 7438SOL     OW23212   0.451   5.076   0.119
 7438SOL    HW123213   0.436   5.149   0.185
 7438SOL    HW223214   0.504   5.111   0.041
 7439SOL     OW23215   1.863   5.756   4.834
 7439SOL    HW123216   1.935   5.688   4.848
 7439SOL    HW223217   1.904   5.847   4.831
 7440SOL     OW23218   0.327   3.544   4.643
 7440SOL    HW123219   0.379   3.605   4.584
 7440SOL    HW223220   0.377   3.458   4.653
 7441SOL     OW23221   5.024   5.903   4.021
 7441SOL    HW123222   5.058   5.811   4.002
 7441SOL    HW223223   5.063   5.967   3.955
 7442SOL     OW23224   0.418   0.872   6.326
 7442SOL    HW123225   0.337   0.877   6.268
 7442SOL    HW223226   0.404   0.802   6.397
 7443SOL     OW23227   0.016   0.501   2.435
 7443SOL    HW123228   0.047   0.595   2.420
 7443SOL    HW223229   0.095   0.443   2.452
 7444SOL     OW23230   6.337   3.304   5.068
 7444SOL    HW123231   6.311   3.240   5.140
 7444SOL    HW223232   6.433   3.288   5.042
 7445SOL     OW23233   3.257   1.340   1.259
 7445SOL    HW123234   3.328   1.291   1.309
 7445SOL    HW223235   3.211   1.278   1.195
 7446SOL     OW23236   5.554   4.285   0.850
 7446SOL    HW123237   5.634   4.261   0.904
 7446SOL    HW223238   5.509   4.201   0.819
 7447SOL     OW23239   0.609   3.351   5.710
 7447SOL    HW123240   0.694   3.403   5.703
 7447SOL    HW223241   0.610   3.297   5.794
 7448SOL     OW23242   6.422   6.835   5.682
 7448SOL    HW123243   6.453   6.742   5.698
 7448SOL    HW223244   6.381   6.871   5.766
 7449SOL     OW23245   6.499   2.978   1.871
 7449SOL    HW123246   6.448   2.898   1.839
 7449SOL    HW223247   6.458   3.061   1.833
 7450SOL     OW23248   5.422   1.910   4.658
 7450SOL    HW123249   5.345   1.913   4.594
 7450SOL    HW223250   5.399   1.962   4.740
 7451SOL     OW23251   1.016   6.764   3.893
 7451SOL    HW123252   0.963   6.819   3.829
 7451SOL    HW223253   1.083   6.822   3.940
 7452SOL     OW23254   0.899   6.264   4.778
 7452SOL    HW123255   0.889   6.181   4.723
 7452SOL    HW223256   0.969   6.322   4.737
 7453SOL     OW23257   4.565   6.120   5.450
 7453SOL    HW123258   4.631   6.189   5.481
 7453SOL    HW223259   4.500   6.163   5.387
 7454SOL     OW23260   1.199   2.475   2.205
 7454SOL    HW123261   1.114   2.455   2.254
 7454SOL    HW223262   1.180   2.541   2.132
 7455SOL     OW23263   7.019   1.668   1.993
 7455SOL    HW123264   0.086   1.653   2.033
 7455SOL    HW223265   7.010   1.612   1.911
 7456SOL     OW23266   0.019   1.621   4.134
 7456SOL    HW123267   6.984   1.567   4.194
 7456SOL    HW223268   0.080   1.560   4.084
 7457SOL     OW23269   3.984   0.332   5.749
 7457SOL    HW123270   4.079   0.307   5.731
 7457SOL    HW223271   3.933   0.253   5.781
 7458SOL     OW23272   2.156   7.007   5.936
 7458SOL    HW123273   2.134   6.939   6.005
 7458SOL    HW223274   2.252   6.997   5.908
 7459SOL     OW23275   5.222   0.798   1.683
 7459SOL    HW123276   5.223   0.825   1.779
 7459SOL    HW223277   5.264   0.708   1.672
 7460SOL     OW23278   2.090   5.601   1.050
 7460SOL    HW123279   2.145   5.583   0.968
 7460SOL    HW223280   2.149   5.602   1.130
 7461SOL     OW23281   6.371   1.781   5.884
 7461SOL    HW123282   6.430   1.854   5.920
 7461SOL    HW223283   6.276   1.801   5.906
 7462SOL     OW23284   1.257   4.030   2.923
 7462SOL    HW123285   1.338   3.972   2.929
 7462SOL    HW223286   1.284   4.126   2.933
 7463SOL     OW23287   3.227   5.050   0.917
 7463SOL    HW123288   3.202   5.058   1.013
 7463SOL    HW223289   3.149   5.019   0.864
 7464SOL     OW23290   4.774   0.466   6.697
 7464SOL    HW123291   4.874   0.468   6.703
 7464SOL    HW223292   4.746   0.390   6.638
 7465SOL     OW23293   0.681   6.024   0.320
 7465SOL    HW123294   0.686   6.108   0.374
 7465SOL    HW223295   0.760   5.967   0.340
 7466SOL     OW23296   0.692   0.596   6.096
 7466SOL    HW123297   0.636   0.514   6.108
 7466SOL    HW223298   0.774   0.589   6.153
 7467SOL     OW23299   0.057   1.944   0.483
 7467SOL    HW123300   0.148   1.978   0.464
 7467SOL    HW223301   0.050   1.848   0.454
 7468SOL     OW23302   6.258   2.330   3.624
 7468SOL    HW123303   6.306   2.334   3.537
 7468SOL    HW223304   6.299   2.395   3.689
 7469SOL     OW23305   0.334   0.900   0.791
 7469SOL    HW123306   0.250   0.846   0.785
 7469SOL    HW223307   0.362   0.928   0.699
 7470SOL     OW23308   0.194   3.060   3.820
 7470SOL    HW123309   0.225   3.147   3.781
 7470SOL    HW223310   0.180   3.071   3.918
 7471SOL     OW23311   0.181   6.304   6.006
 7471SOL    HW123312   0.213   6.291   6.100
 7471SOL    HW223313   0.091   6.346   6.006
 7472SOL     OW23314   6.179   0.403   4.125
 7472SOL    HW123315   6.169   0.383   4.223
 7472SOL    HW223316   6.250   0.472   4.113
 7473SOL     OW23317   6.418   4.580   2.830
 7473SOL    HW123318   6.328   4.622   2.838
 7473SOL    HW223319   6.413   4.485   2.860
 7474SOL     OW23320   2.247   1.168   5.414
 7474SOL    HW123321   2.334   1.126   5.440
 7474SOL    HW223322   2.254   1.206   5.322
 7475SOL     OW23323   4.399   1.318   2.629
 7475SOL    HW123324   4.418   1.359   2.540
 7475SOL    HW223325   4.319   1.362   2.669
 7476SOL     OW23326   3.386   5.404   3.324
 7476SOL    HW123327   3.357   5.465   3.250
 7476SOL    HW223328   3.398   5.457   3.408
 7477SOL     OW23329   7.021   1.343   5.171
 7477SOL    HW123330   7.023   1.394   5.085
 7477SOL    HW223331   0.078   1.285   5.177
 7478SOL     OW23332   4.887   5.381   6.261
 7478SOL    HW123333   4.806   5.440   6.262
 7478SOL    HW223334   4.870   5.301   6.318
 7479SOL     OW23335   4.182   2.284   1.810
 7479SOL    HW123336   4.169   2.271   1.908
 7479SOL    HW223337   4.265   2.336   1.794
 7480SOL     OW23338   7.019   4.197   1.704
 7480SOL    HW123339   0.042   4.146   1.632
 7480SOL    HW223340   0.040   4.180   1.792
 7481SOL     OW23341   6.080   5.152   1.256
 7481SOL    HW123342   6.065   5.063   1.214
 7481SOL    HW223343   6.075   5.144   1.356
 7482SOL     OW23344   4.150   2.287   3.026
 7482SOL    HW123345   4.094   2.356   2.980
 7482SOL    HW223346   4.094   2.205   3.044
 7483SOL     OW23347   4.903   3.025   4.745
 7483SOL    HW123348   4.986   2.990   4.702
 7483SOL    HW223349   4.829   2.959   4.735
 7484SOL     OW23350   0.699   0.997   3.854
 7484SOL    HW123351   0.624   0.953   3.902
 7484SOL    HW223352   0.682   1.096   3.849
 7485SOL     OW23353   3.353   0.822   4.900
 7485SOL    HW123354   3.369   0.806   4.803
 7485SOL    HW223355   3.383   0.915   4.923
 7486SOL     OW23356   2.605   0.563   6.097
 7486SOL    HW123357   2.509   0.587   6.097
 7486SOL    HW223358   2.660   0.643   6.120
 7487SOL     OW23359   2.191   6.447   2.677
 7487SOL    HW123360   2.123   6.518   2.657
 7487SOL    HW223361   2.179   6.417   2.771
 7488SOL     OW23362   1.763   6.593   4.019
 7488SOL    HW123363   1.754   6.605   3.920
 7488SOL    HW223364   1.840   6.532   4.038
 7489SOL     OW23365   5.257   2.691   4.859
 7489SOL    HW123366   5.341   2.681   4.804
 7489SOL    HW223367   5.249   2.613   4.921
 7490SOL     OW23368   1.062   0.894   1.919
 7490SOL    HW123369   1.096   0.976   1.874
 7490SOL    HW223370   0.963   0.891   1.913
 7491SOL     OW23371   6.104   2.995   6.093
 7491SOL    HW123372   6.167   2.999   6.170
 7491SOL    HW223373   6.034   3.066   6.102
 7492SOL     OW23374   2.053   0.788   3.346
 7492SOL    HW123375   1.975   0.778   3.285
 7492SOL    HW223376   2.021   0.787   3.441
 7493SOL     OW23377   6.827   3.585   0.031
 7493SOL    HW123378   6.819   3.500   7.002
 7493SOL    HW223379   6.922   3.617   0.027
 7494SOL     OW23380   5.131   1.178   2.564
 7494SOL    HW123381   5.064   1.128   2.510
 7494SOL    HW223382   5.139   1.136   2.654
 7495SOL     OW23383   1.651   1.142   0.217
 7495SOL    HW123384   1.591   1.220   0.203
 7495SOL    HW223385   1.685   1.109   0.129
 7496SOL     OW23386   6.493   3.507   6.327
 7496SOL    HW123387   6.589   3.485   6.345
 7496SOL    HW223388   6.445   3.521   6.414
 7497SOL     OW23389   2.347   4.993   0.641
 7497SOL    HW123390   2.290   4.974   0.721
 7497SOL    HW223391   2.294   4.976   0.558
 7498SOL     OW23392   2.458   1.459   5.360
 7498SOL    HW123393   2.542   1.493   5.316
 7498SOL    HW223394   2.434   1.519   5.436
 7499SOL     OW23395   3.565   1.929   3.052
 7499SOL    HW123396   3.636   1.926   2.981
 7499SOL    HW223397   3.588   1.864   3.124
 7500SOL     OW23398   3.324   5.227   3.735
 7500SOL    HW123399   3.409   5.275   3.712
 7500SOL    HW223400   3.246   5.281   3.704
 7501SOL     OW23401   5.961   4.009   4.307
 7501SOL    HW123402   5.992   3.943   4.376
 7501SOL    HW223403   5.866   4.034   4.326
 7502SOL     OW23404   1.516   6.970   4.428
 7502SOL    HW123405   1.551   0.010   4.360
 7502SOL    HW223406   1.540   6.877   4.401
 7503SOL     OW23407   3.280   1.555   0.771
 7503SOL    HW123408   3.194   1.534   0.817
 7503SOL    HW223409   3.279   1.651   0.743
 7504SOL     OW23410   1.837   0.225   2.877
 7504SOL    HW123411   1.936   0.215   2.876
 7504SOL    HW223412   1.806   0.245   2.970
 7505SOL     OW23413   1.539   1.713   5.473
 7505SOL    HW123414   1.598   1.748   5.546
 7505SOL    HW223415   1.587   1.719   5.386
 7506SOL     OW23416   5.297   0.366   2.916
 7506SOL    HW123417   5.323   0.379   3.012
 7506SOL    HW223418   5.237   0.440   2.887
 7507SOL     OW23419   1.041   0.473   2.323
 7507SOL    HW123420   1.082   0.389   2.288
 7507SOL    HW223421   0.971   0.505   2.260
 7508SOL     OW23422   0.747   6.101   2.141
 7508SOL    HW123423   0.681   6.143   2.078
 7508SOL    HW223424   0.788   6.021   2.097
 7509SOL     OW23425   5.318   4.845   0.418
 7509SOL    HW123426   5.304   4.758   0.371
 7509SOL    HW223427   5.348   4.914   0.353
 7510SOL     OW23428   3.897   4.181   5.661
 7510SOL    HW123429   3.826   4.168   5.591
 7510SOL    HW223430   3.974   4.121   5.641
 7511SOL     OW23431   2.450   0.080   3.714
 7511SOL    HW123432   2.352   0.097   3.702
 7511SOL    HW223433   2.464   7.014   3.755
 7512SOL     OW23434   3.109   6.120   6.890
 7512SOL    HW123435   3.185   6.169   6.847
 7512SOL    HW223436   3.100   6.149   6.985
 7513SOL     OW23437   2.416   0.574   1.733
 7513SOL    HW123438   2.424   0.630   1.815
 7513SOL    HW223439   2.473   0.492   1.743
 7514SOL     OW23440   2.495   5.611   1.151
 7514SOL    HW123441   2.471   5.669   1.073
 7514SOL    HW223442   2.465   5.654   1.236
 7515SOL     OW23443   6.678   4.891   2.430
 7515SOL    HW123444   6.648   4.800   2.457
 7515SOL    HW223445   6.759   4.917   2.483
 7516SOL     OW23446   6.389   6.082   5.854
 7516SOL    HW123447   6.428   5.997   5.889
 7516SOL    HW223448   6.299   6.064   5.816
 7517SOL     OW23449   0.146   3.196   0.559
 7517SOL    HW123450   0.105   3.105   0.552
 7517SOL    HW223451   0.119   3.251   0.481
 7518SOL     OW23452   4.234   5.073   3.231
 7518SOL    HW123453   4.149   5.021   3.239
 7518SOL    HW223454   4.312   5.011   3.235
 7519SOL     OW23455   6.818   6.748   3.782
 7519SOL    HW123456   6.874   6.769   3.702
 7519SOL    HW223457   6.866   6.682   3.840
 7520SOL     OW23458   3.271   0.919   2.398
 7520SOL    HW123459   3.204   0.908   2.325
 7520SOL    HW223460   3.335   0.842   2.396
 7521SOL     OW23461   4.871   4.168   6.108
 7521SOL    HW123462   4.911   4.130   6.024
 7521SOL    HW223463   4.821   4.252   6.085
 7522SOL     OW23464   2.629   0.888   6.466
 7522SOL    HW123465   2.550   0.852   6.417
 7522SOL    HW223466   2.610   0.890   6.564
 7523SOL     OW23467   6.034   0.067   5.994
 7523SOL    HW123468   6.001   0.150   5.948
 7523SOL    HW223469   5.971   7.016   5.976
 7524SOL     OW23470   2.215   2.273   5.707
 7524SOL    HW123471   2.183   2.287   5.801
 7524SOL    HW223472   2.245   2.179   5.696
 7525SOL     OW23473   3.973   0.644   6.090
 7525SOL    HW123474   3.955   0.546   6.078
 7525SOL    HW223475   3.888   0.695   6.074
 7526SOL     OW23476   2.609   3.651   1.483
 7526SOL    HW123477   2.582   3.645   1.579
 7526SOL    HW223478   2.602   3.561   1.440
 7527SOL     OW23479   4.182   5.757   3.557
 7527SOL    HW123480   4.277   5.726   3.561
 7527SOL    HW223481   4.163   5.819   3.633
 7528SOL     OW23482   5.364   1.467   6.742
 7528SOL    HW123483   5.458   1.492   6.722
 7528SOL    HW223484   5.311   1.462   6.657
 7529SOL     OW23485   5.311   0.773   4.388
 7529SOL    HW123486   5.217   0.797   4.363
 7529SOL    HW223487   5.310   0.699   4.455
 7530SOL     OW23488   0.745   3.804   2.856
 7530SOL    HW123489   0.809   3.871   2.895
 7530SOL    HW223490   0.739   3.819   2.757
 7531SOL     OW23491   4.785   2.858   4.282
 7531SOL    HW123492   4.862   2.845   4.344
 7531SOL    HW223493   4.700   2.853   4.333
 7532SOL     OW23494   5.813   4.882   0.463
 7532SOL    HW123495   5.832   4.894   0.366
 7532SOL    HW223496   5.716   4.857   0.475
 7533SOL     OW23497   2.190   1.929   2.432
 7533SOL    HW123498   2.107   1.927   2.375
 7533SOL    HW223499   2.174   1.988   2.511
 7534SOL     OW23500   4.316   6.265   5.358
 7534SOL    HW123501   4.293   6.312   5.273
 7534SOL    HW223502   4.367   6.327   5.418
 7535SOL     OW23503   1.914   6.865   5.409
 7535SOL    HW123504   1.849   6.936   5.433
 7535SOL    HW223505   1.865   6.787   5.369
 7536SOL     OW23506   4.777   4.125   4.349
 7536SOL    HW123507   4.870   4.158   4.364
 7536SOL    HW223508   4.716   4.166   4.417
 7537SOL     OW23509   3.446   5.674   2.335
 7537SOL    HW123510   3.477   5.582   2.355
 7537SOL    HW223511   3.481   5.703   2.246
 7538SOL     OW23512   2.532   3.004   1.587
 7538SOL    HW123513   2.520   2.907   1.565
 7538SOL    HW223514   2.521   3.017   1.685
 7539SOL     OW23515   0.664   3.049   3.745
 7539SOL    HW123516   0.657   2.968   3.687
 7539SOL    HW223517   0.611   3.124   3.704
 7540SOL     OW23518   4.523   0.629   5.300
 7540SOL    HW123519   4.557   0.535   5.288
 7540SOL    HW223520   4.600   0.692   5.304
 7541SOL     OW23521   0.107   4.418   4.608
 7541SOL    HW123522   0.088   4.464   4.695
 7541SOL    HW223523   0.206   4.414   4.593
 7542SOL     OW23524   0.859   5.033   6.673
 7542SOL    HW123525   0.801   4.985   6.608
 7542SOL    HW223526   0.833   5.129   6.676
 7543SOL     OW23527   3.491   1.875   0.068
 7543SOL    HW123528   3.529   1.783   0.060
 7543SOL    HW223529   3.420   1.876   0.138
 7544SOL     OW23530   0.289   2.129   2.770
 7544SOL    HW123531   0.286   2.211   2.713
 7544SOL    HW223532   0.364   2.136   2.836
 7545SOL     OW23533   6.671   5.617   1.121
 7545SOL    HW123534   6.753   5.673   1.136
 7545SOL    HW223535   6.680   5.531   1.171
 7546SOL     OW23536   3.428   1.636   2.176
 7546SOL    HW123537   3.453   1.622   2.272
 7546SOL    HW223538   3.378   1.722   2.166
 7547SOL     OW23539   5.108   0.783   0.475
 7547SOL    HW123540   5.206   0.786   0.491
 7547SOL    HW223541   5.074   0.875   0.453
 7548SOL     OW23542   3.987   1.642   0.233
 7548SOL    HW123543   4.021   1.735   0.246
 7548SOL    HW223544   3.937   1.637   0.147
 7549SOL     OW23545   5.330   2.095   1.086
 7549SOL    HW123546   5.268   2.032   1.039
 7549SOL    HW223547   5.299   2.109   1.179
 7550SOL     OW23548   2.784   5.147   2.290
 7550SOL    HW123549   2.790   5.127   2.192
 7550SOL    HW223550   2.869   5.189   2.321
 7551SOL     OW23551   5.301   3.910   6.606
 7551SOL    HW123552   5.323   3.846   6.533
 7551SOL    HW223553   5.230   3.871   6.664
 7552SOL     OW23554   1.385   5.563   2.758
 7552SOL    HW123555   1.391   5.589   2.661
 7552SOL    HW223556   1.289   5.559   2.785
 7553SOL     OW23557   4.763   6.298   5.577
 7553SOL    HW123558   4.811   6.370   5.628
 7553SOL    HW223559   4.824   6.219   5.566
 7554SOL     OW23560   4.496   1.455   0.774
 7554SOL    HW123561   4.419   1.518   0.762
 7554SOL    HW223562   4.476   1.370   0.725
 7555SOL     OW23563   1.883   4.704   5.938
 7555SOL    HW123564   1.798   4.690   5.990
 7555SOL    HW223565   1.947   4.630   5.960
 7556SOL     OW23566   1.270   2.889   0.479
 7556SOL    HW123567   1.219   2.839   0.410
 7556SOL    HW223568   1.359   2.845   0.493
 7557SOL     OW23569   5.308   1.907   5.924
 7557SOL    HW123570   5.232   1.931   5.985
 7557SOL    HW223571   5.276   1.843   5.854
 7558SOL     OW23572   1.648   2.833   4.408
 7558SOL    HW123573   1.554   2.868   4.410
 7558SOL    HW223574   1.701   2.876   4.481
 7559SOL     OW23575   5.653   4.548   6.711
 7559SOL    HW123576   5.627   4.510   6.800
 7559SOL    HW223577   5.635   4.480   6.640
 7560SOL     OW23578   4.821   6.218   1.212
 7560SOL    HW123579   4.800   6.174   1.299
 7560SOL    HW223580   4.910   6.263   1.218
 7561SOL     OW23581   1.398   3.315   6.979
 7561SOL    HW123582   1.373   3.369   0.035
 7561SOL    HW223583   1.488   3.344   6.946
 7562SOL     OW23584   6.885   6.443   3.666
 7562SOL    HW123585   6.930   6.492   3.741
 7562SOL    HW223586   6.921   6.350   3.660
 7563SOL     OW23587   2.788   6.923   0.743
 7563SOL    HW123588   2.847   6.932   0.662
 7563SOL    HW223589   2.832   6.863   0.809
 7564SOL     OW23590   4.826   0.702   3.335
 7564SOL    HW123591   4.769   0.783   3.348
 7564SOL    HW223592   4.922   0.727   3.346
 7565SOL     OW23593   5.380   2.980   0.471
 7565SOL    HW123594   5.331   2.921   0.406
 7565SOL    HW223595   5.462   2.932   0.504
 7566SOL     OW23596   5.969   4.869   2.798
 7566SOL    HW123597   5.998   4.817   2.879
 7566SOL    HW223598   5.991   4.817   2.716
 7567SOL     OW23599   1.631   2.313   4.956
 7567SOL    HW123600   1.658   2.228   5.003
 7567SOL    HW223601   1.637   2.300   4.857
 7568SOL     OW23602   5.623   6.163   2.483
 7568SOL    HW123603   5.670   6.248   2.459
 7568SOL    HW223604   5.665   6.087   2.434
 7569SOL     OW23605   4.151   6.100   5.966
 7569SOL    HW123606   4.095   6.146   6.035
 7569SOL    HW223607   4.244   6.090   6.001
 7570SOL     OW23608   5.598   3.845   5.383
 7570SOL    HW123609   5.610   3.880   5.476
 7570SOL    HW223610   5.629   3.913   5.317
 7571SOL     OW23611   5.074   5.331   3.437
 7571SOL    HW123612   5.103   5.300   3.346
 7571SOL    HW223613   5.152   5.329   3.499
 7572SOL     OW23614   4.629   1.213   1.684
 7572SOL    HW123615   4.668   1.246   1.770
 7572SOL    HW223616   4.530   1.210   1.692
 7573SOL     OW23617   0.550   0.121   4.947
 7573SOL    HW123618   0.601   0.108   4.862
 7573SOL    HW223619   0.525   0.217   4.957
 7574SOL     OW23620   5.710   0.870   5.327
 7574SOL    HW123621   5.796   0.901   5.286
 7574SOL    HW223622   5.678   0.939   5.392
 7575SOL     OW23623   4.602   0.020   6.449
 7575SOL    HW123624   4.675   6.980   6.474
 7575SOL    HW223625   4.638   0.087   6.384
 7576SOL     OW23626   4.862   4.721   6.274
 7576SOL    HW123627   4.889   4.627   6.294
 7576SOL    HW223628   4.870   4.777   6.357
 7577SOL     OW23629   0.303   6.947   0.083
 7577SOL    HW123630   0.211   6.971   0.053
 7577SOL    HW223631   0.365   7.024   0.069
 7578SOL     OW23632   2.507   5.615   1.815
 7578SOL    HW123633   2.498   5.702   1.766
 7578SOL    HW223634   2.490   5.631   1.913
 7579SOL     OW23635   6.656   1.058   1.455
 7579SOL    HW123636   6.751   1.061   1.487
 7579SOL    HW223637   6.597   1.029   1.530
 7580SOL     OW23638   1.175   3.964   3.948
 7580SOL    HW123639   1.109   3.926   3.883
 7580SOL    HW223640   1.127   3.993   4.031
 7581SOL     OW23641   6.840   0.594   1.367
 7581SOL    HW123642   6.807   0.623   1.278
 7581SOL    HW223643   6.919   0.650   1.394
 7582SOL     OW23644   3.639   1.007   1.469
 7582SOL    HW123645   3.617   1.083   1.407
 7582SOL    HW223646   3.648   1.041   1.562
 7583SOL     OW23647   6.202   2.962   1.408
 7583SOL    HW123648   6.111   2.920   1.400
 7583SOL    HW223649   6.241   2.939   1.497
 7584SOL     OW23650   2.776   6.856   1.708
 7584SOL    HW123651   2.785   6.933   1.771
 7584SOL    HW223652   2.691   6.807   1.728
 7585SOL     OW23653   1.367   2.680   6.818
 7585SOL    HW123654   1.382   2.764   6.870
 7585SOL    HW223655   1.288   2.693   6.757
 7586SOL     OW23656   2.808   1.123   3.528
 7586SOL    HW123657   2.843   1.038   3.567
 7586SOL    HW223658   2.708   1.122   3.528
 7587SOL     OW23659   2.284   1.796   0.192
 7587SOL    HW123660   2.255   1.856   0.267
 7587SOL    HW223661   2.205   1.746   0.157
 7588SOL     OW23662   1.481   2.809   3.055
 7588SOL    HW123663   1.556   2.868   3.026
 7588SOL    HW223664   1.411   2.865   3.102
 7589SOL     OW23665   0.911   6.975   2.237
 7589SOL    HW123666   0.885   6.998   2.143
 7589SOL    HW223667   0.865   0.013   2.301
 7590SOL     OW23668   4.582   1.992   6.182
 7590SOL    HW123669   4.599   2.077   6.132
 7590SOL    HW223670   4.555   2.013   6.275
 7591SOL     OW23671   0.332   3.472   0.317
 7591SOL    HW123672   0.401   3.539   0.290
 7591SOL    HW223673   0.247   3.519   0.339
 7592SOL     OW23674   6.801   4.803   5.224
 7592SOL    HW123675   6.806   4.813   5.124
 7592SOL    HW223676   6.834   4.712   5.250
 7593SOL     OW23677   5.688   3.212   1.194
 7593SOL    HW123678   5.602   3.264   1.194
 7593SOL    HW223679   5.765   3.275   1.202
 7594SOL     OW23680   1.141   4.991   2.574
 7594SOL    HW123681   1.194   5.036   2.646
 7594SOL    HW223682   1.175   4.898   2.561
 7595SOL     OW23683   6.957   2.706   5.688
 7595SOL    HW123684   6.900   2.624   5.679
 7595SOL    HW223685   6.904   2.778   5.733
 7596SOL     OW23686   4.327   5.844   4.170
 7596SOL    HW123687   4.308   5.778   4.097
 7596SOL    HW223688   4.324   5.936   4.133
 7597SOL     OW23689   3.812   6.346   2.748
 7597SOL    HW123690   3.901   6.308   2.725
 7597SOL    HW223691   3.792   6.331   2.845
 7598SOL     OW23692   6.730   1.619   3.111
 7598SOL    HW123693   6.776   1.544   3.064
 7598SOL    HW223694   6.636   1.626   3.079
 7599SOL     OW23695   5.052   2.155   2.610
 7599SOL    HW123696   4.979   2.198   2.556
 7599SOL    HW223697   5.106   2.095   2.551
 7600SOL     OW23698   1.821   1.840   2.440
 7600SOL    HW123699   1.871   1.899   2.377
 7600SOL    HW223700   1.723   1.845   2.420
 7601SOL     OW23701   1.803   5.226   2.987
 7601SOL    HW123702   1.846   5.290   2.923
 7601SOL    HW223703   1.715   5.196   2.950
 7602SOL     OW23704   1.543   4.046   5.658
 7602SOL    HW123705   1.457   4.080   5.697
 7602SOL    HW223706   1.564   3.957   5.697
 7603SOL     OW23707   1.314   5.882   5.871
 7603SOL    HW123708   1.244   5.854   5.806
 7603SOL    HW223709   1.403   5.847   5.841
 7604SOL     OW23710   1.694   4.354   4.444
 7604SOL    HW123711   1.642   4.389   4.366
 7604SOL    HW223712   1.631   4.318   4.513
 7605SOL     OW23713   0.453   0.102   1.066
 7605SOL    HW123714   0.496   0.171   1.124
 7605SOL    HW223715   0.354   0.112   1.069
 7606SOL     OW23716   5.577   3.742   5.044
 7606SOL    HW123717   5.571   3.811   5.116
 7606SOL    HW223718   5.665   3.695   5.049
 7607SOL     OW23719   3.538   4.584   6.701
 7607SOL    HW123720   3.623   4.561   6.750
 7607SOL    HW223721   3.526   4.523   6.623
 7608SOL     OW23722   4.076   3.794   2.632
 7608SOL    HW123723   4.026   3.860   2.575
 7608SOL    HW223724   4.075   3.704   2.588
 7609SOL     OW23725   0.905   3.552   4.110
 7609SOL    HW123726   0.922   3.627   4.173
 7609SOL    HW223727   0.967   3.476   4.131
 7610SOL     OW23728   4.449   5.758   6.391
 7610SOL    HW123729   4.445   5.853   6.421
 7610SOL    HW223730   4.519   5.709   6.443
 7611SOL     OW23731   6.587   2.534   1.227
 7611SOL    HW123732   6.499   2.580   1.226
 7611SOL    HW223733   6.626   2.537   1.319
 7612SOL     OW23734   4.765   2.866   3.777
 7612SOL    HW123735   4.753   2.863   3.677
 7612SOL    HW223736   4.776   2.961   3.806
 7613SOL     OW23737   6.581   3.439   1.279
 7613SOL    HW123738   6.548   3.365   1.221
 7613SOL    HW223739   6.539   3.525   1.251
 7614SOL     OW23740   5.125   2.901   0.953
 7614SOL    HW123741   5.130   2.947   0.864
 7614SOL    HW223742   5.066   2.820   0.946
 7615SOL     OW23743   3.777   5.199   0.015
 7615SOL    HW123744   3.871   5.231   0.029
 7615SOL    HW223745   3.713   5.270   0.043
 7616SOL     OW23746   6.082   5.682   4.417
 7616SOL    HW123747   6.165   5.702   4.470
 7616SOL    HW223748   6.083   5.586   4.390
 7617SOL     OW23749   4.225   4.974   2.717
 7617SOL    HW123750   4.183   4.906   2.777
 7617SOL    HW223751   4.310   5.008   2.758
 7618SOL     OW23752   0.507   1.335   5.779
 7618SOL    HW123753   0.411   1.325   5.805
 7618SOL    HW223754   0.558   1.254   5.807
 7619SOL     OW23755   5.947   2.799   5.153
 7619SOL    HW123756   5.953   2.728   5.084
 7619SOL    HW223757   5.963   2.888   5.111
 7620SOL     OW23758   3.858   5.761   0.761
 7620SOL    HW123759   3.945   5.800   0.791
 7620SOL    HW223760   3.863   5.661   0.765
 7621SOL     OW23761   0.073   1.685   0.983
 7621SOL    HW123762   0.036   1.741   0.908
 7621SOL    HW223763   7.021   1.642   1.032
 7622SOL     OW23764   4.097   6.162   1.098
 7622SOL    HW123765   4.094   6.066   1.127
 7622SOL    HW223766   4.129   6.167   1.003
 7623SOL     OW23767   4.646   4.861   6.717
 7623SOL    HW123768   4.551   4.879   6.692
 7623SOL    HW223769   4.650   4.781   6.776
 7624SOL     OW23770   6.597   3.584   5.564
 7624SOL    HW123771   6.674   3.625   5.514
 7624SOL    HW223772   6.578   3.639   5.645
 7625SOL     OW23773   4.857   0.647   1.677
 7625SOL    HW123774   4.766   0.688   1.672
 7625SOL    HW223775   4.926   0.718   1.663
 7626SOL     OW23776   5.780   6.880   4.729
 7626SOL    HW123777   5.686   6.875   4.761
 7626SOL    HW223778   5.783   6.924   4.639
 7627SOL     OW23779   4.885   2.833   0.158
 7627SOL    HW123780   4.931   2.885   0.087
 7627SOL    HW223781   4.787   2.853   0.155
 7628SOL     OW23782   3.478   1.894   2.315
 7628SOL    HW123783   3.396   1.945   2.288
 7628SOL    HW223784   3.453   1.803   2.346
 7629SOL     OW23785   0.226   5.983   3.076
 7629SOL    HW123786   0.212   6.082   3.083
 7629SOL    HW223787   0.286   5.953   3.150
 7630SOL     OW23788   6.667   6.733   1.080
 7630SOL    HW123789   6.585   6.712   1.027
 7630SOL    HW223790   6.740   6.669   1.056
 7631SOL     OW23791   1.224   1.518   6.286
 7631SOL    HW123792   1.227   1.579   6.206
 7631SOL    HW223793   1.211   1.423   6.255
 7632SOL     OW23794   3.168   2.710   1.726
 7632SOL    HW123795   3.186   2.631   1.667
 7632SOL    HW223796   3.091   2.689   1.787
 7633SOL     OW23797   5.176   0.354   1.532
 7633SOL    HW123798   5.093   0.385   1.488
 7633SOL    HW223799   5.240   0.320   1.464
 7634SOL     OW23800   1.254   2.198   2.080
 7634SOL    HW123801   1.259   2.289   2.122
 7634SOL    HW223802   1.298   2.132   2.141
 7635SOL     OW23803   3.822   4.948   4.867
 7635SOL    HW123804   3.848   4.963   4.962
 7635SOL    HW223805   3.743   4.887   4.863
 7636SOL     OW23806   1.598   2.788   4.119
 7636SOL    HW123807   1.672   2.777   4.185
 7636SOL    HW223808   1.510   2.788   4.166
 7637SOL     OW23809   2.082   5.285   2.205
 7637SOL    HW123810   2.170   5.260   2.245
 7637SOL    HW223811   2.031   5.342   2.269
 7638SOL     OW23812   3.072   6.293   0.918
 7638SOL    HW123813   3.156   6.267   0.869
 7638SOL    HW223814   3.064   6.239   1.002
 7639SOL     OW23815   1.131   2.371   0.772
 7639SOL    HW123816   1.191   2.292   0.781
 7639SOL    HW223817   1.066   2.355   0.698
 7640SOL     OW23818   3.089   1.447   5.879
 7640SOL    HW123819   3.140   1.519   5.831
 7640SOL    HW223820   3.005   1.485   5.917
 7641SOL     OW23821   1.058   4.154   2.379
 7641SOL    HW123822   1.055   4.196   2.288
 7641SOL    HW223823   1.076   4.056   2.369
 7642SOL     OW23824   3.316   0.900   2.999
 7642SOL    HW123825   3.379   0.966   3.042
 7642SOL    HW223826   3.360   0.859   2.920
 7643SOL     OW23827   5.103   2.933   4.323
 7643SOL    HW123828   5.126   2.855   4.265
 7643SOL    HW223829   5.109   3.017   4.270
 7644SOL     OW23830   5.894   2.198   2.930
 7644SOL    HW123831   5.853   2.214   2.840
 7644SOL    HW223832   5.845   2.123   2.976
 7645SOL     OW23833   4.151   3.646   5.481
 7645SOL    HW123834   4.165   3.717   5.413
 7645SOL    HW223835   4.164   3.684   5.573
 7646SOL     OW23836   0.946   3.710   3.180
 7646SOL    HW123837   0.848   3.691   3.170
 7646SOL    HW223838   0.966   3.803   3.150
 7647SOL     OW23839   6.728   3.353   2.970
 7647SOL    HW123840   6.720   3.431   3.032
 7647SOL    HW223841   6.805   3.368   2.908
 7648SOL     OW23842   2.718   1.546   2.706
 7648SOL    HW123843   2.766   1.587   2.629
 7648SOL    HW223844   2.643   1.489   2.672
 7649SOL     OW23845   1.096   0.906   2.640
 7649SOL    HW123846   1.083   0.999   2.674
 7649SOL    HW223847   1.184   0.900   2.593
 7650SOL     OW23848   4.602   1.959   0.868
 7650SOL    HW123849   4.596   1.875   0.814
 7650SOL    HW223850   4.520   2.013   0.854
 7651SOL     OW23851   2.153   0.705   3.666
 7651SOL    HW123852   2.171   0.616   3.624
 7651SOL    HW223853   2.159   0.697   3.765
 7652SOL     OW23854   5.920   3.814   5.364
 7652SOL    HW123855   5.912   3.776   5.457
 7652SOL    HW223856   5.834   3.860   5.340
 7653SOL     OW23857   1.123   1.868   6.859
 7653SOL    HW123858   1.208   1.848   6.906
 7653SOL    HW223859   1.047   1.823   6.906
 7654SOL     OW23860   4.732   2.686   4.041
 7654SOL    HW123861   4.762   2.717   4.131
 7654SOL    HW223862   4.741   2.761   3.976
 7655SOL     OW23863   4.539   0.011   3.020
 7655SOL    HW123864   4.459   6.976   3.019
 7655SOL    HW223865   4.574   0.022   2.927
 7656SOL     OW23866   2.907   4.061   5.714
 7656SOL    HW123867   2.851   4.130   5.760
 7656SOL    HW223868   2.850   4.011   5.649
 7657SOL     OW23869   1.189   2.901   3.967
 7657SOL    HW123870   1.221   2.872   3.876
 7657SOL    HW223871   1.230   2.842   4.037
 7658SOL     OW23872   4.081   6.913   6.119
 7658SOL    HW123873   4.082   6.889   6.216
 7658SOL    HW223874   4.061   7.011   6.110
 7659SOL     OW23875   6.409   5.567   6.260
 7659SOL    HW123876   6.432   5.664   6.255
 7659SOL    HW223877   6.319   5.555   6.301
 7660SOL     OW23878   0.518   6.118   4.356
 7660SOL    HW123879   0.442   6.154   4.301
 7660SOL    HW223880   0.485   6.096   4.447
 7661SOL     OW23881   5.999   2.695   4.896
 7661SOL    HW123882   5.934   2.743   4.837
 7661SOL    HW223883   6.089   2.739   4.889
 7662SOL     OW23884   1.358   2.902   3.426
 7662SOL    HW123885   1.298   2.920   3.505
 7662SOL    HW223886   1.431   2.839   3.454
 7663SOL     OW23887   0.488   5.548   5.240
 7663SOL    HW123888   0.535   5.521   5.324
 7663SOL    HW223889   0.408   5.602   5.262
 7664SOL     OW23890   3.691   6.976   1.486
 7664SOL    HW123891   3.692   6.893   1.430
 7664SOL    HW223892   3.616   6.971   1.552
 7665SOL     OW23893   6.068   6.874   4.878
 7665SOL    HW123894   5.991   6.884   4.815
 7665SOL    HW223895   6.146   6.926   4.845
 7666SOL     OW23896   0.429   5.557   1.810
 7666SOL    HW123897   0.408   5.469   1.854
 7666SOL    HW223898   0.521   5.552   1.770
 7667SOL     OW23899   4.893   6.590   2.203
 7667SOL    HW123900   4.865   6.593   2.299
 7667SOL    HW223901   4.899   6.684   2.168
 7668SOL     OW23902   3.391   4.519   0.069
 7668SOL    HW123903   3.344   4.607   0.078
 7668SOL    HW223904   3.354   4.470   7.014
 7669SOL     OW23905   4.760   1.907   5.134
 7669SOL    HW123906   4.772   1.916   5.233
 7669SOL    HW223907   4.832   1.958   5.087
 7670SOL     OW23908   0.709   5.035   6.342
 7670SOL    HW123909   0.706   4.952   6.398
 7670SOL    HW223910   0.616   5.064   6.322
 7671SOL     OW23911   4.476   1.130   2.937
 7671SOL    HW123912   4.462   1.227   2.954
 7671SOL    HW223913   4.486   1.115   2.838
 7672SOL     OW23914   0.332   6.530   2.868
 7672SOL    HW123915   0.409   6.541   2.806
 7672SOL    HW223916   0.249   6.564   2.825
 7673SOL     OW23917   1.570   6.136   0.439
 7673SOL    HW123918   1.639   6.075   0.399
 7673SOL    HW223919   1.535   6.097   0.523
 7674SOL     OW23920   5.446   1.117   2.938
 7674SOL    HW123921   5.536   1.131   2.979
 7674SOL    HW223922   5.386   1.194   2.960
 7675SOL     OW23923   6.308   6.803   2.477
 7675SOL    HW123924   6.257   6.735   2.425
 7675SOL    HW223925   6.396   6.820   2.433
 7676SOL     OW23926   2.353   2.116   0.565
 7676SOL    HW123927   2.290   2.117   0.487
 7676SOL    HW223928   2.378   2.022   0.587
 7677SOL     OW23929   0.362   4.759   1.527
 7677SOL    HW123930   0.397   4.689   1.464
 7677SOL    HW223931   0.343   4.718   1.615
 7678SOL     OW23932   1.998   2.888   4.450
 7678SOL    HW123933   1.997   2.905   4.351
 7678SOL    HW223934   1.970   2.971   4.499
 7679SOL     OW23935   2.851   5.385   6.109
 7679SOL    HW123936   2.835   5.358   6.014
 7679SOL    HW223937   2.922   5.456   6.111
 7680SOL     OW23938   1.577   0.891   0.626
 7680SOL    HW123939   1.563   0.937   0.714
 7680SOL    HW223940   1.669   0.853   0.622
 7681SOL     OW23941   2.306   0.464   0.515
 7681SOL    HW123942   2.360   0.544   0.539
 7681SOL    HW223943   2.227   0.457   0.576
 7682SOL     OW23944   3.468   0.065   2.449
 7682SOL    HW123945   3.491   0.085   2.354
 7682SOL    HW223946   3.438   0.149   2.494
 7683SOL     OW23947   5.078   1.391   4.260
 7683SOL    HW123948   5.094   1.483   4.223
 7683SOL    HW223949   4.986   1.385   4.297
 7684SOL     OW23950   3.486   1.976   1.142
 7684SOL    HW123951   3.567   2.036   1.140
 7684SOL    HW223952   3.404   2.032   1.132
 7685SOL     OW23953   2.896   2.075   5.943
 7685SOL    HW123954   2.967   2.038   5.884
 7685SOL    HW223955   2.922   2.167   5.973
 7686SOL     OW23956   6.915   6.522   2.768
 7686SOL    HW123957   6.917   6.433   2.722
 7686SOL    HW223958   7.002   6.569   2.753
 7687SOL     OW23959   5.578   5.453   3.778
 7687SOL    HW123960   5.660   5.413   3.736
 7687SOL    HW223961   5.541   5.523   3.718
 7688SOL     OW23962   0.927   5.725   5.902
 7688SOL    HW123963   0.919   5.675   5.815
 7688SOL    HW223964   0.964   5.663   5.972
 7689SOL     OW23965   6.094   6.384   2.513
 7689SOL    HW123966   6.165   6.423   2.571
 7689SOL    HW223967   6.010   6.437   2.522
 7690SOL     OW23968   5.401   5.209   0.490
 7690SOL    HW123969   5.470   5.280   0.502
 7690SOL    HW223970   5.355   5.221   0.402
 7691SOL     OW23971   5.103   3.946   4.294
 7691SOL    HW123972   5.125   3.970   4.389
 7691SOL    HW223973   5.128   3.850   4.278
 7692SOL     OW23974   0.526   6.193   1.941
 7692SOL    HW123975   0.452   6.201   2.007
 7692SOL    HW223976   0.493   6.146   1.859
 7693SOL     OW23977   3.729   6.767   1.077
 7693SOL    HW123978   3.760   6.858   1.049
 7693SOL    HW223979   3.745   6.755   1.175
 7694SOL     OW23980   6.802   4.761   4.714
 7694SOL    HW123981   6.806   4.790   4.618
 7694SOL    HW223982   6.706   4.744   4.739
 7695SOL     OW23983   4.521   0.749   1.163
 7695SOL    HW123984   4.580   0.788   1.092
 7695SOL    HW223985   4.443   0.810   1.177
 7696SOL     OW23986   7.018   0.274   5.313
 7696SOL    HW123987   0.093   0.265   5.299
 7696SOL    HW223988   6.978   0.321   5.235
 7697SOL     OW23989   2.623   6.692   2.228
 7697SOL    HW123990   2.721   6.688   2.248
 7697SOL    HW223991   2.607   6.747   2.146
 7698SOL     OW23992   6.252   1.194   3.986
 7698SOL    HW123993   6.287   1.280   4.021
 7698SOL    HW223994   6.161   1.207   3.947
 7699SOL     OW23995   3.569   5.899   6.304
 7699SOL    HW123996   3.578   5.799   6.303
 7699SOL    HW223997   3.630   5.939   6.236
 7700SOL     OW23998   4.461   5.851   3.857
 7700SOL    HW123999   4.560   5.840   3.855
 7700SOL    HW224000   4.437   5.927   3.918
 7701SOL     OW24001   6.789   2.196   6.852
 7701SOL    HW124002   6.697   2.207   6.816
 7701SOL    HW224003   6.784   2.153   6.943
 7702SOL     OW24004   3.339   6.889   5.237
 7702SOL    HW124005   3.320   6.814   5.300
 7702SOL    HW224006   3.391   6.855   5.159
 7703SOL     OW24007   6.757   6.813   6.586
 7703SOL    HW124008   6.694   6.891   6.591
 7703SOL    HW224009   6.704   6.728   6.578
 7704SOL     OW24010   5.537   5.546   4.554
 7704SOL    HW124011   5.566   5.561   4.459
 7704SOL    HW224012   5.617   5.546   4.614
 7705SOL     OW24013   3.460   5.435   6.679
 7705SOL    HW124014   3.377   5.490   6.672
 7705SOL    HW224015   3.473   5.405   6.773
 7706SOL     OW24016   4.674   3.186   5.404
 7706SOL    HW124017   4.597   3.130   5.373
 7706SOL    HW224018   4.740   3.128   5.452
 7707SOL     OW24019   6.415   5.411   5.267
 7707SOL    HW124020   6.433   5.383   5.361
 7707SOL    HW224021   6.424   5.511   5.259
 7708SOL     OW24022   0.280   6.894   5.985
 7708SOL    HW124023   0.341   6.950   5.929
 7708SOL    HW224024   0.332   6.826   6.035
 7709SOL     OW24025   6.094   4.761   1.808
 7709SOL    HW124026   6.184   4.799   1.828
 7709SOL    HW224027   6.047   4.738   1.893
 7710SOL     OW24028   2.850   1.423   0.244
 7710SOL    HW124029   2.796   1.339   0.246
 7710SOL    HW224030   2.917   1.418   0.169
 7711SOL     OW24031   6.239   6.919   5.858
 7711SOL    HW124032   6.163   6.982   5.874
 7711SOL    HW224033   6.204   6.828   5.837
 7712SOL     OW24034   6.107   5.266   2.103
 7712SOL    HW124035   6.033   5.332   2.115
 7712SOL    HW224036   6.176   5.279   2.175
 7713SOL     OW24037   1.751   4.214   1.089
 7713SOL    HW124038   1.773   4.117   1.102
 7713SOL    HW224039   1.818   4.256   1.028
 7714SOL     OW24040   6.471   3.902   5.401
 7714SOL    HW124041   6.414   3.846   5.460
 7714SOL    HW224042   6.552   3.932   5.451
 7715SOL     OW24043   3.548   2.060   0.500
 7715SOL    HW124044   3.579   1.967   0.515
 7715SOL    HW224045   3.624   2.124   0.513
 7716SOL     OW24046   6.567   4.038   2.765
 7716SOL    HW124047   6.554   4.111   2.832
 7716SOL    HW224048   6.534   3.952   2.802
 7717SOL     OW24049   1.808   1.057   5.325
 7717SOL    HW124050   1.717   1.049   5.366
 7717SOL    HW224051   1.868   1.107   5.388
 7718SOL     OW24052   0.922   3.274   3.802
 7718SOL    HW124053   0.921   3.217   3.885
 7718SOL    HW224054   0.950   3.218   3.724
 7719SOL     OW24055   6.433   4.874   4.884
 7719SOL    HW124056   6.444   4.943   4.955
 7719SOL    HW224057   6.472   4.907   4.798
 7720SOL     OW24058   0.027   1.644   0.525
 7720SOL    HW124059   0.039   1.563   0.467
 7720SOL    HW224060   0.106   1.654   0.585
 7721SOL     OW24061   0.712   5.287   2.731
 7721SOL    HW124062   0.632   5.227   2.740
 7721SOL    HW224063   0.766   5.283   2.816
 7722SOL     OW24064   1.167   4.620   3.744
 7722SOL    HW124065   1.260   4.623   3.780
 7722SOL    HW224066   1.112   4.692   3.787
 7723SOL     OW24067   4.548   3.475   6.694
 7723SOL    HW124068   4.607   3.551   6.667
 7723SOL    HW224069   4.605   3.396   6.719
 7724SOL     OW24070   3.307   3.829   1.031
 7724SOL    HW124071   3.302   3.920   0.990
 7724SOL    HW224072   3.279   3.761   0.964
 7725SOL     OW24073   6.503   0.888   2.637
 7725SOL    HW124074   6.559   0.875   2.555
 7725SOL    HW224075   6.538   0.830   2.711
 7726SOL     OW24076   1.551   5.643   5.234
 7726SOL    HW124077   1.551   5.576   5.308
 7726SOL    HW224078   1.569   5.734   5.271
 7727SOL     OW24079   0.435   0.954   3.156
 7727SOL    HW124080   0.343   0.914   3.158
 7727SOL    HW224081   0.472   0.953   3.249
 7728SOL     OW24082   0.925   4.520   4.268
 7728SOL    HW124083   0.841   4.559   4.306
 7728SOL    HW224084   0.986   4.494   4.343
 7729SOL     OW24085   5.660   2.802   0.594
 7729SOL    HW124086   5.662   2.718   0.539
 7729SOL    HW224087   5.705   2.876   0.544
 7730SOL     OW24088   5.663   5.878   0.208
 7730SOL    HW124089   5.642   5.970   0.242
 7730SOL    HW224090   5.732   5.885   0.136
 7731SOL     OW24091   6.585   1.275   0.639
 7731SOL    HW124092   6.571   1.191   0.587
 7731SOL    HW224093   6.668   1.267   0.694
 7732SOL     OW24094   4.960   6.503   0.873
 7732SOL    HW124095   5.014   6.479   0.793
 7732SOL    HW224096   4.877   6.447   0.876
 7733SOL     OW24097   4.979   6.340   2.907
 7733SOL    HW124098   5.072   6.325   2.943
 7733SOL    HW224099   4.950   6.433   2.929
 7734SOL     OW24100   2.011   4.870   2.756
 7734SOL    HW124101   2.021   4.907   2.848
 7734SOL    HW224102   1.958   4.786   2.759
 7735SOL     OW24103   4.642   6.620   7.002
 7735SOL    HW124104   4.658   6.718   7.007
 7735SOL    HW224105   4.559   6.603   6.948
 7736SOL     OW24106   3.439   3.580   6.523
 7736SOL    HW124107   3.436   3.648   6.596
 7736SOL    HW224108   3.380   3.610   6.448
 7737SOL     OW24109   3.210   6.820   2.729
 7737SOL    HW124110   3.252   6.730   2.742
 7737SOL    HW224111   3.281   6.888   2.714
 7738SOL     OW24112   3.237   5.583   6.650
 7738SOL    HW124113   3.257   5.650   6.721
 7738SOL    HW224114   3.138   5.570   6.643
 7739SOL     OW24115   0.473   2.736   1.311
 7739SOL    HW124116   0.446   2.656   1.257
 7739SOL    HW224117   0.458   2.718   1.408
 7740SOL     OW24118   2.112   1.408   2.768
 7740SOL    HW124119   2.099   1.416   2.669
 7740SOL    HW224120   2.026   1.427   2.815
 7741SOL     OW24121   0.744   4.987   5.692
 7741SOL    HW124122   0.752   4.894   5.657
 7741SOL    HW224123   0.759   4.987   5.791
 7742SOL     OW24124   4.099   2.076   3.410
 7742SOL    HW124125   4.035   2.103   3.482
 7742SOL    HW224126   4.152   2.157   3.381
 7743SOL     OW24127   6.006   1.014   6.307
 7743SOL    HW124128   5.984   1.087   6.242
 7743SOL    HW224129   6.096   0.976   6.285
 7744SOL     OW24130   0.829   6.590   4.029
 7744SOL    HW124131   0.763   6.635   4.089
 7744SOL    HW224132   0.860   6.653   3.958
 7745SOL     OW24133   3.662   1.299   6.808
 7745SOL    HW124134   3.565   1.277   6.795
 7745SOL    HW224135   3.671   1.395   6.834
 7746SOL     OW24136   1.616   0.261   0.346
 7746SOL    HW124137   1.564   0.270   0.430
 7746SOL    HW224138   1.654   0.169   0.339
 7747SOL     OW24139   5.397   5.770   1.287
 7747SOL    HW124140   5.370   5.865   1.283
 7747SOL    HW224141   5.347   5.723   1.360
 7748SOL     OW24142   3.153   4.001   4.764
 7748SOL    HW124143   3.149   4.080   4.825
 7748SOL    HW224144   3.132   3.918   4.814
 7749SOL     OW24145   2.690   3.357   6.258
 7749SOL    HW124146   2.740   3.311   6.184
 7749SOL    HW224147   2.744   3.351   6.343
 7750SOL     OW24148   0.268   6.006   1.336
 7750SOL    HW124149   0.234   6.025   1.244
 7750SOL    HW224150   0.336   5.933   1.332
 7751SOL     OW24151   1.739   2.735   2.188
 7751SOL    HW124152   1.763   2.790   2.269
 7751SOL    HW224153   1.640   2.722   2.186
 7752SOL     OW24154   5.436   6.844   5.706
 7752SOL    HW124155   5.345   6.885   5.703
 7752SOL    HW224156   5.493   6.895   5.771
 7753SOL     OW24157   2.573   0.665   3.668
 7753SOL    HW124158   2.628   0.678   3.751
 7753SOL    HW224159   2.632   0.633   3.594
 7754SOL     OW24160   3.262   6.684   2.343
 7754SOL    HW124161   3.194   6.634   2.396
 7754SOL    HW224162   3.236   6.781   2.338
 7755SOL     OW24163   1.959   2.149   5.285
 7755SOL    HW124164   1.978   2.058   5.249
 7755SOL    HW224165   1.983   2.218   5.217
 7756SOL     OW24166   2.801   6.595   2.907
 7756SOL    HW124167   2.784   6.690   2.879
 7756SOL    HW224168   2.848   6.593   2.994
 7757SOL     OW24169   5.648   4.844   6.975
 7757SOL    HW124170   5.557   4.824   6.940
 7757SOL    HW224171   5.715   4.783   6.932
 7758SOL     OW24172   2.190   0.918   5.710
 7758SOL    HW124173   2.184   0.920   5.810
 7758SOL    HW224174   2.100   0.941   5.671
 7759SOL     OW24175   1.828   2.397   5.687
 7759SOL    HW124176   1.914   2.367   5.728
 7759SOL    HW224177   1.775   2.317   5.659
 7760SOL     OW24178   5.958   3.351   2.713
 7760SOL    HW124179   6.051   3.320   2.695
 7760SOL    HW224180   5.930   3.417   2.643
 7761SOL     OW24181   0.442   0.374   4.447
 7761SOL    HW124182   0.532   0.342   4.418
 7761SOL    HW224183   0.373   0.345   4.381
 7762SOL     OW24184   2.816   0.408   4.024
 7762SOL    HW124185   2.861   0.472   4.086
 7762SOL    HW224186   2.853   0.421   3.932
 7763SOL     OW24187   2.333   0.377   6.645
 7763SOL    HW124188   2.329   0.454   6.581
 7763SOL    HW224189   2.287   0.298   6.605
 7764SOL     OW24190   3.404   3.227   4.131
 7764SOL    HW124191   3.321   3.264   4.089
 7764SOL    HW224192   3.419   3.272   4.219
 7765SOL     OW24193   6.161   4.506   5.134
 7765SOL    HW124194   6.248   4.461   5.151
 7765SOL    HW224195   6.170   4.566   5.055
 7766SOL     OW24196   6.866   3.890   0.018
 7766SOL    HW124197   6.836   3.803   7.002
 7766SOL    HW224198   6.841   3.964   6.980
 7767SOL     OW24199   5.085   6.317   2.548
 7767SOL    HW124200   5.135   6.318   2.461
 7767SOL    HW224201   5.115   6.239   2.603
 7768SOL     OW24202   4.247   4.708   2.559
 7768SOL    HW124203   4.260   4.799   2.596
 7768SOL    HW224204   4.182   4.711   2.483
 7769SOL     OW24205   3.959   1.629   3.527
 7769SOL    HW124206   3.871   1.661   3.492
 7769SOL    HW224207   3.951   1.535   3.558
 7770SOL     OW24208   1.466   4.110   4.043
 7770SOL    HW124209   1.556   4.151   4.057
 7770SOL    HW224210   1.436   4.127   3.949
 7771SOL     OW24211   3.772   1.979   5.411
 7771SOL    HW124212   3.757   2.032   5.495
 7771SOL    HW224213   3.870   1.973   5.393
 7772SOL     OW24214   4.422   0.251   2.869
 7772SOL    HW124215   4.419   0.330   2.930
 7772SOL    HW224216   4.468   0.175   2.914
 7773SOL     OW24217   2.494   5.752   5.327
 7773SOL    HW124218   2.429   5.777   5.399
 7773SOL    HW224219   2.443   5.719   5.247
 7774SOL     OW24220   5.198   2.072   4.441
 7774SOL    HW124221   5.274   2.019   4.403
 7774SOL    HW224222   5.230   2.164   4.464
 7775SOL     OW24223   4.364   5.720   1.052
 7775SOL    HW124224   4.459   5.730   1.081
 7775SOL    HW224225   4.308   5.789   1.097
 7776SOL     OW24226   0.143   5.565   6.182
 7776SOL    HW124227   0.101   5.558   6.272
 7776SOL    HW224228   0.147   5.661   6.154
 7777SOL     OW24229   5.782   5.999   4.009
 7777SOL    HW124230   5.759   5.946   3.927
 7777SOL    HW224231   5.737   6.088   4.004
 7778SOL     OW24232   5.338   4.611   0.255
 7778SOL    HW124233   5.371   4.562   0.336
 7778SOL    HW224234   5.381   4.572   0.173
 7779SOL     OW24235   2.716   1.973   1.455
 7779SOL    HW124236   2.714   1.960   1.355
 7779SOL    HW224237   2.804   2.010   1.482
 7780SOL     OW24238   0.994   4.866   5.523
 7780SOL    HW124239   0.919   4.858   5.458
 7780SOL    HW224240   1.062   4.932   5.489
 7781SOL     OW24241   2.664   4.694   1.032
 7781SOL    HW124242   2.640   4.613   0.978
 7781SOL    HW224243   2.745   4.675   1.087
 7782SOL     OW24244   4.991   4.851   4.453
 7782SOL    HW124245   5.086   4.880   4.459
 7782SOL    HW224246   4.951   4.848   4.545
 7783SOL     OW24247   0.990   6.298   5.036
 7783SOL    HW124248   0.953   6.307   4.944
 7783SOL    HW224249   0.916   6.299   5.103
 7784SOL     OW24250   3.618   2.803   1.958
 7784SOL    HW124251   3.641   2.724   1.900
 7784SOL    HW224252   3.698   2.830   2.010
 7785SOL     OW24253   1.751   6.345   4.601
 7785SOL    HW124254   1.812   6.344   4.680
 7785SOL    HW224255   1.660   6.313   4.629
 7786SOL     OW24256   3.586   6.555   1.086
 7786SOL    HW124257   3.611   6.489   1.158
 7786SOL    HW224258   3.645   6.635   1.092
 7787SOL     OW24259   1.903   2.876   6.441
 7787SOL    HW124260   1.982   2.851   6.498
 7787SOL    HW224261   1.821   2.881   6.498
 7788SOL     OW24262   2.009   5.098   1.274
 7788SOL    HW124263   2.050   5.187   1.255
 7788SOL    HW224264   2.038   5.067   1.365
 7789SOL     OW24265   2.450   0.180   6.147
 7789SOL    HW124266   2.516   0.228   6.205
 7789SOL    HW224267   2.454   0.082   6.165
 7790SOL     OW24268   5.268   5.446   3.011
 7790SOL    HW124269   5.263   5.400   2.923
 7790SOL    HW224270   5.325   5.528   3.002
 7791SOL     OW24271   2.624   5.428   2.561
 7791SOL    HW124272   2.635   5.459   2.656
 7791SOL    HW224273   2.638   5.329   2.556
 7792SOL     OW24274   2.188   5.705   4.554
 7792SOL    HW124275   2.272   5.733   4.508
 7792SOL    HW224276   2.173   5.607   4.540
 7793SOL     OW24277   4.253   1.230   0.762
 7793SOL    HW124278   4.188   1.266   0.829
 7793SOL    HW224279   4.231   1.266   0.671
 7794SOL     OW24280   6.170   4.063   2.493
 7794SOL    HW124281   6.185   4.157   2.461
 7794SOL    HW224282   6.174   4.061   2.593
 7795SOL     OW24283   1.824   3.977   5.140
 7795SOL    HW124284   1.888   3.905   5.112
 7795SOL    HW224285   1.776   3.949   5.223
 7796SOL     OW24286   3.326   2.973   4.448
 7796SOL    HW124287   3.337   2.959   4.350
 7796SOL    HW224288   3.247   2.920   4.480
 7797SOL     OW24289   1.488   6.798   1.802
 7797SOL    HW124290   1.474   6.785   1.900
 7797SOL    HW224291   1.429   6.737   1.750
 7798SOL     OW24292   1.227   3.608   3.993
 7798SOL    HW124293   1.182   3.695   4.016
 7798SOL    HW224294   1.315   3.603   4.040
 7799SOL     OW24295   1.782   5.759   2.830
 7799SOL    HW124296   1.868   5.749   2.881
 7799SOL    HW224297   1.705   5.740   2.891
 7800SOL     OW24298   1.279   5.797   2.623
 7800SOL    HW124299   1.277   5.836   2.715
 7800SOL    HW224300   1.186   5.796   2.585
 7801SOL     OW24301   1.909   1.742   1.097
 7801SOL    HW124302   1.966   1.817   1.063
 7801SOL    HW224303   1.858   1.774   1.177
 7802SOL     OW24304   5.872   2.700   1.589
 7802SOL    HW124305   5.786   2.665   1.552
 7802SOL    HW224306   5.919   2.627   1.639
 7803SOL     OW24307   4.137   2.441   5.885
 7803SOL    HW124308   4.170   2.347   5.895
 7803SOL    HW224309   4.038   2.442   5.900
 7804SOL     OW24310   4.481   2.371   5.340
 7804SOL    HW124311   4.565   2.316   5.330
 7804SOL    HW224312   4.500   2.449   5.400
 7805SOL     OW24313   5.299   2.970   1.654
 7805SOL    HW124314   5.386   3.009   1.685
 7805SOL    HW224315   5.296   2.973   1.554
 7806SOL     OW24316   6.188   2.223   6.662
 7806SOL    HW124317   6.233   2.135   6.682
 7806SOL    HW224318   6.141   2.255   6.744
 7807SOL     OW24319   1.227   4.474   6.116
 7807SOL    HW124320   1.265   4.562   6.088
 7807SOL    HW224321   1.214   4.416   6.035
 7808SOL     OW24322   6.161   3.054   4.593
 7808SOL    HW124323   6.121   3.139   4.626
 7808SOL    HW224324   6.249   3.039   4.639
 7809SOL     OW24325   4.201   5.325   4.513
 7809SOL    HW124326   4.214   5.275   4.599
 7809SOL    HW224327   4.254   5.281   4.441
 7810SOL     OW24328   3.618   0.090   4.725
 7810SOL    HW124329   3.651   0.117   4.635
 7810SOL    HW224330   3.668   0.009   4.756
 7811SOL     OW24331   0.948   5.444   2.142
 7811SOL    HW124332   0.940   5.534   2.101
 7811SOL    HW224333   0.939   5.373   2.071
 7812SOL     OW24334   0.117   2.055   4.270
 7812SOL    HW124335   0.140   2.050   4.173
 7812SOL    HW224336   0.143   2.145   4.306
 7813SOL     OW24337   4.101   1.891   0.259
 7813SOL    HW124338   4.040   1.952   0.310
 7813SOL    HW224339   4.180   1.868   0.316
 7814SOL     OW24340   0.062   3.077   3.129
 7814SOL    HW124341   0.066   3.026   3.043
 7814SOL    HW224342   0.022   3.020   3.200
 7815SOL     OW24343   6.073   1.745   4.486
 7815SOL    HW124344   6.044   1.734   4.581
 7815SOL    HW224345   6.050   1.662   4.435
 7816SOL     OW24346   1.591   2.288   6.488
 7816SOL    HW124347   1.650   2.338   6.552
 7816SOL    HW224348   1.505   2.264   6.534
 7817SOL     OW24349   4.862   3.960   4.140
 7817SOL    HW124350   4.806   4.029   4.185
 7817SOL    HW224351   4.953   3.959   4.182
 7818SOL     OW24352   5.037   0.450   2.308
 7818SOL    HW124353   5.047   0.396   2.225
 7818SOL    HW224354   5.055   0.393   2.388
 7819SOL     OW24355   6.738   4.103   3.965
 7819SOL    HW124356   6.748   4.089   4.063
 7819SOL    HW224357   6.796   4.039   3.916
 7820SOL     OW24358   1.554   1.326   5.307
 7820SOL    HW124359   1.643   1.370   5.318
 7820SOL    HW224360   1.494   1.386   5.253
 7821SOL     OW24361   5.570   5.559   6.915
 7821SOL    HW124362   5.531   5.551   7.007
 7821SOL    HW224363   5.545   5.647   6.875
 7822SOL     OW24364   0.771   1.329   0.533
 7822SOL    HW124365   0.688   1.319   0.478
 7822SOL    HW224366   0.779   1.252   0.597
 7823SOL     OW24367   2.882   3.611   6.269
 7823SOL    HW124368   2.815   3.537   6.266
 7823SOL    HW224369   2.870   3.671   6.190
 7824SOL     OW24370   5.494   1.327   3.893
 7824SOL    HW124371   5.415   1.359   3.946
 7824SOL    HW224372   5.528   1.242   3.933
 7825SOL     OW24373   0.924   3.303   1.042
 7825SOL    HW124374   0.927   3.400   1.065
 7825SOL    HW224375   0.997   3.255   1.090
 7826SOL     OW24376   5.910   1.627   6.843
 7826SOL    HW124377   5.937   1.701   6.781
 7826SOL    HW224378   5.822   1.650   6.886
 7827SOL     OW24379   3.139   4.842   1.169
 7827SOL    HW124380   3.177   4.791   1.092
 7827SOL    HW224381   3.192   4.823   1.252
 7828SOL     OW24382   0.805   5.252   0.109
 7828SOL    HW124383   0.836   5.225   0.200
 7828SOL    HW224384   0.861   5.206   0.040
 7829SOL     OW24385   2.100   2.839   6.669
 7829SOL    HW124386   2.172   2.898   6.634
 7829SOL    HW224387   2.134   2.789   6.749
 7830SOL     OW24388   4.077   3.777   5.705
 7830SOL    HW124389   3.987   3.754   5.667
 7830SOL    HW224390   4.083   3.743   5.799
 7831SOL     OW24391   1.692   5.351   1.156
 7831SOL    HW124392   1.704   5.287   1.232
 7831SOL    HW224393   1.611   5.326   1.104
 7832SOL     OW24394   3.784   1.238   4.128
 7832SOL    HW124395   3.706   1.301   4.133
 7832SOL    HW224396   3.865   1.283   4.167
 7833SOL     OW24397   0.529   1.662   6.766
 7833SOL    HW124398   0.627   1.650   6.777
 7833SOL    HW224399   0.489   1.689   6.855
 7834SOL     OW24400   0.130   0.566   3.628
 7834SOL    HW124401   0.139   0.525   3.718
 7834SOL    HW224402   0.133   0.666   3.636
 7835SOL     OW24403   2.350   2.090   5.299
 7835SOL    HW124404   2.331   2.183   5.332
 7835SOL    HW224405   2.448   2.081   5.283
 7836SOL     OW24406   3.043   2.621   5.492
 7836SOL    HW124407   3.057   2.720   5.494
 7836SOL    HW224408   3.109   2.579   5.430
 7837SOL     OW24409   6.848   5.883   1.145
 7837SOL    HW124410   6.873   5.838   1.059
 7837SOL    HW224411   6.914   5.859   1.216
 7838SOL     OW24412   4.513   6.342   0.567
 7838SOL    HW124413   4.533   6.369   0.472
 7838SOL    HW224414   4.496   6.424   0.622
 7839SOL     OW24415   6.326   4.186   5.022
 7839SOL    HW124416   6.232   4.218   5.016
 7839SOL    HW224417   6.385   4.244   4.964
 7840SOL     OW24418   5.375   3.243   4.587
 7840SOL    HW124419   5.323   3.324   4.615
 7840SOL    HW224420   5.433   3.212   4.662
 7841SOL     OW24421   4.750   1.775   6.531
 7841SOL    HW124422   4.669   1.716   6.538
 7841SOL    HW224423   4.801   1.771   6.617
 7842SOL     OW24424   1.535   1.738   2.803
 7842SOL    HW124425   1.478   1.757   2.724
 7842SOL    HW224426   1.496   1.662   2.855
 7843SOL     OW24427   5.384   4.622   2.040
 7843SOL    HW124428   5.483   4.618   2.025
 7843SOL    HW224429   5.338   4.567   1.971
 7844SOL     OW24430   4.314   6.783   3.285
 7844SOL    HW124431   4.264   6.698   3.296
 7844SOL    HW224432   4.269   6.840   3.217
 7845SOL     OW24433   5.898   1.605   4.036
 7845SOL    HW124434   5.907   1.615   3.937
 7845SOL    HW224435   5.900   1.695   4.080
 7846SOL     OW24436   0.992   1.230   2.363
 7846SOL    HW124437   0.996   1.157   2.294
 7846SOL    HW224438   1.081   1.239   2.407
 7847SOL     OW24439   6.855   1.697   2.571
 7847SOL    HW124440   6.817   1.789   2.576
 7847SOL    HW224441   6.906   1.678   2.655
 7848SOL     OW24442   2.644   2.693   0.702
 7848SOL    HW124443   2.731   2.651   0.727
 7848SOL    HW224444   2.573   2.664   0.767
 7849SOL     OW24445   5.216   3.763   2.917
 7849SOL    HW124446   5.235   3.668   2.940
 7849SOL    HW224447   5.258   3.785   2.829
 7850SOL     OW24448   0.955   2.027   4.381
 7850SOL    HW124449   0.972   2.117   4.423
 7850SOL    HW224450   0.960   2.035   4.282
 7851SOL     OW24451   6.016   0.795   1.689
 7851SOL    HW124452   5.953   0.719   1.702
 7851SOL    HW224453   6.107   0.769   1.722
 7852SOL     OW24454   2.680   0.888   5.792
 7852SOL    HW124455   2.600   0.911   5.737
 7852SOL    HW224456   2.699   0.791   5.785
 7853SOL     OW24457   4.565   1.591   1.945
 7853SOL    HW124458   4.588   1.590   1.848
 7853SOL    HW224459   4.555   1.686   1.976
 7854SOL     OW24460   2.988   3.406   0.534
 7854SOL    HW124461   3.012   3.470   0.460
 7854SOL    HW224462   3.022   3.315   0.511
 7855SOL     OW24463   3.344   5.304   5.247
 7855SOL    HW124464   3.337   5.403   5.256
 7855SOL    HW224465   3.413   5.269   5.310
 7856SOL     OW24466   5.787   4.720   5.090
 7856SOL    HW124467   5.789   4.722   5.190
 7856SOL    HW224468   5.696   4.747   5.058
 7857SOL     OW24469   5.937   2.981   5.529
 7857SOL    HW124470   6.005   2.997   5.601
 7857SOL    HW224471   5.946   2.888   5.495
 7858SOL     OW24472   5.546   4.688   3.363
 7858SOL    HW124473   5.579   4.609   3.312
 7858SOL    HW224474   5.525   4.762   3.299
 7859SOL     OW24475   5.934   2.939   6.372
 7859SOL    HW124476   6.014   2.998   6.361
 7859SOL    HW224477   5.939   2.864   6.306
 7860SOL     OW24478   4.447   0.449   3.032
 7860SOL    HW124479   4.426   0.529   2.975
 7860SOL    HW224480   4.407   0.462   3.122
 7861SOL     OW24481   4.019   5.163   1.786
 7861SOL    HW124482   4.031   5.227   1.861
 7861SOL    HW224483   3.922   5.138   1.779
 7862SOL     OW24484   3.050   4.339   1.690
 7862SOL    HW124485   3.070   4.254   1.739
 7862SOL    HW224486   2.997   4.400   1.749
 7863SOL     OW24487   0.078   5.584   3.953
 7863SOL    HW124488   0.002   5.519   3.958
 7863SOL    HW224489   0.165   5.533   3.950
 7864SOL     OW24490   0.422   5.996   5.274
 7864SOL    HW124491   0.485   6.061   5.229
 7864SOL    HW224492   0.451   5.902   5.252
 7865SOL     OW24493   5.717   0.256   4.222
 7865SOL    HW124494   5.808   0.241   4.183
 7865SOL    HW224495   5.692   0.352   4.213
 7866SOL     OW24496   2.379   2.167   6.604
 7866SOL    HW124497   2.455   2.215   6.559
 7866SOL    HW224498   2.306   2.231   6.624
 7867SOL     OW24499   5.250   6.885   2.581
 7867SOL    HW124500   5.165   6.864   2.531
 7867SOL    HW224501   5.317   6.812   2.566
 7868SOL     OW24502   6.031   0.043   2.205
 7868SOL    HW124503   5.943   0.090   2.215
 7868SOL    HW224504   6.023   6.975   2.243
 7869SOL     OW24505   5.428   3.629   6.973
 7869SOL    HW124506   5.525   3.605   6.986
 7869SOL    HW224507   5.420   3.727   6.953
 7870SOL     OW24508   4.435   5.615   4.256
 7870SOL    HW124509   4.500   5.606   4.181
 7870SOL    HW224510   4.389   5.704   4.250
 7871SOL     OW24511   5.324   3.444   2.693
 7871SOL    HW124512   5.270   3.513   2.645
 7871SOL    HW224513   5.320   3.462   2.792
 7872SOL     OW24514   2.324   4.303   2.850
 7872SOL    HW124515   2.324   4.294   2.949
 7872SOL    HW224516   2.338   4.399   2.825
 7873SOL     OW24517   6.084   0.682   5.764
 7873SOL    HW124518   6.021   0.676   5.841
 7873SOL    HW224519   6.150   0.755   5.781
 7874SOL     OW24520   5.015   1.553   0.391
 7874SOL    HW124521   5.047   1.474   0.339
 7874SOL    HW224522   5.092   1.611   0.415
 7875SOL     OW24523   5.060   2.185   6.332
 7875SOL    HW124524   4.975   2.222   6.370
 7875SOL    HW224525   5.052   2.178   6.233
 7876SOL     OW24526   0.433   6.649   5.224
 7876SOL    HW124527   0.495   6.705   5.278
 7876SOL    HW224528   0.338   6.677   5.241
 7877SOL     OW24529   0.347   2.778   2.791
 7877SOL    HW124530   0.415   2.817   2.853
 7877SOL    HW224531   0.317   2.848   2.726
 7878SOL     OW24532   5.318   5.005   3.990
 7878SOL    HW124533   5.223   4.976   4.000
 7878SOL    HW224534   5.349   5.048   4.075
 7879SOL     OW24535   4.428   5.437   3.696
 7879SOL    HW124536   4.503   5.376   3.672
 7879SOL    HW224537   4.410   5.431   3.794
 7880SOL     OW24538   2.154   5.235   1.869
 7880SOL    HW124539   2.194   5.311   1.920
 7880SOL    HW224540   2.215   5.156   1.873
 7881SOL     OW24541   5.726   4.027   5.176
 7881SOL    HW124542   5.644   4.067   5.136
 7881SOL    HW224543   5.794   4.012   5.104
 7882SOL     OW24544   1.070   3.585   2.946
 7882SOL    HW124545   1.009   3.622   3.015
 7882SOL    HW224546   1.068   3.642   2.864
 7883SOL     OW24547   1.648   0.266   0.859
 7883SOL    HW124548   1.649   0.218   0.771
 7883SOL    HW224549   1.600   0.210   0.927
 7884SOL     OW24550   1.931   4.100   4.180
 7884SOL    HW124551   2.002   4.033   4.161
 7884SOL    HW224552   1.844   4.052   4.195
 7885SOL     OW24553   6.175   5.914   1.472
 7885SOL    HW124554   6.169   5.920   1.572
 7885SOL    HW224555   6.139   5.826   1.441
 7886SOL     OW24556   3.834   5.468   0.685
 7886SOL    HW124557   3.828   5.370   0.669
 7886SOL    HW224558   3.813   5.517   0.600
 7887SOL     OW24559   3.286   2.491   5.374
 7887SOL    HW124560   3.262   2.427   5.300
 7887SOL    HW224561   3.290   2.584   5.338
 7888SOL     OW24562   6.671   6.879   4.824
 7888SOL    HW124563   6.629   6.939   4.756
 7888SOL    HW224564   6.664   6.784   4.794
 7889SOL     OW24565   1.180   4.980   6.914
 7889SOL    HW124566   1.089   4.940   6.910
 7889SOL    HW224567   1.235   4.947   6.837
 7890SOL     OW24568   0.345   2.812   3.315
 7890SOL    HW124569   0.310   2.782   3.404
 7890SOL    HW224570   0.275   2.799   3.245
 7891SOL     OW24571   2.061   4.189   4.695
 7891SOL    HW124572   2.111   4.271   4.725
 7891SOL    HW224573   2.025   4.204   4.603
 7892SOL     OW24574   1.948   2.117   4.283
 7892SOL    HW124575   1.888   2.070   4.347
 7892SOL    HW224576   1.973   2.054   4.209
 7893SOL     OW24577   6.497   6.689   1.602
 7893SOL    HW124578   6.480   6.595   1.634
 7893SOL    HW224579   6.594   6.710   1.614
 7894SOL     OW24580   3.298   0.365   0.903
 7894SOL    HW124581   3.284   0.273   0.940
 7894SOL    HW224582   3.385   0.401   0.937
 7895SOL     OW24583   5.033   0.812   4.995
 7895SOL    HW124584   5.034   0.719   5.033
 7895SOL    HW224585   5.127   0.847   4.993
 7896SOL     OW24586   4.050   2.938   0.728
 7896SOL    HW124587   3.984   3.002   0.768
 7896SOL    HW224588   4.136   2.943   0.778
 7897SOL     OW24589   3.285   2.651   1.033
 7897SOL    HW124590   3.367   2.605   1.068
 7897SOL    HW224591   3.288   2.748   1.058
 7898SOL     OW24592   3.534   0.343   3.717
 7898SOL    HW124593   3.542   0.318   3.620
 7898SOL    HW224594   3.626   0.348   3.757
 7899SOL     OW24595   6.250   0.601   1.256
 7899SOL    HW124596   6.167   0.584   1.309
 7899SOL    HW224597   6.236   0.571   1.162
 7900SOL     OW24598   1.255   5.276   2.103
 7900SOL    HW124599   1.293   5.355   2.152
 7900SOL    HW224600   1.329   5.231   2.052
 7901SOL     OW24601   4.095   1.226   6.188
 7901SOL    HW124602   4.154   1.227   6.108
 7901SOL    HW224603   4.022   1.294   6.177
 7902SOL     OW24604   6.321   6.870   1.688
 7902SOL    HW124605   6.230   6.827   1.683
 7902SOL    HW224606   6.389   6.808   1.649
 7903SOL     OW24607   4.266   1.588   3.059
 7903SOL    HW124608   4.219   1.526   3.121
 7903SOL    HW224609   4.212   1.599   2.975
 7904SOL     OW24610   5.504   6.205   2.727
 7904SOL    HW124611   5.536   6.168   2.639
 7904SOL    HW224612   5.513   6.304   2.726
 7905SOL     OW24613   5.728   2.067   0.476
 7905SOL    HW124614   5.702   2.159   0.446
 7905SOL    HW224615   5.776   2.020   0.401
 7906SOL     OW24616   0.912   5.163   0.349
 7906SOL    HW124617   0.842   5.171   0.420
 7906SOL    HW224618   0.974   5.088   0.372
 7907SOL     OW24619   5.452   2.366   3.409
 7907SOL    HW124620   5.395   2.285   3.394
 7907SOL    HW224621   5.466   2.379   3.507
 7908SOL     OW24622   1.720   0.913   5.701
 7908SOL    HW124623   1.728   0.875   5.792
 7908SOL    HW224624   1.667   0.998   5.705
 7909SOL     OW24625   4.615   4.274   4.118
 7909SOL    HW124626   4.566   4.360   4.108
 7909SOL    HW224627   4.570   4.217   4.187
 7910SOL     OW24628   2.486   3.381   6.905
 7910SOL    HW124629   2.443   3.461   6.864
 7910SOL    HW224630   2.585   3.396   6.911
 7911SOL     OW24631   1.080   4.299   0.179
 7911SOL    HW124632   1.145   4.365   0.216
 7911SOL    HW224633   1.042   4.245   0.254
 7912SOL     OW24634   6.133   4.817   0.568
 7912SOL    HW124635   6.064   4.879   0.607
 7912SOL    HW224636   6.172   4.857   0.485
 7913SOL     OW24637   1.222   4.232   1.866
 7913SOL    HW124638   1.223   4.278   1.777
 7913SOL    HW224639   1.298   4.267   1.922
 7914SOL     OW24640   0.604   4.842   0.079
 7914SOL    HW124641   0.539   4.915   0.100
 7914SOL    HW224642   0.686   4.852   0.136
 7915SOL     OW24643   4.843   2.412   1.828
 7915SOL    HW124644   4.810   2.486   1.886
 7915SOL    HW224645   4.828   2.435   1.732
 7916SOL     OW24646   0.194   6.147   5.327
 7916SOL    HW124647   0.240   6.236   5.331
 7916SOL    HW224648   0.258   6.078   5.295
 7917SOL     OW24649   3.199   2.827   5.208
 7917SOL    HW124650   3.164   2.860   5.295
 7917SOL    HW224651   3.281   2.772   5.224
 7918SOL     OW24652   0.547   0.682   4.856
 7918SOL    HW124653   0.466   0.703   4.912
 7918SOL    HW224654   0.526   0.607   4.794
 7919SOL     OW24655   1.424   4.437   3.440
 7919SOL    HW124656   1.480   4.457   3.360
 7919SOL    HW224657   1.335   4.482   3.430
 7920SOL     OW24658   0.169   0.201   0.398
 7920SOL    HW124659   0.178   0.282   0.455
 7920SOL    HW224660   0.205   0.220   0.306
 7921SOL     OW24661   5.159   6.253   1.990
 7921SOL    HW124662   5.201   6.261   1.900
 7921SOL    HW224663   5.107   6.335   2.010
 7922SOL     OW24664   6.890   6.521   1.054
 7922SOL    HW124665   6.933   6.441   1.095
 7922SOL    HW224666   6.957   6.572   1.000
 7923SOL     OW24667   3.932   0.568   6.730
 7923SOL    HW124668   4.027   0.575   6.759
 7923SOL    HW224669   3.922   0.611   6.640
 7924SOL     OW24670   5.417   0.085   2.524
 7924SOL    HW124671   5.340   0.022   2.535
 7924SOL    HW224672   5.421   0.116   2.429
 7925SOL     OW24673   0.832   0.530   6.807
 7925SOL    HW124674   0.923   0.512   6.845
 7925SOL    HW224675   0.804   0.623   6.831
 7926SOL     OW24676   4.786   1.486   5.796
 7926SOL    HW124677   4.812   1.418   5.864
 7926SOL    HW224678   4.699   1.459   5.754
 7927SOL     OW24679   4.340   5.958   3.375
 7927SOL    HW124680   4.403   5.924   3.305
 7927SOL    HW224681   4.258   5.901   3.378
 7928SOL     OW24682   1.612   1.876   4.606
 7928SOL    HW124683   1.595   1.783   4.576
 7928SOL    HW224684   1.531   1.911   4.653
 7929SOL     OW24685   4.715   4.297   5.584
 7929SOL    HW124686   4.799   4.351   5.591
 7929SOL    HW224687   4.699   4.250   5.670
 7930SOL     OW24688   4.176   5.660   4.805
 7930SOL    HW124689   4.185   5.758   4.822
 7930SOL    HW224690   4.227   5.635   4.723
 7931SOL     OW24691   3.351   2.553   0.270
 7931SOL    HW124692   3.394   2.640   0.248
 7931SOL    HW224693   3.255   2.568   0.295
 7932SOL     OW24694   1.537   6.491   6.819
 7932SOL    HW124695   1.601   6.444   6.758
 7932SOL    HW224696   1.585   6.565   6.867
 7933SOL     OW24697   0.234   6.349   6.788
 7933SOL    HW124698   0.327   6.320   6.765
 7933SOL    HW224699   0.169   6.279   6.759
 7934SOL     OW24700   1.663   5.098   6.454
 7934SOL    HW124701   1.575   5.141   6.475
 7934SOL    HW224702   1.666   5.075   6.357
 7935SOL     OW24703   5.827   6.428   1.314
 7935SOL    HW124704   5.802   6.522   1.335
 7935SOL    HW224705   5.825   6.373   1.397
 7936SOL     OW24706   3.773   5.674   2.049
 7936SOL    HW124707   3.674   5.667   2.059
 7936SOL    HW224708   3.805   5.761   2.087
 7937SOL     OW24709   6.521   5.956   3.608
 7937SOL    HW124710   6.458   6.000   3.671
 7937SOL    HW224711   6.613   5.958   3.646
 7938SOL     OW24712   6.672   5.867   4.038
 7938SOL    HW124713   6.703   5.960   4.017
 7938SOL    HW224714   6.580   5.871   4.077
 7939SOL     OW24715   1.543   2.591   4.477
 7939SOL    HW124716   1.592   2.668   4.436
 7939SOL    HW224717   1.449   2.617   4.495
 7940SOL     OW24718   1.603   3.777   1.655
 7940SOL    HW124719   1.548   3.703   1.694
 7940SOL    HW224720   1.693   3.778   1.699
 7941SOL     OW24721   6.278   0.319   1.243
 7941SOL    HW124722   6.284   0.296   1.340
 7941SOL    HW224723   6.276   0.418   1.232
 7942SOL     OW24724   6.910   5.004   2.671
 7942SOL    HW124725   6.933   5.101   2.662
 7942SOL    HW224726   6.842   4.993   2.742
 7943SOL     OW24727   6.763   3.474   6.400
 7943SOL    HW124728   6.804   3.558   6.437
 7943SOL    HW224729   6.796   3.395   6.453
 7944SOL     OW24730   0.835   2.326   1.002
 7944SOL    HW124731   0.760   2.264   0.982
 7944SOL    HW224732   0.908   2.313   0.933
 7945SOL     OW24733   6.364   5.219   1.476
 7945SOL    HW124734   6.342   5.226   1.573
 7945SOL    HW224735   6.310   5.146   1.435
 7946SOL     OW24736   3.788   0.198   6.198
 7946SOL    HW124737   3.758   0.170   6.289
 7946SOL    HW224738   3.770   0.295   6.184
 7947SOL     OW24739   3.828   2.052   6.230
 7947SOL    HW124740   3.828   1.961   6.271
 7947SOL    HW224741   3.895   2.109   6.277
 7948SOL     OW24742   1.328   6.642   1.203
 7948SOL    HW124743   1.263   6.568   1.184
 7948SOL    HW224744   1.388   6.655   1.124
 7949SOL     OW24745   4.653   4.412   5.153
 7949SOL    HW124746   4.623   4.393   5.059
 7949SOL    HW224747   4.671   4.325   5.200
 7950SOL     OW24748   5.021   4.960   3.655
 7950SOL    HW124749   5.096   4.943   3.590
 7950SOL    HW224750   4.936   4.924   3.618
 7951SOL     OW24751   2.011   4.243   2.033
 7951SOL    HW124752   1.940   4.299   2.077
 7951SOL    HW224753   2.027   4.276   1.940
 7952SOL     OW24754   6.593   3.489   6.807
 7952SOL    HW124755   6.647   3.405   6.812
 7952SOL    HW224756   6.498   3.469   6.831
 7953SOL     OW24757   3.154   2.167   3.507
 7953SOL    HW124758   3.182   2.171   3.603
 7953SOL    HW224759   3.234   2.155   3.449
 7954SOL     OW24760   3.528   4.376   6.150
 7954SOL    HW124761   3.603   4.321   6.114
 7954SOL    HW224762   3.558   4.471   6.159
 7955SOL     OW24763   2.358   0.867   6.369
 7955SOL    HW124764   2.319   0.932   6.304
 7955SOL    HW224765   2.339   0.897   6.463
 7956SOL     OW24766   4.185   6.861   2.319
 7956SOL    HW124767   4.200   6.862   2.220
 7956SOL    HW224768   4.126   6.784   2.343
 7957SOL     OW24769   0.999   0.590   1.318
 7957SOL    HW124770   1.021   0.623   1.226
 7957SOL    HW224771   1.083   0.570   1.367
 7958SOL     OW24772   4.055   4.957   5.355
 7958SOL    HW124773   3.999   5.032   5.388
 7958SOL    HW224774   4.109   4.921   5.431
 7959SOL     OW24775   4.654   5.916   0.503
 7959SOL    HW124776   4.640   6.013   0.484
 7959SOL    HW224777   4.665   5.866   0.417
 7960SOL     OW24778   2.295   2.011   6.038
 7960SOL    HW124779   2.390   2.038   6.023
 7960SOL    HW224780   2.293   1.928   6.095
 7961SOL     OW24781   6.710   1.099   1.000
 7961SOL    HW124782   6.658   1.050   1.070
 7961SOL    HW224783   6.764   1.171   1.044
 7962SOL     OW24784   1.441   0.474   6.286
 7962SOL    HW124785   1.533   0.492   6.249
 7962SOL    HW224786   1.386   0.558   6.281
 7963SOL     OW24787   6.522   6.586   3.928
 7963SOL    HW124788   6.568   6.629   3.851
 7963SOL    HW224789   6.432   6.629   3.942
 7964SOL     OW24790   6.912   4.414   2.714
 7964SOL    HW124791   6.898   4.318   2.741
 7964SOL    HW224792   6.840   4.470   2.755
 7965SOL     OW24793   4.370   2.693   5.526
 7965SOL    HW124794   4.281   2.648   5.524
 7965SOL    HW224795   4.384   2.735   5.616
 7966SOL     OW24796   2.292   3.256   5.687
 7966SOL    HW124797   2.275   3.334   5.748
 7966SOL    HW224798   2.213   3.242   5.628
 7967SOL     OW24799   3.533   6.660   2.437
 7967SOL    HW124800   3.594   6.719   2.384
 7967SOL    HW224801   3.447   6.649   2.388
 7968SOL     OW24802   1.558   2.601   3.845
 7968SOL    HW124803   1.539   2.622   3.749
 7968SOL    HW224804   1.523   2.675   3.903
 7969SOL     OW24805   4.113   6.021   0.307
 7969SOL    HW124806   4.145   5.964   0.382
 7969SOL    HW224807   4.097   6.114   0.341
 7970SOL     OW24808   6.666   2.863   2.472
 7970SOL    HW124809   6.649   2.948   2.422
 7970SOL    HW224810   6.693   2.791   2.407
 7971SOL     OW24811   3.011   1.928   0.529
 7971SOL    HW124812   2.920   1.950   0.562
 7971SOL    HW224813   3.055   2.010   0.492
 7972SOL     OW24814   2.399   3.195   0.053
 7972SOL    HW124815   2.486   3.146   0.054
 7972SOL    HW224816   2.401   3.264   7.005
 7973SOL     OW24817   4.464   4.531   4.460
 7973SOL    HW124818   4.540   4.468   4.475
 7973SOL    HW224819   4.398   4.522   4.535
 7974SOL     OW24820   6.006   0.517   5.566
 7974SOL    HW124821   6.057   0.433   5.585
 7974SOL    HW224822   6.015   0.579   5.643
 7975SOL     OW24823   6.164   1.474   1.999
 7975SOL    HW124824   6.263   1.458   2.008
 7975SOL    HW224825   6.117   1.435   2.077
 7976SOL     OW24826   0.402   0.458   6.225
 7976SOL    HW124827   0.331   0.409   6.275
 7976SOL    HW224828   0.449   0.394   6.163
 7977SOL     OW24829   4.760   5.985   2.618
 7977SOL    HW124830   4.695   5.909   2.613
 7977SOL    HW224831   4.822   5.982   2.539
 7978SOL     OW24832   5.439   3.565   6.623
 7978SOL    HW124833   5.393   3.596   6.707
 7978SOL    HW224834   5.392   3.485   6.587
 7979SOL     OW24835   4.258   6.366   5.099
 7979SOL    HW124836   4.178   6.345   5.043
 7979SOL    HW224837   4.329   6.297   5.083
 7980SOL     OW24838   3.265   5.459   0.146
 7980SOL    HW124839   3.255   5.557   0.127
 7980SOL    HW224840   3.175   5.418   0.155
 7981SOL     OW24841   0.352   5.049   1.543
 7981SOL    HW124842   0.434   5.086   1.499
 7981SOL    HW224843   0.356   4.949   1.543
 7982SOL     OW24844   1.733   1.391   6.886
 7982SOL    HW124845   1.683   1.457   6.830
 7982SOL    HW224846   1.792   1.440   6.951
 7983SOL     OW24847   5.824   1.949   1.858
 7983SOL    HW124848   5.890   1.930   1.785
 7983SOL    HW224849   5.761   1.872   1.867
 7984SOL     OW24850   1.089   1.267   0.881
 7984SOL    HW124851   1.061   1.225   0.967
 7984SOL    HW224852   1.009   1.305   0.835
 7985SOL     OW24853   3.142   1.036   4.581
 7985SOL    HW124854   3.077   1.047   4.656
 7985SOL    HW224855   3.210   0.967   4.606
 7986SOL     OW24856   3.291   0.843   6.343
 7986SOL    HW124857   3.216   0.862   6.406
 7986SOL    HW224858   3.344   0.765   6.378
 7987SOL     OW24859   1.854   2.690   6.863
 7987SOL    HW124860   1.852   2.664   6.767
 7987SOL    HW224861   1.911   2.625   6.914
 7988SOL     OW24862   0.486   1.804   3.505
 7988SOL    HW124863   0.497   1.794   3.406
 7988SOL    HW224864   0.576   1.807   3.548
 7989SOL     OW24865   2.755   2.820   6.591
 7989SOL    HW124866   2.776   2.753   6.661
 7989SOL    HW224867   2.677   2.876   6.619
 7990SOL     OW24868   0.425   4.144   5.065
 7990SOL    HW124869   0.330   4.165   5.040
 7990SOL    HW224870   0.449   4.054   5.031
 7991SOL     OW24871   5.432   6.724   3.680
 7991SOL    HW124872   5.405   6.632   3.710
 7991SOL    HW224873   5.377   6.750   3.601
 7992SOL     OW24874   1.078   0.089   0.752
 7992SOL    HW124875   1.133   0.006   0.745
 7992SOL    HW224876   1.137   0.166   0.775
 7993SOL     OW24877   0.928   7.009   0.548
 7993SOL    HW124878   0.993   0.034   0.607
 7993SOL    HW224879   0.873   6.946   0.604
 7994SOL     OW24880   4.220   0.208   3.312
 7994SOL    HW124881   4.145   0.266   3.283
 7994SOL    HW224882   4.296   0.265   3.344
 7995SOL     OW24883   5.187   6.018   3.844
 7995SOL    HW124884   5.273   6.067   3.860
 7995SOL    HW224885   5.132   6.069   3.779
 7996SOL     OW24886   2.763   6.642   5.282
 7996SOL    HW124887   2.687   6.698   5.251
 7996SOL    HW224888   2.837   6.701   5.315
 7997SOL     OW24889   0.255   1.747   1.287
 7997SOL    HW124890   0.246   1.686   1.208
 7997SOL    HW224891   0.167   1.753   1.335
 7998SOL     OW24892   3.127   7.015   0.252
 7998SOL    HW124893   3.136   0.052   0.330
 7998SOL    HW224894   3.217   6.977   0.228
 7999SOL     OW24895   0.896   0.489   5.897
 7999SOL    HW124896   0.990   0.456   5.889
 7999SOL    HW224897   0.880   0.560   5.828
 8000SOL     OW24898   4.570   0.125   0.287
 8000SOL    HW124899   4.569   0.202   0.224
 8000SOL    HW224900   4.664   0.095   0.303
 8001SOL     OW24901   4.262   6.651   1.225
 8001SOL    HW124902   4.353   6.611   1.210
 8001SOL    HW224903   4.194   6.579   1.223
 8002SOL     OW24904   1.563   1.130   5.808
 8002SOL    HW124905   1.593   1.160   5.898
 8002SOL    HW224906   1.539   1.211   5.753
 8003SOL     OW24907   3.440   5.327   2.188
 8003SOL    HW124908   3.365   5.265   2.165
 8003SOL    HW224909   3.426   5.365   2.279
 8004SOL     OW24910   1.803   3.139   2.866
 8004SOL    HW124911   1.840   3.050   2.842
 8004SOL    HW224912   1.788   3.192   2.783
 8005SOL     OW24913   2.761   0.881   1.583
 8005SOL    HW124914   2.855   0.894   1.552
 8005SOL    HW224915   2.698   0.917   1.514
 8006SOL     OW24916   2.427   6.303   5.925
 8006SOL    HW124917   2.361   6.305   6.000
 8006SOL    HW224918   2.383   6.331   5.840
 8007SOL     OW24919   6.379   0.677   4.341
 8007SOL    HW124920   6.461   0.629   4.370
 8007SOL    HW224921   6.379   0.769   4.381
 8008SOL     OW24922   4.144   5.440   6.229
 8008SOL    HW124923   4.095   5.352   6.237
 8008SOL    HW224924   4.077   5.513   6.217
 8009SOL     OW24925   5.751   0.969   2.294
 8009SOL    HW124926   5.754   1.036   2.368
 8009SOL    HW224927   5.839   0.967   2.247
 8010SOL     OW24928   1.361   1.637   5.729
 8010SOL    HW124929   1.436   1.650   5.664
 8010SOL    HW224930   1.282   1.691   5.701
 8011SOL     OW24931   2.867   2.530   0.776
 8011SOL    HW124932   2.952   2.558   0.821
 8011SOL    HW224933   2.887   2.460   0.708
 8012SOL     OW24934   1.626   3.786   0.862
 8012SOL    HW124935   1.654   3.779   0.958
 8012SOL    HW224936   1.564   3.863   0.851
 8013SOL     OW24937   1.341   5.408   3.163
 8013SOL    HW124938   1.406   5.371   3.230
 8013SOL    HW224939   1.373   5.498   3.132
 8014SOL     OW24940   1.015   6.043   5.502
 8014SOL    HW124941   1.063   6.064   5.417
 8014SOL    HW224942   0.981   5.949   5.500
 8015SOL     OW24943   3.286   0.791   6.068
 8015SOL    HW124944   3.272   0.810   6.166
 8015SOL    HW224945   3.253   0.869   6.014
 8016SOL     OW24946   4.485   0.402   5.625
 8016SOL    HW124947   4.479   0.323   5.563
 8016SOL    HW224948   4.454   0.484   5.577
 8017SOL     OW24949   5.888   0.412   0.763
 8017SOL    HW124950   5.882   0.329   0.708
 8017SOL    HW224951   5.940   0.481   0.712
 8018SOL     OW24952   3.503   1.838   6.375
 8018SOL    HW124953   3.488   1.911   6.308
 8018SOL    HW224954   3.496   1.749   6.330
 8019SOL     OW24955   2.347   4.570   0.149
 8019SOL    HW124956   2.298   4.604   0.229
 8019SOL    HW224957   2.322   4.625   0.069
 8020SOL     OW24958   5.724   0.877   1.135
 8020SOL    HW124959   5.791   0.803   1.143
 8020SOL    HW224960   5.632   0.840   1.137
 8021SOL     OW24961   1.533   2.752   1.436
 8021SOL    HW124962   1.506   2.824   1.372
 8021SOL    HW224963   1.481   2.762   1.521
 8022SOL     OW24964   5.486   6.799   3.030
 8022SOL    HW124965   5.494   6.897   3.014
 8022SOL    HW224966   5.409   6.763   2.977
 8023SOL     OW24967   5.642   5.200   2.383
 8023SOL    HW124968   5.618   5.260   2.306
 8023SOL    HW224969   5.606   5.108   2.366
 8024SOL     OW24970   1.687   4.711   6.170
 8024SOL    HW124971   1.754   4.695   6.243
 8024SOL    HW224972   1.664   4.625   6.126
 8025SOL     OW24973   1.919   6.174   6.818
 8025SOL    HW124974   1.826   6.186   6.854
 8025SOL    HW224975   1.982   6.162   6.895
 8026SOL     OW24976   0.240   4.268   6.968
 8026SOL    HW124977   0.225   4.330   0.021
 8026SOL    HW224978   0.163   4.274   6.905
 8027SOL     OW24979   4.780   0.886   4.578
 8027SOL    HW124980   4.742   0.878   4.671
 8027SOL    HW224981   4.816   0.979   4.565
 8028SOL     OW24982   4.033   5.751   5.692
 8028SOL    HW124983   3.938   5.766   5.722
 8028SOL    HW224984   4.079   5.692   5.758
 8029SOL     OW24985   4.794   3.089   0.998
 8029SOL    HW124986   4.715   3.096   1.058
 8029SOL    HW224987   4.789   3.004   0.946
 8030SOL     OW24988   4.291   4.601   0.617
 8030SOL    HW124989   4.259   4.539   0.689
 8030SOL    HW224990   4.242   4.583   0.532
 8031SOL     OW24991   6.464   6.522   2.455
 8031SOL    HW124992   6.540   6.568   2.499
 8031SOL    HW224993   6.496   6.474   2.373
 8032SOL     OW24994   6.365   4.275   1.393
 8032SOL    HW124995   6.267   4.255   1.393
 8032SOL    HW224996   6.392   4.306   1.484
 8033SOL     OW24997   4.982   1.803   5.795
 8033SOL    HW124998   5.031   1.743   5.732
 8033SOL    HW224999   4.968   1.756   5.882
 8034SOL     OW25000   4.979   0.187   4.259
 8034SOL    HW125001   5.061   0.223   4.304
 8034SOL    HW225002   4.993   0.186   4.160
 8035SOL     OW25003   5.011   1.721   4.399
 8035SOL    HW125004   4.933   1.666   4.368
 8035SOL    HW225005   4.978   1.812   4.427
 8036SOL     OW25006   6.852   3.910   3.783
 8036SOL    HW125007   6.783   3.838   3.784
 8036SOL    HW225008   6.860   3.947   3.690
 8037SOL     OW25009   1.540   3.024   0.563
 8037SOL    HW125010   1.487   3.074   0.631
 8037SOL    HW225011   1.526   2.925   0.576
 8038SOL     OW25012   4.360   7.016   2.449
 8038SOL    HW125013   4.450   7.012   2.405
 8038SOL    HW225014   4.300   6.946   2.410
 8039SOL     OW25015   1.056   1.661   4.884
 8039SOL    HW125016   1.015   1.694   4.799
 8039SOL    HW225017   0.984   1.620   4.941
 8040SOL     OW25018   1.415   5.286   6.817
 8040SOL    HW125019   1.333   5.342   6.806
 8040SOL    HW225020   1.485   5.316   6.752
 8041SOL     OW25021   2.463   1.477   2.638
 8041SOL    HW125022   2.390   1.533   2.599
 8041SOL    HW225023   2.426   1.424   2.714
 8042SOL     OW25024   3.181   3.003   3.962
 8042SOL    HW125025   3.189   3.014   3.863
 8042SOL    HW225026   3.099   3.050   3.994
 8043SOL     OW25027   3.350   6.381   1.465
 8043SOL    HW125028   3.254   6.393   1.442
 8043SOL    HW225029   3.362   6.392   1.564
 8044SOL     OW25030   4.013   2.017   1.460
 8044SOL    HW125031   4.105   2.043   1.487
 8044SOL    HW225032   4.002   2.027   1.362
 8045SOL     OW25033   5.500   2.526   3.203
 8045SOL    HW125034   5.599   2.535   3.204
 8045SOL    HW225035   5.469   2.482   3.287
 8046SOL     OW25036   0.615   5.164   1.326
 8046SOL    HW125037   0.699   5.128   1.286
 8046SOL    HW225038   0.634   5.200   1.417
 8047SOL     OW25039   4.217   6.016   4.542
 8047SOL    HW125040   4.187   6.000   4.636
 8047SOL    HW225041   4.140   6.003   4.480
 8048SOL     OW25042   5.179   1.456   6.016
 8048SOL    HW125043   5.235   1.518   5.961
 8048SOL    HW225044   5.185   1.363   5.978
 8049SOL     OW25045   0.827   0.220   0.443
 8049SOL    HW125046   0.899   0.284   0.419
 8049SOL    HW225047   0.867   0.139   0.487
 8050SOL     OW25048   1.425   3.564   3.580
 8050SOL    HW125049   1.480   3.560   3.497
 8050SOL    HW225050   1.484   3.556   3.660
 8051SOL     OW25051   4.725   5.699   3.575
 8051SOL    HW125052   4.777   5.784   3.575
 8051SOL    HW225053   4.777   5.628   3.622
 8052SOL     OW25054   4.121   1.135   1.126
 8052SOL    HW125055   4.098   1.226   1.093
 8052SOL    HW225056   4.053   1.069   1.093
 8053SOL     OW25057   2.958   3.786   4.009
 8053SOL    HW125058   2.914   3.780   4.098
 8053SOL    HW225059   3.007   3.873   4.002
 8054SOL     OW25060   5.646   5.938   4.287
 8054SOL    HW125061   5.729   5.959   4.236
 8054SOL    HW225062   5.638   6.000   4.365
 8055SOL     OW25063   0.282   0.331   5.270
 8055SOL    HW125064   0.301   0.233   5.261
 8055SOL    HW225065   0.365   0.378   5.301
 8056SOL     OW25066   2.539   1.085   3.539
 8056SOL    HW125067   2.481   1.012   3.576
 8056SOL    HW225068   2.579   1.055   3.453
 8057SOL     OW25069   2.798   2.323   2.921
 8057SOL    HW125070   2.700   2.307   2.925
 8057SOL    HW225071   2.816   2.404   2.864
 8058SOL     OW25072   3.592   0.208   2.959
 8058SOL    HW125073   3.601   0.138   3.030
 8058SOL    HW225074   3.657   0.191   2.885
 8059SOL     OW25075   3.168   1.820   5.224
 8059SOL    HW125076   3.263   1.822   5.255
 8059SOL    HW225077   3.149   1.734   5.178
 8060SOL     OW25078   6.230   2.143   5.272
 8060SOL    HW125079   6.145   2.116   5.319
 8060SOL    HW225080   6.309   2.111   5.325
 8061SOL     OW25081   0.193   0.811   3.211
 8061SOL    HW125082   0.154   0.901   3.229
 8061SOL    HW225083   0.249   0.782   3.289
 8062SOL     OW25084   4.040   5.045   3.912
 8062SOL    HW125085   3.954   5.094   3.897
 8062SOL    HW225086   4.027   4.976   3.983
 8063SOL     OW25087   1.617   2.312   1.750
 8063SOL    HW125088   1.642   2.371   1.674
 8063SOL    HW225089   1.652   2.220   1.734
 8064SOL     OW25090   6.778   3.230   1.817
 8064SOL    HW125091   6.872   3.222   1.783
 8064SOL    HW225092   6.749   3.326   1.815
 8065SOL     OW25093   2.713   5.388   3.791
 8065SOL    HW125094   2.648   5.372   3.717
 8065SOL    HW225095   2.669   5.440   3.864
 8066SOL     OW25096   0.883   1.674   5.258
 8066SOL    HW125097   0.973   1.717   5.258
 8066SOL    HW225098   0.861   1.643   5.165
 8067SOL     OW25099   4.704   2.748   2.271
 8067SOL    HW125100   4.660   2.827   2.314
 8067SOL    HW225101   4.798   2.741   2.304
 8068SOL     OW25102   0.295   3.816   1.470
 8068SOL    HW125103   0.259   3.909   1.462
 8068SOL    HW225104   0.322   3.783   1.380
 8069SOL     OW25105   2.917   6.124   1.421
 8069SOL    HW125106   2.870   6.047   1.463
 8069SOL    HW225107   2.857   6.204   1.421
 8070SOL     OW25108   4.342   3.585   0.276
 8070SOL    HW125109   4.393   3.543   0.201
 8070SOL    HW225110   4.397   3.584   0.359
 8071SOL     OW25111   3.116   6.321   4.463
 8071SOL    HW125112   3.028   6.289   4.498
 8071SOL    HW225113   3.120   6.421   4.470
 8072SOL     OW25114   4.181   1.900   0.782
 8072SOL    HW125115   4.170   1.982   0.838
 8072SOL    HW225116   4.134   1.913   0.694
 8073SOL     OW25117   3.082   5.401   4.927
 8073SOL    HW125118   3.173   5.400   4.968
 8073SOL    HW225119   3.075   5.327   4.859
 8074SOL     OW25120   3.415   2.778   0.634
 8074SOL    HW125121   3.460   2.866   0.650
 8074SOL    HW225122   3.334   2.770   0.693
 8075SOL     OW25123   6.960   0.321   0.628
 8075SOL    HW125124   6.903   0.401   0.612
 8075SOL    HW225125   6.904   0.245   0.659
 8076SOL     OW25126   6.300   1.466   5.391
 8076SOL    HW125127   6.324   1.560   5.366
 8076SOL    HW225128   6.251   1.422   5.316
 8077SOL     OW25129   3.232   6.489   2.746
 8077SOL    HW125130   3.217   6.391   2.759
 8077SOL    HW225131   3.329   6.508   2.738
 8078SOL     OW25132   0.324   1.930   0.308
 8078SOL    HW125133   0.257   1.865   0.273
 8078SOL    HW225134   0.401   1.881   0.348
 8079SOL     OW25135   5.334   2.165   3.845
 8079SOL    HW125136   5.370   2.072   3.834
 8079SOL    HW225137   5.237   2.166   3.824
 8080SOL     OW25138   1.275   2.447   1.251
 8080SOL    HW125139   1.232   2.500   1.177
 8080SOL    HW225140   1.374   2.458   1.245
 8081SOL     OW25141   6.146   6.085   5.695
 8081SOL    HW125142   6.101   6.161   5.649
 8081SOL    HW225143   6.103   5.999   5.668
 8082SOL     OW25144   4.681   0.083   2.806
 8082SOL    HW125145   4.643   0.118   2.720
 8082SOL    HW225146   4.780   0.075   2.799
 8083SOL     OW25147   5.029   2.961   3.280
 8083SOL    HW125148   4.952   3.022   3.261
 8083SOL    HW225149   5.025   2.882   3.219
 8084SOL     OW25150   3.932   6.689   0.313
 8084SOL    HW125151   3.931   6.775   0.260
 8084SOL    HW225152   3.842   6.673   0.353
 8085SOL     OW25153   6.846   6.264   2.180
 8085SOL    HW125154   6.843   6.307   2.270
 8085SOL    HW225155   6.934   6.217   2.168
 8086SOL     OW25156   5.798   0.438   2.662
 8086SOL    HW125157   5.836   0.350   2.689
 8086SOL    HW225158   5.794   0.444   2.562
 8087SOL     OW25159   2.828   0.993   0.044
 8087SOL    HW125160   2.876   0.923   7.015
 8087SOL    HW225161   2.743   0.955   0.080
 8088SOL     OW25162   5.636   2.296   1.402
 8088SOL    HW125163   5.620   2.281   1.499
 8088SOL    HW225164   5.731   2.278   1.380
 8089SOL     OW25165   5.728   2.552   0.383
 8089SOL    HW125166   5.747   2.518   0.291
 8089SOL    HW225167   5.806   2.534   0.443
 8090SOL     OW25168   4.423   2.019   0.194
 8090SOL    HW125169   4.456   1.948   0.132
 8090SOL    HW225170   4.489   2.094   0.197
 8091SOL     OW25171   2.177   3.510   5.116
 8091SOL    HW125172   2.229   3.431   5.150
 8091SOL    HW225173   2.208   3.535   5.025
 8092SOL     OW25174   5.086   1.657   4.821
 8092SOL    HW125175   5.096   1.750   4.857
 8092SOL    HW225176   4.993   1.646   4.784
 8093SOL     OW25177   4.011   5.591   2.644
 8093SOL    HW125178   4.069   5.654   2.695
 8093SOL    HW225179   4.052   5.573   2.555
 8094SOL     OW25180   0.927   3.426   4.553
 8094SOL    HW125181   0.841   3.459   4.514
 8094SOL    HW225182   0.971   3.500   4.604
 8095SOL     OW25183   0.453   4.347   4.821
 8095SOL    HW125184   0.411   4.401   4.894
 8095SOL    HW225185   0.458   4.252   4.849
 8096SOL     OW25186   2.205   6.596   3.397
 8096SOL    HW125187   2.208   6.661   3.473
 8096SOL    HW225188   2.111   6.585   3.365
 8097SOL     OW25189   4.122   0.273   4.398
 8097SOL    HW125190   4.024   0.258   4.383
 8097SOL    HW225191   4.173   0.241   4.318
 8098SOL     OW25192   1.610   6.802   3.061
 8098SOL    HW125193   1.631   6.788   3.158
 8098SOL    HW225194   1.615   6.715   3.012
 8099SOL     OW25195   3.884   6.723   4.631
 8099SOL    HW125196   3.942   6.790   4.677
 8099SOL    HW225197   3.789   6.736   4.659
 8100SOL     OW25198   6.321   1.036   0.867
 8100SOL    HW125199   6.411   1.076   0.852
 8100SOL    HW225200   6.266   1.042   0.784
 8101SOL     OW25201   2.000   6.309   2.119
 8101SOL    HW125202   2.088   6.347   2.147
 8101SOL    HW225203   1.999   6.294   2.021
 8102SOL     OW25204   0.892   4.124   3.937
 8102SOL    HW125205   0.840   4.167   3.864
 8102SOL    HW225206   0.970   4.182   3.962
 8103SOL     OW25207   2.994   6.982   1.073
 8103SOL    HW125208   2.924   0.023   1.103
 8103SOL    HW225209   3.064   0.007   1.020
 8104SOL     OW25210   3.629   0.724   5.789
 8104SOL    HW125211   3.619   0.710   5.690
 8104SOL    HW225212   3.687   0.652   5.827
 8105SOL     OW25213   1.058   2.922   3.130
 8105SOL    HW125214   1.029   3.018   3.139
 8105SOL    HW225215   1.057   2.896   3.033
 8106SOL     OW25216   2.318   6.249   2.910
 8106SOL    HW125217   2.242   6.216   2.966
 8106SOL    HW225218   2.326   6.192   2.828
 8107SOL     OW25219   0.488   5.058   4.737
 8107SOL    HW125220   0.436   4.990   4.686
 8107SOL    HW225221   0.425   5.119   4.785
 8108SOL     OW25222   6.308   2.854   5.680
 8108SOL    HW125223   6.363   2.930   5.647
 8108SOL    HW225224   6.225   2.889   5.724
 8109SOL     OW25225   0.825   3.843   5.063
 8109SOL    HW125226   0.810   3.833   4.965
 8109SOL    HW225227   0.900   3.783   5.092
 8110SOL     OW25228   3.089   6.145   1.136
 8110SOL    HW125229   3.188   6.147   1.148
 8110SOL    HW225230   3.045   6.108   1.217
 8111SOL     OW25231   4.973   0.743   4.729
 8111SOL    HW125232   4.992   0.770   4.823
 8111SOL    HW225233   4.930   0.819   4.680
 8112SOL     OW25234   1.843   2.354   4.256
 8112SOL    HW125235   1.887   2.264   4.251
 8112SOL    HW225236   1.877   2.411   4.180
 8113SOL     OW25237   2.261   3.389   0.884
 8113SOL    HW125238   2.352   3.363   0.916
 8113SOL    HW225239   2.269   3.444   0.801
 8114SOL     OW25240   1.464   3.857   2.948
 8114SOL    HW125241   1.478   3.808   2.862
 8114SOL    HW225242   1.464   3.792   3.024
 8115SOL     OW25243   3.904   0.511   0.284
 8115SOL    HW125244   3.991   0.489   0.239
 8115SOL    HW225245   3.921   0.574   0.360
 8116SOL     OW25246   4.750   5.253   5.927
 8116SOL    HW125247   4.809   5.174   5.942
 8116SOL    HW225248   4.787   5.332   5.977
 8117SOL     OW25249   1.683   0.600   3.491
 8117SOL    HW125250   1.718   0.574   3.401
 8117SOL    HW225251   1.622   0.679   3.481
 8118SOL     OW25252   5.557   4.510   5.340
 8118SOL    HW125253   5.530   4.530   5.246
 8118SOL    HW225254   5.549   4.412   5.357
 8119SOL     OW25255   5.191   5.289   6.232
 8119SOL    HW125256   5.214   5.243   6.146
 8119SOL    HW225257   5.157   5.222   6.298
 8120SOL     OW25258   3.026   4.984   0.720
 8120SOL    HW125259   2.976   4.946   0.798
 8120SOL    HW225260   2.962   5.014   0.650
 8121SOL     OW25261   0.287   5.069   1.837
 8121SOL    HW125262   0.321   5.065   1.742
 8121SOL    HW225263   0.258   5.162   1.858
 8122SOL     OW25264   1.256   5.154   2.788
 8122SOL    HW125265   1.260   5.167   2.887
 8122SOL    HW225266   1.182   5.211   2.750
 8123SOL     OW25267   6.592   0.741   6.219
 8123SOL    HW125268   6.628   0.648   6.224
 8123SOL    HW225269   6.624   0.793   6.298
 8124SOL     OW25270   5.719   6.686   1.352
 8124SOL    HW125271   5.653   6.758   1.373
 8124SOL    HW225272   5.806   6.726   1.326
 8125SOL     OW25273   1.049   1.431   3.570
 8125SOL    HW125274   1.010   1.522   3.585
 8125SOL    HW225275   1.010   1.392   3.486
 8126SOL     OW25276   4.880   4.742   2.598
 8126SOL    HW125277   4.924   4.810   2.656
 8126SOL    HW225278   4.950   4.695   2.543
 8127SOL     OW25279   2.759   4.940   6.362
 8127SOL    HW125280   2.833   4.883   6.397
 8127SOL    HW225281   2.775   5.035   6.390
 8128SOL     OW25282   2.473   1.383   1.804
 8128SOL    HW125283   2.485   1.389   1.705
 8128SOL    HW225284   2.513   1.297   1.836
 8129SOL     OW25285   4.284   0.763   6.500
 8129SOL    HW125286   4.337   0.720   6.427
 8129SOL    HW225287   4.196   0.793   6.463
 8130SOL     OW25288   6.878   3.253   6.515
 8130SOL    HW125289   6.849   3.255   6.611
 8130SOL    HW225290   6.977   3.246   6.510
 8131SOL     OW25291   3.180   1.810   0.731
 8131SOL    HW125292   3.231   1.876   0.785
 8131SOL    HW225293   3.128   1.857   0.659
 8132SOL     OW25294   6.091   0.009   6.283
 8132SOL    HW125295   6.085   0.030   6.185
 8132SOL    HW225296   6.137   6.945   6.295
 8133SOL     OW25297   3.045   4.928   1.700
 8133SOL    HW125298   3.054   4.860   1.627
 8133SOL    HW225299   3.048   4.883   1.789
 8134SOL     OW25300   6.911   2.857   5.466
 8134SOL    HW125301   6.985   2.848   5.400
 8134SOL    HW225302   6.932   2.803   5.547
 8135SOL     OW25303   2.866   6.145   1.829
 8135SOL    HW125304   2.780   6.122   1.874
 8135SOL    HW225305   2.937   6.080   1.860
 8136SOL     OW25306   4.606   5.463   2.914
 8136SOL    HW125307   4.523   5.417   2.882
 8136SOL    HW225308   4.657   5.497   2.835
 8137SOL     OW25309   3.447   1.649   5.495
 8137SOL    HW125310   3.484   1.700   5.417
 8137SOL    HW225311   3.369   1.595   5.466
 8138SOL     OW25312   5.943   1.376   6.734
 8138SOL    HW125313   5.989   1.323   6.806
 8138SOL    HW225314   5.926   1.469   6.767
 8139SOL     OW25315   0.024   1.246   2.935
 8139SOL    HW125316   0.025   1.281   3.029
 8139SOL    HW225317   0.095   1.177   2.924
 8140SOL     OW25318   4.826   0.476   1.112
 8140SOL    HW125319   4.905   0.426   1.076
 8140SOL    HW225320   4.853   0.569   1.134
 8141SOL     OW25321   4.940   6.737   5.112
 8141SOL    HW125322   4.899   6.821   5.150
 8141SOL    HW225323   5.038   6.752   5.097
 8142SOL     OW25324   1.163   5.089   6.614
 8142SOL    HW125325   1.097   5.029   6.659
 8142SOL    HW225326   1.219   5.134   6.683
 8143SOL     OW25327   6.739   4.556   1.182
 8143SOL    HW125328   6.762   4.596   1.094
 8143SOL    HW225329   6.651   4.591   1.213
 8144SOL     OW25330   6.552   6.718   6.351
 8144SOL    HW125331   6.651   6.729   6.348
 8144SOL    HW225332   6.529   6.639   6.408
 8145SOL     OW25333   5.649   5.617   1.622
 8145SOL    HW125334   5.599   5.598   1.707
 8145SOL    HW225335   5.741   5.648   1.643
 8146SOL     OW25336   4.707   0.624   4.439
 8146SOL    HW125337   4.723   0.530   4.466
 8146SOL    HW225338   4.752   0.686   4.504
 8147SOL     OW25339   6.415   1.648   1.802
 8147SOL    HW125340   6.320   1.667   1.826
 8147SOL    HW225341   6.444   1.709   1.728
 8148SOL     OW25342   4.863   4.279   0.439
 8148SOL    HW125343   4.945   4.320   0.401
 8148SOL    HW225344   4.817   4.224   0.369
 8149SOL     OW25345   3.081   6.550   2.523
 8149SOL    HW125346   3.126   6.528   2.610
 8149SOL    HW225347   3.036   6.468   2.487
 8150SOL     OW25348   2.279   4.184   1.200
 8150SOL    HW125349   2.261   4.136   1.114
 8150SOL    HW225350   2.279   4.118   1.275
 8151SOL     OW25351   5.707   3.480   2.054
 8151SOL    HW125352   5.698   3.437   1.964
 8151SOL    HW225353   5.658   3.425   2.122
 8152SOL     OW25354   6.599   2.464   2.545
 8152SOL    HW125355   6.547   2.481   2.461
 8152SOL    HW225356   6.603   2.548   2.599
 8153SOL     OW25357   1.654   0.081   3.404
 8153SOL    HW125358   1.639   7.020   3.456
 8153SOL    HW225359   1.635   0.159   3.464
 8154SOL     OW25360   3.529   5.411   1.930
 8154SOL    HW125361   3.475   5.366   2.001
 8154SOL    HW225362   3.473   5.481   1.886
 8155SOL     OW25363   1.754   3.302   2.278
 8155SOL    HW125364   1.708   3.297   2.367
 8155SOL    HW225365   1.715   3.377   2.224
 8156SOL     OW25366   5.642   6.507   0.987
 8156SOL    HW125367   5.561   6.556   0.955
 8156SOL    HW225368   5.615   6.443   1.060
 8157SOL     OW25369   6.561   5.186   6.183
 8157SOL    HW125370   6.533   5.119   6.252
 8157SOL    HW225371   6.589   5.271   6.228
 8158SOL     OW25372   5.121   4.984   0.606
 8158SOL    HW125373   5.167   4.943   0.527
 8158SOL    HW225374   5.155   4.941   0.690
 8159SOL     OW25375   2.714   5.973   2.966
 8159SOL    HW125376   2.689   6.041   2.898
 8159SOL    HW225377   2.659   5.986   3.049
 8160SOL     OW25378   5.116   0.734   3.422
 8160SOL    HW125379   5.143   0.696   3.334
 8160SOL    HW225380   5.101   0.660   3.487
 8161SOL     OW25381   5.961   2.087   6.562
 8161SOL    HW125382   6.056   2.111   6.584
 8161SOL    HW225383   5.899   2.138   6.622
 8162SOL     OW25384   5.547   6.559   6.658
 8162SOL    HW125385   5.645   6.543   6.648
 8162SOL    HW225386   5.497   6.478   6.628
 8163SOL     OW25387   2.734   3.955   5.286
 8163SOL    HW125388   2.792   3.971   5.206
 8163SOL    HW225389   2.638   3.968   5.260
 8164SOL     OW25390   5.385   2.613   0.542
 8164SOL    HW125391   5.434   2.633   0.627
 8164SOL    HW225392   5.430   2.659   0.465
 8165SOL     OW25393   0.902   3.368   6.628
 8165SOL    HW125394   0.997   3.375   6.598
 8165SOL    HW225395   0.884   3.275   6.661
 8166SOL     OW25396   1.397   0.415   2.849
 8166SOL    HW125397   1.474   0.394   2.789
 8166SOL    HW225398   1.333   0.476   2.802
 8167SOL     OW25399   6.552   6.850   4.381
 8167SOL    HW125400   6.484   6.894   4.439
 8167SOL    HW225401   6.580   6.912   4.308
 8168SOL     OW25402   1.805   1.930   3.487
 8168SOL    HW125403   1.777   1.853   3.430
 8168SOL    HW225404   1.807   2.013   3.432
 8169SOL     OW25405   4.947   2.238   0.820
 8169SOL    HW125406   4.864   2.234   0.876
 8169SOL    HW225407   5.005   2.160   0.840
 8170SOL     OW25408   1.262   4.741   2.567
 8170SOL    HW125409   1.202   4.697   2.634
 8170SOL    HW225410   1.305   4.672   2.510
 8171SOL     OW25411   1.415   1.914   6.367
 8171SOL    HW125412   1.329   1.926   6.418
 8171SOL    HW225413   1.395   1.898   6.271
 8172SOL     OW25414   0.995   1.856   2.210
 8172SOL    HW125415   1.039   1.845   2.299
 8172SOL    HW225416   1.043   1.926   2.157
 8173SOL     OW25417   5.025   0.969   2.181
 8173SOL    HW125418   4.973   0.923   2.109
 8173SOL    HW225419   5.114   0.926   2.191
 8174SOL     OW25420   5.991   2.903   0.860
 8174SOL    HW125421   5.941   2.964   0.921
 8174SOL    HW225422   5.937   2.821   0.842
 8175SOL     OW25423   6.753   2.530   5.662
 8175SOL    HW125424   6.735   2.472   5.741
 8175SOL    HW225425   6.673   2.586   5.643
 8176SOL     OW25426   2.851   5.148   1.789
 8176SOL    HW125427   2.862   5.114   1.696
 8176SOL    HW225428   2.798   5.233   1.788
 8177SOL     OW25429   3.388   6.497   3.889
 8177SOL    HW125430   3.343   6.567   3.944
 8177SOL    HW225431   3.433   6.431   3.949
 8178SOL     OW25432   2.779   5.959   6.512
 8178SOL    HW125433   2.803   5.981   6.418
 8178SOL    HW225434   2.850   5.995   6.574
 8179SOL     OW25435   5.073   2.066   5.691
 8179SOL    HW125436   5.126   2.039   5.610
 8179SOL    HW225437   5.040   1.985   5.738
 8180SOL     OW25438   6.641   0.321   4.723
 8180SOL    HW125439   6.690   0.317   4.811
 8180SOL    HW225440   6.706   0.301   4.649
 8181SOL     OW25441   1.811   1.187   0.624
 8181SOL    HW125442   1.811   1.234   0.536
 8181SOL    HW225443   1.887   1.220   0.680
 8182SOL     OW25444   3.811   3.419   5.624
 8182SOL    HW125445   3.854   3.446   5.539
 8182SOL    HW225446   3.879   3.382   5.686
 8183SOL     OW25447   6.852   2.151   5.009
 8183SOL    HW125448   6.814   2.205   4.935
 8183SOL    HW225449   6.842   2.201   5.095
 8184SOL     OW25450   5.798   1.406   6.446
 8184SOL    HW125451   5.763   1.312   6.443
 8184SOL    HW225452   5.859   1.417   6.524
 8185SOL     OW25453   2.428   6.445   0.467
 8185SOL    HW125454   2.505   6.445   0.530
 8185SOL    HW225455   2.462   6.438   0.373
 8186SOL     OW25456   3.731   5.840   5.192
 8186SOL    HW125457   3.763   5.902   5.264
 8186SOL    HW225458   3.639   5.867   5.163
 8187SOL     OW25459   1.583   2.480   5.376
 8187SOL    HW125460   1.678   2.452   5.379
 8187SOL    HW225461   1.578   2.579   5.363
 8188SOL     OW25462   5.584   3.158   2.974
 8188SOL    HW125463   5.567   3.217   3.052
 8188SOL    HW225464   5.682   3.141   2.966
 8189SOL     OW25465   4.642   4.844   2.512
 8189SOL    HW125466   4.584   4.770   2.478
 8189SOL    HW225467   4.736   4.812   2.521
 8190SOL     OW25468   4.410   4.933   3.958
 8190SOL    HW125469   4.396   5.029   3.986
 8190SOL    HW225470   4.325   4.898   3.918
 8191SOL     OW25471   3.749   6.664   2.053
 8191SOL    HW125472   3.697   6.582   2.079
 8191SOL    HW225473   3.751   6.671   1.953
 8192SOL     OW25474   3.877   5.043   0.615
 8192SOL    HW125475   3.811   5.065   0.687
 8192SOL    HW225476   3.955   5.106   0.621
 8193SOL     OW25477   6.997   6.254   4.430
 8193SOL    HW125478   6.980   6.326   4.497
 8193SOL    HW225479   6.972   6.165   4.469
 8194SOL     OW25480   5.819   2.568   0.983
 8194SOL    HW125481   5.845   2.590   1.077
 8194SOL    HW225482   5.785   2.474   0.979
 8195SOL     OW25483   1.573   0.009   1.680
 8195SOL    HW125484   1.547   0.028   1.585
 8195SOL    HW225485   1.527   6.950   1.711
 8196SOL     OW25486   3.739   6.480   5.814
 8196SOL    HW125487   3.650   6.468   5.769
 8196SOL    HW225488   3.801   6.527   5.751
 8197SOL     OW25489   4.455   1.692   6.559
 8197SOL    HW125490   4.447   1.698   6.659
 8197SOL    HW225491   4.412   1.772   6.517
 8198SOL     OW25492   3.747   6.712   3.347
 8198SOL    HW125493   3.667   6.713   3.408
 8198SOL    HW225494   3.831   6.716   3.401
 8199SOL     OW25495   5.700   2.790   6.495
 8199SOL    HW125496   5.622   2.814   6.437
 8199SOL    HW225497   5.783   2.831   6.458
 8200SOL     OW25498   4.857   3.896   1.504
 8200SOL    HW125499   4.805   3.848   1.434
 8200SOL    HW225500   4.942   3.932   1.464
 8201SOL     OW25501   5.741   0.395   3.742
 8201SOL    HW125502   5.699   0.334   3.809
 8201SOL    HW225503   5.776   0.340   3.665
 8202SOL     OW25504   7.000   5.878   4.831
 8202SOL    HW125505   6.921   5.936   4.851
 8202SOL    HW225506   0.039   5.879   4.908
 8203SOL     OW25507   4.624   2.197   0.175
 8203SOL    HW125508   4.643   2.295   0.168
 8203SOL    HW225509   4.692   2.145   0.123
 8204SOL     OW25510   3.095   5.351   6.855
 8204SOL    HW125511   3.057   5.413   6.787
 8204SOL    HW225512   3.194   5.341   6.840
 8205SOL     OW25513   0.475   4.635   0.741
 8205SOL    HW125514   0.425   4.560   0.785
 8205SOL    HW225515   0.553   4.661   0.797
 8206SOL     OW25516   4.787   2.700   6.303
 8206SOL    HW125517   4.750   2.689   6.395
 8206SOL    HW225518   4.756   2.624   6.245
 8207SOL     OW25519   3.820   3.872   5.455
 8207SOL    HW125520   3.897   3.902   5.400
 8207SOL    HW225521   3.740   3.929   5.436
 8208SOL     OW25522   1.701   6.945   1.305
 8208SOL    HW125523   1.721   6.847   1.298
 8208SOL    HW225524   1.767   6.988   1.367
 8209SOL     OW25525   0.833   1.428   5.575
 8209SOL    HW125526   0.770   1.483   5.631
 8209SOL    HW225527   0.924   1.469   5.578
 8210SOL     OW25528   2.788   0.590   0.809
 8210SOL    HW125529   2.826   0.606   0.900
 8210SOL    HW225530   2.847   0.526   0.759
 8211SOL     OW25531   3.917   3.963   2.512
 8211SOL    HW125532   3.870   3.951   2.425
 8211SOL    HW225533   3.853   3.996   2.581
 8212SOL     OW25534   3.146   1.743   1.022
 8212SOL    HW125535   3.133   1.837   1.053
 8212SOL    HW225536   3.059   1.708   0.987
 8213SOL     OW25537   5.811   4.732   2.174
 8213SOL    HW125538   5.901   4.764   2.145
 8213SOL    HW225539   5.821   4.646   2.225
 8214SOL     OW25540   0.349   5.782   4.249
 8214SOL    HW125541   0.388   5.813   4.162
 8214SOL    HW225542   0.251   5.762   4.236
 8215SOL     OW25543   3.088   6.013   6.354
 8215SOL    HW125544   3.187   6.008   6.337
 8215SOL    HW225545   3.040   5.954   6.289
 8216SOL     OW25546   5.153   6.127   3.562
 8216SOL    HW125547   5.096   6.208   3.544
 8216SOL    HW225548   5.107   6.046   3.526
 8217SOL     OW25549   2.251   3.952   2.110
 8217SOL    HW125550   2.195   3.876   2.079
 8217SOL    HW225551   2.314   3.979   2.038
 8218SOL     OW25552   0.998   6.632   5.132
 8218SOL    HW125553   0.914   6.579   5.144
 8218SOL    HW225554   1.053   6.591   5.059
 8219SOL     OW25555   3.675   2.996   0.963
 8219SOL    HW125556   3.706   3.037   1.049
 8219SOL    HW225557   3.716   2.906   0.953
 8220SOL     OW25558   3.320   3.829   4.997
 8220SOL    HW125559   3.238   3.775   4.975
 8220SOL    HW225560   3.337   3.895   4.924
 8221SOL     OW25561   6.395   5.501   3.075
 8221SOL    HW125562   6.349   5.464   3.156
 8221SOL    HW225563   6.398   5.601   3.081
 8222SOL     OW25564   5.030   1.879   1.391
 8222SOL    HW125565   5.101   1.869   1.461
 8222SOL    HW225566   5.020   1.793   1.341
 8223SOL     OW25567   0.960   4.330   5.192
 8223SOL    HW125568   1.015   4.383   5.257
 8223SOL    HW225569   0.886   4.284   5.241
 8224SOL     OW25570   5.469   2.457   1.997
 8224SOL    HW125571   5.518   2.494   2.076
 8224SOL    HW225572   5.522   2.473   1.914
 8225SOL     OW25573   3.937   1.245   1.483
 8225SOL    HW125574   3.870   1.251   1.409
 8225SOL    HW225575   4.011   1.183   1.456
 8226SOL     OW25576   3.374   6.913   0.244
 8226SOL    HW125577   3.414   6.995   0.203
 8226SOL    HW225578   3.409   6.832   0.195
 8227SOL     OW25579   0.199   1.006   2.868
 8227SOL    HW125580   0.162   0.914   2.872
 8227SOL    HW225581   0.251   1.019   2.784
 8228SOL     OW25582   0.771   1.398   6.478
 8228SOL    HW125583   0.687   1.359   6.518
 8228SOL    HW225584   0.801   1.340   6.403
 8229SOL     OW25585   3.672   4.041   1.285
 8229SOL    HW125586   3.609   4.118   1.274
 8229SOL    HW225587   3.646   3.967   1.224
 8230SOL     OW25588   3.998   0.057   5.265
 8230SOL    HW125589   3.969   0.102   5.180
 8230SOL    HW225590   3.977   6.984   5.260
 8231SOL     OW25591   3.029   2.628   1.449
 8231SOL    HW125592   2.973   2.634   1.532
 8231SOL    HW225593   3.028   2.534   1.415
 8232SOL     OW25594   5.912   1.609   2.448
 8232SOL    HW125595   5.866   1.546   2.511
 8232SOL    HW225596   5.968   1.673   2.501
 8233SOL     OW25597   1.505   0.027   6.749
 8233SOL    HW125598   1.436   7.005   6.692
 8233SOL    HW225599   1.480   0.015   6.845
 8234SOL     OW25600   3.141   4.109   0.105
 8234SOL    HW125601   3.117   4.016   0.132
 8234SOL    HW225602   3.127   4.120   0.006
 8235SOL     OW25603   0.388   3.654   6.733
 8235SOL    HW125604   0.292   3.683   6.732
 8235SOL    HW225605   0.397   3.567   6.684
 8236SOL     OW25606   6.946   4.623   6.856
 8236SOL    HW125607   6.885   4.690   6.896
 8236SOL    HW225608   0.003   4.613   6.913
 8237SOL     OW25609   4.834   6.478   6.058
 8237SOL    HW125610   4.777   6.467   5.976
 8237SOL    HW225611   4.906   6.545   6.039
 8238SOL     OW25612   0.582   5.600   6.950
 8238SOL    HW125613   0.675   5.598   6.913
 8238SOL    HW225614   0.548   5.506   6.959
 8239SOL     OW25615   0.602   0.849   5.146
 8239SOL    HW125616   0.574   0.945   5.154
 8239SOL    HW225617   0.647   0.835   5.058
 8240SOL     OW25618   3.128   4.041   2.975
 8240SOL    HW125619   3.117   4.136   2.946
 8240SOL    HW225620   3.219   4.009   2.950
 8241SOL     OW25621   2.600   4.904   5.804
 8241SOL    HW125622   2.520   4.874   5.856
 8241SOL    HW225623   2.681   4.901   5.863
 8242SOL     OW25624   0.652   3.618   5.316
 8242SOL    HW125625   0.676   3.667   5.400
 8242SOL    HW225626   0.563   3.649   5.284
 8243SOL     OW25627   7.005   3.503   1.162
 8243SOL    HW125628   6.976   3.599   1.161
 8243SOL    HW225629   6.950   3.452   1.229
 8244SOL     OW25630   0.502   0.008   3.333
 8244SOL    HW125631   0.570   0.050   3.273
 8244SOL    HW225632   0.496   6.934   3.315
 8245SOL     OW25633   3.347   2.131   2.876
 8245SOL    HW125634   3.374   2.158   2.968
 8245SOL    HW225635   3.251   2.102   2.877
 8246SOL     OW25636   0.166   3.780   6.438
 8246SOL    HW125637   0.182   3.822   6.528
 8246SOL    HW225638   0.251   3.738   6.406
 8247SOL     OW25639   1.957   6.608   3.286
 8247SOL    HW125640   1.987   6.613   3.191
 8247SOL    HW225641   1.958   6.700   3.326
 8248SOL     OW25642   0.717   4.408   4.755
 8248SOL    HW125643   0.622   4.414   4.786
 8248SOL    HW225644   0.778   4.421   4.832
 8249SOL     OW25645   2.100   1.560   5.855
 8249SOL    HW125646   2.002   1.560   5.834
 8249SOL    HW225647   2.151   1.592   5.775
 8250SOL     OW25648   2.374   1.933   1.335
 8250SOL    HW125649   2.441   1.983   1.390
 8250SOL    HW225650   2.399   1.940   1.239
 8251SOL     OW25651   5.428   1.929   4.380
 8251SOL    HW125652   5.442   1.993   4.304
 8251SOL    HW225653   5.517   1.908   4.422
 8252SOL     OW25654   4.220   2.075   6.685
 8252SOL    HW125655   4.260   2.007   6.746
 8252SOL    HW225656   4.225   2.165   6.728
 8253SOL     OW25657   3.811   5.854   5.798
 8253SOL    HW125658   3.797   5.950   5.771
 8253SOL    HW225659   3.884   5.848   5.865
 8254SOL     OW25660   4.959   4.749   5.709
 8254SOL    HW125661   4.875   4.797   5.734
 8254SOL    HW225662   5.024   4.754   5.784
 8255SOL     OW25663   1.254   6.633   5.560
 8255SOL    HW125664   1.202   6.666   5.480
 8255SOL    HW225665   1.199   6.567   5.610
 8256SOL     OW25666   6.853   6.223   2.792
 8256SOL    HW125667   6.896   6.261   2.873
 8256SOL    HW225668   6.919   6.167   2.742
 8257SOL     OW25669   5.354   3.989   3.140
 8257SOL    HW125670   5.375   3.903   3.185
 8257SOL    HW225671   5.255   3.999   3.130
 8258SOL     OW25672   4.677   2.610   2.015
 8258SOL    HW125673   4.669   2.675   1.940
 8258SOL    HW225674   4.680   2.659   2.102
 8259SOL     OW25675   3.524   2.326   5.388
 8259SOL    HW125676   3.458   2.401   5.381
 8259SOL    HW225677   3.478   2.239   5.366
 8260SOL     OW25678   2.322   6.794   1.667
 8260SOL    HW125679   2.284   6.708   1.701
 8260SOL    HW225680   2.283   6.870   1.719
 8261SOL     OW25681   4.948   6.456   3.274
 8261SOL    HW125682   4.854   6.433   3.248
 8261SOL    HW225683   4.954   6.555   3.292
 8262SOL     OW25684   1.116   4.965   0.392
 8262SOL    HW125685   1.124   4.885   0.451
 8262SOL    HW225686   1.201   5.018   0.396
 8263SOL     OW25687   0.108   3.166   6.526
 8263SOL    HW125688   0.096   3.091   6.591
 8263SOL    HW225689   0.142   3.131   6.439
 8264SOL     OW25690   0.911   6.455   1.491
 8264SOL    HW125691   0.958   6.533   1.450
 8264SOL    HW225692   0.955   6.431   1.578
 8265SOL     OW25693   5.331   0.450   2.016
 8265SOL    HW125694   5.410   0.511   2.017
 8265SOL    HW225695   5.359   0.359   2.047
 8266SOL     OW25696   2.283   1.053   4.014
 8266SOL    HW125697   2.187   1.060   3.988
 8266SOL    HW225698   2.334   1.130   3.976
 8267SOL     OW25699   1.275   3.932   1.801
 8267SOL    HW125700   1.345   3.948   1.871
 8267SOL    HW225701   1.219   4.014   1.791
 8268SOL     OW25702   3.291   5.553   6.340
 8268SOL    HW125703   3.289   5.465   6.387
 8268SOL    HW225704   3.289   5.627   6.407
 8269SOL     OW25705   4.784   2.895   3.083
 8269SOL    HW125706   4.840   2.889   3.000
 8269SOL    HW225707   4.791   2.987   3.120
 8270SOL     OW25708   3.022   5.604   5.091
 8270SOL    HW125709   3.048   5.533   5.025
 8270SOL    HW225710   2.993   5.686   5.041
 8271SOL     OW25711   6.498   6.685   3.253
 8271SOL    HW125712   6.446   6.600   3.247
 8271SOL    HW225713   6.450   6.758   3.205
 8272SOL     OW25714   6.642   1.379   2.711
 8272SOL    HW125715   6.571   1.329   2.663
 8272SOL    HW225716   6.713   1.407   2.647
 8273SOL     OW25717   3.300   0.904   0.372
 8273SOL    HW125718   3.293   1.001   0.396
 8273SOL    HW225719   3.312   0.850   0.456
 8274SOL     OW25720   4.567   5.574   5.008
 8274SOL    HW125721   4.497   5.515   4.968
 8274SOL    HW225722   4.574   5.658   4.953
 8275SOL     OW25723   5.801   0.660   3.835
 8275SOL    HW125724   5.884   0.662   3.780
 8275SOL    HW225725   5.745   0.582   3.808
 8276SOL     OW25726   6.865   2.478   5.410
 8276SOL    HW125727   6.818   2.504   5.494
 8276SOL    HW225728   6.961   2.504   5.415
 8277SOL     OW25729   1.315   6.036   6.262
 8277SOL    HW125730   1.378   5.968   6.222
 8277SOL    HW225731   1.239   6.052   6.199
 8278SOL     OW25732   3.274   1.488   6.825
 8278SOL    HW125733   3.240   1.516   6.914
 8278SOL    HW225734   3.306   1.568   6.774
 8279SOL     OW25735   6.690   6.417   5.136
 8279SOL    HW125736   6.738   6.445   5.219
 8279SOL    HW225737   6.594   6.444   5.142
 8280SOL     OW25738   3.727   2.433   0.601
 8280SOL    HW125739   3.697   2.480   0.519
 8280SOL    HW225740   3.664   2.454   0.676
 8281SOL     OW25741   2.218   4.691   1.881
 8281SOL    HW125742   2.277   4.633   1.825
 8281SOL    HW225743   2.163   4.750   1.821
 8282SOL     OW25744   3.746   4.150   0.427
 8282SOL    HW125745   3.669   4.122   0.484
 8282SOL    HW225746   3.832   4.134   0.476
 8283SOL     OW25747   1.632   4.691   4.369
 8283SOL    HW125748   1.611   4.788   4.381
 8283SOL    HW225749   1.599   4.640   4.449
 8284SOL     OW25750   1.744   4.137   2.164
 8284SOL    HW125751   1.704   4.056   2.206
 8284SOL    HW225752   1.764   4.205   2.235
 8285SOL     OW25753   4.415   4.054   5.521
 8285SOL    HW125754   4.361   4.138   5.514
 8285SOL    HW225755   4.491   4.058   5.456
 8286SOL     OW25756   5.435   1.781   4.988
 8286SOL    HW125757   5.508   1.720   4.956
 8286SOL    HW225758   5.449   1.872   4.950
 8287SOL     OW25759   0.780   4.932   4.562
 8287SOL    HW125760   0.761   5.007   4.499
 8287SOL    HW225761   0.774   4.966   4.656
 8288SOL     OW25762   1.970   2.497   2.644
 8288SOL    HW125763   1.892   2.548   2.678
 8288SOL    HW225764   1.938   2.416   2.595
 8289SOL     OW25765   6.496   0.222   6.536
 8289SOL    HW125766   6.470   0.232   6.440
 8289SOL    HW225767   6.418   0.243   6.594
 8290SOL     OW25768   4.884   1.717   1.045
 8290SOL    HW125769   4.802   1.772   1.054
 8290SOL    HW225770   4.888   1.678   0.953
 8291SOL     OW25771   5.993   5.399   6.365
 8291SOL    HW125772   5.971   5.469   6.296
 8291SOL    HW225773   5.910   5.376   6.416
 8292SOL     OW25774   2.616   5.309   6.848
 8292SOL    HW125775   2.680   5.234   6.835
 8292SOL    HW225776   2.666   5.395   6.852
 8293SOL     OW25777   2.107   5.059   1.596
 8293SOL    HW125778   2.079   5.153   1.616
 8293SOL    HW225779   2.206   5.051   1.603
 8294SOL     OW25780   6.667   3.606   5.112
 8294SOL    HW125781   6.618   3.587   5.026
 8294SOL    HW225782   6.625   3.685   5.157
 8295SOL     OW25783   4.886   3.560   3.058
 8295SOL    HW125784   4.889   3.658   3.037
 8295SOL    HW225785   4.912   3.508   2.977
 8296SOL     OW25786   3.026   6.174   0.124
 8296SOL    HW125787   3.048   6.250   0.185
 8296SOL    HW225788   3.045   6.087   0.169
 8297SOL     OW25789   6.468   3.069   2.444
 8297SOL    HW125790   6.457   3.084   2.542
 8297SOL    HW225791   6.494   3.155   2.399
 8298SOL     OW25792   6.861   0.608   0.886
 8298SOL    HW125793   6.768   0.583   0.914
 8298SOL    HW225794   6.924   0.535   0.911
 8299SOL     OW25795   0.239   2.976   2.236
 8299SOL    HW125796   0.243   2.953   2.138
 8299SOL    HW225797   0.282   2.903   2.289
 8300SOL     OW25798   0.587   6.871   4.413
 8300SOL    HW125799   0.519   6.910   4.475
 8300SOL    HW225800   0.614   6.781   4.446
 8301SOL     OW25801   4.673   1.164   6.886
 8301SOL    HW125802   4.749   1.179   6.949
 8301SOL    HW225803   4.700   1.099   6.816
 8302SOL     OW25804   5.090   6.897   5.584
 8302SOL    HW125805   5.089   6.918   5.486
 8302SOL    HW225806   4.996   6.891   5.618
 8303SOL     OW25807   6.597   0.427   3.369
 8303SOL    HW125808   6.569   0.490   3.298
 8303SOL    HW225809   6.685   0.387   3.345
 8304SOL     OW25810   5.733   4.811   1.415
 8304SOL    HW125811   5.770   4.903   1.433
 8304SOL    HW225812   5.665   4.816   1.343
 8305SOL     OW25813   4.557   4.879   4.180
 8305SOL    HW125814   4.540   4.923   4.092
 8305SOL    HW225815   4.474   4.836   4.214
 8306SOL     OW25816   6.039   1.472   3.558
 8306SOL    HW125817   6.136   1.485   3.577
 8306SOL    HW225818   6.022   1.376   3.533
 8307SOL     OW25819   3.378   5.538   1.735
 8307SOL    HW125820   3.318   5.611   1.769
 8307SOL    HW225821   3.324   5.454   1.723
 8308SOL     OW25822   2.527   5.948   0.148
 8308SOL    HW125823   2.513   6.035   0.195
 8308SOL    HW225824   2.574   5.884   0.209
 8309SOL     OW25825   6.045   5.617   3.158
 8309SOL    HW125826   5.954   5.658   3.165
 8309SOL    HW225827   6.050   5.563   3.074
 8310SOL     OW25828   1.333   5.083   1.210
 8310SOL    HW125829   1.250   5.027   1.215
 8310SOL    HW225830   1.397   5.052   1.280
 8311SOL     OW25831   6.124   0.936   4.305
 8311SOL    HW125832   6.136   0.883   4.221
 8311SOL    HW225833   6.050   1.002   4.292
 8312SOL     OW25834   5.708   0.697   6.377
 8312SOL    HW125835   5.713   0.610   6.426
 8312SOL    HW225836   5.612   0.716   6.353
 8313SOL     OW25837   5.914   0.603   5.959
 8313SOL    HW125838   5.820   0.635   5.962
 8313SOL    HW225839   5.962   0.633   6.042
 8314SOL     OW25840   6.536   6.980   6.280
 8314SOL    HW125841   6.496   6.978   6.189
 8314SOL    HW225842   6.545   6.887   6.315
 8315SOL     OW25843   3.849   3.096   2.726
 8315SOL    HW125844   3.843   3.106   2.825
 8315SOL    HW225845   3.776   3.036   2.694
 8316SOL     OW25846   1.857   3.379   1.397
 8316SOL    HW125847   1.760   3.354   1.397
 8316SOL    HW225848   1.910   3.309   1.350
 8317SOL     OW25849   1.473   2.421   2.860
 8317SOL    HW125850   1.415   2.432   2.780
 8317SOL    HW225851   1.418   2.386   2.936
 8318SOL     OW25852   4.547   1.457   6.452
 8318SOL    HW125853   4.512   1.401   6.527
 8318SOL    HW225854   4.506   1.548   6.457
 8319SOL     OW25855   1.439   0.653   0.582
 8319SOL    HW125856   1.495   0.597   0.520
 8319SOL    HW225857   1.484   0.741   0.597
 8320SOL     OW25858   3.147   4.024   3.387
 8320SOL    HW125859   3.058   4.003   3.426
 8320SOL    HW225860   3.191   4.097   3.440
 8321SOL     OW25861   0.061   6.998   7.000
 8321SOL    HW125862   0.019   0.024   0.051
 8321SOL    HW225863   7.018   6.936   6.959
 8322SOL     OW25864   6.507   1.541   1.387
 8322SOL    HW125865   6.534   1.497   1.302
 8322SOL    HW225866   6.413   1.514   1.410
 8323SOL     OW25867   3.914   4.832   1.646
 8323SOL    HW125868   3.883   4.862   1.556
 8323SOL    HW225869   3.837   4.834   1.711
 8324SOL     OW25870   5.516   0.665   0.823
 8324SOL    HW125871   5.525   0.762   0.845
 8324SOL    HW225872   5.421   0.637   0.836
 8325SOL     OW25873   1.100   3.654   5.353
 8325SOL    HW125874   1.047   3.739   5.361
 8325SOL    HW225875   1.096   3.621   5.259
 8326SOL     OW25876   4.098   3.671   5.975
 8326SOL    HW125877   4.026   3.709   6.034
 8326SOL    HW225878   4.097   3.571   5.981
 8327SOL     OW25879   0.477   1.008   5.598
 8327SOL    HW125880   0.556   1.022   5.658
 8327SOL    HW225881   0.499   1.043   5.507
 8328SOL     OW25882   2.784   6.493   6.284
 8328SOL    HW125883   2.845   6.428   6.238
 8328SOL    HW225884   2.819   6.512   6.375
 8329SOL     OW25885   0.615   1.983   4.539
 8329SOL    HW125886   0.671   2.058   4.505
 8329SOL    HW225887   0.564   1.942   4.463
 8330SOL     OW25888   3.413   1.244   6.786
 8330SOL    HW125889   3.361   1.167   6.749
 8330SOL    HW225890   3.350   1.320   6.806
 8331SOL     OW25891   3.513   0.592   0.520
 8331SOL    HW125892   3.522   0.492   0.528
 8331SOL    HW225893   3.468   0.614   0.434
 8332SOL     OW25894   5.840   5.424   1.967
 8332SOL    HW125895   5.743   5.402   1.974
 8332SOL    HW225896   5.872   5.463   2.053
 8333SOL     OW25897   1.375   4.815   6.801
 8333SOL    HW125898   1.423   4.777   6.722
 8333SOL    HW225899   1.318   4.744   6.842
 8334SOL     OW25900   3.305   1.639   5.769
 8334SOL    HW125901   3.337   1.719   5.820
 8334SOL    HW225902   3.329   1.649   5.672
 8335SOL     OW25903   4.498   1.365   0.195
 8335SOL    HW125904   4.594   1.364   0.165
 8335SOL    HW225905   4.477   1.280   0.244
 8336SOL     OW25906   0.577   3.860   3.057
 8336SOL    HW125907   0.630   3.839   2.975
 8336SOL    HW225908   0.590   3.957   3.081
 8337SOL     OW25909   0.328   6.641   4.123
 8337SOL    HW125910   0.278   6.721   4.090
 8337SOL    HW225911   0.308   6.562   4.065
 8338SOL     OW25912   3.589   5.369   1.094
 8338SOL    HW125913   3.652   5.436   1.133
 8338SOL    HW225914   3.634   5.280   1.090
 8339SOL     OW25915   6.925   1.046   2.082
 8339SOL    HW125916   7.014   1.006   2.106
 8339SOL    HW225917   6.922   1.064   1.984
 8340SOL     OW25918   4.933   3.879   0.974
 8340SOL    HW125919   4.941   3.963   0.919
 8340SOL    HW225920   4.882   3.810   0.922
 8341SOL     OW25921   3.353   0.138   6.564
 8341SOL    HW125922   3.371   0.044   6.537
 8341SOL    HW225923   3.417   0.164   6.636
 8342SOL     OW25924   4.455   6.664   0.287
 8342SOL    HW125925   4.409   6.675   0.199
 8342SOL    HW225926   4.465   6.753   0.331
 8343SOL     OW25927   6.955   5.526   3.448
 8343SOL    HW125928   6.965   5.471   3.365
 8343SOL    HW225929   6.868   5.503   3.492
 8344SOL     OW25930   6.287   5.562   4.722
 8344SOL    HW125931   6.326   5.618   4.649
 8344SOL    HW225932   6.191   5.542   4.700
 8345SOL     OW25933   3.630   2.104   2.748
 8345SOL    HW125934   3.533   2.104   2.773
 8345SOL    HW225935   3.640   2.128   2.652
 8346SOL     OW25936   3.724   4.606   0.333
 8346SOL    HW125937   3.707   4.508   0.345
 8346SOL    HW225938   3.801   4.634   0.391
 8347SOL     OW25939   3.025   6.363   5.671
 8347SOL    HW125940   2.976   6.392   5.589
 8347SOL    HW225941   3.109   6.316   5.645
 8348SOL     OW25942   2.041   0.885   1.518
 8348SOL    HW125943   2.057   0.941   1.436
 8348SOL    HW225944   2.076   0.932   1.598
 8349SOL     OW25945   0.921   6.484   2.105
 8349SOL    HW125946   0.941   6.386   2.111
 8349SOL    HW225947   0.859   6.510   2.179
 8350SOL     OW25948   2.837   6.897   6.402
 8350SOL    HW125949   2.852   6.947   6.316
 8350SOL    HW225950   2.921   6.899   6.456
 8351SOL     OW25951   4.821   5.182   4.768
 8351SOL    HW125952   4.816   5.192   4.669
 8351SOL    HW225953   4.915   5.163   4.795
 8352SOL     OW25954   1.318   0.311   3.393
 8352SOL    HW125955   1.373   0.315   3.477
 8352SOL    HW225956   1.276   0.221   3.385
 8353SOL     OW25957   1.087   3.926   0.658
 8353SOL    HW125958   1.069   3.866   0.737
 8353SOL    HW225959   1.001   3.943   0.610
 8354SOL     OW25960   3.223   0.153   4.419
 8354SOL    HW125961   3.256   0.081   4.480
 8354SOL    HW225962   3.300   0.188   4.365
 8355SOL     OW25963   2.080   1.319   4.688
 8355SOL    HW125964   2.086   1.395   4.752
 8355SOL    HW225965   2.050   1.352   4.598
 8356SOL     OW25966   1.332   6.617   1.641
 8356SOL    HW125967   1.302   6.544   1.580
 8356SOL    HW225968   1.304   6.595   1.735
 8357SOL     OW25969   3.766   0.042   5.606
 8357SOL    HW125970   3.730   6.975   5.625
 8357SOL    HW225971   3.826   0.071   5.681
 8358SOL     OW25972   1.126   3.258   4.449
 8358SOL    HW125973   1.040   3.307   4.463
 8358SOL    HW225974   1.202   3.312   4.487
 8359SOL     OW25975   2.795   1.532   5.019
 8359SOL    HW125976   2.865   1.461   5.023
 8359SOL    HW225977   2.814   1.593   4.942
 8360SOL     OW25978   4.323   0.383   0.209
 8360SOL    HW125979   4.356   0.462   0.157
 8360SOL    HW225980   4.312   0.408   0.305
 8361SOL     OW25981   3.725   0.611   1.179
 8361SOL    HW125982   3.704   0.667   1.259
 8361SOL    HW225983   3.668   0.529   1.179
 8362SOL     OW25984   5.169   1.882   0.967
 8362SOL    HW125985   5.117   1.902   1.050
 8362SOL    HW225986   5.178   1.783   0.956
 8363SOL     OW25987   4.915   2.563   0.086
 8363SOL    HW125988   4.924   2.663   0.081
 8363SOL    HW225989   4.992   2.520   0.039
 8364SOL     OW25990   6.750   1.706   4.170
 8364SOL    HW125991   6.812   1.752   4.233
 8364SOL    HW225992   6.773   1.731   4.076
 8365SOL     OW25993   1.604   2.291   2.549
 8365SOL    HW125994   1.663   2.361   2.508
 8365SOL    HW225995   1.508   2.318   2.539
 8366SOL     OW25996   2.910   4.967   0.955
 8366SOL    HW125997   2.947   4.948   1.046
 8366SOL    HW225998   2.855   5.051   0.959
 8367SOL     OW25999   3.545   5.754   4.823
 8367SOL    HW126000   3.613   5.721   4.890
 8367SOL    HW226001   3.467   5.691   4.822
 8368SOL     OW26002   1.022   6.162   6.872
 8368SOL    HW126003   1.068   6.166   6.961
 8368SOL    HW226004   1.065   6.228   6.810
 8369SOL     OW26005   0.493   0.420   6.624
 8369SOL    HW126006   0.592   0.409   6.611
 8369SOL    HW226007   0.449   0.330   6.622
 8370SOL     OW26008   2.299   1.158   6.021
 8370SOL    HW126009   2.224   1.220   5.999
 8370SOL    HW226010   2.357   1.200   6.091
 8371SOL     OW26011   2.595   4.300   0.725
 8371SOL    HW126012   2.595   4.394   0.758
 8371SOL    HW226013   2.552   4.296   0.635
 8372SOL     OW26014   1.677   6.058   1.852
 8372SOL    HW126015   1.719   5.969   1.869
 8372SOL    HW226016   1.594   6.046   1.798
 8373SOL     OW26017   1.544   6.521   4.151
 8373SOL    HW126018   1.538   6.422   4.151
 8373SOL    HW226019   1.621   6.550   4.094
 8374SOL     OW26020   0.329   6.952   5.024
 8374SOL    HW126021   0.349   6.857   5.001
 8374SOL    HW226022   0.399   7.011   4.987
 8375SOL     OW26023   3.745   6.626   5.458
 8375SOL    HW126024   3.690   6.543   5.468
 8375SOL    HW226025   3.792   6.646   5.544
 8376SOL     OW26026   1.316   1.181   4.171
 8376SOL    HW126027   1.283   1.191   4.265
 8376SOL    HW226028   1.360   1.092   4.160
 8377SOL     OW26029   5.735   6.120   0.330
 8377SOL    HW126030   5.757   6.188   0.259
 8377SOL    HW226031   5.815   6.062   0.346
 8378SOL     OW26032   3.523   4.972   3.179
 8378SOL    HW126033   3.469   5.037   3.127
 8378SOL    HW226034   3.478   4.952   3.265
 8379SOL     OW26035   4.963   2.913   1.943
 8379SOL    HW126036   4.957   2.821   1.981
 8379SOL    HW226037   4.881   2.965   1.967
 8380SOL     OW26038   0.227   0.490   0.523
 8380SOL    HW126039   0.213   0.508   0.621
 8380SOL    HW226040   0.324   0.497   0.501
 8381SOL     OW26041   0.215   2.063   4.030
 8381SOL    HW126042   0.300   2.010   4.027
 8381SOL    HW226043   0.164   2.048   3.946
 8382SOL     OW26044   2.258   6.509   1.789
 8382SOL    HW126045   2.345   6.471   1.820
 8382SOL    HW226046   2.220   6.568   1.860
 8383SOL     OW26047   3.049   0.022   6.071
 8383SOL    HW126048   3.024   6.974   6.007
 8383SOL    HW226049   3.019   0.110   6.035
 8384SOL     OW26050   5.989   1.919   1.644
 8384SOL    HW126051   6.069   1.975   1.621
 8384SOL    HW226052   5.981   1.844   1.579
 8385SOL     OW26053   4.885   2.490   6.717
 8385SOL    HW126054   4.853   2.469   6.810
 8385SOL    HW226055   4.834   2.567   6.681
 8386SOL     OW26056   1.923   6.194   1.686
 8386SOL    HW126057   1.863   6.266   1.651
 8386SOL    HW226058   1.873   6.108   1.692
 8387SOL     OW26059   1.215   1.356   1.287
 8387SOL    HW126060   1.193   1.288   1.356
 8387SOL    HW226061   1.309   1.387   1.300
 8388SOL     OW26062   2.294   6.771   0.420
 8388SOL    HW126063   2.205   6.735   0.446
 8388SOL    HW226064   2.310   6.754   0.323
 8389SOL     OW26065   0.202   3.131   4.074
 8389SOL    HW126066   0.299   3.136   4.095
 8389SOL    HW226067   0.154   3.207   4.117
 8390SOL     OW26068   3.691   6.702   0.428
 8390SOL    HW126069   3.698   6.730   0.524
 8390SOL    HW226070   3.609   6.647   0.416
 8391SOL     OW26071   5.351   5.322   1.209
 8391SOL    HW126072   5.436   5.325   1.262
 8391SOL    HW226073   5.273   5.333   1.271
 8392SOL     OW26074   6.802   5.269   5.243
 8392SOL    HW126075   6.792   5.176   5.278
 8392SOL    HW226076   6.880   5.273   5.180
 8393SOL     OW26077   0.296   6.910   2.991
 8393SOL    HW126078   0.230   6.945   2.925
 8393SOL    HW226079   0.388   6.939   2.965
 8394SOL     OW26080   0.514   3.138   2.136
 8394SOL    HW126081   0.466   3.103   2.055
 8394SOL    HW226082   0.461   3.119   2.218
 8395SOL     OW26083   1.886   6.158   4.418
 8395SOL    HW126084   1.912   6.086   4.481
 8395SOL    HW226085   1.812   6.213   4.458
 8396SOL     OW26086   4.509   4.828   2.163
 8396SOL    HW126087   4.440   4.770   2.206
 8396SOL    HW226088   4.503   4.920   2.203
 8397SOL     OW26089   2.650   1.174   3.164
 8397SOL    HW126090   2.613   1.255   3.119
 8397SOL    HW226091   2.747   1.187   3.184
 8398SOL     OW26092   4.183   2.591   6.573
 8398SOL    HW126093   4.272   2.547   6.570
 8398SOL    HW226094   4.187   2.678   6.523
 8399SOL     OW26095   6.000   0.208   0.617
 8399SOL    HW126096   6.046   0.210   0.528
 8399SOL    HW226097   6.020   0.122   0.663
 8400SOL     OW26098   1.452   0.760   4.228
 8400SOL    HW126099   1.489   0.763   4.135
 8400SOL    HW226100   1.503   0.823   4.286
 8401SOL     OW26101   3.077   1.666   6.295
 8401SOL    HW126102   3.027   1.699   6.215
 8401SOL    HW226103   3.127   1.583   6.271
 8402SOL     OW26104   4.073   2.000   6.049
 8402SOL    HW126105   4.031   1.981   6.138
 8402SOL    HW226106   4.118   1.917   6.015
 8403SOL     OW26107   0.749   1.936   3.614
 8403SOL    HW126108   0.843   1.906   3.594
 8403SOL    HW226109   0.738   1.945   3.713
 8404SOL     OW26110   4.516   6.302   6.179
 8404SOL    HW126111   4.559   6.303   6.269
 8404SOL    HW226112   4.519   6.393   6.139
 8405SOL     OW26113   2.753   0.784   6.114
 8405SOL    HW126114   2.840   0.834   6.118
 8405SOL    HW226115   2.678   0.849   6.099
 8406SOL     OW26116   5.191   0.011   0.833
 8406SOL    HW126117   5.111   6.974   0.823
 8406SOL    HW226118   5.272   6.988   0.797
 8407SOL     OW26119   4.022   6.192   3.953
 8407SOL    HW126120   4.093   6.122   3.952
 8407SOL    HW226121   3.980   6.199   3.862
 8408SOL     OW26122   5.542   2.883   2.238
 8408SOL    HW126123   5.461   2.826   2.253
 8408SOL    HW226124   5.518   2.961   2.181
 8409SOL     OW26125   5.826   3.257   3.909
 8409SOL    HW126126   5.814   3.347   3.867
 8409SOL    HW226127   5.798   3.261   4.005
 8410SOL     OW26128   4.946   0.187   1.646
 8410SOL    HW126129   5.018   0.247   1.611
 8410SOL    HW226130   4.879   0.242   1.696
 8411SOL     OW26131   0.582   5.312   7.016
 8411SOL    HW126132   0.577   5.250   6.938
 8411SOL    HW226133   0.670   5.301   0.038
 8412SOL     OW26134   3.581   2.189   1.643
 8412SOL    HW126135   3.651   2.184   1.571
 8412SOL    HW226136   3.616   2.242   1.720
 8413SOL     OW26137   4.054   5.946   0.054
 8413SOL    HW126138   4.070   5.975   0.148
 8413SOL    HW226139   4.131   5.976   7.021
 8414SOL     OW26140   4.411   5.289   3.193
 8414SOL    HW126141   4.391   5.386   3.205
 8414SOL    HW226142   4.328   5.236   3.210
 8415SOL     OW26143   6.785   5.812   3.277
 8415SOL    HW126144   6.842   5.783   3.354
 8415SOL    HW226145   6.691   5.824   3.309
 8416SOL     OW26146   5.780   3.621   2.837
 8416SOL    HW126147   5.858   3.647   2.893
 8416SOL    HW226148   5.711   3.576   2.894
 8417SOL     OW26149   1.358   5.065   5.928
 8417SOL    HW126150   1.286   5.000   5.905
 8417SOL    HW226151   1.446   5.031   5.894
 8418SOL     OW26152   5.751   5.245   1.218
 8418SOL    HW126153   5.781   5.194   1.138
 8418SOL    HW226154   5.801   5.331   1.224
 8419SOL     OW26155   4.957   0.996   2.439
 8419SOL    HW126156   4.970   0.983   2.341
 8419SOL    HW226157   4.886   0.933   2.472
 8420SOL     OW26158   3.903   6.936   0.599
 8420SOL    HW126159   3.843   7.012   0.575
 8420SOL    HW226160   3.874   6.895   0.685
 8421SOL     OW26161   3.116   5.950   0.248
 8421SOL    HW126162   3.208   5.924   0.278
 8421SOL    HW226163   3.048   5.888   0.287
 8422SOL     OW26164   4.389   0.974   1.177
 8422SOL    HW126165   4.480   1.009   1.196
 8422SOL    HW226166   4.326   1.050   1.162
 8423SOL     OW26167   4.186   4.814   5.807
 8423SOL    HW126168   4.140   4.899   5.783
 8423SOL    HW226169   4.152   4.782   5.896
 8424SOL     OW26170   1.983   2.292   3.067
 8424SOL    HW126171   1.923   2.212   3.058
 8424SOL    HW226172   1.957   2.345   3.147
 8425SOL     OW26173   5.362   5.848   0.490
 8425SOL    HW126174   5.313   5.873   0.406
 8425SOL    HW226175   5.432   5.917   0.510
 8426SOL     OW26176   3.176   3.659   4.337
 8426SOL    HW126177   3.157   3.619   4.427
 8426SOL    HW226178   3.274   3.660   4.321
 8427SOL     OW26179   3.131   3.381   5.137
 8427SOL    HW126180   3.069   3.303   5.140
 8427SOL    HW226181   3.224   3.350   5.117
 8428SOL     OW26182   0.376   4.214   1.729
 8428SOL    HW126183   0.315   4.238   1.804
 8428SOL    HW226184   0.454   4.162   1.765
 8429SOL     OW26185   1.927   4.560   3.572
 8429SOL    HW126186   1.904   4.508   3.654
 8429SOL    HW226187   1.935   4.657   3.595
 8430SOL     OW26188   3.474   5.204   4.681
 8430SOL    HW126189   3.434   5.142   4.613
 8430SOL    HW226190   3.414   5.284   4.692
 8431SOL     OW26191   3.034   5.281   0.776
 8431SOL    HW126192   3.061   5.365   0.729
 8431SOL    HW226193   3.025   5.207   0.709
 8432SOL     OW26194   5.333   6.654   5.978
 8432SOL    HW126195   5.274   6.721   5.932
 8432SOL    HW226196   5.285   6.567   5.985
 8433SOL     OW26197   5.744   1.764   0.324
 8433SOL    HW126198   5.828   1.773   0.378
 8433SOL    HW226199   5.767   1.732   0.232
 8434SOL     OW26200   3.770   6.902   4.864
 8434SOL    HW126201   3.718   6.824   4.829
 8434SOL    HW226202   3.859   6.870   4.897
 8435SOL     OW26203   5.654   0.769   1.549
 8435SOL    HW126204   5.567   0.819   1.555
 8435SOL    HW226205   5.640   0.684   1.499
 8436SOL     OW26206   3.485   0.227   4.278
 8436SOL    HW126207   3.510   0.153   4.216
 8436SOL    HW226208   3.482   0.313   4.227
 8437SOL     OW26209   2.023   0.260   3.784
 8437SOL    HW126210   1.981   0.337   3.736
 8437SOL    HW226211   2.051   0.290   3.876
 8438SOL     OW26212   2.525   4.841   2.304
 8438SOL    HW126213   2.618   4.805   2.309
 8438SOL    HW226214   2.497   4.848   2.209
 8439SOL     OW26215   6.243   5.241   2.369
 8439SOL    HW126216   6.162   5.201   2.413
 8439SOL    HW226217   6.321   5.181   2.383
 8440SOL     OW26218   1.055   1.909   3.509
 8440SOL    HW126219   1.126   1.842   3.533
 8440SOL    HW226220   1.005   1.877   3.429
 8441SOL     OW26221   5.857   0.192   0.269
 8441SOL    HW126222   5.944   0.172   0.314
 8441SOL    HW226223   5.844   0.291   0.263
 8442SOL     OW26224   3.257   2.043   5.492
 8442SOL    HW126225   3.307   2.055   5.406
 8442SOL    HW226226   3.307   2.086   5.567
 8443SOL     OW26227   1.533   5.665   3.797
 8443SOL    HW126228   1.531   5.761   3.770
 8443SOL    HW226229   1.479   5.612   3.732
 8444SOL     OW26230   3.079   5.894   3.838
 8444SOL    HW126231   3.045   5.800   3.849
 8444SOL    HW226232   3.002   5.957   3.835
 8445SOL     OW26233   3.544   5.896   1.091
 8445SOL    HW126234   3.635   5.908   1.051
 8445SOL    HW226235   3.500   5.816   1.049
 8446SOL     OW26236   5.007   5.120   6.431
 8446SOL    HW126237   4.934   5.068   6.476
 8446SOL    HW226238   5.060   5.059   6.371
 8447SOL     OW26239   4.660   2.308   2.307
 8447SOL    HW126240   4.706   2.284   2.392
 8447SOL    HW226241   4.612   2.395   2.318
 8448SOL     OW26242   4.838   6.127   3.832
 8448SOL    HW126243   4.765   6.144   3.898
 8448SOL    HW226244   4.912   6.192   3.848
 8449SOL     OW26245   6.707   2.065   4.099
 8449SOL    HW126246   6.648   2.018   4.165
 8449SOL    HW226247   6.750   1.997   4.039
 8450SOL     OW26248   1.207   5.680   1.676
 8450SOL    HW126249   1.186   5.714   1.585
 8450SOL    HW226250   1.158   5.594   1.692
 8451SOL     OW26251   4.306   2.389   0.100
 8451SOL    HW126252   4.313   2.455   0.174
 8451SOL    HW226253   4.248   2.313   0.129
 8452SOL     OW26254   6.652   0.856   3.028
 8452SOL    HW126255   6.633   0.936   2.971
 8452SOL    HW226256   6.733   0.875   3.085
 8453SOL     OW26257   0.015   4.381   6.136
 8453SOL    HW126258   0.056   4.415   6.052
 8453SOL    HW226259   0.041   4.285   6.150
 8454SOL     OW26260   6.972   6.610   0.740
 8454SOL    HW126261   6.875   6.597   0.720
 8454SOL    HW226262   6.987   6.702   0.775
 8455SOL     OW26263   5.585   2.309   1.677
 8455SOL    HW126264   5.581   2.403   1.709
 8455SOL    HW226265   5.526   2.252   1.734
 8456SOL     OW26266   4.920   5.961   3.146
 8456SOL    HW126267   4.919   6.043   3.203
 8456SOL    HW226268   4.926   5.987   3.050
 8457SOL     OW26269   6.445   6.488   4.236
 8457SOL    HW126270   6.517   6.438   4.188
 8457SOL    HW226271   6.404   6.556   4.174
 8458SOL     OW26272   2.672   1.701   6.393
 8458SOL    HW126273   2.737   1.659   6.456
 8458SOL    HW226274   2.582   1.705   6.437
 8459SOL     OW26275   3.100   6.489   2.143
 8459SOL    HW126276   3.122   6.566   2.083
 8459SOL    HW226277   3.180   6.467   2.200
 8460SOL     OW26278   4.423   3.507   5.594
 8460SOL    HW126279   4.477   3.471   5.519
 8460SOL    HW226280   4.419   3.607   5.588
 8461SOL     OW26281   6.857   4.103   3.555
 8461SOL    HW126282   6.950   4.135   3.574
 8461SOL    HW226283   6.791   4.164   3.600
 8462SOL     OW26284   3.324   2.327   0.140
 8462SOL    HW126285   3.330   2.397   0.212
 8462SOL    HW226286   3.331   2.370   0.050
 8463SOL     OW26287   6.085   6.519   0.430
 8463SOL    HW126288   6.178   6.483   0.426
 8463SOL    HW226289   6.066   6.552   0.522
 8464SOL     OW26290   5.266   3.598   5.728
 8464SOL    HW126291   5.176   3.581   5.767
 8464SOL    HW226292   5.297   3.689   5.755
 8465SOL     OW26293   1.599   2.856   0.941
 8465SOL    HW126294   1.502   2.831   0.936
 8465SOL    HW226295   1.645   2.801   1.010
 8466SOL     OW26296   0.779   6.568   5.363
 8466SOL    HW126297   0.733   6.575   5.274
 8466SOL    HW226298   0.767   6.653   5.414
 8467SOL     OW26299   4.224   0.205   1.564
 8467SOL    HW126300   4.169   0.191   1.482
 8467SOL    HW226301   4.205   0.132   1.630
 8468SOL     OW26302   4.411   2.586   6.969
 8468SOL    HW126303   4.447   2.556   6.881
 8468SOL    HW226304   4.403   2.507   0.006
 8469SOL     OW26305   4.251   1.570   5.649
 8469SOL    HW126306   4.281   1.523   5.732
 8469SOL    HW226307   4.228   1.502   5.579
 8470SOL     OW26308   1.282   4.727   0.071
 8470SOL    HW126309   1.374   4.757   0.095
 8470SOL    HW226310   1.233   4.801   0.026
 8471SOL     OW26311   3.877   0.811   4.153
 8471SOL    HW126312   3.811   0.793   4.080
 8471SOL    HW226313   3.930   0.728   4.171
 8472SOL     OW26314   6.392   0.501   5.344
 8472SOL    HW126315   6.401   0.457   5.434
 8472SOL    HW226316   6.431   0.593   5.347
 8473SOL     OW26317   6.721   5.927   0.872
 8473SOL    HW126318   6.632   5.882   0.872
 8473SOL    HW226319   6.793   5.858   0.884
 8474SOL     OW26320   3.382   3.234   2.381
 8474SOL    HW126321   3.379   3.238   2.481
 8474SOL    HW226322   3.463   3.181   2.353
 8475SOL     OW26323   0.179   2.122   3.399
 8475SOL    HW126324   0.102   2.123   3.463
 8475SOL    HW226325   0.217   2.214   3.391
 8476SOL     OW26326   6.724   2.017   1.043
 8476SOL    HW126327   6.713   1.937   1.102
 8476SOL    HW226328   6.686   1.997   0.953
 8477SOL     OW26329   4.800   7.024   1.889
 8477SOL    HW126330   4.820   0.064   1.963
 8477SOL    HW226331   4.706   0.012   1.859
 8478SOL     OW26332   1.731   0.157   6.404
 8478SOL    HW126333   1.670   0.151   6.325
 8478SOL    HW226334   1.745   0.066   6.442
 8479SOL     OW26335   0.079   2.915   1.012
 8479SOL    HW126336   0.139   2.986   0.976
 8479SOL    HW226337   0.013   2.888   0.942
 8480SOL     OW26338   4.505   2.588   6.473
 8480SOL    HW126339   4.526   2.566   6.568
 8480SOL    HW226340   4.565   2.536   6.412
 8481SOL     OW26341   4.451   2.412   4.747
 8481SOL    HW126342   4.377   2.355   4.781
 8481SOL    HW226343   4.496   2.457   4.824
 8482SOL     OW26344   4.862   5.665   2.268
 8482SOL    HW126345   4.793   5.599   2.297
 8482SOL    HW226346   4.818   5.754   2.255
 8483SOL     OW26347   4.032   6.606   1.882
 8483SOL    HW126348   4.031   6.559   1.970
 8483SOL    HW226349   4.026   6.705   1.896
 8484SOL     OW26350   0.097   6.260   2.910
 8484SOL    HW126351   0.192   6.238   2.889
 8484SOL    HW226352   0.085   6.359   2.909
 8485SOL     OW26353   3.657   2.748   0.517
 8485SOL    HW126354   3.648   2.685   0.439
 8485SOL    HW226355   3.578   2.737   0.577
 8486SOL     OW26356   2.305   1.669   2.492
 8486SOL    HW126357   2.241   1.592   2.490
 8486SOL    HW226358   2.261   1.749   2.451
 8487SOL     OW26359   5.975   1.088   5.672
 8487SOL    HW126360   6.030   1.142   5.608
 8487SOL    HW226361   5.920   1.022   5.621
 8488SOL     OW26362   5.046   6.093   0.770
 8488SOL    HW126363   5.080   6.176   0.726
 8488SOL    HW226364   5.045   6.107   0.869
 8489SOL     OW26365   6.214   2.044   1.572
 8489SOL    HW126366   6.239   2.035   1.476
 8489SOL    HW226367   6.295   2.064   1.626
 8490SOL     OW26368   4.662   6.891   4.049
 8490SOL    HW126369   4.747   6.906   4.099
 8490SOL    HW226370   4.678   6.903   3.951
 8491SOL     OW26371   2.888   5.817   1.299
 8491SOL    HW126372   2.842   5.728   1.289
 8491SOL    HW226373   2.874   5.851   1.392
 8492SOL     OW26374   4.784   3.906   5.505
 8492SOL    HW126375   4.760   3.871   5.596
 8492SOL    HW226376   4.853   3.847   5.464
 8493SOL     OW26377   2.337   2.863   6.511
 8493SOL    HW126378   2.344   2.764   6.519
 8493SOL    HW226379   2.325   2.888   6.415
 8494SOL     OW26380   4.014   5.616   1.353
 8494SOL    HW126381   4.015   5.517   1.345
 8494SOL    HW226382   3.923   5.646   1.384
 8495SOL     OW26383   5.945   4.807   2.496
 8495SOL    HW126384   5.874   4.742   2.469
 8495SOL    HW226385   5.916   4.900   2.473
 8496SOL     OW26386   1.469   2.089   1.900
 8496SOL    HW126387   1.400   2.132   1.958
 8496SOL    HW226388   1.560   2.103   1.941
 8497SOL     OW26389   6.806   0.716   3.747
 8497SOL    HW126390   6.718   0.701   3.701
 8497SOL    HW226391   6.858   0.785   3.697
 8498SOL     OW26392   6.409   5.959   3.267
 8498SOL    HW126393   6.435   6.027   3.199
 8498SOL    HW226394   6.344   6.000   3.332
 8499SOL     OW26395   2.017   4.544   6.568
 8499SOL    HW126396   2.029   4.591   6.655
 8499SOL    HW226397   1.980   4.452   6.586
 8500SOL     OW26398   1.450   6.331   5.755
 8500SOL    HW126399   1.403   6.389   5.821
 8500SOL    HW226400   1.396   6.326   5.671
 8501SOL     OW26401   0.029   2.318   7.016
 8501SOL    HW126402   7.007   2.351   6.934
 8501SOL    HW226403   0.122   2.288   6.993
 8502SOL     OW26404   0.670   3.365   1.093
 8502SOL    HW126405   0.745   3.325   1.040
 8502SOL    HW226406   0.668   3.324   1.184
 8503SOL     OW26407   0.521   6.405   4.020
 8503SOL    HW126408   0.612   6.433   4.051
 8503SOL    HW226409   0.506   6.309   4.041
 8504SOL     OW26410   2.274   4.890   2.646
 8504SOL    HW126411   2.184   4.852   2.669
 8504SOL    HW226412   2.337   4.877   2.722
 8505SOL     OW26413   5.517   3.444   3.326
 8505SOL    HW126414   5.567   3.369   3.283
 8505SOL    HW226415   5.553   3.460   3.418
 8506SOL     OW26416   0.768   0.440   6.572
 8506SOL    HW126417   0.784   0.463   6.668
 8506SOL    HW226418   0.830   0.367   6.545
 8507SOL     OW26419   3.399   0.533   4.894
 8507SOL    HW126420   3.397   0.633   4.898
 8507SOL    HW226421   3.355   0.495   4.975
 8508SOL     OW26422   5.216   1.561   4.546
 8508SOL    HW126423   5.154   1.611   4.485
 8508SOL    HW226424   5.170   1.542   4.632
 8509SOL     OW26425   4.287   1.435   4.184
 8509SOL    HW126426   4.261   1.531   4.173
 8509SOL    HW226427   4.309   1.396   4.095
 8510SOL     OW26428   5.726   4.311   2.687
 8510SOL    HW126429   5.791   4.328   2.612
 8510SOL    HW226430   5.637   4.349   2.663
 8511SOL     OW26431   6.187   4.208   2.072
 8511SOL    HW126432   6.270   4.254   2.103
 8511SOL    HW226433   6.210   4.117   2.036
 8512SOL     OW26434   2.721   1.852   1.701
 8512SOL    HW126435   2.719   1.884   1.606
 8512SOL    HW226436   2.761   1.922   1.759
 8513SOL     OW26437   6.070   5.390   0.847
 8513SOL    HW126438   6.065   5.293   0.820
 8513SOL    HW226439   6.101   5.396   0.942
 8514SOL     OW26440   2.565   2.505   4.057
 8514SOL    HW126441   2.539   2.444   3.982
 8514SOL    HW226442   2.626   2.458   4.119
 8515SOL     OW26443   4.620   2.504   0.975
 8515SOL    HW126444   4.556   2.529   0.903
 8515SOL    HW226445   4.711   2.489   0.935
 8516SOL     OW26446   5.958   1.999   2.090
 8516SOL    HW126447   6.002   1.909   2.097
 8516SOL    HW226448   5.912   2.005   2.002
 8517SOL     OW26449   1.022   2.596   6.408
 8517SOL    HW126450   1.092   2.544   6.456
 8517SOL    HW226451   1.025   2.575   6.311
 8518SOL     OW26452   4.330   4.729   6.879
 8518SOL    HW126453   4.236   4.695   6.871
 8518SOL    HW226454   4.361   4.764   6.791
 8519SOL     OW26455   1.530   5.068   1.876
 8519SOL    HW126456   1.558   5.073   1.972
 8519SOL    HW226457   1.609   5.086   1.818
 8520SOL     OW26458   2.866   2.183   0.137
 8520SOL    HW126459   2.961   2.163   0.112
 8520SOL    HW226460   2.828   2.105   0.186
 8521SOL     OW26461   1.500   5.190   6.143
 8521SOL    HW126462   1.434   5.158   6.076
 8521SOL    HW226463   1.569   5.120   6.159
 8522SOL     OW26464   0.923   5.662   1.960
 8522SOL    HW126465   0.954   5.660   1.865
 8522SOL    HW226466   0.862   5.740   1.974
 8523SOL     OW26467   3.200   0.044   6.331
 8523SOL    HW126468   3.168   0.061   6.238
 8523SOL    HW226469   3.173   0.119   6.390
 8524SOL     OW26470   0.839   2.277   4.742
 8524SOL    HW126471   0.805   2.190   4.778
 8524SOL    HW226472   0.899   2.320   4.810
 8525SOL     OW26473   6.306   4.163   2.995
 8525SOL    HW126474   6.338   4.174   3.089
 8525SOL    HW226475   6.277   4.068   2.981
 8526SOL     OW26476   3.611   5.403   0.083
 8526SOL    HW126477   3.565   5.394   7.018
 8526SOL    HW226478   3.555   5.361   0.154
 8527SOL     OW26479   2.873   0.603   5.671
 8527SOL    HW126480   2.780   0.623   5.701
 8527SOL    HW226481   2.873   0.522   5.614
 8528SOL     OW26482   4.949   2.900   5.935
 8528SOL    HW126483   4.856   2.928   5.910
 8528SOL    HW226484   4.951   2.876   6.032
 8529SOL     OW26485   0.358   0.062   0.732
 8529SOL    HW126486   0.419   0.010   0.672
 8529SOL    HW226487   0.412   0.133   0.779
 8530SOL     OW26488   2.664   3.638   5.487
 8530SOL    HW126489   2.734   3.572   5.462
 8530SOL    HW226490   2.581   3.590   5.514
 8531SOL     OW26491   6.784   4.698   1.992
 8531SOL    HW126492   6.815   4.608   2.022
 8531SOL    HW226493   6.798   4.764   2.065
 8532SOL     OW26494   4.236   4.825   4.638
 8532SOL    HW126495   4.169   4.844   4.709
 8532SOL    HW226496   4.194   4.834   4.548
 8533SOL     OW26497   1.858   0.086   5.811
 8533SOL    HW126498   1.873   0.108   5.714
 8533SOL    HW226499   1.814   7.021   5.819
 8534SOL     OW26500   6.441   2.982   4.618
 8534SOL    HW126501   6.506   3.005   4.547
 8534SOL    HW226502   6.475   2.903   4.669
 8535SOL     OW26503   0.072   1.885   5.030
 8535SOL    HW126504   0.170   1.866   5.022
 8535SOL    HW226505   0.037   1.916   4.942
 8536SOL     OW26506   5.515   2.502   4.946
 8536SOL    HW126507   5.511   2.412   4.903
 8536SOL    HW226508   5.518   2.491   5.045
 8537SOL     OW26509   5.596   1.613   2.783
 8537SOL    HW126510   5.582   1.674   2.705
 8537SOL    HW226511   5.564   1.521   2.760
 8538SOL     OW26512   0.888   1.289   6.147
 8538SOL    HW126513   0.971   1.234   6.159
 8538SOL    HW226514   0.908   1.365   6.085
 8539SOL     OW26515   6.452   1.272   1.834
 8539SOL    HW126516   6.525   1.340   1.844
 8539SOL    HW226517   6.411   1.253   1.923
 8540SOL     OW26518   4.939   1.330   0.231
 8540SOL    HW126519   4.885   1.266   0.176
 8540SOL    HW226520   4.899   1.338   0.322
 8541SOL     OW26521   3.064   2.183   4.359
 8541SOL    HW126522   3.019   2.239   4.430
 8541SOL    HW226523   3.031   2.211   4.269
 8542SOL     OW26524   2.441   4.401   6.646
 8542SOL    HW126525   2.366   4.437   6.702
 8542SOL    HW226526   2.522   4.458   6.658
 8543SOL     OW26527   3.177   1.380   0.102
 8543SOL    HW126528   3.201   1.373   0.199
 8543SOL    HW226529   3.095   1.326   0.084
 8544SOL     OW26530   5.723   2.843   4.740
 8544SOL    HW126531   5.706   2.787   4.821
 8544SOL    HW226532   5.638   2.888   4.713
 8545SOL     OW26533   4.568   6.868   4.325
 8545SOL    HW126534   4.646   6.809   4.305
 8545SOL    HW226535   4.508   6.872   4.245
 8546SOL     OW26536   0.563   0.240   2.777
 8546SOL    HW126537   0.532   0.269   2.686
 8546SOL    HW226538   0.572   0.321   2.836
 8547SOL     OW26539   1.117   6.479   6.682
 8547SOL    HW126540   1.144   6.560   6.630
 8547SOL    HW226541   1.058   6.506   6.758
 8548SOL     OW26542   6.982   3.088   5.987
 8548SOL    HW126543   0.010   3.106   5.903
 8548SOL    HW226544   6.901   3.146   5.989
 8549SOL     OW26545   1.108   2.776   4.318
 8549SOL    HW126546   1.091   2.871   4.291
 8549SOL    HW226547   1.031   2.719   4.289
 8550SOL     OW26548   1.224   5.224   0.212
 8550SOL    HW126549   1.133   5.219   0.170
 8550SOL    HW226550   1.294   5.210   0.142
 8551SOL     OW26551   2.649   3.062   0.021
 8551SOL    HW126552   2.655   2.963   0.028
 8551SOL    HW226553   2.686   3.091   6.956
 8552SOL     OW26554   2.088   0.183   2.850
 8552SOL    HW126555   2.111   0.144   2.761
 8552SOL    HW226556   2.143   0.265   2.865
 8553SOL     OW26557   4.366   4.858   6.629
 8553SOL    HW126558   4.339   4.953   6.610
 8553SOL    HW226559   4.298   4.796   6.592
 8554SOL     OW26560   0.685   4.861   0.462
 8554SOL    HW126561   0.600   4.911   0.446
 8554SOL    HW226562   0.741   4.862   0.378
 8555SOL     OW26563   3.028   0.797   2.984
 8555SOL    HW126564   3.067   0.737   2.913
 8555SOL    HW226565   3.091   0.801   3.062
 8556SOL     OW26566   2.207   6.334   5.059
 8556SOL    HW126567   2.119   6.293   5.082
 8556SOL    HW226568   2.270   6.263   5.029
 8557SOL     OW26569   6.661   6.755   2.506
 8557SOL    HW126570   6.646   6.724   2.600
 8557SOL    HW226571   6.717   6.838   2.506
 8558SOL     OW26572   2.595   5.199   2.753
 8558SOL    HW126573   2.536   5.199   2.833
 8558SOL    HW226574   2.677   5.252   2.771
 8559SOL     OW26575   1.858   0.090   2.604
 8559SOL    HW126576   1.842   7.017   2.583
 8559SOL    HW226577   1.850   0.104   2.702
 8560SOL     OW26578   0.873   6.056   1.781
 8560SOL    HW126579   0.825   6.059   1.693
 8560SOL    HW226580   0.836   6.126   1.842
 8561SOL     OW26581   3.596   0.470   3.031
 8561SOL    HW126582   3.597   0.373   3.008
 8561SOL    HW226583   3.675   0.516   2.989
 8562SOL     OW26584   4.242   6.344   6.258
 8562SOL    HW126585   4.333   6.335   6.218
 8562SOL    HW226586   4.251   6.366   6.355
 8563SOL     OW26587   0.869   5.067   1.141
 8563SOL    HW126588   0.906   4.979   1.172
 8563SOL    HW226589   0.941   5.136   1.143
 8564SOL     OW26590   3.069   0.493   5.052
 8564SOL    HW126591   2.994   0.538   5.100
 8564SOL    HW226592   3.156   0.521   5.092
 8565SOL     OW26593   3.684   5.086   1.130
 8565SOL    HW126594   3.722   5.034   1.054
 8565SOL    HW226595   3.720   5.050   1.216
 8566SOL     OW26596   0.643   6.345   1.522
 8566SOL    HW126597   0.587   6.400   1.460
 8566SOL    HW226598   0.738   6.378   1.518
 8567SOL     OW26599   0.266   1.856   2.983
 8567SOL    HW126600   0.282   1.766   2.943
 8567SOL    HW226601   0.182   1.853   3.038
 8568SOL     OW26602   5.705   1.574   6.230
 8568SOL    HW126603   5.659   1.653   6.270
 8568SOL    HW226604   5.751   1.522   6.302
 8569SOL     OW26605   4.560   1.604   5.375
 8569SOL    HW126606   4.540   1.508   5.397
 8569SOL    HW226607   4.563   1.615   5.276
 8570SOL     OW26608   1.675   1.359   4.560
 8570SOL    HW126609   1.764   1.388   4.526
 8570SOL    HW226610   1.629   1.436   4.604
 8571SOL     OW26611   0.210   5.956   5.699
 8571SOL    HW126612   0.300   5.993   5.677
 8571SOL    HW226613   0.163   5.931   5.615
 8572SOL     OW26614   2.824   4.410   6.055
 8572SOL    HW126615   2.819   4.320   6.098
 8572SOL    HW226616   2.755   4.470   6.095
 8573SOL     OW26617   3.346   6.008   6.237
 8573SOL    HW126618   3.426   5.997   6.296
 8573SOL    HW226619   3.366   5.969   6.147
 8574SOL     OW26620   6.811   6.730   6.286
 8574SOL    HW126621   6.844   6.821   6.261
 8574SOL    HW226622   6.886   6.665   6.283
 8575SOL     OW26623   2.179   2.186   3.272
 8575SOL    HW126624   2.084   2.164   3.249
 8575SOL    HW226625   2.190   2.186   3.372
 8576SOL     OW26626   1.353   4.166   5.188
 8576SOL    HW126627   1.334   4.196   5.281
 8576SOL    HW226628   1.408   4.235   5.141
 8577SOL     OW26629   1.599   6.794   4.867
 8577SOL    HW126630   1.554   6.741   4.940
 8577SOL    HW226631   1.607   6.737   4.786
 8578SOL     OW26632   5.986   6.080   4.678
 8578SOL    HW126633   6.001   6.016   4.754
 8578SOL    HW226634   5.919   6.149   4.704
 8579SOL     OW26635   1.911   0.177   2.206
 8579SOL    HW126636   1.931   0.228   2.290
 8579SOL    HW226637   1.926   0.237   2.127
 8580SOL     OW26638   2.131   5.896   0.980
 8580SOL    HW126639   2.078   5.910   0.897
 8580SOL    HW226640   2.220   5.857   0.956
 8581SOL     OW26641   3.385   3.797   1.593
 8581SOL    HW126642   3.338   3.709   1.598
 8581SOL    HW226643   3.476   3.785   1.553
 8582SOL     OW26644   4.857   4.244   4.881
 8582SOL    HW126645   4.781   4.310   4.886
 8582SOL    HW226646   4.942   4.290   4.908
 8583SOL     OW26647   4.697   0.710   4.155
 8583SOL    HW126648   4.728   0.646   4.225
 8583SOL    HW226649   4.756   0.703   4.074
 8584SOL     OW26650   0.618   5.686   6.557
 8584SOL    HW126651   0.639   5.775   6.515
 8584SOL    HW226652   0.629   5.693   6.656
 8585SOL     OW26653   6.229   0.799   7.001
 8585SOL    HW126654   6.292   0.802   6.924
 8585SOL    HW226655   6.135   0.796   6.967
 8586SOL     OW26656   2.937   6.931   2.008
 8586SOL    HW126657   2.916   6.921   2.105
 8586SOL    HW226658   3.028   6.973   1.997
 8587SOL     OW26659   1.211   0.470   4.344
 8587SOL    HW126660   1.152   0.417   4.406
 8587SOL    HW226661   1.154   0.531   4.289
 8588SOL     OW26662   4.196   0.706   0.393
 8588SOL    HW126663   4.171   0.741   0.303
 8588SOL    HW226664   4.122   0.724   0.458
 8589SOL     OW26665   5.420   2.891   5.498
 8589SOL    HW126666   5.473   2.973   5.519
 8589SOL    HW226667   5.327   2.917   5.473
 8590SOL     OW26668   0.114   6.672   2.762
 8590SOL    HW126669   0.170   6.698   2.683
 8590SOL    HW226670   0.070   6.754   2.800
 8591SOL     OW26671   0.297   4.335   0.362
 8591SOL    HW126672   0.342   4.403   0.419
 8591SOL    HW226673   0.328   4.243   0.389
 8592SOL     OW26674   5.758   2.219   6.705
 8592SOL    HW126675   5.687   2.152   6.731
 8592SOL    HW226676   5.728   2.269   6.625
 8593SOL     OW26677   2.736   1.004   0.716
 8593SOL    HW126678   2.772   0.961   0.633
 8593SOL    HW226679   2.731   1.103   0.703
 8594SOL     OW26680   4.481   2.462   5.012
 8594SOL    HW126681   4.496   2.529   5.084
 8594SOL    HW226682   4.383   2.455   4.994
 8595SOL     OW26683   0.532   0.966   3.478
 8595SOL    HW126684   0.614   0.942   3.530
 8595SOL    HW226685   0.463   1.003   3.541
 8596SOL     OW26686   1.275   4.329   2.937
 8596SOL    HW126687   1.371   4.325   2.964
 8596SOL    HW226688   1.256   4.417   2.892
 8597SOL     OW26689   4.599   2.012   1.204
 8597SOL    HW126690   4.667   1.978   1.270
 8597SOL    HW226691   4.562   1.935   1.152
 8598SOL     OW26692   6.169   0.264   0.384
 8598SOL    HW126693   6.170   0.356   0.345
 8598SOL    HW226694   6.258   0.221   0.371
 8599SOL     OW26695   1.772   2.559   4.975
 8599SOL    HW126696   1.720   2.474   4.985
 8599SOL    HW226697   1.796   2.594   5.066
 8600SOL     OW26698   5.498   4.365   6.413
 8600SOL    HW126699   5.456   4.287   6.460
 8600SOL    HW226700   5.428   4.414   6.362
 8601SOL     OW26701   1.302   1.509   4.548
 8601SOL    HW126702   1.285   1.417   4.511
 8601SOL    HW226703   1.215   1.553   4.570
 8602SOL     OW26704   3.308   6.264   2.417
 8602SOL    HW126705   3.377   6.318   2.466
 8602SOL    HW226706   3.243   6.226   2.482
 8603SOL     OW26707   5.095   6.095   1.044
 8603SOL    HW126708   5.178   6.104   0.989
 8603SOL    HW226709   5.108   6.143   1.131
 8604SOL     OW26710   0.698   2.671   4.816
 8604SOL    HW126711   0.660   2.587   4.853
 8604SOL    HW226712   0.664   2.749   4.867
 8605SOL     OW26713   2.647   5.449   4.240
 8605SOL    HW126714   2.619   5.355   4.261
 8605SOL    HW226715   2.641   5.505   4.323
 8606SOL     OW26716   1.508   3.281   6.574
 8606SOL    HW126717   1.503   3.359   6.512
 8606SOL    HW226718   1.497   3.313   6.668
 8607SOL     OW26719   3.308   4.991   6.346
 8607SOL    HW126720   3.360   4.912   6.380
 8607SOL    HW226721   3.351   5.075   6.379
 8608SOL     OW26722   3.076   4.833   2.379
 8608SOL    HW126723   3.056   4.895   2.454
 8608SOL    HW226724   3.166   4.854   2.341
 8609SOL     OW26725   5.027   0.745   2.836
 8609SOL    HW126726   5.086   0.776   2.761
 8609SOL    HW226727   4.965   0.820   2.862
 8610SOL     OW26728   0.862   2.100   2.987
 8610SOL    HW126729   0.795   2.072   3.055
 8610SOL    HW226730   0.855   2.199   2.972
 8611SOL     OW26731   3.207   2.150   4.769
 8611SOL    HW126732   3.159   2.195   4.693
 8611SOL    HW226733   3.173   2.187   4.856
 8612SOL     OW26734   2.641   3.261   0.241
 8612SOL    HW126735   2.630   3.256   0.142
 8612SOL    HW226736   2.652   3.170   0.279
 8613SOL     OW26737   2.886   1.508   1.758
 8613SOL    HW126738   2.944   1.579   1.719
 8613SOL    HW226739   2.800   1.549   1.788
 8614SOL     OW26740   1.007   3.153   3.564
 8614SOL    HW126741   1.021   3.055   3.584
 8614SOL    HW226742   1.096   3.199   3.559
 8615SOL     OW26743   4.245   1.879   5.072
 8615SOL    HW126744   4.319   1.817   5.044
 8615SOL    HW226745   4.211   1.928   4.992
 8616SOL     OW26746   3.154   4.630   1.728
 8616SOL    HW126747   3.069   4.616   1.780
 8616SOL    HW226748   3.218   4.684   1.783
 8617SOL     OW26749   6.447   1.389   5.683
 8617SOL    HW126750   6.432   1.461   5.615
 8617SOL    HW226751   6.544   1.383   5.704
 8618SOL     OW26752   6.233   4.951   1.066
 8618SOL    HW126753   6.286   4.912   0.991
 8618SOL    HW226754   6.272   5.040   1.092
 8619SOL     OW26755   3.797   4.883   2.257
 8619SOL    HW126756   3.743   4.812   2.211
 8619SOL    HW226757   3.744   4.968   2.258
 8620SOL     OW26758   1.434   6.889   3.323
 8620SOL    HW126759   1.461   6.965   3.382
 8620SOL    HW226760   1.414   6.809   3.379
 8621SOL     OW26761   6.126   1.685   2.758
 8621SOL    HW126762   6.177   1.761   2.797
 8621SOL    HW226763   6.028   1.705   2.763
 8622SOL     OW26764   5.354   3.454   1.392
 8622SOL    HW126765   5.367   3.407   1.480
 8622SOL    HW226766   5.266   3.501   1.392
 8623SOL     OW26767   1.068   3.654   5.052
 8623SOL    HW126768   1.027   3.564   5.066
 8623SOL    HW226769   1.160   3.644   5.013
 8624SOL     OW26770   1.765   3.844   4.674
 8624SOL    HW126771   1.859   3.812   4.684
 8624SOL    HW226772   1.729   3.873   4.763
 8625SOL     OW26773   4.519   0.817   6.100
 8625SOL    HW126774   4.495   0.769   6.016
 8625SOL    HW226775   4.475   0.906   6.102
 8626SOL     OW26776   3.027   2.737   6.731
 8626SOL    HW126777   3.032   2.821   6.678
 8626SOL    HW226778   3.061   2.660   6.676
 8627SOL     OW26779   0.692   1.465   3.175
 8627SOL    HW126780   0.699   1.473   3.274
 8627SOL    HW226781   0.745   1.386   3.144
 8628SOL     OW26782   6.712   6.462   0.489
 8628SOL    HW126783   6.693   6.365   0.473
 8628SOL    HW226784   6.676   6.488   0.579
 8629SOL     OW26785   2.392   5.623   5.072
 8629SOL    HW126786   2.346   5.538   5.045
 8629SOL    HW226787   2.325   5.687   5.108
 8630SOL     OW26788   5.484   4.414   4.394
 8630SOL    HW126789   5.516   4.336   4.447
 8630SOL    HW226790   5.507   4.499   4.442
 8631SOL     OW26791   0.501   5.235   6.569
 8631SOL    HW126792   0.485   5.152   6.516
 8631SOL    HW226793   0.444   5.309   6.532
 8632SOL     OW26794   4.113   4.907   4.867
 8632SOL    HW126795   4.024   4.919   4.823
 8632SOL    HW226796   4.100   4.873   4.960
 8633SOL     OW26797   5.471   2.068   5.747
 8633SOL    HW126798   5.464   2.167   5.763
 8633SOL    HW226799   5.416   2.019   5.814
 8634SOL     OW26800   4.874   3.899   0.284
 8634SOL    HW126801   4.878   3.816   0.340
 8634SOL    HW226802   4.891   3.876   0.188
 8635SOL     OW26803   4.987   3.341   6.400
 8635SOL    HW126804   4.949   3.329   6.492
 8635SOL    HW226805   5.054   3.269   6.382
 8636SOL     OW26806   5.676   5.955   0.702
 8636SOL    HW126807   5.656   6.053   0.708
 8636SOL    HW226808   5.661   5.924   0.608
 8637SOL     OW26809   2.960   0.770   6.960
 8637SOL    HW126810   3.012   0.704   6.906
 8637SOL    HW226811   2.998   0.774   0.029
 8638SOL     OW26812   3.630   2.080   5.101
 8638SOL    HW126813   3.533   2.064   5.084
 8638SOL    HW226814   3.679   1.993   5.105
 8639SOL     OW26815   5.216   2.404   0.201
 8639SOL    HW126816   5.124   2.364   0.210
 8639SOL    HW226817   5.263   2.398   0.289
 8640SOL     OW26818   4.250   4.028   6.979
 8640SOL    HW126819   4.190   4.094   0.000
 8640SOL    HW226820   4.266   3.950   0.016
 8641SOL     OW26821   4.449   4.644   3.782
 8641SOL    HW126822   4.533   4.689   3.812
 8641SOL    HW226823   4.443   4.648   3.682
 8642SOL     OW26824   1.010   6.272   3.848
 8642SOL    HW126825   1.091   6.269   3.790
 8642SOL    HW226826   1.033   6.314   3.936
 8643SOL     OW26827   2.984   0.889   6.165
 8643SOL    HW126828   3.065   0.923   6.118
 8643SOL    HW226829   2.952   0.957   6.231
 8644SOL     OW26830   5.245   2.179   5.243
 8644SOL    HW126831   5.146   2.174   5.251
 8644SOL    HW226832   5.287   2.115   5.307
 8645SOL     OW26833   4.414   4.727   1.071
 8645SOL    HW126834   4.348   4.659   1.041
 8645SOL    HW226835   4.498   4.681   1.101
 8646SOL     OW26836   0.252   2.069   7.001
 8646SOL    HW126837   0.173   2.008   6.996
 8646SOL    HW226838   0.259   2.108   0.069
 8647SOL     OW26839   2.606   5.264   6.472
 8647SOL    HW126840   2.544   5.258   6.550
 8647SOL    HW226841   2.699   5.246   6.502
 8648SOL     OW26842   6.575   0.058   2.751
 8648SOL    HW126843   6.578   6.983   2.768
 8648SOL    HW226844   6.533   0.104   2.829
 8649SOL     OW26845   5.426   5.739   6.334
 8649SOL    HW126846   5.348   5.774   6.386
 8649SOL    HW226847   5.398   5.659   6.282
 8650SOL     OW26848   2.226   5.166   4.367
 8650SOL    HW126849   2.187   5.152   4.458
 8650SOL    HW226850   2.236   5.078   4.320
 8651SOL     OW26851   4.652   0.942   0.468
 8651SOL    HW126852   4.698   0.854   0.462
 8651SOL    HW226853   4.571   0.933   0.526
 8652SOL     OW26854   1.734   5.076   3.357
 8652SOL    HW126855   1.670   5.083   3.280
 8652SOL    HW226856   1.703   5.004   3.419
 8653SOL     OW26857   6.633   0.929   6.426
 8653SOL    HW126858   6.703   0.983   6.379
 8653SOL    HW226859   6.634   0.951   6.523
 8654SOL     OW26860   0.558   4.720   2.356
 8654SOL    HW126861   0.518   4.729   2.447
 8654SOL    HW226862   0.597   4.628   2.346
 8655SOL     OW26863   5.789   1.080   3.790
 8655SOL    HW126864   5.857   1.099   3.860
 8655SOL    HW226865   5.713   1.028   3.830
 8656SOL     OW26866   6.711   6.944   1.507
 8656SOL    HW126867   6.666   6.993   1.582
 8656SOL    HW226868   6.770   6.872   1.545
 8657SOL     OW26869   4.691   5.521   6.873
 8657SOL    HW126870   4.758   5.529   6.947
 8657SOL    HW226871   4.650   5.429   6.876
 8658SOL     OW26872   6.407   6.592   0.257
 8658SOL    HW126873   6.429   6.583   0.354
 8658SOL    HW226874   6.466   6.661   0.215
 8659SOL     OW26875   4.500   2.092   2.348
 8659SOL    HW126876   4.549   2.055   2.426
 8659SOL    HW226877   4.542   2.179   2.320
 8660SOL     OW26878   0.011   3.213   1.720
 8660SOL    HW126879   0.076   3.200   1.795
 8660SOL    HW226880   0.037   3.294   1.668
 8661SOL     OW26881   6.879   3.746   1.203
 8661SOL    HW126882   6.950   3.817   1.203
 8661SOL    HW226883   6.805   3.773   1.264
 8662SOL     OW26884   4.072   5.879   0.882
 8662SOL    HW126885   4.134   5.835   0.947
 8662SOL    HW226886   4.123   5.944   0.826
 8663SOL     OW26887   3.062   5.696   2.081
 8663SOL    HW126888   3.102   5.629   2.144
 8663SOL    HW226889   2.963   5.680   2.074
 8664SOL     OW26890   1.177   6.426   1.215
 8664SOL    HW126891   1.231   6.361   1.162
 8664SOL    HW226892   1.100   6.379   1.257
 8665SOL     OW26893   5.856   5.738   5.264
 8665SOL    HW126894   5.818   5.830   5.267
 8665SOL    HW226895   5.835   5.696   5.176
 8666SOL     OW26896   5.651   1.199   3.458
 8666SOL    HW126897   5.597   1.235   3.383
 8666SOL    HW226898   5.603   1.213   3.544
 8667SOL     OW26899   3.709   2.118   3.856
 8667SOL    HW126900   3.667   2.153   3.940
 8667SOL    HW226901   3.726   2.020   3.866
 8668SOL     OW26902   5.277   3.569   3.369
 8668SOL    HW126903   5.207   3.534   3.306
 8668SOL    HW226904   5.362   3.518   3.355
 8669SOL     OW26905   1.439   6.455   6.381
 8669SOL    HW126906   1.488   6.409   6.306
 8669SOL    HW226907   1.436   6.395   6.461
 8670SOL     OW26908   4.751   4.920   5.799
 8670SOL    HW126909   4.741   4.908   5.898
 8670SOL    HW226910   4.667   4.891   5.754
 8671SOL     OW26911   4.997   1.950   3.391
 8671SOL    HW126912   5.080   2.004   3.407
 8671SOL    HW226913   4.939   1.996   3.324
 8672SOL     OW26914   1.280   4.961   3.927
 8672SOL    HW126915   1.227   4.937   4.008
 8672SOL    HW226916   1.253   5.053   3.896
 8673SOL     OW26917   5.285   2.598   6.661
 8673SOL    HW126918   5.225   2.527   6.698
 8673SOL    HW226919   5.356   2.620   6.728
 8674SOL     OW26920   4.919   5.996   2.888
 8674SOL    HW126921   4.941   6.093   2.874
 8674SOL    HW226922   4.874   5.960   2.806
 8675SOL     OW26923   3.936   1.889   4.915
 8675SOL    HW126924   3.907   1.976   4.876
 8675SOL    HW226925   3.875   1.863   4.989
 8676SOL     OW26926   5.398   6.731   3.309
 8676SOL    HW126927   5.321   6.776   3.356
 8676SOL    HW226928   5.432   6.791   3.236
 8677SOL     OW26929   2.127   5.245   5.970
 8677SOL    HW126930   2.131   5.145   5.967
 8677SOL    HW226931   2.205   5.280   6.023
 8678SOL     OW26932   0.204   0.377   1.559
 8678SOL    HW126933   0.110   0.407   1.577
 8678SOL    HW226934   0.210   0.336   1.468
 8679SOL     OW26935   0.856   1.828   3.302
 8679SOL    HW126936   0.808   1.779   3.228
 8679SOL    HW226937   0.816   1.919   3.313
 8680SOL     OW26938   6.638   3.046   7.010
 8680SOL    HW126939   6.619   3.117   0.054
 8680SOL    HW226940   6.615   2.957   0.024
 8681SOL     OW26941   4.780   5.615   1.287
 8681SOL    HW126942   4.804   5.533   1.338
 8681SOL    HW226943   4.860   5.647   1.236
 8682SOL     OW26944   5.608   7.007   2.690
 8682SOL    HW126945   5.522   0.020   2.726
 8682SOL    HW226946   5.631   0.031   2.605
 8683SOL     OW26947   1.617   2.342   4.445
 8683SOL    HW126948   1.581   2.435   4.450
 8683SOL    HW226949   1.709   2.344   4.404
 8684SOL     OW26950   6.270   2.779   5.032
 8684SOL    HW126951   6.301   2.845   5.100
 8684SOL    HW226952   6.229   2.701   5.079
 8685SOL     OW26953   6.718   2.099   6.508
 8685SOL    HW126954   6.760   2.020   6.463
 8685SOL    HW226955   6.668   2.068   6.589
 8686SOL     OW26956   0.061   1.080   3.304
 8686SOL    HW126957   0.017   1.162   3.269
 8686SOL    HW226958   0.099   1.099   3.394
 8687SOL     OW26959   4.697   5.424   1.930
 8687SOL    HW126960   4.679   5.369   2.011
 8687SOL    HW226961   4.754   5.372   1.866
 8688SOL     OW26962   0.532   5.129   5.924
 8688SOL    HW126963   0.544   5.149   5.826
 8688SOL    HW226964   0.558   5.209   5.977
 8689SOL     OW26965   3.631   3.288   1.207
 8689SOL    HW126966   3.534   3.269   1.215
 8689SOL    HW226967   3.647   3.385   1.224
 8690SOL     OW26968   1.710   3.796   4.012
 8690SOL    HW126969   1.749   3.812   3.921
 8690SOL    HW226970   1.610   3.791   4.005
 8691SOL     OW26971   3.748   2.266   6.563
 8691SOL    HW126972   3.761   2.343   6.500
 8691SOL    HW226973   3.828   2.206   6.559
 8692SOL     OW26974   2.672   1.468   4.474
 8692SOL    HW126975   2.607   1.544   4.469
 8692SOL    HW226976   2.643   1.404   4.545
 8693SOL     OW26977   5.301   0.068   0.505
 8693SOL    HW126978   5.343   7.008   0.538
 8693SOL    HW226979   5.291   0.063   0.406
 8694SOL     OW26980   5.430   1.156   4.781
 8694SOL    HW126981   5.338   1.179   4.814
 8694SOL    HW226982   5.429   1.065   4.741
 8695SOL     OW26983   4.764   3.036   5.767
 8695SOL    HW126984   4.677   3.053   5.720
 8695SOL    HW226985   4.791   3.119   5.817
 8696SOL     OW26986   2.077   5.209   5.236
 8696SOL    HW126987   2.097   5.305   5.254
 8696SOL    HW226988   2.162   5.157   5.233
 8697SOL     OW26989   0.550   3.777   6.121
 8697SOL    HW126990   0.451   3.769   6.109
 8697SOL    HW226991   0.597   3.708   6.066
 8698SOL     OW26992   5.000   6.254   5.189
 8698SOL    HW126993   5.050   6.328   5.235
 8698SOL    HW226994   4.926   6.294   5.134
 8699SOL     OW26995   1.127   3.133   5.029
 8699SOL    HW126996   1.072   3.050   5.019
 8699SOL    HW226997   1.223   3.109   5.033
 8700SOL     OW26998   1.098   0.050   5.040
 8700SOL    HW126999   1.151   7.019   4.976
 8700SOL    HW227000   1.033   7.015   5.089
 8701SOL     OW27001   1.408   1.029   6.622
 8701SOL    HW127002   1.387   0.988   6.711
 8701SOL    HW227003   1.323   1.044   6.571
 8702SOL     OW27004   5.653   4.790   1.683
 8702SOL    HW127005   5.606   4.702   1.683
 8702SOL    HW227006   5.727   4.789   1.616
 8703SOL     OW27007   3.095   5.067   0.086
 8703SOL    HW127008   3.039   5.029   0.160
 8703SOL    HW227009   3.098   5.002   0.010
 8704SOL     OW27010   0.442   3.938   3.458
 8704SOL    HW127011   0.527   3.969   3.415
 8704SOL    HW227012   0.366   3.950   3.394
 8705SOL     OW27013   5.168   1.048   6.273
 8705SOL    HW127014   5.133   1.027   6.182
 8705SOL    HW227015   5.140   1.140   6.300
 8706SOL     OW27016   5.206   2.321   6.712
 8706SOL    HW127017   5.275   2.317   6.640
 8706SOL    HW227018   5.124   2.272   6.682
 8707SOL     OW27019   0.399   1.725   5.753
 8707SOL    HW127020   0.372   1.793   5.821
 8707SOL    HW227021   0.319   1.676   5.720
 8708SOL     OW27022   3.797   1.326   3.182
 8708SOL    HW127023   3.831   1.364   3.096
 8708SOL    HW227024   3.727   1.257   3.163
 8709SOL     OW27025   6.753   6.693   0.357
 8709SOL    HW127026   6.835   6.744   0.385
 8709SOL    HW227027   6.749   6.606   0.407
 8710SOL     OW27028   1.698   2.921   3.809
 8710SOL    HW127029   1.607   2.895   3.842
 8710SOL    HW227030   1.706   3.021   3.808
 8711SOL     OW27031   1.743   6.497   2.731
 8711SOL    HW127032   1.755   6.405   2.693
 8711SOL    HW227033   1.650   6.529   2.712
 8712SOL     OW27034   3.884   1.730   4.500
 8712SOL    HW127035   3.816   1.796   4.531
 8712SOL    HW227036   3.957   1.778   4.450
 8713SOL     OW27037   6.508   3.305   2.820
 8713SOL    HW127038   6.586   3.309   2.883
 8713SOL    HW227039   6.453   3.387   2.831
 8714SOL     OW27040   1.116   0.025   5.797
 8714SOL    HW127041   1.049   0.098   5.782
 8714SOL    HW227042   1.069   6.962   5.809
 8715SOL     OW27043   4.065   1.018   0.753
 8715SOL    HW127044   3.999   1.039   0.681
 8715SOL    HW227045   4.148   1.072   0.740
 8716SOL     OW27046   6.968   0.282   1.149
 8716SOL    HW127047   0.038   0.250   1.144
 8716SOL    HW227048   6.944   0.329   1.064
 8717SOL     OW27049   2.954   4.040   5.125
 8717SOL    HW127050   2.952   3.940   5.125
 8717SOL    HW227051   3.041   4.072   5.088
 8718SOL     OW27052   1.134   3.065   5.561
 8718SOL    HW127053   1.222   3.095   5.524
 8718SOL    HW227054   1.106   2.981   5.516
 8719SOL     OW27055   4.153   6.888   0.561
 8719SOL    HW127056   4.173   6.925   0.470
 8719SOL    HW227057   4.055   6.896   0.579
 8720SOL     OW27058   0.504   5.893   6.199
 8720SOL    HW127059   0.416   5.850   6.220
 8720SOL    HW227060   0.560   5.830   6.145
 8721SOL     OW27061   6.272   2.754   1.908
 8721SOL    HW127062   6.187   2.739   1.958
 8721SOL    HW227063   6.342   2.692   1.941
 8722SOL     OW27064   3.567   1.171   1.236
 8722SOL    HW127065   3.587   1.264   1.269
 8722SOL    HW227066   3.638   1.144   1.171
 8723SOL     OW27067   4.529   6.881   2.058
 8723SOL    HW127068   4.529   6.933   1.973
 8723SOL    HW227069   4.596   6.807   2.052
 8724SOL     OW27070   5.638   0.128   4.588
 8724SOL    HW127071   5.556   0.076   4.613
 8724SOL    HW227072   5.676   0.090   4.504
 8725SOL     OW27073   1.837   5.796   5.669
 8725SOL    HW127074   1.916   5.738   5.692
 8725SOL    HW227075   1.869   5.880   5.626
 8726SOL     OW27076   6.945   0.470   3.491
 8726SOL    HW127077   7.024   0.514   3.534
 8726SOL    HW227078   6.905   0.404   3.554
 8727SOL     OW27079   5.318   0.456   2.388
 8727SOL    HW127080   5.284   0.432   2.479
 8727SOL    HW227081   5.242   0.457   2.323
 8728SOL     OW27082   6.367   0.685   2.293
 8728SOL    HW127083   6.356   0.782   2.317
 8728SOL    HW227084   6.442   0.646   2.345
 8729SOL     OW27085   3.592   4.851   5.704
 8729SOL    HW127086   3.554   4.825   5.792
 8729SOL    HW227087   3.687   4.818   5.698
 8730SOL     OW27088   5.468   4.170   2.198
 8730SOL    HW127089   5.546   4.108   2.208
 8730SOL    HW227090   5.500   4.265   2.200
 8731SOL     OW27091   1.013   3.249   2.605
 8731SOL    HW127092   1.035   3.179   2.537
 8731SOL    HW227093   1.024   3.212   2.697
 8732SOL     OW27094   5.900   5.207   1.715
 8732SOL    HW127095   5.866   5.129   1.768
 8732SOL    HW227096   5.846   5.288   1.737
 8733SOL     OW27097   1.556   6.191   1.502
 8733SOL    HW127098   1.465   6.168   1.468
 8733SOL    HW227099   1.615   6.111   1.497
 8734SOL     OW27100   0.690   3.516   2.736
 8734SOL    HW127101   0.752   3.578   2.783
 8734SOL    HW227102   0.697   3.424   2.776
 8735SOL     OW27103   1.015   2.786   6.794
 8735SOL    HW127104   1.057   2.817   6.879
 8735SOL    HW227105   1.087   2.768   6.727
 8736SOL     OW27106   0.295   5.079   1.037
 8736SOL    HW127107   0.281   5.162   0.982
 8736SOL    HW227108   0.232   5.079   1.115
 8737SOL     OW27109   1.794   6.535   0.398
 8737SOL    HW127110   1.791   6.446   0.353
 8737SOL    HW227111   1.713   6.588   0.372
 8738SOL     OW27112   2.627   5.755   3.969
 8738SOL    HW127113   2.558   5.815   3.928
 8738SOL    HW227114   2.586   5.667   3.992
 8739SOL     OW27115   5.656   5.857   6.391
 8739SOL    HW127116   5.669   5.861   6.490
 8739SOL    HW227117   5.569   5.812   6.371
 8740SOL     OW27118   3.923   1.444   4.686
 8740SOL    HW127119   4.002   1.383   4.696
 8740SOL    HW227120   3.885   1.434   4.594
 8741SOL     OW27121   2.174   1.408   2.494
 8741SOL    HW127122   2.081   1.399   2.457
 8741SOL    HW227123   2.237   1.356   2.437
 8742SOL     OW27124   4.813   6.642   1.803
 8742SOL    HW127125   4.723   6.664   1.764
 8742SOL    HW227126   4.802   6.609   1.896
 8743SOL     OW27127   1.423   6.780   2.068
 8743SOL    HW127128   1.377   6.867   2.084
 8743SOL    HW227129   1.393   6.714   2.136
 8744SOL     OW27130   4.033   2.844   0.189
 8744SOL    HW127131   4.008   2.902   0.267
 8744SOL    HW227132   4.083   2.899   0.122
 8745SOL     OW27133   6.638   1.761   6.166
 8745SOL    HW127134   6.585   1.811   6.234
 8745SOL    HW227135   6.629   1.806   6.077
 8746SOL     OW27136   4.607   5.470   4.397
 8746SOL    HW127137   4.581   5.465   4.493
 8746SOL    HW227138   4.530   5.502   4.342
 8747SOL     OW27139   6.780   1.945   3.546
 8747SOL    HW127140   6.714   2.000   3.597
 8747SOL    HW227141   6.742   1.920   3.458
 8748SOL     OW27142   0.377   1.169   4.342
 8748SOL    HW127143   0.390   1.080   4.297
 8748SOL    HW227144   0.393   1.242   4.275
 8749SOL     OW27145   2.427   0.480   5.206
 8749SOL    HW127146   2.359   0.407   5.194
 8749SOL    HW227147   2.417   0.519   5.298
 8750SOL     OW27148   3.347   4.333   5.258
 8750SOL    HW127149   3.373   4.369   5.348
 8750SOL    HW227150   3.248   4.335   5.248
 8751SOL     OW27151   6.069   1.759   2.125
 8751SOL    HW127152   6.169   1.765   2.123
 8751SOL    HW227153   6.042   1.666   2.150
 8752SOL     OW27154   3.239   3.155   6.212
 8752SOL    HW127155   3.214   3.180   6.119
 8752SOL    HW227156   3.336   3.174   6.228
 8753SOL     OW27157   3.206   1.815   6.489
 8753SOL    HW127158   3.155   1.754   6.428
 8753SOL    HW227159   3.294   1.837   6.447
 8754SOL     OW27160   1.717   3.718   5.929
 8754SOL    HW127161   1.747   3.627   5.958
 8754SOL    HW227162   1.781   3.786   5.964
 8755SOL     OW27163   2.426   1.061   1.171
 8755SOL    HW127164   2.437   0.972   1.215
 8755SOL    HW227165   2.486   1.066   1.091
 8756SOL     OW27166   1.444   3.178   4.161
 8756SOL    HW127167   1.354   3.184   4.118
 8756SOL    HW227168   1.514   3.215   4.100
 8757SOL     OW27169   3.711   6.150   6.566
 8757SOL    HW127170   3.716   6.159   6.467
 8757SOL    HW227171   3.708   6.053   6.591
 8758SOL     OW27172   5.197   6.151   2.733
 8758SOL    HW127173   5.136   6.181   2.807
 8758SOL    HW227174   5.292   6.164   2.761
 8759SOL     OW27175   4.730   3.236   6.825
 8759SOL    HW127176   4.757   3.210   6.918
 8759SOL    HW227177   4.689   3.157   6.779
 8760SOL     OW27178   2.847   1.037   5.434
 8760SOL    HW127179   2.941   1.016   5.461
 8760SOL    HW227180   2.808   1.104   5.497
 8761SOL     OW27181   6.113   2.358   1.510
 8761SOL    HW127182   6.066   2.353   1.598
 8761SOL    HW227183   6.165   2.274   1.495
 8762SOL     OW27184   0.869   4.642   3.504
 8762SOL    HW127185   0.859   4.614   3.599
 8762SOL    HW227186   0.898   4.738   3.500
 8763SOL     OW27187   6.261   6.777   6.267
 8763SOL    HW127188   6.342   6.746   6.317
 8763SOL    HW227189   6.244   6.715   6.191
 8764SOL     OW27190   4.789   0.275   5.533
 8764SOL    HW127191   4.755   0.181   5.541
 8764SOL    HW227192   4.764   0.326   5.616
 8765SOL     OW27193   5.043   0.187   3.994
 8765SOL    HW127194   5.003   0.169   3.904
 8765SOL    HW227195   5.114   0.257   3.985
 8766SOL     OW27196   4.607   4.417   4.851
 8766SOL    HW127197   4.521   4.438   4.897
 8766SOL    HW227198   4.624   4.486   4.780
 8767SOL     OW27199   5.391   6.146   2.326
 8767SOL    HW127200   5.462   6.172   2.392
 8767SOL    HW227201   5.435   6.109   2.243
 8768SOL     OW27202   1.130   2.186   0.411
 8768SOL    HW127203   1.096   2.106   0.362
 8768SOL    HW227204   1.214   2.219   0.367
 8769SOL     OW27205   6.803   0.687   3.340
 8769SOL    HW127206   6.868   0.634   3.394
 8769SOL    HW227207   6.713   0.685   3.383
 8770SOL     OW27208   4.402   4.540   1.918
 8770SOL    HW127209   4.444   4.449   1.924
 8770SOL    HW227210   4.468   4.604   1.878
 8771SOL     OW27211   1.392   1.781   6.650
 8771SOL    HW127212   1.322   1.851   6.665
 8771SOL    HW227213   1.480   1.825   6.631
 8772SOL     OW27214   4.398   0.603   6.686
 8772SOL    HW127215   4.399   0.515   6.639
 8772SOL    HW227216   4.367   0.674   6.623
 8773SOL     OW27217   5.845   2.948   3.855
 8773SOL    HW127218   5.835   3.047   3.857
 8773SOL    HW227219   5.940   2.923   3.875
 8774SOL     OW27220   1.550   0.703   0.062
 8774SOL    HW127221   1.559   0.674   6.991
 8774SOL    HW227222   1.454   0.723   0.082
 8775SOL     OW27223   5.405   0.705   5.508
 8775SOL    HW127224   5.501   0.677   5.508
 8775SOL    HW227225   5.395   0.792   5.461
 8776SOL     OW27226   4.585   3.093   0.451
 8776SOL    HW127227   4.499   3.139   0.472
 8776SOL    HW227228   4.656   3.123   0.515
 8777SOL     OW27229   5.886   4.056   3.651
 8777SOL    HW127230   5.827   4.113   3.708
 8777SOL    HW227231   5.911   3.974   3.701
 8778SOL     OW27232   5.563   2.978   6.116
 8778SOL    HW127233   5.488   2.945   6.060
 8778SOL    HW227234   5.649   2.972   6.065
 8779SOL     OW27235   2.761   5.007   2.565
 8779SOL    HW127236   2.680   5.048   2.606
 8779SOL    HW227237   2.751   5.006   2.465
 8780SOL     OW27238   0.543   6.553   2.694
 8780SOL    HW127239   0.540   6.478   2.628
 8780SOL    HW227240   0.635   6.591   2.696
 8781SOL     OW27241   5.103   1.102   4.140
 8781SOL    HW127242   5.043   1.027   4.170
 8781SOL    HW227243   5.168   1.124   4.212
 8782SOL     OW27244   6.535   0.245   2.565
 8782SOL    HW127245   6.582   0.226   2.479
 8782SOL    HW227246   6.581   0.198   2.640
 8783SOL     OW27247   6.371   4.149   3.543
 8783SOL    HW127248   6.281   4.191   3.559
 8783SOL    HW227249   6.403   4.106   3.627
 8784SOL     OW27250   0.032   5.694   5.359
 8784SOL    HW127251   0.078   5.771   5.402
 8784SOL    HW227252   0.057   5.610   5.407
 8785SOL     OW27253   5.411   4.999   0.181
 8785SOL    HW127254   5.496   5.037   0.146
 8785SOL    HW227255   5.342   4.999   0.107
 8786SOL     OW27256   2.717   1.188   0.297
 8786SOL    HW127257   2.644   1.239   0.342
 8786SOL    HW227258   2.703   1.090   0.311
 8787SOL     OW27259   2.956   0.978   1.984
 8787SOL    HW127260   2.984   1.064   2.029
 8787SOL    HW227261   2.951   0.993   1.885
 8788SOL     OW27262   6.894   0.152   5.522
 8788SOL    HW127263   6.942   0.168   5.436
 8788SOL    HW227264   6.923   0.065   5.561
 8789SOL     OW27265   6.051   5.655   4.905
 8789SOL    HW127266   5.955   5.640   4.931
 8789SOL    HW227267   6.090   5.569   4.871
 8790SOL     OW27268   6.590   0.513   6.502
 8790SOL    HW127269   6.672   0.567   6.483
 8790SOL    HW227270   6.599   0.423   6.458
 8791SOL     OW27271   5.623   6.702   4.996
 8791SOL    HW127272   5.546   6.702   4.933
 8791SOL    HW227273   5.645   6.796   5.022
 8792SOL     OW27274   2.965   5.464   3.093
 8792SOL    HW127275   3.030   5.430   3.161
 8792SOL    HW227276   2.922   5.386   3.047
 8793SOL     OW27277   1.170   4.327   2.564
 8793SOL    HW127278   1.134   4.289   2.649
 8793SOL    HW227279   1.104   4.315   2.491
 8794SOL     OW27280   5.204   0.159   2.718
 8794SOL    HW127281   5.212   0.060   2.727
 8794SOL    HW227282   5.246   0.203   2.797
 8795SOL     OW27283   0.936   3.990   5.939
 8795SOL    HW127284   0.953   3.959   5.845
 8795SOL    HW227285   0.889   4.079   5.936
 8796SOL     OW27286   4.798   2.177   3.988
 8796SOL    HW127287   4.721   2.137   3.938
 8796SOL    HW227288   4.788   2.276   3.991
 8797SOL     OW27289   0.191   0.272   0.136
 8797SOL    HW127290   0.189   0.367   0.107
 8797SOL    HW227291   0.265   0.224   0.089
 8798SOL     OW27292   4.860   6.331   6.282
 8798SOL    HW127293   4.836   6.392   6.207
 8798SOL    HW227294   4.914   6.254   6.248
 8799SOL     OW27295   2.724   4.729   3.586
 8799SOL    HW127296   2.821   4.745   3.568
 8799SOL    HW227297   2.671   4.805   3.550
 8800SOL     OW27298   6.109   4.369   6.369
 8800SOL    HW127299   6.038   4.408   6.310
 8800SOL    HW227300   6.190   4.347   6.314
 8801SOL     OW27301   0.127   0.937   4.388
 8801SOL    HW127302   0.142   1.023   4.436
 8801SOL    HW227303   0.174   0.863   4.436
 8802SOL     OW27304   2.131   6.854   6.195
 8802SOL    HW127305   2.111   6.816   6.286
 8802SOL    HW227306   2.191   6.933   6.205
 8803SOL     OW27307   7.013   6.640   0.050
 8803SOL    HW127308   0.010   6.733   0.080
 8803SOL    HW227309   0.074   6.589   0.040
 8804SOL     OW27310   2.517   6.215   1.675
 8804SOL    HW127311   2.456   6.292   1.659
 8804SOL    HW227312   2.612   6.246   1.674
 8805SOL     OW27313   3.673   6.502   3.702
 8805SOL    HW127314   3.607   6.528   3.773
 8805SOL    HW227315   3.659   6.559   3.621
 8806SOL     OW27316   3.238   4.815   1.425
 8806SOL    HW127317   3.337   4.812   1.421
 8806SOL    HW227318   3.208   4.908   1.447
 8807SOL     OW27319   5.181   0.732   0.200
 8807SOL    HW127320   5.223   0.823   0.201
 8807SOL    HW227321   5.180   0.694   0.293
 8808SOL     OW27322   5.919   3.292   6.621
 8808SOL    HW127323   5.844   3.259   6.563
 8808SOL    HW227324   5.964   3.214   6.665
 8809SOL     OW27325   3.693   5.145   3.522
 8809SOL    HW127326   3.659   5.185   3.437
 8809SOL    HW227327   3.762   5.204   3.562
 8810SOL     OW27328   5.989   0.715   5.046
 8810SOL    HW127329   6.076   0.692   5.088
 8810SOL    HW227330   5.926   0.637   5.053
 8811SOL     OW27331   3.551   1.492   2.871
 8811SOL    HW127332   3.510   1.421   2.928
 8811SOL    HW227333   3.485   1.565   2.856
 8812SOL     OW27334   2.065   0.706   0.367
 8812SOL    HW127335   1.990   0.742   0.421
 8812SOL    HW227336   2.032   0.680   0.276
 8813SOL     OW27337   2.306   5.888   2.895
 8813SOL    HW127338   2.333   5.943   2.816
 8813SOL    HW227339   2.347   5.926   2.978
 8814SOL     OW27340   6.410   0.238   0.979
 8814SOL    HW127341   6.328   0.183   0.994
 8814SOL    HW227342   6.436   0.283   1.064
 8815SOL     OW27343   5.478   6.867   1.313
 8815SOL    HW127344   5.453   6.812   1.232
 8815SOL    HW227345   5.428   6.833   1.392
 8816SOL     OW27346   1.182   6.007   0.568
 8816SOL    HW127347   1.105   6.037   0.511
 8816SOL    HW227348   1.247   5.955   0.512
 8817SOL     OW27349   0.033   4.534   4.063
 8817SOL    HW127350   0.081   4.615   4.096
 8817SOL    HW227351   0.093   4.484   4.000
 8818SOL     OW27352   0.640   4.739   4.421
 8818SOL    HW127353   0.672   4.649   4.450
 8818SOL    HW227354   0.691   4.810   4.470
 8819SOL     OW27355   5.394   5.236   5.563
 8819SOL    HW127356   5.447   5.318   5.538
 8819SOL    HW227357   5.353   5.197   5.481
 8820SOL     OW27358   2.676   0.834   5.316
 8820SOL    HW127359   2.752   0.894   5.343
 8820SOL    HW227360   2.704   0.779   5.238
 8821SOL     OW27361   1.688   5.816   0.964
 8821SOL    HW127362   1.697   5.914   0.946
 8821SOL    HW227363   1.754   5.788   1.033
 8822SOL     OW27364   0.934   0.533   4.575
 8822SOL    HW127365   1.012   0.579   4.617
 8822SOL    HW227366   0.891   0.595   4.509
 8823SOL     OW27367   2.095   1.054   2.567
 8823SOL    HW127368   2.155   1.000   2.627
 8823SOL    HW227369   2.148   1.089   2.490
 8824SOL     OW27370   1.516   1.358   0.151
 8824SOL    HW127371   1.566   1.443   0.168
 8824SOL    HW227372   1.451   1.342   0.225
 8825SOL     OW27373   1.746   0.784   1.727
 8825SOL    HW127374   1.802   0.820   1.652
 8825SOL    HW227375   1.732   0.856   1.795
 8826SOL     OW27376   0.867   3.771   0.243
 8826SOL    HW127377   0.882   3.836   0.169
 8826SOL    HW227378   0.948   3.713   0.254
 8827SOL     OW27379   4.089   0.830   3.324
 8827SOL    HW127380   4.100   0.730   3.319
 8827SOL    HW227381   4.081   0.858   3.419
 8828SOL     OW27382   4.170   5.615   6.497
 8828SOL    HW127383   4.149   5.522   6.471
 8828SOL    HW227384   4.258   5.617   6.546
 8829SOL     OW27385   5.165   2.165   1.552
 8829SOL    HW127386   5.109   2.082   1.552
 8829SOL    HW227387   5.232   2.160   1.626
 8830SOL     OW27388   1.547   1.884   2.541
 8830SOL    HW127389   1.611   1.920   2.609
 8830SOL    HW227390   1.457   1.926   2.555
 8831SOL     OW27391   4.928   2.590   3.254
 8831SOL    HW127392   5.000   2.615   3.190
 8831SOL    HW227393   4.852   2.549   3.205
 8832SOL     OW27394   7.002   6.468   3.148
 8832SOL    HW127395   7.000   6.542   3.081
 8832SOL    HW227396   6.934   6.485   3.219
 8833SOL     OW27397   2.722   5.546   6.870
 8833SOL    HW127398   2.654   5.608   6.829
 8833SOL    HW227399   2.811   5.562   6.828
 8834SOL     OW27400   5.896   3.790   4.775
 8834SOL    HW127401   5.849   3.716   4.823
 8834SOL    HW227402   5.901   3.871   4.834
 8835SOL     OW27403   4.828   0.857   5.682
 8835SOL    HW127404   4.893   0.858   5.606
 8835SOL    HW227405   4.856   0.788   5.749
 8836SOL     OW27406   5.091   2.163   0.299
 8836SOL    HW127407   5.089   2.063   0.300
 8836SOL    HW227408   5.059   2.198   0.387
 8837SOL     OW27409   0.353   0.075   2.422
 8837SOL    HW127410   0.388   0.060   2.330
 8837SOL    HW227411   0.414   0.031   2.489
 8838SOL     OW27412   2.395   4.708   3.744
 8838SOL    HW127413   2.336   4.750   3.813
 8838SOL    HW227414   2.489   4.708   3.777
 8839SOL     OW27415   4.461   5.750   1.580
 8839SOL    HW127416   4.385   5.814   1.566
 8839SOL    HW227417   4.499   5.725   1.491
 8840SOL     OW27418   0.435   1.232   3.345
 8840SOL    HW127419   0.511   1.170   3.325
 8840SOL    HW227420   0.398   1.268   3.259
 8841SOL     OW27421   0.700   0.908   4.818
 8841SOL    HW127422   0.626   0.843   4.834
 8841SOL    HW227423   0.662   0.997   4.795
 8842SOL     OW27424   3.075   3.065   3.298
 8842SOL    HW127425   3.065   3.132   3.225
 8842SOL    HW227426   3.008   2.992   3.285
 8843SOL     OW27427   1.654   3.470   5.215
 8843SOL    HW127428   1.736   3.474   5.159
 8843SOL    HW227429   1.676   3.492   5.309
 8844SOL     OW27430   0.569   1.405   5.392
 8844SOL    HW127431   0.566   1.396   5.492
 8844SOL    HW227432   0.592   1.499   5.368
 8845SOL     OW27433   3.052   3.578   1.111
 8845SOL    HW127434   3.006   3.637   1.045
 8845SOL    HW227435   3.095   3.502   1.063
 8846SOL     OW27436   4.064   4.828   4.388
 8846SOL    HW127437   4.015   4.835   4.301
 8846SOL    HW227438   4.002   4.847   4.464
 8847SOL     OW27439   2.343   1.297   2.817
 8847SOL    HW127440   2.252   1.330   2.796
 8847SOL    HW227441   2.356   1.206   2.776
 8848SOL     OW27442   2.372   1.976   2.161
 8848SOL    HW127443   2.459   1.968   2.114
 8848SOL    HW227444   2.382   2.039   2.238
 8849SOL     OW27445   3.456   5.586   3.526
 8849SOL    HW127446   3.508   5.538   3.597
 8849SOL    HW227447   3.393   5.651   3.568
 8850SOL     OW27448   1.917   1.174   6.698
 8850SOL    HW127449   1.917   1.239   6.622
 8850SOL    HW227450   1.822   1.154   6.724
 8851SOL     OW27451   0.838   4.976   2.045
 8851SOL    HW127452   0.907   4.923   2.094
 8851SOL    HW227453   0.752   4.973   2.096
 8852SOL     OW27454   4.846   3.847   6.030
 8852SOL    HW127455   4.857   3.918   6.100
 8852SOL    HW227456   4.814   3.763   6.074
 8853SOL     OW27457   3.075   0.696   6.516
 8853SOL    HW127458   3.016   0.739   6.584
 8853SOL    HW227459   3.022   0.677   6.433
 8854SOL     OW27460   3.216   1.448   6.155
 8854SOL    HW127461   3.170   1.440   6.067
 8854SOL    HW227462   3.197   1.367   6.211
 8855SOL     OW27463   0.343   5.845   0.573
 8855SOL    HW127464   0.272   5.905   0.612
 8855SOL    HW227465   0.302   5.785   0.505
 8856SOL     OW27466   7.003   0.352   6.386
 8856SOL    HW127467   6.991   0.442   6.427
 8856SOL    HW227468   6.920   0.298   6.398
 8857SOL     OW27469   6.969   1.254   4.152
 8857SOL    HW127470   6.873   1.252   4.124
 8857SOL    HW227471   6.988   1.339   4.201
 8858SOL     OW27472   0.930   2.246   5.451
 8858SOL    HW127473   0.978   2.329   5.422
 8858SOL    HW227474   0.893   2.199   5.370
 8859SOL     OW27475   6.624   0.547   4.402
 8859SOL    HW127476   6.643   0.452   4.424
 8859SOL    HW227477   6.668   0.606   4.470
 8860SOL     OW27478   0.653   3.228   2.507
 8860SOL    HW127479   0.728   3.218   2.442
 8860SOL    HW227480   0.690   3.235   2.600
 8861SOL     OW27481   4.218   1.793   6.287
 8861SOL    HW127482   4.126   1.765   6.315
 8861SOL    HW227483   4.256   1.855   6.355
 8862SOL     OW27484   5.774   0.908   3.445
 8862SOL    HW127485   5.729   0.976   3.387
 8862SOL    HW227486   5.849   0.951   3.495
 8863SOL     OW27487   1.796   4.968   4.067
 8863SOL    HW127488   1.874   5.013   4.023
 8863SOL    HW227489   1.791   4.873   4.036
 8864SOL     OW27490   3.231   3.720   5.702
 8864SOL    HW127491   3.297   3.790   5.676
 8864SOL    HW227492   3.200   3.671   5.620
 8865SOL     OW27493   3.155   1.141   6.160
 8865SOL    HW127494   3.224   1.147   6.087
 8865SOL    HW227495   3.070   1.185   6.129
 8866SOL     OW27496   5.235   0.013   3.160
 8866SOL    HW127497   5.141   0.003   3.193
 8866SOL    HW227498   5.280   0.086   3.210
 8867SOL     OW27499   5.575   3.335   2.265
 8867SOL    HW127500   5.498   3.324   2.328
 8867SOL    HW227501   5.612   3.245   2.242
 8868SOL     OW27502   6.512   2.668   0.626
 8868SOL    HW127503   6.478   2.589   0.676
 8868SOL    HW227504   6.607   2.685   0.651
 8869SOL     OW27505   4.534   6.071   4.651
 8869SOL    HW127506   4.482   5.986   4.642
 8869SOL    HW227507   4.475   6.143   4.685
 8870SOL     OW27508   3.919   0.332   6.885
 8870SOL    HW127509   3.915   0.420   6.837
 8870SOL    HW227510   3.866   0.264   6.834
 8871SOL     OW27511   1.860   0.745   3.857
 8871SOL    HW127512   1.844   0.799   3.774
 8871SOL    HW227513   1.947   0.696   3.848
 8872SOL     OW27514   1.710   4.551   4.799
 8872SOL    HW127515   1.782   4.508   4.853
 8872SOL    HW227516   1.706   4.649   4.820
 8873SOL     OW27517   0.749   5.879   1.967
 8873SOL    HW127518   0.671   5.820   1.983
 8873SOL    HW227519   0.763   5.891   1.868
 8874SOL     OW27520   2.476   5.547   2.311
 8874SOL    HW127521   2.484   5.461   2.260
 8874SOL    HW227522   2.538   5.544   2.390
 8875SOL     OW27523   6.708   3.338   5.221
 8875SOL    HW127524   6.686   3.285   5.139
 8875SOL    HW227525   6.700   3.436   5.200
 8876SOL     OW27526   2.008   0.041   4.418
 8876SOL    HW127527   2.091   7.022   4.384
 8876SOL    HW227528   1.934   6.998   4.422
 8877SOL     OW27529   2.724   0.771   3.883
 8877SOL    HW127530   2.703   0.839   3.953
 8877SOL    HW227531   2.776   0.696   3.922
 8878SOL     OW27532   6.547   5.195   7.009
 8878SOL    HW127533   6.468   5.187   6.948
 8878SOL    HW227534   6.559   5.109   0.035
 8879SOL     OW27535   4.921   4.172   1.887
 8879SOL    HW127536   4.883   4.245   1.944
 8879SOL    HW227537   4.857   4.153   1.812
 8880SOL     OW27538   5.178   5.918   4.699
 8880SOL    HW127539   5.264   5.923   4.647
 8880SOL    HW227540   5.118   5.993   4.671
 8881SOL     OW27541   6.347   6.981   3.626
 8881SOL    HW127542   6.261   7.002   3.581
 8881SOL    HW227543   6.367   6.884   3.617
 8882SOL     OW27544   5.448   1.735   1.143
 8882SOL    HW127545   5.524   1.670   1.144
 8882SOL    HW227546   5.385   1.710   1.069
 8883SOL     OW27547   1.727   6.274   6.343
 8883SOL    HW127548   1.760   6.368   6.350
 8883SOL    HW227549   1.680   6.261   6.256
 8884SOL     OW27550   6.327   4.251   6.283
 8884SOL    HW127551   6.400   4.306   6.242
 8884SOL    HW227552   6.355   4.223   6.375
 8885SOL     OW27553   0.070   3.378   0.926
 8885SOL    HW127554   0.060   3.417   1.018
 8885SOL    HW227555   7.004   3.364   0.885
 8886SOL     OW27556   3.351   6.592   4.703
 8886SOL    HW127557   3.263   6.584   4.658
 8886SOL    HW227558   3.350   6.669   4.767
 8887SOL     OW27559   3.226   1.835   1.337
 8887SOL    HW127560   3.171   1.824   1.254
 8887SOL    HW227561   3.322   1.850   1.312
 8888SOL     OW27562   1.969   1.796   6.597
 8888SOL    HW127563   1.989   1.822   6.503
 8888SOL    HW227564   1.989   1.872   6.658
 8889SOL     OW27565   6.293   0.495   6.234
 8889SOL    HW127566   6.392   0.511   6.232
 8889SOL    HW227567   6.276   0.397   6.239
 8890SOL     OW27568   6.761   5.631   3.961
 8890SOL    HW127569   6.718   5.717   3.990
 8890SOL    HW227570   6.762   5.567   4.038
 8891SOL     OW27571   5.026   3.826   6.369
 8891SOL    HW127572   5.074   3.825   6.281
 8891SOL    HW227573   5.058   3.749   6.425
 8892SOL     OW27574   3.964   5.758   3.375
 8892SOL    HW127575   3.925   5.670   3.405
 8892SOL    HW227576   4.047   5.777   3.427
 8893SOL     OW27577   0.788   5.757   3.473
 8893SOL    HW127578   0.745   5.754   3.383
 8893SOL    HW227579   0.885   5.735   3.465
 8894SOL     OW27580   4.235   2.812   6.406
 8894SOL    HW127581   4.160   2.874   6.385
 8894SOL    HW227582   4.312   2.831   6.345
 8895SOL     OW27583   6.412   2.536   2.355
 8895SOL    HW127584   6.351   2.566   2.429
 8895SOL    HW227585   6.378   2.451   2.316
 8896SOL     OW27586   2.456   3.583   5.773
 8896SOL    HW127587   2.481   3.674   5.804
 8896SOL    HW227588   2.382   3.590   5.706
 8897SOL     OW27589   1.900   2.500   3.243
 8897SOL    HW127590   1.990   2.529   3.276
 8897SOL    HW227591   1.840   2.579   3.238
 8898SOL     OW27592   5.139   3.419   3.172
 8898SOL    HW127593   5.047   3.443   3.203
 8898SOL    HW227594   5.135   3.337   3.115
 8899SOL     OW27595   2.046   5.592   0.653
 8899SOL    HW127596   1.991   5.509   0.660
 8899SOL    HW227597   1.988   5.672   0.669
 8900SOL     OW27598   6.244   3.351   2.631
 8900SOL    HW127599   6.273   3.446   2.626
 8900SOL    HW227600   6.312   3.297   2.680
 8901SOL     OW27601   2.008   0.817   4.411
 8901SOL    HW127602   2.053   0.757   4.477
 8901SOL    HW227603   2.002   0.909   4.448
 8902SOL     OW27604   1.940   0.365   0.237
 8902SOL    HW127605   2.034   0.336   0.256
 8902SOL    HW227606   1.877   0.291   0.260
 8903SOL     OW27607   1.362   1.440   5.150
 8903SOL    HW127608   1.389   1.400   5.063
 8903SOL    HW227609   1.279   1.395   5.184
 8904SOL     OW27610   6.028   6.145   4.038
 8904SOL    HW127611   5.941   6.098   4.054
 8904SOL    HW227612   6.035   6.223   4.099
 8905SOL     OW27613   1.071   4.297   4.034
 8905SOL    HW127614   1.016   4.369   4.077
 8905SOL    HW227615   1.127   4.251   4.103
 8906SOL     OW27616   0.398   6.281   0.120
 8906SOL    HW127617   0.391   6.354   0.188
 8906SOL    HW227618   0.494   6.265   0.098
 8907SOL     OW27619   2.697   2.370   5.065
 8907SOL    HW127620   2.752   2.411   5.137
 8907SOL    HW227621   2.600   2.372   5.090
 8908SOL     OW27622   1.273   3.861   6.420
 8908SOL    HW127623   1.202   3.920   6.381
 8908SOL    HW227624   1.321   3.814   6.346
 8909SOL     OW27625   2.964   0.843   5.703
 8909SOL    HW127626   2.938   0.747   5.688
 8909SOL    HW227627   2.882   0.896   5.725
 8910SOL     OW27628   0.443   2.618   5.904
 8910SOL    HW127629   0.499   2.683   5.955
 8910SOL    HW227630   0.416   2.543   5.964
 8911SOL     OW27631   3.798   1.986   4.636
 8911SOL    HW127632   3.771   2.040   4.715
 8911SOL    HW227633   3.858   2.041   4.577
 8912SOL     OW27634   3.434   3.289   0.203
 8912SOL    HW127635   3.410   3.217   0.137
 8912SOL    HW227636   3.397   3.377   0.171
 8913SOL     OW27637   5.407   5.270   5.836
 8913SOL    HW127638   5.415   5.282   5.737
 8913SOL    HW227639   5.460   5.341   5.882
 8914SOL     OW27640   4.646   0.314   4.815
 8914SOL    HW127641   4.719   0.379   4.792
 8914SOL    HW227642   4.562   0.363   4.836
 8915SOL     OW27643   0.561   2.810   3.647
 8915SOL    HW127644   0.465   2.830   3.662
 8915SOL    HW227645   0.594   2.751   3.721
 8916SOL     OW27646   0.365   3.828   0.812
 8916SOL    HW127647   0.439   3.878   0.856
 8916SOL    HW227648   0.364   3.734   0.844
 8917SOL     OW27649   0.084   3.579   0.305
 8917SOL    HW127650   0.004   3.591   0.363
 8917SOL    HW227651   0.072   3.630   0.219
 8918SOL     OW27652   6.617   4.103   1.138
 8918SOL    HW127653   6.543   4.165   1.112
 8918SOL    HW227654   6.584   4.039   1.207
 8919SOL     OW27655   3.952   4.536   0.511
 8919SOL    HW127656   3.922   4.608   0.574
 8919SOL    HW227657   4.041   4.560   0.473
 8920SOL     OW27658   0.569   0.308   6.892
 8920SOL    HW127659   0.632   0.243   6.849
 8920SOL    HW227660   0.548   0.381   6.826
 8921SOL     OW27661   1.668   2.108   2.343
 8921SOL    HW127662   1.653   2.183   2.408
 8921SOL    HW227663   1.618   2.027   2.374
 8922SOL     OW27664   3.611   5.188   1.570
 8922SOL    HW127665   3.622   5.191   1.471
 8922SOL    HW227666   3.514   5.195   1.594
 8923SOL     OW27667   1.756   3.445   6.367
 8923SOL    HW127668   1.686   3.382   6.334
 8923SOL    HW227669   1.840   3.395   6.386
 8924SOL     OW27670   4.160   5.253   5.578
 8924SOL    HW127671   4.080   5.229   5.524
 8924SOL    HW227672   4.168   5.352   5.584
 8925SOL     OW27673   0.842   1.228   2.814
 8925SOL    HW127674   0.774   1.301   2.810
 8925SOL    HW227675   0.838   1.184   2.904
 8926SOL     OW27676   6.491   3.686   5.778
 8926SOL    HW127677   6.519   3.645   5.864
 8926SOL    HW227678   6.429   3.763   5.796
 8927SOL     OW27679   0.526   1.405   4.652
 8927SOL    HW127680   0.578   1.438   4.573
 8927SOL    HW227681   0.581   1.340   4.704
 8928SOL     OW27682   0.258   0.340   6.417
 8928SOL    HW127683   0.301   0.280   6.484
 8928SOL    HW227684   0.159   0.327   6.418
 8929SOL     OW27685   6.352   2.824   4.350
 8929SOL    HW127686   6.288   2.886   4.305
 8929SOL    HW227687   6.308   2.783   4.430
 8930SOL     OW27688   1.378   3.854   4.353
 8930SOL    HW127689   1.456   3.901   4.394
 8930SOL    HW227690   1.371   3.879   4.256
 8931SOL     OW27691   2.981   3.016   0.609
 8931SOL    HW127692   3.041   2.941   0.639
 8931SOL    HW227693   2.887   2.983   0.602
 8932SOL     OW27694   5.931   0.702   1.138
 8932SOL    HW127695   6.022   0.732   1.108
 8932SOL    HW227696   5.899   0.627   1.081
 8933SOL     OW27697   1.696   3.082   6.073
 8933SOL    HW127698   1.775   3.027   6.100
 8933SOL    HW227699   1.649   3.115   6.155
 8934SOL     OW27700   3.743   5.202   4.559
 8934SOL    HW127701   3.650   5.223   4.590
 8934SOL    HW227702   3.808   5.222   4.631
 8935SOL     OW27703   6.457   4.281   1.002
 8935SOL    HW127704   6.404   4.351   1.049
 8935SOL    HW227705   6.543   4.320   0.969
 8936SOL     OW27706   1.235   3.340   2.212
 8936SOL    HW127707   1.254   3.254   2.260
 8936SOL    HW227708   1.206   3.410   2.277
 8937SOL     OW27709   0.101   6.600   4.935
 8937SOL    HW127710   0.044   6.637   4.862
 8937SOL    HW227711   0.193   6.639   4.929
 8938SOL     OW27712   0.215   1.047   0.389
 8938SOL    HW127713   0.154   1.124   0.408
 8938SOL    HW227714   0.168   0.980   0.333
 8939SOL     OW27715   5.648   4.902   4.490
 8939SOL    HW127716   5.619   4.977   4.431
 8939SOL    HW227717   5.741   4.875   4.465
 8940SOL     OW27718   5.621   1.071   1.778
 8940SOL    HW127719   5.665   1.125   1.706
 8940SOL    HW227720   5.535   1.114   1.804
 8941SOL     OW27721   6.256   2.447   4.327
 8941SOL    HW127722   6.204   2.475   4.408
 8941SOL    HW227723   6.223   2.495   4.247
 8942SOL     OW27724   6.391   5.640   5.835
 8942SOL    HW127725   6.304   5.664   5.792
 8942SOL    HW227726   6.465   5.690   5.789
 8943SOL     OW27727   3.810   5.539   0.441
 8943SOL    HW127728   3.714   5.515   0.421
 8943SOL    HW227729   3.870   5.467   0.405
 8944SOL     OW27730   5.163   6.171   4.212
 8944SOL    HW127731   5.187   6.193   4.306
 8944SOL    HW227732   5.083   6.112   4.211
 8945SOL     OW27733   0.640   1.226   4.278
 8945SOL    HW127734   0.550   1.210   4.319
 8945SOL    HW227735   0.680   1.138   4.249
 8946SOL     OW27736   3.109   0.611   3.643
 8946SOL    HW127737   3.195   0.569   3.673
 8946SOL    HW227738   3.039   0.596   3.713
 8947SOL     OW27739   2.626   3.340   5.820
 8947SOL    HW127740   2.705   3.339   5.759
 8947SOL    HW227741   2.568   3.418   5.798
 8948SOL     OW27742   6.152   5.633   3.582
 8948SOL    HW127743   6.157   5.732   3.567
 8948SOL    HW227744   6.183   5.585   3.500
 8949SOL     OW27745   3.973   6.589   0.931
 8949SOL    HW127746   3.883   6.633   0.935
 8949SOL    HW227747   3.971   6.505   0.985
 8950SOL     OW27748   3.725   3.551   0.503
 8950SOL    HW127749   3.805   3.548   0.563
 8950SOL    HW227750   3.749   3.600   0.419
 8951SOL     OW27751   1.994   1.085   4.514
 8951SOL    HW127752   2.022   1.147   4.588
 8951SOL    HW227753   2.030   1.119   4.427
 8952SOL     OW27754   1.109   5.141   3.729
 8952SOL    HW127755   1.035   5.119   3.792
 8952SOL    HW227756   1.118   5.241   3.722
 8953SOL     OW27757   1.412   4.365   0.442
 8953SOL    HW127758   1.434   4.407   0.530
 8953SOL    HW227759   1.486   4.303   0.416
 8954SOL     OW27760   6.813   6.746   4.475
 8954SOL    HW127761   6.874   6.746   4.395
 8954SOL    HW227762   6.728   6.794   4.452
 8955SOL     OW27763   6.664   4.851   3.273
 8955SOL    HW127764   6.762   4.861   3.259
 8955SOL    HW227765   6.623   4.809   3.191
 8956SOL     OW27766   1.696   1.779   5.695
 8956SOL    HW127767   1.680   1.765   5.793
 8956SOL    HW227768   1.779   1.833   5.682
 8957SOL     OW27769   1.989   4.635   1.396
 8957SOL    HW127770   2.074   4.678   1.365
 8957SOL    HW227771   1.913   4.700   1.387
 8958SOL     OW27772   0.614   2.271   5.179
 8958SOL    HW127773   0.616   2.364   5.214
 8958SOL    HW227774   0.542   2.263   5.111
 8959SOL     OW27775   1.729   4.492   2.300
 8959SOL    HW127776   1.697   4.586   2.285
 8959SOL    HW227777   1.740   4.476   2.398
 8960SOL     OW27778   4.890   5.505   3.664
 8960SOL    HW127779   4.814   5.440   3.668
 8960SOL    HW227780   4.976   5.455   3.657
 8961SOL     OW27781   3.218   1.116   3.481
 8961SOL    HW127782   3.254   1.028   3.449
 8961SOL    HW227783   3.252   1.134   3.573
 8962SOL     OW27784   5.923   5.517   2.213
 8962SOL    HW127785   6.020   5.536   2.228
 8962SOL    HW227786   5.870   5.554   2.290
 8963SOL     OW27787   3.688   0.519   4.814
 8963SOL    HW127788   3.593   0.499   4.836
 8963SOL    HW227789   3.713   0.474   4.729
 8964SOL     OW27790   5.801   2.889   3.291
 8964SOL    HW127791   5.854   2.924   3.214
 8964SOL    HW227792   5.732   2.956   3.318
 8965SOL     OW27793   2.376   5.439   0.115
 8965SOL    HW127794   2.349   5.535   0.105
 8965SOL    HW227795   2.465   5.435   0.159
 8966SOL     OW27796   6.590   3.893   0.079
 8966SOL    HW127797   6.567   3.797   0.062
 8966SOL    HW227798   6.689   3.905   0.076
 8967SOL     OW27799   3.629   0.513   1.786
 8967SOL    HW127800   3.657   0.423   1.753
 8967SOL    HW227801   3.568   0.556   1.719
 8968SOL     OW27802   4.455   5.782   2.385
 8968SOL    HW127803   4.502   5.808   2.301
 8968SOL    HW227804   4.371   5.733   2.363
 8969SOL     OW27805   6.472   0.118   3.789
 8969SOL    HW127806   6.415   0.075   3.720
 8969SOL    HW227807   6.548   0.165   3.745
 8970SOL     OW27808   2.400   3.299   6.639
 8970SOL    HW127809   2.375   3.395   6.624
 8970SOL    HW227810   2.463   3.293   6.716
 8971SOL     OW27811   6.099   5.065   1.552
 8971SOL    HW127812   6.066   4.972   1.537
 8971SOL    HW227813   6.032   5.116   1.606
 8972SOL     OW27814   4.570   3.967   0.618
 8972SOL    HW127815   4.630   4.029   0.668
 8972SOL    HW227816   4.583   3.981   0.520
 8973SOL     OW27817   0.208   3.704   3.295
 8973SOL    HW127818   0.254   3.618   3.317
 8973SOL    HW227819   0.116   3.704   3.333
 8974SOL     OW27820   1.625   3.386   3.998
 8974SOL    HW127821   1.703   3.401   4.059
 8974SOL    HW227822   1.544   3.429   4.037
 8975SOL     OW27823   0.751   6.266   0.482
 8975SOL    HW127824   0.758   6.351   0.430
 8975SOL    HW227825   0.827   6.260   0.548
 8976SOL     OW27826   0.393   5.287   0.298
 8976SOL    HW127827   0.338   5.326   0.224
 8976SOL    HW227828   0.444   5.360   0.344
 8977SOL     OW27829   6.709   3.167   6.771
 8977SOL    HW127830   6.733   3.115   6.853
 8977SOL    HW227831   6.661   3.107   6.707
 8978SOL     OW27832   5.096   6.920   4.373
 8978SOL    HW127833   5.156   6.893   4.298
 8978SOL    HW227834   5.100   7.019   4.385
 8979SOL     OW27835   0.809   4.419   5.586
 8979SOL    HW127836   0.718   4.406   5.546
 8979SOL    HW227837   0.852   4.330   5.601
 8980SOL     OW27838   4.617   2.660   5.146
 8980SOL    HW127839   4.659   2.746   5.117
 8980SOL    HW227840   4.530   2.678   5.192
 8981SOL     OW27841   4.495   2.089   4.746
 8981SOL    HW127842   4.498   2.059   4.651
 8981SOL    HW227843   4.409   2.137   4.763
 8982SOL     OW27844   1.707   1.418   1.559
 8982SOL    HW127845   1.684   1.473   1.639
 8982SOL    HW227846   1.768   1.343   1.587
 8983SOL     OW27847   0.594   5.524   0.727
 8983SOL    HW127848   0.643   5.468   0.794
 8983SOL    HW227849   0.646   5.609   0.711
 8984SOL     OW27850   6.075   6.208   3.779
 8984SOL    HW127851   6.062   6.170   3.871
 8984SOL    HW227852   6.003   6.175   3.718
 8985SOL     OW27853   2.128   1.205   0.577
 8985SOL    HW127854   2.116   1.260   0.660
 8985SOL    HW227855   2.219   1.164   0.576
 8986SOL     OW27856   4.167   4.960   2.034
 8986SOL    HW127857   4.143   4.981   2.129
 8986SOL    HW227858   4.267   4.951   2.026
 8987SOL     OW27859   3.946   0.338   0.934
 8987SOL    HW127860   3.847   0.324   0.927
 8987SOL    HW227861   3.991   0.252   0.957
 8988SOL     OW27862   1.946   4.468   0.400
 8988SOL    HW127863   1.972   4.544   0.342
 8988SOL    HW227864   1.990   4.384   0.368
 8989SOL     OW27865   4.795   4.017   2.107
 8989SOL    HW127866   4.827   4.011   2.013
 8989SOL    HW227867   4.705   4.059   2.109
 8990SOL     OW27868   2.273   6.090   2.673
 8990SOL    HW127869   2.344   6.047   2.618
 8990SOL    HW227870   2.195   6.115   2.615
 8991SOL     OW27871   1.755   1.621   6.559
 8991SOL    HW127872   1.713   1.609   6.648
 8991SOL    HW227873   1.832   1.685   6.567
 8992SOL     OW27874   6.787   2.614   6.558
 8992SOL    HW127875   6.824   2.634   6.467
 8992SOL    HW227876   6.812   2.521   6.584
 8993SOL     OW27877   4.926   2.895   2.854
 8993SOL    HW127878   4.925   2.818   2.790
 8993SOL    HW227879   5.004   2.954   2.833
 8994SOL     OW27880   0.746   4.993   4.841
 8994SOL    HW127881   0.652   5.008   4.811
 8994SOL    HW227882   0.747   4.936   4.923
 8995SOL     OW27883   1.193   2.746   6.608
 8995SOL    HW127884   1.167   2.654   6.577
 8995SOL    HW227885   1.244   2.792   6.535
 8996SOL     OW27886   6.628   5.235   1.844
 8996SOL    HW127887   6.677   5.284   1.917
 8996SOL    HW227888   6.612   5.141   1.873
 8997SOL     OW27889   4.145   1.429   6.410
 8997SOL    HW127890   4.146   1.344   6.462
 8997SOL    HW227891   4.137   1.408   6.312
 8998SOL     OW27892   0.183   3.429   5.150
 8998SOL    HW127893   0.273   3.422   5.108
 8998SOL    HW227894   0.183   3.384   5.239
 8999SOL     OW27895   5.210   0.336   0.613
 8999SOL    HW127896   5.153   0.373   0.686
 8999SOL    HW227897   5.165   0.257   0.572
 9000SOL     OW27898   2.549   4.034   6.108
 9000SOL    HW127899   2.470   4.087   6.141
 9000SOL    HW227900   2.598   3.996   6.186
 9001SOL     OW27901   1.101   5.571   2.713
 9001SOL    HW127902   1.040   5.629   2.661
 9001SOL    HW227903   1.070   5.565   2.808
 9002SOL     OW27904   6.825   5.106   4.647
 9002SOL    HW127905   6.806   5.200   4.673
 9002SOL    HW227906   6.741   5.052   4.653
 9003SOL     OW27907   5.278   2.414   1.196
 9003SOL    HW127908   5.284   2.319   1.164
 9003SOL    HW227909   5.334   2.472   1.138
 9004SOL     OW27910   5.138   6.697   1.936
 9004SOL    HW127911   5.084   6.758   1.994
 9004SOL    HW227912   5.229   6.736   1.923
 9005SOL     OW27913   5.299   2.264   4.995
 9005SOL    HW127914   5.302   2.216   5.083
 9005SOL    HW227915   5.207   2.256   4.956
 9006SOL     OW27916   2.177   6.352   0.480
 9006SOL    HW127917   2.120   6.375   0.401
 9006SOL    HW227918   2.265   6.399   0.472
 9007SOL     OW27919   3.818   6.770   3.936
 9007SOL    HW127920   3.720   6.774   3.955
 9007SOL    HW227921   3.868   6.751   4.020
 9008SOL     OW27922   6.747   4.934   2.878
 9008SOL    HW127923   6.689   4.853   2.880
 9008SOL    HW227924   6.759   4.968   2.972
 9009SOL     OW27925   2.685   0.147   0.237
 9009SOL    HW127926   2.699   0.181   0.144
 9009SOL    HW227927   2.626   0.210   0.287
 9010SOL     OW27928   0.912   6.880   5.019
 9010SOL    HW127929   0.901   6.896   4.921
 9010SOL    HW227930   0.937   6.784   5.034
 9011SOL     OW27931   4.222   2.141   1.550
 9011SOL    HW127932   4.315   2.107   1.538
 9011SOL    HW227933   4.209   2.170   1.645
 9012SOL     OW27934   3.525   4.259   1.227
 9012SOL    HW127935   3.585   4.339   1.228
 9012SOL    HW227936   3.437   4.284   1.188
 9013SOL     OW27937   0.111   6.377   3.913
 9013SOL    HW127938   0.129   6.294   3.861
 9013SOL    HW227939   0.180   6.447   3.891
 9014SOL     OW27940   0.766   0.760   7.010
 9014SOL    HW127941   0.756   0.855   0.017
 9014SOL    HW227942   0.860   0.730   0.002
 9015SOL     OW27943   6.052   1.546   1.309
 9015SOL    HW127944   6.103   1.487   1.373
 9015SOL    HW227945   6.080   1.525   1.216
 9016SOL     OW27946   0.558   6.427   6.778
 9016SOL    HW127947   0.654   6.448   6.797
 9016SOL    HW227948   0.552   6.337   6.735
 9017SOL     OW27949   4.522   2.366   1.960
 9017SOL    HW127950   4.569   2.446   1.998
 9017SOL    HW227951   4.454   2.334   2.025
 9018SOL     OW27952   4.529   1.682   5.660
 9018SOL    HW127953   4.432   1.664   5.678
 9018SOL    HW227954   4.554   1.646   5.570
 9019SOL     OW27955   0.541   0.688   0.814
 9019SOL    HW127956   0.466   0.752   0.803
 9019SOL    HW227957   0.506   0.594   0.808
 9020SOL     OW27958   1.388   3.604   1.519
 9020SOL    HW127959   1.454   3.661   1.469
 9020SOL    HW227960   1.316   3.662   1.557
 9021SOL     OW27961   6.864   0.258   3.959
 9021SOL    HW127962   6.884   0.346   3.917
 9021SOL    HW227963   6.871   0.186   3.890
 9022SOL     OW27964   2.839   1.422   0.957
 9022SOL    HW127965   2.740   1.424   0.942
 9022SOL    HW227966   2.882   1.494   0.904
 9023SOL     OW27967   3.171   3.060   2.447
 9023SOL    HW127968   3.223   3.145   2.449
 9023SOL    HW227969   3.234   2.983   2.442
 9024SOL     OW27970   0.623   5.190   5.117
 9024SOL    HW127971   0.627   5.208   5.018
 9024SOL    HW227972   0.553   5.122   5.136
 9025SOL     OW27973   0.271   6.044   0.135
 9025SOL    HW127974   0.190   6.062   0.190
 9025SOL    HW227975   0.321   6.129   0.121
 9026SOL     OW27976   3.839   3.310   2.009
 9026SOL    HW127977   3.788   3.365   2.075
 9026SOL    HW227978   3.897   3.370   1.953
 9027SOL     OW27979   1.196   1.982   3.911
 9027SOL    HW127980   1.262   1.907   3.910
 9027SOL    HW227981   1.240   2.066   3.879
 9028SOL     OW27982   2.410   3.778   6.816
 9028SOL    HW127983   2.322   3.822   6.797
 9028SOL    HW227984   2.480   3.813   6.754
 9029SOL     OW27985   3.334   5.300   4.977
 9029SOL    HW127986   3.355   5.217   4.925
 9029SOL    HW227987   3.368   5.291   5.070
 9030SOL     OW27988   1.846   1.192   3.349
 9030SOL    HW127989   1.766   1.236   3.390
 9030SOL    HW227990   1.927   1.211   3.404
 9031SOL     OW27991   4.792   5.984   4.595
 9031SOL    HW127992   4.813   5.896   4.552
 9031SOL    HW227993   4.694   6.001   4.589
 9032SOL     OW27994   3.129   2.769   0.775
 9032SOL    HW127995   3.094   2.825   0.849
 9032SOL    HW227996   3.055   2.713   0.737
 9033SOL     OW27997   1.961   4.837   3.783
 9033SOL    HW127998   1.935   4.796   3.871
 9033SOL    HW227999   1.878   4.857   3.730
 9034SOL     OW28000   2.921   0.686   5.249
 9034SOL    HW128001   2.986   0.761   5.242
 9034SOL    HW228002   2.954   0.618   5.315
 9035SOL     OW28003   1.064   5.378   5.869
 9035SOL    HW128004   1.044   5.300   5.810
 9035SOL    HW228005   1.046   5.353   5.964
 9036SOL     OW28006   1.673   0.733   5.488
 9036SOL    HW128007   1.686   0.803   5.559
 9036SOL    HW228008   1.649   0.646   5.531
 9037SOL     OW28009   1.508   3.519   5.885
 9037SOL    HW128010   1.568   3.592   5.918
 9037SOL    HW228011   1.542   3.430   5.915
 9038SOL     OW28012   4.639   0.102   5.944
 9038SOL    HW128013   4.645   0.019   6.000
 9038SOL    HW228014   4.729   0.145   5.939
 9039SOL     OW28015   2.545   4.748   4.224
 9039SOL    HW128016   2.519   4.710   4.313
 9039SOL    HW228017   2.507   4.691   4.151
 9040SOL     OW28018   2.550   1.836   2.463
 9040SOL    HW128019   2.457   1.801   2.453
 9040SOL    HW228020   2.570   1.851   2.560
 9041SOL     OW28021   0.704   2.230   1.955
 9041SOL    HW128022   0.681   2.327   1.959
 9041SOL    HW228023   0.768   2.208   2.030
 9042SOL     OW28024   2.873   6.894   4.120
 9042SOL    HW128025   2.843   6.819   4.179
 9042SOL    HW228026   2.868   6.866   4.024
 9043SOL     OW28027   2.882   1.568   6.506
 9043SOL    HW128028   2.937   1.488   6.528
 9043SOL    HW228029   2.935   1.631   6.449
 9044SOL     OW28030   5.589   1.722   1.630
 9044SOL    HW128031   5.515   1.758   1.572
 9044SOL    HW228032   5.621   1.634   1.594
 9045SOL     OW28033   3.052   1.826   2.396
 9045SOL    HW128034   3.098   1.842   2.308
 9045SOL    HW228035   3.013   1.912   2.429
 9046SOL     OW28036   3.722   3.595   4.949
 9046SOL    HW128037   3.772   3.538   5.014
 9046SOL    HW228038   3.778   3.610   4.867
 9047SOL     OW28039   1.078   2.836   5.409
 9047SOL    HW128040   1.147   2.786   5.357
 9047SOL    HW228041   1.016   2.882   5.346
 9048SOL     OW28042   6.354   2.735   6.110
 9048SOL    HW128043   6.262   2.737   6.072
 9048SOL    HW228044   6.377   2.825   6.148
 9049SOL     OW28045   4.123   0.353   6.475
 9049SOL    HW128046   4.147   0.413   6.399
 9049SOL    HW228047   4.024   0.345   6.481
 9050SOL     OW28048   0.314   4.349   5.801
 9050SOL    HW128049   0.293   4.253   5.821
 9050SOL    HW228050   0.413   4.364   5.807
 9051SOL     OW28051   3.870   6.154   0.762
 9051SOL    HW128052   3.825   6.090   0.699
 9051SOL    HW228053   3.950   6.193   0.717
 9052SOL     OW28054   1.659   2.245   2.936
 9052SOL    HW128055   1.747   2.287   2.913
 9052SOL    HW228056   1.585   2.309   2.912
 9053SOL     OW28057   1.361   1.227   3.048
 9053SOL    HW128058   1.374   1.156   2.979
 9053SOL    HW228059   1.392   1.315   3.011
 9054SOL     OW28060   1.660   0.015   1.974
 9054SOL    HW128061   1.644   0.008   1.875
 9054SOL    HW228062   1.665   6.947   2.013
 9055SOL     OW28063   6.416   3.380   3.863
 9055SOL    HW128064   6.382   3.300   3.912
 9055SOL    HW228065   6.400   3.368   3.765
 9056SOL     OW28066   6.487   0.710   1.349
 9056SOL    HW128067   6.403   0.657   1.338
 9056SOL    HW228068   6.558   0.673   1.288
 9057SOL     OW28069   5.666   5.093   5.688
 9057SOL    HW128070   5.670   4.993   5.697
 9057SOL    HW228071   5.594   5.116   5.623
 9058SOL     OW28072   2.192   1.738   3.515
 9058SOL    HW128073   2.153   1.755   3.606
 9058SOL    HW228074   2.250   1.657   3.519
 9059SOL     OW28075   1.432   1.343   4.884
 9059SOL    HW128076   1.491   1.418   4.855
 9059SOL    HW228077   1.472   1.256   4.853
 9060SOL     OW28078   6.792   2.694   2.293
 9060SOL    HW128079   6.745   2.715   2.207
 9060SOL    HW228080   6.879   2.744   2.297
 9061SOL     OW28081   3.252   5.957   2.321
 9061SOL    HW128082   3.205   5.938   2.234
 9061SOL    HW228083   3.295   6.047   2.316
 9062SOL     OW28084   1.648   5.723   2.140
 9062SOL    HW128085   1.555   5.687   2.139
 9062SOL    HW228086   1.670   5.759   2.231
 9063SOL     OW28087   2.080   6.793   2.611
 9063SOL    HW128088   2.061   6.768   2.516
 9063SOL    HW228089   1.996   6.785   2.665
 9064SOL     OW28090   6.137   3.946   5.471
 9064SOL    HW128091   6.205   3.873   5.479
 9064SOL    HW228092   6.061   3.915   5.414
 9065SOL     OW28093   3.165   6.023   6.622
 9065SOL    HW128094   3.119   6.030   6.534
 9065SOL    HW228095   3.200   6.112   6.649
 9066SOL     OW28096   5.621   0.241   0.455
 9066SOL    HW128097   5.591   0.241   0.360
 9066SOL    HW228098   5.692   0.172   0.467
 9067SOL     OW28099   6.558   0.223   4.301
 9067SOL    HW128100   6.468   0.259   4.326
 9067SOL    HW228101   6.576   0.242   4.205
 9068SOL     OW28102   2.860   0.076   5.497
 9068SOL    HW128103   2.804   0.019   5.557
 9068SOL    HW228104   2.802   0.141   5.449
 9069SOL     OW28105   2.831   2.219   1.762
 9069SOL    HW128106   2.741   2.251   1.734
 9069SOL    HW228107   2.861   2.270   1.843
 9070SOL     OW28108   0.939   3.169   5.950
 9070SOL    HW128109   1.016   3.113   5.917
 9070SOL    HW228110   0.947   3.262   5.915
 9071SOL     OW28111   5.365   0.250   0.949
 9071SOL    HW128112   5.433   0.228   0.880
 9071SOL    HW228113   5.276   0.215   0.921
 9072SOL     OW28114   6.286   1.007   2.326
 9072SOL    HW128115   6.202   1.063   2.324
 9072SOL    HW228116   6.333   1.016   2.238
 9073SOL     OW28117   3.326   6.503   0.603
 9073SOL    HW128118   3.308   6.581   0.663
 9073SOL    HW228119   3.251   6.494   0.538
 9074SOL     OW28120   2.091   1.000   2.181
 9074SOL    HW128121   2.015   1.050   2.138
 9074SOL    HW228122   2.111   0.917   2.128
 9075SOL     OW28123   1.244   1.262   2.069
 9075SOL    HW128124   1.224   1.173   2.110
 9075SOL    HW228125   1.340   1.286   2.087
 9076SOL     OW28126   5.887   1.595   4.999
 9076SOL    HW128127   5.941   1.664   5.046
 9076SOL    HW228128   5.946   1.543   4.937
 9077SOL     OW28129   5.379   6.791   6.574
 9077SOL    HW128130   5.377   6.859   6.648
 9077SOL    HW228131   5.416   6.705   6.609
 9078SOL     OW28132   4.315   3.775   6.449
 9078SOL    HW128133   4.288   3.742   6.359
 9078SOL    HW228134   4.317   3.698   6.513
 9079SOL     OW28135   2.458   6.472   4.131
 9079SOL    HW128136   2.557   6.479   4.135
 9079SOL    HW228137   2.432   6.397   4.069
 9080SOL     OW28138   5.375   1.979   0.214
 9080SOL    HW128139   5.362   2.015   0.307
 9080SOL    HW228140   5.329   1.891   0.206
 9081SOL     OW28141   4.265   6.438   2.602
 9081SOL    HW128142   4.224   6.513   2.653
 9081SOL    HW228143   4.267   6.461   2.505
 9082SOL     OW28144   2.829   6.456   5.457
 9082SOL    HW128145   2.814   6.513   5.376
 9082SOL    HW228146   2.742   6.445   5.506
 9083SOL     OW28147   3.860   4.499   6.008
 9083SOL    HW128148   3.917   4.463   5.934
 9083SOL    HW228149   3.866   4.599   6.010
 9084SOL     OW28150   3.251   3.533   5.475
 9084SOL    HW128151   3.345   3.500   5.474
 9084SOL    HW228152   3.193   3.466   5.523
 9085SOL     OW28153   1.967   4.591   1.000
 9085SOL    HW128154   1.884   4.601   0.945
 9085SOL    HW228155   1.988   4.678   1.045
 9086SOL     OW28156   0.720   4.566   0.462
 9086SOL    HW128157   0.805   4.568   0.410
 9086SOL    HW228158   0.701   4.656   0.499
 9087SOL     OW28159   4.340   2.384   2.202
 9087SOL    HW128160   4.319   2.359   2.297
 9087SOL    HW228161   4.260   2.426   2.160
 9088SOL     OW28162   5.513   6.096   0.492
 9088SOL    HW128163   5.590   6.124   0.435
 9088SOL    HW228164   5.456   6.175   0.514
 9089SOL     OW28165   5.092   6.500   4.877
 9089SOL    HW128166   5.123   6.595   4.880
 9089SOL    HW228167   5.120   6.453   4.961
 9090SOL     OW28168   6.815   6.523   3.344
 9090SOL    HW128169   6.769   6.611   3.355
 9090SOL    HW228170   6.792   6.464   3.421
 9091SOL     OW28171   3.211   3.882   0.750
 9091SOL    HW128172   3.155   3.808   0.788
 9091SOL    HW228173   3.156   3.965   0.745
 9092SOL     OW28174   0.219   2.085   0.988
 9092SOL    HW128175   0.120   2.083   0.976
 9092SOL    HW228176   0.261   2.142   0.917
 9093SOL     OW28177   1.269   6.675   6.275
 9093SOL    HW128178   1.237   6.697   6.183
 9093SOL    HW228179   1.343   6.608   6.270
 9094SOL     OW28180   6.052   5.477   2.910
 9094SOL    HW128181   5.960   5.476   2.872
 9094SOL    HW228182   6.103   5.398   2.875
 9095SOL     OW28183   4.413   4.151   6.274
 9095SOL    HW128184   4.363   4.129   6.358
 9095SOL    HW228185   4.495   4.093   6.268
 9096SOL     OW28186   5.815   3.932   1.686
 9096SOL    HW128187   5.746   3.863   1.665
 9096SOL    HW228188   5.901   3.886   1.709
 9097SOL     OW28189   0.828   1.891   6.643
 9097SOL    HW128190   0.832   1.797   6.610
 9097SOL    HW228191   0.790   1.893   6.735
 9098SOL     OW28192   3.700   2.144   6.005
 9098SOL    HW128193   3.766   2.150   5.931
 9098SOL    HW228194   3.748   2.134   6.092
 9099SOL     OW28195   2.690   2.341   6.039
 9099SOL    HW128196   2.790   2.352   6.036
 9099SOL    HW228197   2.647   2.428   6.014
 9100SOL     OW28198   0.514   3.771   3.838
 9100SOL    HW128199   0.606   3.798   3.865
 9100SOL    HW228200   0.518   3.722   3.750
 9101SOL     OW28201   2.157   2.278   2.826
 9101SOL    HW128202   2.137   2.355   2.765
 9101SOL    HW228203   2.094   2.279   2.904
 9102SOL     OW28204   2.955   0.051   1.472
 9102SOL    HW128205   2.879   7.018   1.443
 9102SOL    HW228206   2.955   0.060   1.571
 9103SOL     OW28207   6.391   3.256   6.599
 9103SOL    HW128208   6.358   3.350   6.606
 9103SOL    HW228209   6.425   3.226   6.688
 9104SOL     OW28210   6.809   6.300   1.898
 9104SOL    HW128211   6.873   6.251   1.839
 9104SOL    HW228212   6.806   6.256   1.988
 9105SOL     OW28213   1.594   1.626   6.786
 9105SOL    HW128214   1.502   1.654   6.758
 9105SOL    HW228215   1.636   1.699   6.839
 9106SOL     OW28216   7.020   3.015   0.344
 9106SOL    HW128217   6.990   2.943   0.281
 9106SOL    HW228218   0.039   2.974   0.424
 9107SOL     OW28219   3.490   1.030   5.776
 9107SOL    HW128220   3.585   1.042   5.804
 9107SOL    HW228221   3.432   1.090   5.832
 9108SOL     OW28222   4.976   4.041   5.858
 9108SOL    HW128223   5.015   4.032   5.767
 9108SOL    HW228224   4.916   3.964   5.876
 9109SOL     OW28225   6.700   2.254   3.046
 9109SOL    HW128226   6.644   2.244   3.128
 9109SOL    HW228227   6.643   2.279   2.968
 9110SOL     OW28228   1.827   4.708   3.980
 9110SOL    HW128229   1.914   4.668   4.010
 9110SOL    HW228230   1.752   4.666   4.031
 9111SOL     OW28231   4.638   1.727   0.747
 9111SOL    HW128232   4.612   1.680   0.662
 9111SOL    HW228233   4.736   1.713   0.764
 9112SOL     OW28234   0.863   5.285   3.620
 9112SOL    HW128235   0.873   5.330   3.709
 9112SOL    HW228236   0.800   5.208   3.629
 9113SOL     OW28237   4.725   1.303   2.539
 9113SOL    HW128238   4.666   1.340   2.467
 9113SOL    HW228239   4.670   1.251   2.604
 9114SOL     OW28240   0.995   4.578   2.388
 9114SOL    HW128241   1.062   4.525   2.337
 9114SOL    HW228242   1.029   4.594   2.481
 9115SOL     OW28243   0.166   5.991   4.385
 9115SOL    HW128244   0.087   5.981   4.445
 9115SOL    HW228245   0.220   5.907   4.385
 9116SOL     OW28246   6.486   0.977   1.813
 9116SOL    HW128247   6.463   1.063   1.768
 9116SOL    HW228248   6.494   0.905   1.745
 9117SOL     OW28249   5.615   2.311   0.467
 9117SOL    HW128250   5.527   2.282   0.430
 9117SOL    HW228251   5.631   2.407   0.443
 9118SOL     OW28252   6.554   3.612   0.065
 9118SOL    HW128253   6.652   3.595   0.075
 9118SOL    HW228254   6.520   3.562   7.009
 9119SOL     OW28255   4.584   0.321   2.591
 9119SOL    HW128256   4.528   0.357   2.665
 9119SOL    HW228257   4.526   0.280   2.522
 9120SOL     OW28258   6.286   2.087   6.247
 9120SOL    HW128259   6.343   2.134   6.179
 9120SOL    HW228260   6.256   2.153   6.316
 9121SOL     OW28261   4.377   0.945   4.882
 9121SOL    HW128262   4.355   1.033   4.924
 9121SOL    HW228263   4.325   0.873   4.927
 9122SOL     OW28264   2.228   4.102   2.458
 9122SOL    HW128265   2.314   4.141   2.424
 9122SOL    HW228266   2.166   4.176   2.485
 9123SOL     OW28267   2.519   0.702   3.209
 9123SOL    HW128268   2.425   0.667   3.208
 9123SOL    HW228269   2.525   0.777   3.276
 9124SOL     OW28270   5.397   6.353   0.270
 9124SOL    HW128271   5.354   6.264   0.283
 9124SOL    HW228272   5.452   6.352   0.186
 9125SOL     OW28273   5.083   4.361   0.295
 9125SOL    HW128274   5.149   4.293   0.263
 9125SOL    HW228275   5.058   4.421   0.219
 9126SOL     OW28276   6.203   3.545   1.320
 9126SOL    HW128277   6.222   3.469   1.382
 9126SOL    HW228278   6.152   3.616   1.369
 9127SOL     OW28279   0.166   1.647   6.266
 9127SOL    HW128280   0.067   1.656   6.256
 9127SOL    HW228281   0.205   1.613   6.180
 9128SOL     OW28282   5.899   2.473   5.325
 9128SOL    HW128283   5.988   2.512   5.301
 9128SOL    HW228284   5.827   2.536   5.297
 9129SOL     OW28285   0.306   2.408   0.514
 9129SOL    HW128286   0.208   2.393   0.508
 9129SOL    HW228287   0.349   2.380   0.428
 9130SOL     OW28288   0.638   3.415   6.070
 9130SOL    HW128289   0.637   3.319   6.040
 9130SOL    HW228290   0.626   3.418   6.169
 9131SOL     OW28291   5.744   2.754   5.534
 9131SOL    HW128292   5.844   2.746   5.536
 9131SOL    HW228293   5.716   2.833   5.588
 9132SOL     OW28294   0.076   5.702   4.266
 9132SOL    HW128295   0.044   5.609   4.244
 9132SOL    HW228296   0.039   5.766   4.199
 9133SOL     OW28297   3.742   6.767   1.747
 9133SOL    HW128298   3.677   6.839   1.722
 9133SOL    HW228299   3.795   6.740   1.666
 9134SOL     OW28300   3.591   5.944   1.371
 9134SOL    HW128301   3.518   6.009   1.393
 9134SOL    HW228302   3.578   5.909   1.278
 9135SOL     OW28303   6.417   6.680   1.352
 9135SOL    HW128304   6.446   6.683   1.447
 9135SOL    HW228305   6.393   6.772   1.321
 9136SOL     OW28306   5.013   6.270   6.959
 9136SOL    HW128307   5.067   6.345   6.998
 9136SOL    HW228308   4.918   6.278   6.989
 9137SOL     OW28309   5.013   1.453   0.667
 9137SOL    HW128310   4.996   1.477   0.571
 9137SOL    HW228311   5.111   1.446   0.683
 9138SOL     OW28312   0.416   5.677   6.364
 9138SOL    HW128313   0.464   5.661   6.450
 9138SOL    HW228314   0.341   5.742   6.380
 9139SOL     OW28315   1.895   2.041   3.070
 9139SOL    HW128316   1.815   1.988   3.044
 9139SOL    HW228317   1.923   2.015   3.163
 9140SOL     OW28318   6.993   3.483   2.494
 9140SOL    HW128319   0.053   3.526   2.461
 9140SOL    HW228320   7.000   3.384   2.486
 9141SOL     OW28321   5.412   0.079   1.400
 9141SOL    HW128322   5.347   0.024   1.453
 9141SOL    HW228323   5.459   0.021   1.335
 9142SOL     OW28324   0.600   2.938   0.806
 9142SOL    HW128325   0.640   2.876   0.874
 9142SOL    HW228326   0.504   2.915   0.792
 9143SOL     OW28327   6.426   3.254   0.459
 9143SOL    HW128328   6.485   3.203   0.396
 9143SOL    HW228329   6.481   3.291   0.534
 9144SOL     OW28330   2.719   5.011   4.783
 9144SOL    HW128331   2.778   5.081   4.824
 9144SOL    HW228332   2.774   4.933   4.755
 9145SOL     OW28333   0.296   5.299   0.004
 9145SOL    HW128334   0.250   5.321   6.942
 9145SOL    HW228335   0.392   5.279   7.011
 9146SOL     OW28336   5.465   3.121   3.573
 9146SOL    HW128337   5.481   3.023   3.577
 9146SOL    HW228338   5.553   3.169   3.583
 9147SOL     OW28339   5.844   6.464   5.259
 9147SOL    HW128340   5.933   6.454   5.304
 9147SOL    HW228341   5.855   6.523   5.179
 9148SOL     OW28342   5.000   6.466   1.983
 9148SOL    HW128343   5.054   6.530   1.927
 9148SOL    HW228344   4.965   6.513   2.064
 9149SOL     OW28345   5.353   3.954   2.735
 9149SOL    HW128346   5.448   3.935   2.708
 9149SOL    HW228347   5.294   3.946   2.656
 9150SOL     OW28348   3.155   5.155   1.173
 9150SOL    HW128349   3.083   5.220   1.151
 9150SOL    HW228350   3.127   5.096   1.248
 9151SOL     OW28351   1.480   4.420   3.701
 9151SOL    HW128352   1.513   4.400   3.609
 9151SOL    HW228353   1.386   4.386   3.710
 9152SOL     OW28354   2.174   3.983   4.481
 9152SOL    HW128355   2.154   3.954   4.574
 9152SOL    HW228356   2.176   3.904   4.420
 9153SOL     OW28357   0.270   2.961   0.254
 9153SOL    HW128358   0.338   3.024   0.291
 9153SOL    HW228359   0.179   2.999   0.268
 9154SOL     OW28360   5.650   4.758   5.745
 9154SOL    HW128361   5.586   4.709   5.686
 9154SOL    HW228362   5.737   4.770   5.697
 9155SOL     OW28363   1.620   4.144   2.655
 9155SOL    HW128364   1.622   4.126   2.754
 9155SOL    HW228365   1.691   4.090   2.610
 9156SOL     OW28366   0.581   1.956   1.014
 9156SOL    HW128367   0.618   2.041   0.976
 9156SOL    HW228368   0.560   1.970   1.111
 9157SOL     OW28369   2.373   4.171   6.429
 9157SOL    HW128370   2.331   4.235   6.494
 9157SOL    HW228371   2.314   4.163   6.349
 9158SOL     OW28372   6.334   3.482   4.531
 9158SOL    HW128373   6.425   3.448   4.508
 9158SOL    HW228374   6.283   3.411   4.580
 9159SOL     OW28375   1.544   1.085   2.579
 9159SOL    HW128376   1.644   1.083   2.574
 9159SOL    HW228377   1.516   1.131   2.664
 9160SOL     OW28378   0.073   6.707   6.238
 9160SOL    HW128379   0.077   6.623   6.293
 9160SOL    HW228380   0.098   6.785   6.295
 9161SOL     OW28381   5.154   5.153   3.811
 9161SOL    HW128382   5.227   5.129   3.875
 9161SOL    HW228383   5.124   5.071   3.763
 9162SOL     OW28384   4.144   0.544   3.654
 9162SOL    HW128385   4.131   0.591   3.741
 9162SOL    HW228386   4.236   0.561   3.620
 9163SOL     OW28387   6.833   2.152   4.372
 9163SOL    HW128388   6.831   2.218   4.296
 9163SOL    HW228389   6.896   2.078   4.349
 9164SOL     OW28390   1.482   0.674   6.796
 9164SOL    HW128391   1.549   0.647   6.727
 9164SOL    HW228392   1.448   0.592   6.843
 9165SOL     OW28393   5.722   1.706   6.004
 9165SOL    HW128394   5.733   1.643   6.080
 9165SOL    HW228395   5.700   1.798   6.038
 9166SOL     OW28396   3.912   6.325   1.411
 9166SOL    HW128397   3.886   6.232   1.387
 9166SOL    HW228398   3.917   6.335   1.510
 9167SOL     OW28399   2.104   2.357   5.937
 9167SOL    HW128400   2.156   2.305   6.004
 9167SOL    HW228401   2.110   2.454   5.957
 9168SOL     OW28402   6.373   5.953   6.497
 9168SOL    HW128403   6.318   5.940   6.579
 9168SOL    HW228404   6.317   5.994   6.425
 9169SOL     OW28405   6.945   6.618   6.651
 9169SOL    HW128406   0.011   6.661   6.661
 9169SOL    HW228407   6.878   6.688   6.625
 9170SOL     OW28408   1.557   0.290   6.682
 9170SOL    HW128409   1.645   0.311   6.640
 9170SOL    HW228410   1.566   0.209   6.739
 9171SOL     OW28411   3.273   6.102   0.523
 9171SOL    HW128412   3.331   6.042   0.469
 9171SOL    HW228413   3.188   6.056   0.546
 9172SOL     OW28414   4.922   1.260   3.951
 9172SOL    HW128415   4.970   1.186   3.997
 9172SOL    HW228416   4.988   1.315   3.899
 9173SOL     OW28417   5.887   4.487   5.718
 9173SOL    HW128418   5.955   4.432   5.671
 9173SOL    HW228419   5.930   4.537   5.793
 9174SOL     OW28420   0.112   5.364   0.429
 9174SOL    HW128421   0.160   5.277   0.433
 9174SOL    HW228422   0.068   5.374   0.340
 9175SOL     OW28423   1.513   6.184   6.464
 9175SOL    HW128424   1.597   6.208   6.416
 9175SOL    HW228425   1.439   6.169   6.398
 9176SOL     OW28426   2.484   0.946   2.013
 9176SOL    HW128427   2.405   0.987   2.059
 9176SOL    HW228428   2.469   0.847   2.003
 9177SOL     OW28429   0.585   3.841   4.175
 9177SOL    HW128430   0.673   3.857   4.129
 9177SOL    HW228431   0.598   3.842   4.274
 9178SOL     OW28432   2.056   4.895   6.685
 9178SOL    HW128433   2.106   4.934   6.761
 9178SOL    HW228434   1.993   4.964   6.647
 9179SOL     OW28435   1.844   5.524   4.085
 9179SOL    HW128436   1.862   5.503   3.989
 9179SOL    HW228437   1.870   5.446   4.142
 9180SOL     OW28438   6.165   2.624   3.432
 9180SOL    HW128439   6.191   2.537   3.390
 9180SOL    HW228440   6.231   2.695   3.407
 9181SOL     OW28441   5.947   2.410   4.897
 9181SOL    HW128442   5.938   2.510   4.896
 9181SOL    HW228443   6.039   2.386   4.928
 9182SOL     OW28444   2.585   6.885   3.127
 9182SOL    HW128445   2.658   6.834   3.172
 9182SOL    HW228446   2.500   6.872   3.177
 9183SOL     OW28447   4.818   4.923   6.492
 9183SOL    HW128448   4.772   5.006   6.459
 9183SOL    HW228449   4.775   4.892   6.577
 9184SOL     OW28450   4.093   2.837   1.156
 9184SOL    HW128451   4.006   2.803   1.120
 9184SOL    HW228452   4.090   2.936   1.164
 9185SOL     OW28453   6.568   6.545   4.501
 9185SOL    HW128454   6.521   6.563   4.415
 9185SOL    HW228455   6.619   6.626   4.529
 9186SOL     OW28456   5.857   0.179   4.751
 9186SOL    HW128457   5.856   0.117   4.829
 9186SOL    HW228458   5.765   0.181   4.710
 9187SOL     OW28459   3.572   1.624   0.070
 9187SOL    HW128460   3.600   1.583   7.008
 9187SOL    HW228461   3.622   1.582   0.146
 9188SOL     OW28462   2.013   0.228   1.345
 9188SOL    HW128463   2.107   0.227   1.377
 9188SOL    HW228464   1.960   0.157   1.393
 9189SOL     OW28465   3.744   6.119   2.366
 9189SOL    HW128466   3.694   6.110   2.280
 9189SOL    HW228467   3.680   6.136   2.440
 9190SOL     OW28468   0.562   2.917   5.289
 9190SOL    HW128469   0.605   2.987   5.346
 9190SOL    HW228470   0.633   2.870   5.236
 9191SOL     OW28471   5.742   1.123   6.376
 9191SOL    HW128472   5.680   1.064   6.428
 9191SOL    HW228473   5.832   1.080   6.371
 9192SOL     OW28474   6.981   2.286   6.250
 9192SOL    HW128475   6.899   2.306   6.196
 9192SOL    HW228476   7.011   2.192   6.233
 9193SOL     OW28477   3.941   3.293   4.410
 9193SOL    HW128478   3.991   3.251   4.334
 9193SOL    HW228479   3.856   3.333   4.376
 9194SOL     OW28480   3.182   0.496   2.548
 9194SOL    HW128481   3.082   0.496   2.550
 9194SOL    HW228482   3.216   0.405   2.573
 9195SOL     OW28483   1.340   3.242   2.872
 9195SOL    HW128484   1.430   3.271   2.907
 9195SOL    HW228485   1.270   3.262   2.941
 9196SOL     OW28486   5.679   6.553   3.952
 9196SOL    HW128487   5.730   6.597   3.878
 9196SOL    HW228488   5.585   6.536   3.923
 9197SOL     OW28489   3.436   4.848   0.905
 9197SOL    HW128490   3.362   4.915   0.914
 9197SOL    HW228491   3.449   4.802   0.993
 9198SOL     OW28492   6.354   4.141   6.853
 9198SOL    HW128493   6.263   4.101   6.845
 9198SOL    HW228494   6.353   4.234   6.815
 9199SOL     OW28495   0.218   3.081   5.505
 9199SOL    HW128496   0.152   3.080   5.580
 9199SOL    HW228497   0.172   3.054   5.420
 9200SOL     OW28498   2.817   6.022   5.566
 9200SOL    HW128499   2.856   6.028   5.658
 9200SOL    HW228500   2.816   5.926   5.537
 9201SOL     OW28501   6.907   2.978   6.875
 9201SOL    HW128502   6.852   2.907   6.920
 9201SOL    HW228503   6.972   3.016   6.941
 9202SOL     OW28504   0.828   5.126   4.377
 9202SOL    HW128505   0.788   5.209   4.416
 9202SOL    HW228506   0.928   5.131   4.384
 9203SOL     OW28507   6.250   2.956   6.318
 9203SOL    HW128508   6.239   3.042   6.369
 9203SOL    HW228509   6.338   2.915   6.341
 9204SOL     OW28510   4.950   3.488   4.282
 9204SOL    HW128511   5.026   3.426   4.305
 9204SOL    HW228512   4.923   3.540   4.363
 9205SOL     OW28513   4.968   5.635   2.866
 9205SOL    HW128514   5.003   5.541   2.864
 9205SOL    HW228515   4.987   5.675   2.956
 9206SOL     OW28516   3.167   6.248   3.698
 9206SOL    HW128517   3.105   6.188   3.647
 9206SOL    HW228518   3.237   6.192   3.744
 9207SOL     OW28519   4.196   5.061   0.407
 9207SOL    HW128520   4.188   5.156   0.438
 9207SOL    HW228521   4.263   5.012   0.464
 9208SOL     OW28522   5.848   3.853   2.350
 9208SOL    HW128523   5.944   3.866   2.323
 9208SOL    HW228524   5.843   3.787   2.424
 9209SOL     OW28525   4.577   0.787   1.624
 9209SOL    HW128526   4.539   0.850   1.691
 9209SOL    HW228527   4.508   0.767   1.554
 9210SOL     OW28528   0.821   0.809   1.370
 9210SOL    HW128529   0.879   0.729   1.357
 9210SOL    HW228530   0.734   0.796   1.322
 9211SOL     OW28531   5.759   3.126   6.470
 9211SOL    HW128532   5.702   3.159   6.395
 9211SOL    HW228533   5.821   3.055   6.436
 9212SOL     OW28534   5.036   4.251   4.338
 9212SOL    HW128535   4.990   4.311   4.272
 9212SOL    HW228536   5.049   4.161   4.297
 9213SOL     OW28537   5.054   5.398   4.523
 9213SOL    HW128538   4.976   5.376   4.464
 9213SOL    HW228539   5.130   5.431   4.467
 9214SOL     OW28540   0.099   3.001   5.276
 9214SOL    HW128541   0.003   3.027   5.270
 9214SOL    HW228542   0.156   3.072   5.235
 9215SOL     OW28543   1.710   4.418   2.552
 9215SOL    HW128544   1.700   4.318   2.555
 9215SOL    HW228545   1.652   4.459   2.622
 9216SOL     OW28546   2.386   6.426   3.673
 9216SOL    HW128547   2.427   6.516   3.689
 9216SOL    HW228548   2.405   6.398   3.579
 9217SOL     OW28549   6.365   2.758   6.904
 9217SOL    HW128550   6.281   2.758   6.849
 9217SOL    HW228551   6.444   2.768   6.843
 9218SOL     OW28552   4.135   0.870   0.114
 9218SOL    HW128553   4.168   0.951   0.161
 9218SOL    HW228554   4.066   0.896   0.046
 9219SOL     OW28555   4.622   3.778   6.378
 9219SOL    HW128556   4.529   3.775   6.340
 9219SOL    HW228557   4.677   3.844   6.326
 9220SOL     OW28558   1.016   6.224   2.127
 9220SOL    HW128559   0.931   6.171   2.136
 9220SOL    HW228560   1.058   6.205   2.038
 9221SOL     OW28561   2.361   0.054   4.018
 9221SOL    HW128562   2.343   0.083   4.112
 9221SOL    HW228563   2.423   0.119   3.975
 9222SOL     OW28564   2.497   5.499   5.457
 9222SOL    HW128565   2.506   5.578   5.396
 9222SOL    HW228566   2.506   5.415   5.404
 9223SOL     OW28567   1.405   2.961   4.377
 9223SOL    HW128568   1.328   2.992   4.433
 9223SOL    HW228569   1.441   3.038   4.323
 9224SOL     OW28570   1.367   4.840   3.576
 9224SOL    HW128571   1.356   4.786   3.660
 9224SOL    HW228572   1.278   4.848   3.530
 9225SOL     OW28573   3.494   6.011   5.773
 9225SOL    HW128574   3.439   5.954   5.712
 9225SOL    HW228575   3.528   6.090   5.723
 9226SOL     OW28576   0.611   6.899   1.085
 9226SOL    HW128577   0.568   6.833   1.147
 9226SOL    HW228578   0.548   6.975   1.068
 9227SOL     OW28579   2.310   6.081   1.130
 9227SOL    HW128580   2.369   6.112   1.057
 9227SOL    HW228581   2.240   6.020   1.093
 9228SOL     OW28582   2.885   1.943   6.966
 9228SOL    HW128583   2.829   1.951   0.024
 9228SOL    HW228584   2.840   1.992   6.891
 9229SOL     OW28585   1.138   4.501   5.377
 9229SOL    HW128586   1.176   4.570   5.315
 9229SOL    HW228587   1.138   4.536   5.470
 9230SOL     OW28588   5.113   3.127   3.686
 9230SOL    HW128589   5.120   3.219   3.648
 9230SOL    HW228590   5.094   3.062   3.611
 9231SOL     OW28591   1.407   3.156   5.487
 9231SOL    HW128592   1.476   3.157   5.415
 9231SOL    HW228593   1.450   3.134   5.575
 9232SOL     OW28594   2.988   5.357   0.095
 9232SOL    HW128595   3.004   5.356   7.020
 9232SOL    HW228596   2.962   5.265   0.125
 9233SOL     OW28597   6.635   6.424   0.987
 9233SOL    HW128598   6.586   6.413   1.074
 9233SOL    HW228599   6.725   6.464   1.006
 9234SOL     OW28600   2.962   5.885   0.467
 9234SOL    HW128601   2.956   5.923   0.559
 9234SOL    HW228602   3.034   5.817   0.463
 9235SOL     OW28603   2.141   2.552   3.335
 9235SOL    HW128604   2.207   2.628   3.336
 9235SOL    HW228605   2.186   2.469   3.367
 9236SOL     OW28606   1.947   4.191   0.244
 9236SOL    HW128607   1.939   4.233   0.154
 9236SOL    HW228608   1.941   4.092   0.236
 9237SOL     OW28609   0.734   5.544   3.048
 9237SOL    HW128610   0.725   5.599   3.131
 9237SOL    HW228611   0.680   5.460   3.057
 9238SOL     OW28612   2.581   2.855   6.236
 9238SOL    HW128613   2.562   2.942   6.281
 9238SOL    HW228614   2.643   2.801   6.293
 9239SOL     OW28615   0.237   3.808   5.829
 9239SOL    HW128616   0.256   3.798   5.927
 9239SOL    HW228617   0.321   3.791   5.777
 9240SOL     OW28618   4.979   2.960   2.234
 9240SOL    HW128619   4.978   2.860   2.235
 9240SOL    HW228620   4.919   2.993   2.161
 9241SOL     OW28621   0.308   5.160   0.523
 9241SOL    HW128622   0.279   5.065   0.515
 9241SOL    HW228623   0.349   5.189   0.436
 9242SOL     OW28624   1.282   3.954   1.028
 9242SOL    HW128625   1.244   4.045   1.046
 9242SOL    HW228626   1.331   3.955   0.941
 9243SOL     OW28627   6.965   0.143   1.383
 9243SOL    HW128628   6.958   0.202   1.302
 9243SOL    HW228629   0.017   0.079   1.371
 9244SOL     OW28630   3.118   5.588   6.130
 9244SOL    HW128631   3.197   5.562   6.185
 9244SOL    HW228632   3.147   5.601   6.035
 9245SOL     OW28633   0.912   5.337   3.889
 9245SOL    HW128634   0.938   5.416   3.943
 9245SOL    HW228635   0.922   5.254   3.945
 9246SOL     OW28636   6.031   7.000   3.051
 9246SOL    HW128637   5.958   6.947   3.006
 9246SOL    HW228638   6.120   6.967   3.020
 9247SOL     OW28639   2.528   5.925   3.440
 9247SOL    HW128640   2.548   5.976   3.356
 9247SOL    HW228641   2.431   5.933   3.461
 9248SOL     OW28642   3.076   1.915   4.185
 9248SOL    HW128643   2.977   1.916   4.172
 9248SOL    HW228644   3.098   1.886   4.278
 9249SOL     OW28645   3.819   4.962   1.339
 9249SOL    HW128646   3.901   5.019   1.345
 9249SOL    HW228647   3.845   4.868   1.318
 9250SOL     OW28648   5.465   3.446   4.880
 9250SOL    HW128649   5.554   3.451   4.833
 9250SOL    HW228650   5.392   3.458   4.814
 9251SOL     OW28651   4.068   1.858   2.807
 9251SOL    HW128652   4.092   1.787   2.873
 9251SOL    HW228653   4.040   1.817   2.721
 9252SOL     OW28654   5.680   0.635   4.437
 9252SOL    HW128655   5.617   0.562   4.461
 9252SOL    HW228656   5.764   0.626   4.490
 9253SOL     OW28657   5.563   5.456   5.535
 9253SOL    HW128658   5.498   5.521   5.575
 9253SOL    HW228659   5.558   5.461   5.435
 9254SOL     OW28660   5.002   5.377   3.031
 9254SOL    HW128661   5.087   5.427   3.049
 9254SOL    HW228662   5.023   5.297   2.975
 9255SOL     OW28663   5.042   3.624   0.239
 9255SOL    HW128664   5.004   3.567   0.312
 9255SOL    HW228665   5.141   3.630   0.249
 9256SOL     OW28666   3.453   0.333   2.638
 9256SOL    HW128667   3.498   0.297   2.720
 9256SOL    HW228668   3.501   0.414   2.606
 9257SOL     OW28669   6.710   4.812   3.540
 9257SOL    HW128670   6.627   4.842   3.585
 9257SOL    HW228671   6.696   4.810   3.441
 9258SOL     OW28672   4.041   3.855   2.227
 9258SOL    HW128673   3.941   3.858   2.231
 9258SOL    HW228674   4.079   3.902   2.307
 9259SOL     OW28675   0.395   1.853   0.793
 9259SOL    HW128676   0.414   1.889   0.884
 9259SOL    HW228677   0.350   1.924   0.738
 9260SOL     OW28678   6.041   1.979   5.445
 9260SOL    HW128679   6.064   1.882   5.451
 9260SOL    HW228680   5.943   1.990   5.428
 9261SOL     OW28681   3.672   1.526   0.613
 9261SOL    HW128682   3.720   1.452   0.659
 9261SOL    HW228683   3.686   1.612   0.663
 9262SOL     OW28684   6.639   5.812   5.113
 9262SOL    HW128685   6.689   5.844   5.032
 9262SOL    HW228686   6.545   5.846   5.108
 9263SOL     OW28687   4.548   0.272   2.265
 9263SOL    HW128688   4.488   0.325   2.324
 9263SOL    HW228689   4.638   0.316   2.261
 9264SOL     OW28690   5.039   4.634   0.454
 9264SOL    HW128691   5.129   4.609   0.488
 9264SOL    HW228692   5.002   4.558   0.400
 9265SOL     OW28693   3.499   2.702   6.828
 9265SOL    HW128694   3.472   2.792   6.795
 9265SOL    HW228695   3.592   2.706   6.865
 9266SOL     OW28696   1.026   5.825   1.116
 9266SOL    HW128697   1.098   5.779   1.064
 9266SOL    HW228698   0.978   5.890   1.057
 9267SOL     OW28699   0.033   2.054   4.659
 9267SOL    HW128700   0.045   1.963   4.620
 9267SOL    HW228701   0.104   2.115   4.625
 9268SOL     OW28702   1.356   6.597   2.893
 9268SOL    HW128703   1.272   6.543   2.891
 9268SOL    HW228704   1.386   6.609   2.987
 9269SOL     OW28705   4.450   1.129   6.402
 9269SOL    HW128706   4.416   1.160   6.491
 9269SOL    HW228707   4.540   1.087   6.414
 9270SOL     OW28708   4.566   6.580   5.980
 9270SOL    HW128709   4.477   6.623   5.992
 9270SOL    HW228710   4.632   6.650   5.951
 9271SOL     OW28711   6.195   0.121   1.068
 9271SOL    HW128712   6.219   0.156   1.159
 9271SOL    HW228713   6.105   0.157   1.041
 9272SOL     OW28714   0.992   5.375   5.437
 9272SOL    HW128715   0.991   5.461   5.387
 9272SOL    HW228716   0.947   5.387   5.526
 9273SOL     OW28717   5.839   6.158   2.708
 9273SOL    HW128718   5.902   6.189   2.779
 9273SOL    HW228719   5.771   6.228   2.691
 9274SOL     OW28720   6.591   1.545   0.568
 9274SOL    HW128721   6.534   1.592   0.635
 9274SOL    HW228722   6.581   1.446   0.578
 9275SOL     OW28723   6.255   1.140   6.994
 9275SOL    HW128724   6.323   1.085   0.019
 9275SOL    HW228725   6.190   1.079   6.948
 9276SOL     OW28726   1.872   4.151   1.466
 9276SOL    HW128727   1.875   4.246   1.436
 9276SOL    HW228728   1.800   4.102   1.417
 9277SOL     OW28729   4.532   4.713   0.703
 9277SOL    HW128730   4.549   4.660   0.786
 9277SOL    HW228731   4.450   4.679   0.657
 9278SOL     OW28732   1.556   6.934   5.691
 9278SOL    HW128733   1.487   6.996   5.728
 9278SOL    HW228734   1.563   6.948   5.592
 9279SOL     OW28735   3.135   0.712   1.562
 9279SOL    HW128736   3.151   0.632   1.505
 9279SOL    HW228737   3.174   0.697   1.653
 9280SOL     OW28738   2.128   1.885   2.047
 9280SOL    HW128739   2.216   1.902   2.090
 9280SOL    HW228740   2.140   1.880   1.948
 9281SOL     OW28741   2.672   4.272   6.938
 9281SOL    HW128742   2.623   4.185   6.927
 9281SOL    HW228743   2.676   4.295   0.011
 9282SOL     OW28744   5.503   0.875   3.319
 9282SOL    HW128745   5.537   0.833   3.403
 9282SOL    HW228746   5.540   0.827   3.240
 9283SOL     OW28747   4.899   0.930   4.163
 9283SOL    HW128748   4.809   0.924   4.206
 9283SOL    HW228749   4.888   0.946   4.065
 9284SOL     OW28750   2.849   2.990   5.349
 9284SOL    HW128751   2.816   3.078   5.313
 9284SOL    HW228752   2.772   2.940   5.390
 9285SOL     OW28753   5.216   3.248   1.008
 9285SOL    HW128754   5.274   3.202   0.941
 9285SOL    HW228755   5.123   3.255   0.972
 9286SOL     OW28756   5.330   5.726   0.730
 9286SOL    HW128757   5.323   5.752   0.633
 9286SOL    HW228758   5.256   5.769   0.781
 9287SOL     OW28759   3.446   5.134   6.598
 9287SOL    HW128760   3.535   5.178   6.611
 9287SOL    HW228761   3.449   5.041   6.635
 9288SOL     OW28762   4.449   1.412   2.931
 9288SOL    HW128763   4.417   1.479   2.998
 9288SOL    HW228764   4.405   1.430   2.843
 9289SOL     OW28765   4.386   0.412   1.580
 9289SOL    HW128766   4.343   0.322   1.582
 9289SOL    HW228767   4.359   0.464   1.661
 9290SOL     OW28768   5.506   0.518   3.285
 9290SOL    HW128769   5.549   0.598   3.243
 9290SOL    HW228770   5.466   0.543   3.373
 9291SOL     OW28771   1.090   4.905   5.898
 9291SOL    HW128772   0.992   4.909   5.879
 9291SOL    HW228773   1.107   4.933   5.992
 9292SOL     OW28774   2.154   2.615   5.947
 9292SOL    HW128775   2.134   2.685   6.014
 9292SOL    HW228776   2.195   2.657   5.866
 9293SOL     OW28777   6.154   3.114   6.735
 9293SOL    HW128778   6.231   3.156   6.687
 9293SOL    HW228779   6.158   3.139   6.832
 9294SOL     OW28780   5.096   0.474   6.086
 9294SOL    HW128781   5.006   0.513   6.065
 9294SOL    HW228782   5.087   0.375   6.096
 9295SOL     OW28783   5.322   0.827   4.995
 9295SOL    HW128784   5.357   0.920   4.986
 9295SOL    HW228785   5.371   0.767   4.932
 9296SOL     OW28786   1.569   5.403   6.603
 9296SOL    HW128787   1.633   5.480   6.600
 9296SOL    HW228788   1.551   5.371   6.510
 9297SOL     OW28789   1.204   6.824   3.091
 9297SOL    HW128790   1.300   6.846   3.077
 9297SOL    HW228791   1.147   6.879   3.030
 9298SOL     OW28792   1.263   6.264   6.730
 9298SOL    HW128793   1.255   6.195   6.659
 9298SOL    HW228794   1.227   6.351   6.697
 9299SOL     OW28795   0.431   1.829   4.069
 9299SOL    HW128796   0.410   1.784   3.983
 9299SOL    HW228797   0.385   1.781   4.144
 9300SOL     OW28798   0.593   4.371   5.888
 9300SOL    HW128799   0.639   4.333   5.968
 9300SOL    HW228800   0.622   4.466   5.875
 9301SOL     OW28801   5.379   5.194   4.832
 9301SOL    HW128802   5.390   5.096   4.812
 9301SOL    HW228803   5.428   5.216   4.916
 9302SOL     OW28804   2.142   3.202   4.038
 9302SOL    HW128805   2.158   3.197   4.136
 9302SOL    HW228806   2.141   3.110   3.999
 9303SOL     OW28807   3.042   4.051   0.464
 9303SOL    HW128808   3.070   4.094   0.550
 9303SOL    HW228809   2.969   4.105   0.422
 9304SOL     OW28810   4.185   4.456   1.608
 9304SOL    HW128811   4.165   4.358   1.606
 9304SOL    HW228812   4.277   4.470   1.644
 9305SOL     OW28813   3.524   1.408   0.970
 9305SOL    HW128814   3.495   1.317   0.999
 9305SOL    HW228815   3.468   1.477   1.016
 9306SOL     OW28816   1.259   3.798   5.503
 9306SOL    HW128817   1.214   3.734   5.440
 9306SOL    HW228818   1.349   3.762   5.528
 9307SOL     OW28819   1.258   4.248   1.095
 9307SOL    HW128820   1.206   4.221   1.015
 9307SOL    HW228821   1.308   4.333   1.077
 9308SOL     OW28822   1.529   3.594   0.637
 9308SOL    HW128823   1.574   3.653   0.705
 9308SOL    HW228824   1.575   3.604   0.549
 9309SOL     OW28825   3.424   5.283   6.213
 9309SOL    HW128826   3.416   5.302   6.116
 9309SOL    HW228827   3.520   5.266   6.236
 9310SOL     OW28828   5.788   5.762   5.546
 9310SOL    HW128829   5.814   5.723   5.457
 9310SOL    HW228830   5.699   5.807   5.538
 9311SOL     OW28831   4.977   5.113   1.292
 9311SOL    HW128832   4.924   5.197   1.279
 9311SOL    HW228833   4.962   5.053   1.214
 9312SOL     OW28834   1.404   3.342   1.572
 9312SOL    HW128835   1.391   3.441   1.569
 9312SOL    HW228836   1.338   3.301   1.634
 9313SOL     OW28837   0.211   0.188   1.761
 9313SOL    HW128838   0.125   0.152   1.727
 9313SOL    HW228839   0.234   0.272   1.711
 9314SOL     OW28840   5.981   4.224   7.016
 9314SOL    HW128841   6.052   4.159   6.991
 9314SOL    HW228842   5.990   4.307   6.959
 9315SOL     OW28843   6.974   6.944   5.172
 9315SOL    HW128844   6.896   6.972   5.227
 9315SOL    HW228845   6.956   6.964   5.076
 9316SOL     OW28846   5.600   6.147   5.823
 9316SOL    HW128847   5.630   6.108   5.911
 9316SOL    HW228848   5.558   6.236   5.839
 9317SOL     OW28849   4.290   5.676   3.940
 9317SOL    HW128850   4.369   5.721   3.898
 9317SOL    HW228851   4.227   5.645   3.868
 9318SOL     OW28852   6.342   0.863   6.398
 9318SOL    HW128853   6.430   0.874   6.445
 9318SOL    HW228854   6.352   0.893   6.303
 9319SOL     OW28855   2.486   3.279   0.992
 9319SOL    HW128856   2.468   3.354   1.055
 9319SOL    HW228857   2.529   3.203   1.041
 9320SOL     OW28858   3.610   0.666   5.208
 9320SOL    HW128859   3.679   0.646   5.139
 9320SOL    HW228860   3.655   0.687   5.295
 9321SOL     OW28861   1.210   0.339   5.007
 9321SOL    HW128862   1.274   0.308   5.076
 9321SOL    HW228863   1.159   0.260   4.971
 9322SOL     OW28864   6.966   3.608   6.540
 9322SOL    HW128865   0.000   3.682   6.507
 9322SOL    HW228866   7.012   3.561   6.616
 9323SOL     OW28867   0.859   1.331   4.962
 9323SOL    HW128868   0.847   1.304   5.058
 9323SOL    HW228869   0.956   1.330   4.939
 9324SOL     OW28870   1.502   4.303   2.272
 9324SOL    HW128871   1.566   4.378   2.290
 9324SOL    HW228872   1.488   4.293   2.173
 9325SOL     OW28873   6.325   0.202   6.802
 9325SOL    HW128874   6.377   0.214   6.887
 9325SOL    HW228875   6.280   0.288   6.779
 9326SOL     OW28876   2.754   4.553   0.328
 9326SOL    HW128877   2.830   4.518   0.382
 9326SOL    HW228878   2.781   4.557   0.231
 9327SOL     OW28879   4.804   0.464   2.521
 9327SOL    HW128880   4.720   0.411   2.532
 9327SOL    HW228881   4.881   0.410   2.555
 9328SOL     OW28882   2.351   0.962   4.315
 9328SOL    HW128883   2.352   0.972   4.215
 9328SOL    HW228884   2.258   0.945   4.346
 9329SOL     OW28885   5.755   3.903   1.136
 9329SOL    HW128886   5.738   4.001   1.136
 9329SOL    HW228887   5.735   3.866   1.045
 9330SOL     OW28888   6.553   0.288   5.197
 9330SOL    HW128889   6.536   0.297   5.099
 9330SOL    HW228890   6.523   0.371   5.244
 9331SOL     OW28891   2.898   1.088   6.370
 9331SOL    HW128892   2.956   1.155   6.419
 9331SOL    HW228893   2.816   1.134   6.336
 9332SOL     OW28894   3.434   4.549   0.389
 9332SOL    HW128895   3.473   4.640   0.399
 9332SOL    HW228896   3.397   4.538   0.297
 9333SOL     OW28897   3.662   5.099   6.346
 9333SOL    HW128898   3.606   5.021   6.371
 9333SOL    HW228899   3.636   5.178   6.401
 9334SOL     OW28900   4.624   6.639   4.561
 9334SOL    HW128901   4.688   6.706   4.599
 9334SOL    HW228902   4.661   6.602   4.476
 9335SOL     OW28903   1.152   1.129   6.507
 9335SOL    HW128904   1.164   1.153   6.411
 9335SOL    HW228905   1.093   1.196   6.552
 9336SOL     OW28906   3.809   0.590   5.039
 9336SOL    HW128907   3.753   0.571   4.958
 9336SOL    HW228908   3.867   0.669   5.022
 9337SOL     OW28909   4.664   0.851   4.820
 9337SOL    HW128910   4.570   0.827   4.792
 9337SOL    HW228911   4.661   0.916   4.895
 9338SOL     OW28912   5.912   6.884   1.333
 9338SOL    HW128913   6.001   6.884   1.288
 9338SOL    HW228914   5.895   6.973   1.374
 9339SOL     OW28915   6.049   6.428   0.182
 9339SOL    HW128916   6.079   6.485   0.105
 9339SOL    HW228917   6.063   6.478   0.268
 9340SOL     OW28918   4.069   4.789   3.270
 9340SOL    HW128919   4.074   4.794   3.369
 9340SOL    HW228920   3.977   4.817   3.240
 9341SOL     OW28921   5.774   5.087   1.449
 9341SOL    HW128922   5.781   5.148   1.529
 9341SOL    HW228923   5.781   5.142   1.365
 9342SOL     OW28924   3.139   6.646   4.509
 9342SOL    HW128925   3.194   6.730   4.507
 9342SOL    HW228926   3.043   6.671   4.524
 9343SOL     OW28927   4.785   4.364   2.019
 9343SOL    HW128928   4.797   4.463   2.028
 9343SOL    HW228929   4.688   4.343   2.014
 9344SOL     OW28930   5.609   6.459   1.699
 9344SOL    HW128931   5.537   6.390   1.711
 9344SOL    HW228932   5.683   6.420   1.644
 9345SOL     OW28933   6.656   5.180   0.981
 9345SOL    HW128934   6.637   5.277   0.961
 9345SOL    HW228935   6.646   5.127   0.897
 9346SOL     OW28936   4.776   0.980   1.730
 9346SOL    HW128937   4.839   0.918   1.684
 9346SOL    HW228938   4.746   1.050   1.666
 9347SOL     OW28939   3.269   5.029   0.474
 9347SOL    HW128940   3.351   4.974   0.466
 9347SOL    HW228941   3.251   5.050   0.570
 9348SOL     OW28942   3.218   5.634   2.597
 9348SOL    HW128943   3.198   5.655   2.693
 9348SOL    HW228944   3.272   5.708   2.557
 9349SOL     OW28945   6.288   5.058   1.953
 9349SOL    HW128946   6.210   5.080   2.012
 9349SOL    HW228947   6.285   5.117   1.872
 9350SOL     OW28948   6.388   1.760   5.180
 9350SOL    HW128949   6.377   1.854   5.212
 9350SOL    HW228950   6.485   1.737   5.174
 9351SOL     OW28951   3.504   6.793   5.770
 9351SOL    HW128952   3.519   6.823   5.676
 9351SOL    HW228953   3.582   6.818   5.826
 9352SOL     OW28954   3.431   1.564   6.293
 9352SOL    HW128955   3.346   1.540   6.246
 9352SOL    HW228956   3.436   1.515   6.380
 9353SOL     OW28957   0.870   4.525   0.772
 9353SOL    HW128958   0.831   4.444   0.729
 9353SOL    HW228959   0.812   4.604   0.752
 9354SOL     OW28960   0.308   1.883   5.960
 9354SOL    HW128961   0.308   1.977   5.925
 9354SOL    HW228962   0.221   1.865   6.007
 9355SOL     OW28963   0.609   1.643   4.314
 9355SOL    HW128964   0.584   1.570   4.251
 9355SOL    HW228965   0.682   1.611   4.374
 9356SOL     OW28966   4.677   6.134   2.008
 9356SOL    HW128967   4.743   6.174   1.945
 9356SOL    HW228968   4.712   6.139   2.101
 9357SOL     OW28969   2.315   3.535   6.743
 9357SOL    HW128970   2.361   3.622   6.761
 9357SOL    HW228971   2.225   3.536   6.787
 9358SOL     OW28972   6.741   3.288   2.480
 9358SOL    HW128973   6.758   3.275   2.577
 9358SOL    HW228974   6.752   3.384   2.456
 9359SOL     OW28975   0.849   3.446   5.611
 9359SOL    HW128976   0.915   3.442   5.685
 9359SOL    HW228977   0.895   3.424   5.524
 9360SOL     OW28978   1.834   5.546   6.549
 9360SOL    HW128979   1.859   5.624   6.607
 9360SOL    HW228980   1.874   5.463   6.586
 9361SOL     OW28981   1.455   6.503   2.654
 9361SOL    HW128982   1.442   6.539   2.747
 9361SOL    HW228983   1.407   6.416   2.646
 9362SOL     OW28984   2.020   3.476   3.071
 9362SOL    HW128985   1.990   3.488   2.976
 9362SOL    HW228986   2.066   3.559   3.103
 9363SOL     OW28987   3.644   6.899   2.128
 9363SOL    HW128988   3.736   6.938   2.135
 9363SOL    HW228989   3.651   6.800   2.111
 9364SOL     OW28990   4.018   2.956   6.322
 9364SOL    HW128991   3.993   3.049   6.292
 9364SOL    HW228992   3.940   2.915   6.369
 9365SOL     OW28993   2.328   2.127   4.653
 9365SOL    HW128994   2.348   2.070   4.733
 9365SOL    HW228995   2.280   2.073   4.584
 9366SOL     OW28996   3.603   6.407   6.098
 9366SOL    HW128997   3.666   6.413   6.020
 9366SOL    HW228998   3.521   6.461   6.079
 9367SOL     OW28999   0.055   6.383   2.590
 9367SOL    HW129000   0.152   6.394   2.614
 9367SOL    HW229001   0.037   6.426   2.502
 9368SOL     OW29002   2.891   1.346   2.934
 9368SOL    HW129003   2.812   1.373   2.880
 9368SOL    HW229004   2.901   1.246   2.932
 9369SOL     OW29005   6.143   6.493   4.993
 9369SOL    HW129006   6.170   6.463   4.901
 9369SOL    HW229007   6.056   6.541   4.987
 9370SOL     OW29008   5.001   0.509   2.981
 9370SOL    HW129009   5.033   0.580   2.919
 9370SOL    HW229010   4.904   0.523   3.001
 9371SOL     OW29011   2.628   5.349   0.235
 9371SOL    HW129012   2.652   5.297   0.153
 9371SOL    HW229013   2.582   5.289   0.300
 9372SOL     OW29014   5.725   6.482   2.422
 9372SOL    HW129015   5.733   6.576   2.390
 9372SOL    HW229016   5.726   6.420   2.344
 9373SOL     OW29017   4.887   2.264   2.889
 9373SOL    HW129018   4.797   2.227   2.913
 9373SOL    HW229019   4.956   2.192   2.899
 9374SOL     OW29020   0.564   3.616   0.243
 9374SOL    HW129021   0.652   3.598   0.287
 9374SOL    HW229022   0.568   3.583   0.148
 9375SOL     OW29023   0.537   1.277   2.371
 9375SOL    HW129024   0.474   1.215   2.326
 9375SOL    HW229025   0.513   1.286   2.468
 9376SOL     OW29026   2.638   4.105   1.343
 9376SOL    HW129027   2.609   4.200   1.333
 9376SOL    HW229028   2.565   4.052   1.385
 9377SOL     OW29029   2.313   5.430   4.375
 9377SOL    HW129030   2.265   5.343   4.379
 9377SOL    HW229031   2.384   5.432   4.445
 9378SOL     OW29032   1.790   1.445   4.206
 9378SOL    HW129033   1.799   1.485   4.115
 9378SOL    HW229034   1.696   1.413   4.219
 9379SOL     OW29035   4.172   6.229   5.709
 9379SOL    HW129036   4.173   6.212   5.807
 9379SOL    HW229037   4.150   6.144   5.661
 9380SOL     OW29038   5.286   5.476   4.835
 9380SOL    HW129039   5.293   5.379   4.859
 9380SOL    HW229040   5.200   5.492   4.786
 9381SOL     OW29041   3.616   2.623   6.151
 9381SOL    HW129042   3.570   2.678   6.221
 9381SOL    HW229043   3.548   2.583   6.090
 9382SOL     OW29044   3.714   0.708   3.580
 9382SOL    HW129045   3.778   0.683   3.652
 9382SOL    HW229046   3.642   0.767   3.618
 9383SOL     OW29047   0.331   5.496   4.605
 9383SOL    HW129048   0.416   5.502   4.658
 9383SOL    HW229049   0.318   5.581   4.554
 9384SOL     OW29050   4.118   0.359   2.549
 9384SOL    HW129051   4.070   0.320   2.628
 9384SOL    HW229052   4.052   0.376   2.476
 9385SOL     OW29053   4.585   1.222   3.561
 9385SOL    HW129054   4.596   1.304   3.617
 9385SOL    HW229055   4.492   1.218   3.526
 9386SOL     OW29056   1.957   5.946   5.266
 9386SOL    HW129057   1.894   5.870   5.248
 9386SOL    HW229058   1.947   5.976   5.361
 9387SOL     OW29059   2.917   1.921   6.605
 9387SOL    HW129060   2.876   1.831   6.601
 9387SOL    HW229061   2.998   1.924   6.546
 9388SOL     OW29062   3.104   5.957   2.734
 9388SOL    HW129063   3.191   5.919   2.766
 9388SOL    HW229064   3.091   5.933   2.638
 9389SOL     OW29065   1.940   6.864   3.382
 9389SOL    HW129066   1.961   6.942   3.322
 9389SOL    HW229067   1.987   6.877   3.469
 9390SOL     OW29068   5.248   5.155   6.017
 9390SOL    HW129069   5.320   5.195   5.961
 9390SOL    HW229070   5.254   5.056   6.014
 9391SOL     OW29071   2.269   1.609   5.166
 9391SOL    HW129072   2.334   1.563   5.227
 9391SOL    HW229073   2.298   1.595   5.071
 9392SOL     OW29074   5.800   6.219   5.134
 9392SOL    HW129075   5.702   6.200   5.130
 9392SOL    HW229076   5.815   6.308   5.177
 9393SOL     OW29077   3.273   6.293   6.720
 9393SOL    HW129078   3.201   6.354   6.687
 9393SOL    HW229079   3.357   6.312   6.669
 9394SOL     OW29080   6.981   0.926   1.787
 9394SOL    HW129081   0.047   0.970   1.795
 9394SOL    HW229082   6.992   0.832   1.756
 9395SOL     OW29083   2.510   1.566   1.228
 9395SOL    HW129084   2.482   1.579   1.133
 9395SOL    HW229085   2.581   1.633   1.250
 9396SOL     OW29086   2.243   4.264   4.080
 9396SOL    HW129087   2.203   4.177   4.051
 9396SOL    HW229088   2.250   4.266   4.180
 9397SOL     OW29089   4.704   0.200   6.255
 9397SOL    HW129090   4.765   0.121   6.264
 9397SOL    HW229091   4.746   0.268   6.195
 9398SOL     OW29092   6.845   1.226   4.877
 9398SOL    HW129093   6.865   1.319   4.907
 9398SOL    HW229094   6.920   1.193   4.819
 9399SOL     OW29095   0.892   2.360   5.707
 9399SOL    HW129096   0.808   2.413   5.719
 9399SOL    HW229097   0.893   2.320   5.616
 9400SOL     OW29098   4.503   0.739   1.931
 9400SOL    HW129099   4.601   0.759   1.927
 9400SOL    HW229100   4.454   0.804   1.873
 9401SOL     OW29101   6.619   0.640   3.940
 9401SOL    HW129102   6.691   0.694   3.897
 9401SOL    HW229103   6.650   0.608   4.029
 9402SOL     OW29104   1.552   5.155   2.853
 9402SOL    HW129105   1.460   5.126   2.825
 9402SOL    HW229106   1.579   5.234   2.799
 9403SOL     OW29107   6.478   1.246   3.078
 9403SOL    HW129108   6.412   1.299   3.025
 9403SOL    HW229109   6.529   1.186   3.018
 9404SOL     OW29110   1.143   3.096   0.325
 9404SOL    HW129111   1.214   3.049   0.379
 9404SOL    HW229112   1.084   3.148   0.387
 9405SOL     OW29113   2.406   4.390   3.683
 9405SOL    HW129114   2.422   4.479   3.640
 9405SOL    HW229115   2.493   4.351   3.712
 9406SOL     OW29116   6.808   2.866   5.851
 9406SOL    HW129117   6.847   2.949   5.891
 9406SOL    HW229118   6.708   2.869   5.858
 9407SOL     OW29119   3.204   4.966   3.632
 9407SOL    HW129120   3.242   5.056   3.655
 9407SOL    HW229121   3.160   4.927   3.713
 9408SOL     OW29122   6.543   2.919   6.256
 9408SOL    HW129123   6.502   2.991   6.200
 9408SOL    HW229124   6.633   2.949   6.289
 9409SOL     OW29125   5.939   5.887   0.360
 9409SOL    HW129126   5.996   5.933   0.293
 9409SOL    HW229127   5.930   5.790   0.336
 9410SOL     OW29128   2.667   0.332   1.212
 9410SOL    HW129129   2.568   0.320   1.206
 9410SOL    HW229130   2.687   0.425   1.242
 9411SOL     OW29131   3.666   3.180   2.266
 9411SOL    HW129132   3.648   3.211   2.173
 9411SOL    HW229133   3.693   3.084   2.265
 9412SOL     OW29134   0.224   1.426   2.712
 9412SOL    HW129135   0.307   1.392   2.667
 9412SOL    HW229136   0.156   1.352   2.717
 9413SOL     OW29137   3.856   5.583   3.748
 9413SOL    HW129138   3.954   5.581   3.769
 9413SOL    HW229139   3.842   5.551   3.654
 9414SOL     OW29140   2.970   1.085   3.032
 9414SOL    HW129141   2.961   1.116   3.126
 9414SOL    HW229142   2.974   0.985   3.030
 9415SOL     OW29143   2.446   0.060   2.037
 9415SOL    HW129144   2.368   0.039   1.979
 9415SOL    HW229145   2.513   7.010   2.030
 9416SOL     OW29146   6.904   2.138   0.467
 9416SOL    HW129147   6.948   2.050   0.485
 9416SOL    HW229148   6.892   2.150   0.369
 9417SOL     OW29149   4.570   0.618   0.676
 9417SOL    HW129150   4.579   0.535   0.731
 9417SOL    HW229151   4.646   0.623   0.611
 9418SOL     OW29152   3.573   0.369   1.176
 9418SOL    HW129153   3.639   0.294   1.185
 9418SOL    HW229154   3.485   0.341   1.214
 9419SOL     OW29155   2.816   4.541   5.807
 9419SOL    HW129156   2.726   4.577   5.781
 9419SOL    HW229157   2.806   4.481   5.887
 9420SOL     OW29158   5.745   4.127   5.815
 9420SOL    HW129159   5.725   4.204   5.875
 9420SOL    HW229160   5.830   4.083   5.846
 9421SOL     OW29161   2.399   6.449   4.414
 9421SOL    HW129162   2.400   6.488   4.322
 9421SOL    HW229163   2.479   6.390   4.427
 9422SOL     OW29164   3.089   5.635   2.831
 9422SOL    HW129165   3.086   5.699   2.908
 9422SOL    HW229166   3.007   5.578   2.831
 9423SOL     OW29167   2.907   6.335   3.877
 9423SOL    HW129168   2.923   6.343   3.975
 9423SOL    HW229169   2.939   6.245   3.846
 9424SOL     OW29170   5.162   2.496   5.022
 9424SOL    HW129171   5.219   2.415   5.008
 9424SOL    HW229172   5.163   2.520   5.119
 9425SOL     OW29173   5.754   3.811   0.875
 9425SOL    HW129174   5.807   3.741   0.923
 9425SOL    HW229175   5.812   3.856   0.806
 9426SOL     OW29176   3.890   1.759   6.304
 9426SOL    HW129177   3.885   1.693   6.379
 9426SOL    HW229178   3.842   1.722   6.225
 9427SOL     OW29179   2.268   5.430   2.922
 9427SOL    HW129180   2.286   5.485   2.841
 9427SOL    HW229181   2.289   5.484   3.004
 9428SOL     OW29182   7.023   0.772   1.404
 9428SOL    HW129183   0.098   0.779   1.418
 9428SOL    HW229184   6.981   0.861   1.418
 9429SOL     OW29185   2.135   3.973   3.016
 9429SOL    HW129186   2.190   4.003   3.095
 9429SOL    HW229187   2.164   4.024   2.935
 9430SOL     OW29188   0.226   3.756   4.401
 9430SOL    HW129189   0.169   3.716   4.472
 9430SOL    HW229190   0.318   3.717   4.407
 9431SOL     OW29191   6.629   4.022   0.641
 9431SOL    HW129192   6.704   4.039   0.578
 9431SOL    HW229193   6.665   4.010   0.734
 9432SOL     OW29194   5.374   0.245   3.590
 9432SOL    HW129195   5.341   0.191   3.668
 9432SOL    HW229196   5.434   0.188   3.534
 9433SOL     OW29197   3.429   6.224   2.872
 9433SOL    HW129198   3.421   6.286   2.950
 9433SOL    HW229199   3.460   6.134   2.904
 9434SOL     OW29200   5.303   5.838   2.728
 9434SOL    HW129201   5.285   5.832   2.630
 9434SOL    HW229202   5.221   5.810   2.779
 9435SOL     OW29203   0.416   2.528   4.417
 9435SOL    HW129204   0.446   2.539   4.323
 9435SOL    HW229205   0.462   2.594   4.475
 9436SOL     OW29206   1.663   3.038   1.339
 9436SOL    HW129207   1.763   3.046   1.335
 9436SOL    HW229208   1.622   3.128   1.321
 9437SOL     OW29209   1.295   5.735   3.127
 9437SOL    HW129210   1.292   5.796   3.206
 9437SOL    HW229211   1.202   5.703   3.106
 9438SOL     OW29212   0.559   0.331   1.176
 9438SOL    HW129213   0.547   0.311   1.273
 9438SOL    HW229214   0.646   0.380   1.162
 9439SOL     OW29215   0.211   3.124   0.904
 9439SOL    HW129216   0.177   3.218   0.898
 9439SOL    HW229217   0.311   3.125   0.912
 9440SOL     OW29218   3.797   4.869   3.262
 9440SOL    HW129219   3.711   4.918   3.251
 9440SOL    HW229220   3.813   4.849   3.359
 9441SOL     OW29221   6.304   4.350   5.751
 9441SOL    HW129222   6.228   4.286   5.757
 9441SOL    HW229223   6.322   4.373   5.656
 9442SOL     OW29224   4.587   3.339   1.339
 9442SOL    HW129225   4.663   3.404   1.347
 9442SOL    HW229226   4.553   3.316   1.430
 9443SOL     OW29227   2.795   5.200   1.008
 9443SOL    HW129228   2.745   5.258   0.945
 9443SOL    HW229229   2.731   5.162   1.076
 9444SOL     OW29230   1.169   3.224   1.117
 9444SOL    HW129231   1.229   3.207   1.039
 9444SOL    HW229232   1.213   3.290   1.179
 9445SOL     OW29233   6.046   2.823   2.784
 9445SOL    HW129234   6.040   2.805   2.882
 9445SOL    HW229235   5.968   2.782   2.737
 9446SOL     OW29236   6.329   5.484   4.083
 9446SOL    HW129237   6.343   5.387   4.104
 9446SOL    HW229238   6.314   5.495   3.985
 9447SOL     OW29239   5.957   4.763   3.289
 9447SOL    HW129240   5.928   4.695   3.356
 9447SOL    HW229241   5.891   4.766   3.214
 9448SOL     OW29242   0.141   0.057   6.718
 9448SOL    HW129243   0.075   0.008   6.660
 9448SOL    HW229244   0.122   0.036   6.814
 9449SOL     OW29245   6.113   6.863   0.009
 9449SOL    HW129246   6.065   6.797   6.975
 9449SOL    HW229247   6.051   6.897   0.080
 9450SOL     OW29248   1.642   5.457   4.497
 9450SOL    HW129249   1.648   5.367   4.539
 9450SOL    HW229250   1.734   5.488   4.471
 9451SOL     OW29251   4.146   0.390   6.045
 9451SOL    HW129252   4.241   0.362   6.031
 9451SOL    HW229253   4.114   0.441   5.965
 9452SOL     OW29254   1.773   3.940   0.458
 9452SOL    HW129255   1.787   3.893   0.544
 9452SOL    HW229256   1.728   3.879   0.392
 9453SOL     OW29257   2.335   4.548   3.262
 9453SOL    HW129258   2.295   4.543   3.171
 9453SOL    HW229259   2.280   4.495   3.326
 9454SOL     OW29260   3.261   3.808   6.459
 9454SOL    HW129261   3.308   3.826   6.545
 9454SOL    HW229262   3.273   3.885   6.397
 9455SOL     OW29263   2.628   1.556   3.797
 9455SOL    HW129264   2.576   1.475   3.773
 9455SOL    HW229265   2.654   1.605   3.713
 9456SOL     OW29266   0.049   3.952   1.078
 9456SOL    HW129267   0.053   3.860   1.041
 9456SOL    HW229268   0.069   4.018   1.005
 9457SOL     OW29269   1.132   3.586   4.673
 9457SOL    HW129270   1.156   3.494   4.703
 9457SOL    HW229271   1.167   3.652   4.740
 9458SOL     OW29272   1.147   2.846   7.022
 9458SOL    HW129273   1.227   2.903   7.005
 9458SOL    HW229274   1.084   2.894   0.059
 9459SOL     OW29275   5.751   4.551   3.949
 9459SOL    HW129276   5.789   4.573   3.859
 9459SOL    HW229277   5.814   4.580   4.021
 9460SOL     OW29278   1.439   3.543   4.158
 9460SOL    HW129279   1.483   3.625   4.195
 9460SOL    HW229280   1.395   3.492   4.232
 9461SOL     OW29281   0.204   1.699   1.747
 9461SOL    HW129282   0.107   1.686   1.728
 9461SOL    HW229283   0.221   1.686   1.845
 9462SOL     OW29284   2.168   3.486   3.327
 9462SOL    HW129285   2.253   3.514   3.283
 9462SOL    HW229286   2.106   3.449   3.257
 9463SOL     OW29287   6.390   0.307   1.498
 9463SOL    HW129288   6.403   0.394   1.546
 9463SOL    HW229289   6.478   0.273   1.465
 9464SOL     OW29290   6.155   0.560   0.981
 9464SOL    HW129291   6.175   0.529   0.888
 9464SOL    HW229292   6.168   0.659   0.987
 9465SOL     OW29293   0.991   4.469   1.892
 9465SOL    HW129294   0.918   4.403   1.874
 9465SOL    HW229295   1.045   4.439   1.970
 9466SOL     OW29296   4.015   4.597   5.595
 9466SOL    HW129297   4.004   4.520   5.658
 9466SOL    HW229298   4.112   4.619   5.585
 9467SOL     OW29299   1.403   2.592   1.892
 9467SOL    HW129300   1.461   2.518   1.928
 9467SOL    HW229301   1.316   2.592   1.940
 9468SOL     OW29302   5.878   3.871   6.811
 9468SOL    HW129303   5.962   3.823   6.838
 9468SOL    HW229304   5.807   3.803   6.792
 9469SOL     OW29305   6.360   5.253   1.746
 9469SOL    HW129306   6.340   5.350   1.730
 9469SOL    HW229307   6.455   5.243   1.777
 9470SOL     OW29308   4.999   3.290   6.077
 9470SOL    HW129309   4.927   3.262   6.013
 9470SOL    HW229310   5.074   3.223   6.074
 9471SOL     OW29311   6.660   1.819   4.546
 9471SOL    HW129312   6.607   1.874   4.611
 9471SOL    HW229313   6.606   1.740   4.517
 9472SOL     OW29314   6.265   2.974   5.241
 9472SOL    HW129315   6.295   3.051   5.296
 9472SOL    HW229316   6.167   2.982   5.223
 9473SOL     OW29317   2.876   5.147   6.877
 9473SOL    HW129318   2.881   5.058   6.832
 9473SOL    HW229319   2.967   5.189   6.881
 9474SOL     OW29320   6.886   3.336   6.883
 9474SOL    HW129321   6.972   3.295   6.914
 9474SOL    HW229322   6.832   3.267   6.833
 9475SOL     OW29323   3.777   3.285   6.862
 9475SOL    HW129324   3.707   3.223   6.898
 9475SOL    HW229325   3.789   3.270   6.764
 9476SOL     OW29326   3.810   4.069   4.648
 9476SOL    HW129327   3.870   4.006   4.696
 9476SOL    HW229328   3.842   4.082   4.554
 9477SOL     OW29329   0.779   2.701   0.718
 9477SOL    HW129330   0.717   2.732   0.646
 9477SOL    HW229331   0.727   2.675   0.799
 9478SOL     OW29332   4.860   3.012   0.526
 9478SOL    HW129333   4.931   2.983   0.462
 9478SOL    HW229334   4.786   2.945   0.526
 9479SOL     OW29335   4.153   6.252   6.743
 9479SOL    HW129336   4.102   6.177   6.701
 9479SOL    HW229337   4.143   6.247   6.843
 9480SOL     OW29338   6.009   4.756   0.947
 9480SOL    HW129339   6.074   4.791   1.014
 9480SOL    HW229340   6.040   4.667   0.913
 9481SOL     OW29341   5.243   3.008   2.348
 9481SOL    HW129342   5.147   3.027   2.329
 9481SOL    HW229343   5.290   3.092   2.375
 9482SOL     OW29344   0.371   1.179   3.022
 9482SOL    HW129345   0.427   1.103   3.055
 9482SOL    HW229346   0.302   1.145   2.958
 9483SOL     OW29347   2.046   0.817   0.954
 9483SOL    HW129348   1.949   0.796   0.943
 9483SOL    HW229349   2.077   0.875   0.879
 9484SOL     OW29350   4.515   0.389   4.064
 9484SOL    HW129351   4.555   0.343   4.144
 9484SOL    HW229352   4.580   0.384   3.988
 9485SOL     OW29353   0.587   1.099   0.264
 9485SOL    HW129354   0.540   1.115   0.178
 9485SOL    HW229355   0.552   1.162   0.334
 9486SOL     OW29356   4.134   6.805   1.036
 9486SOL    HW129357   4.073   6.744   0.986
 9486SOL    HW229358   4.187   6.753   1.102
 9487SOL     OW29359   3.464   3.706   4.361
 9487SOL    HW129360   3.490   3.799   4.335
 9487SOL    HW229361   3.452   3.701   4.460
 9488SOL     OW29362   2.920   6.752   0.931
 9488SOL    HW129363   2.982   6.674   0.940
 9488SOL    HW229364   2.958   6.831   0.978
 9489SOL     OW29365   4.655   4.506   0.875
 9489SOL    HW129366   4.742   4.506   0.825
 9489SOL    HW229367   4.673   4.504   0.973
 9490SOL     OW29368   6.054   4.782   2.077
 9490SOL    HW129369   6.070   4.857   2.141
 9490SOL    HW229370   6.129   4.716   2.082
 9491SOL     OW29371   5.844   4.893   4.090
 9491SOL    HW129372   5.775   4.840   4.139
 9491SOL    HW229373   5.816   4.904   3.994
 9492SOL     OW29374   3.632   2.878   4.149
 9492SOL    HW129375   3.668   2.787   4.167
 9492SOL    HW229376   3.532   2.875   4.154
 9493SOL     OW29377   2.965   5.512   4.457
 9493SOL    HW129378   2.912   5.597   4.450
 9493SOL    HW229379   3.044   5.517   4.396
 9494SOL     OW29380   5.171   2.993   2.773
 9494SOL    HW129381   5.173   3.082   2.728
 9494SOL    HW229382   5.264   2.966   2.798
 9495SOL     OW29383   6.351   1.460   3.635
 9495SOL    HW129384   6.284   1.505   3.694
 9495SOL    HW229385   6.418   1.527   3.604
 9496SOL     OW29386   6.127   3.306   1.599
 9496SOL    HW129387   6.208   3.327   1.544
 9496SOL    HW229388   6.050   3.360   1.566
 9497SOL     OW29389   5.478   6.569   5.722
 9497SOL    HW129390   5.468   6.669   5.724
 9497SOL    HW229391   5.502   6.540   5.629
 9498SOL     OW29392   4.366   6.660   4.453
 9498SOL    HW129393   4.313   6.744   4.449
 9498SOL    HW229394   4.463   6.682   4.461
 9499SOL     OW29395   2.333   4.765   6.412
 9499SOL    HW129396   2.266   4.786   6.341
 9499SOL    HW229397   2.304   4.804   6.499
 9500SOL     OW29398   5.083   0.087   1.053
 9500SOL    HW129399   5.065   7.020   1.090
 9500SOL    HW229400   5.121   0.080   0.961
 9501SOL     OW29401   2.494   1.473   4.982
 9501SOL    HW129402   2.427   1.517   4.922
 9501SOL    HW229403   2.578   1.527   4.984
 9502SOL     OW29404   5.396   3.234   5.027
 9502SOL    HW129405   5.444   3.310   4.984
 9502SOL    HW229406   5.311   3.216   4.978
 9503SOL     OW29407   0.604   1.879   1.553
 9503SOL    HW129408   0.518   1.862   1.601
 9503SOL    HW229409   0.680   1.867   1.616
 9504SOL     OW29410   0.394   2.279   0.293
 9504SOL    HW129411   0.308   2.230   0.280
 9504SOL    HW229412   0.456   2.224   0.347
 9505SOL     OW29413   4.831   4.680   4.144
 9505SOL    HW129414   4.751   4.736   4.125
 9505SOL    HW229415   4.910   4.739   4.163
 9506SOL     OW29416   1.092   2.212   6.111
 9506SOL    HW129417   1.105   2.186   6.016
 9506SOL    HW229418   0.996   2.201   6.136
 9507SOL     OW29419   1.120   2.112   3.126
 9507SOL    HW129420   1.041   2.124   3.066
 9507SOL    HW229421   1.188   2.056   3.079
 9508SOL     OW29422   6.252   2.035   1.304
 9508SOL    HW129423   6.350   2.040   1.285
 9508SOL    HW229424   6.203   2.095   1.239
 9509SOL     OW29425   0.866   1.070   4.172
 9509SOL    HW129426   0.864   1.010   4.252
 9509SOL    HW229427   0.887   1.016   4.091
 9510SOL     OW29428   1.180   3.590   3.501
 9510SOL    HW129429   1.277   3.577   3.523
 9510SOL    HW229430   1.124   3.550   3.574
 9511SOL     OW29431   1.706   0.524   0.796
 9511SOL    HW129432   1.701   0.545   0.699
 9511SOL    HW229433   1.695   0.426   0.811
 9512SOL     OW29434   5.951   1.333   1.486
 9512SOL    HW129435   5.950   1.417   1.540
 9512SOL    HW229436   6.031   1.278   1.511
 9513SOL     OW29437   2.153   3.509   6.429
 9513SOL    HW129438   2.125   3.432   6.488
 9513SOL    HW229439   2.239   3.547   6.464
 9514SOL     OW29440   1.949   5.358   5.781
 9514SOL    HW129441   2.009   5.316   5.849
 9514SOL    HW229442   1.887   5.423   5.825
 9515SOL     OW29443   1.936   5.850   0.783
 9515SOL    HW129444   1.842   5.859   0.814
 9515SOL    HW229445   1.946   5.893   0.693
 9516SOL     OW29446   6.024   4.624   5.914
 9516SOL    HW129447   5.966   4.688   5.964
 9516SOL    HW229448   6.112   4.614   5.961
 9517SOL     OW29449   2.040   4.848   1.086
 9517SOL    HW129450   2.100   4.860   1.007
 9517SOL    HW229451   2.016   4.938   1.123
 9518SOL     OW29452   2.004   2.316   0.333
 9518SOL    HW129453   1.954   2.230   0.323
 9518SOL    HW229454   2.096   2.297   0.368
 9519SOL     OW29455   3.924   3.837   4.770
 9519SOL    HW129456   4.000   3.865   4.828
 9519SOL    HW229457   3.958   3.778   4.697
 9520SOL     OW29458   1.603   1.918   3.677
 9520SOL    HW129459   1.691   1.925   3.630
 9520SOL    HW229460   1.571   2.009   3.703
 9521SOL     OW29461   4.710   5.862   1.659
 9521SOL    HW129462   4.620   5.829   1.628
 9521SOL    HW229463   4.746   5.800   1.729
 9522SOL     OW29464   2.736   5.976   1.136
 9522SOL    HW129465   2.682   6.040   1.191
 9522SOL    HW229466   2.780   5.909   1.196
 9523SOL     OW29467   2.555   4.673   4.931
 9523SOL    HW129468   2.523   4.681   5.026
 9523SOL    HW229469   2.643   4.626   4.929
 9524SOL     OW29470   3.225   2.819   1.436
 9524SOL    HW129471   3.308   2.782   1.478
 9524SOL    HW229472   3.154   2.749   1.437
 9525SOL     OW29473   2.478   2.982   5.539
 9525SOL    HW129474   2.439   2.994   5.631
 9525SOL    HW229475   2.404   2.980   5.472
 9526SOL     OW29476   5.485   5.063   1.365
 9526SOL    HW129477   5.568   5.046   1.419
 9526SOL    HW229478   5.509   5.073   1.269
 9527SOL     OW29479   0.828   0.461   3.507
 9527SOL    HW129480   0.839   0.363   3.489
 9527SOL    HW229481   0.915   0.508   3.491
 9528SOL     OW29482   0.100   1.340   0.521
 9528SOL    HW129483   0.154   1.320   0.603
 9528SOL    HW229484   0.025   1.275   0.513
 9529SOL     OW29485   6.376   3.098   5.594
 9529SOL    HW129486   6.376   3.117   5.496
 9529SOL    HW229487   6.413   3.177   5.643
 9530SOL     OW29488   1.960   3.816   2.178
 9530SOL    HW129489   1.970   3.779   2.086
 9530SOL    HW229490   2.017   3.763   2.241
 9531SOL     OW29491   4.843   5.201   2.597
 9531SOL    HW129492   4.826   5.235   2.505
 9531SOL    HW229493   4.915   5.255   2.641
 9532SOL     OW29494   6.739   6.633   2.224
 9532SOL    HW129495   6.672   6.648   2.296
 9532SOL    HW229496   6.788   6.718   2.205
 9533SOL     OW29497   6.802   0.008   5.943
 9533SOL    HW129498   6.772   6.940   5.920
 9533SOL    HW229499   6.892   0.004   5.986
 9534SOL     OW29500   6.935   3.641   5.112
 9534SOL    HW129501   6.991   3.572   5.159
 9534SOL    HW229502   6.839   3.615   5.117
 9535SOL     OW29503   2.480   1.466   5.989
 9535SOL    HW129504   2.465   1.467   6.088
 9535SOL    HW229505   2.418   1.400   5.947
 9536SOL     OW29506   2.705   4.343   5.330
 9536SOL    HW129507   2.757   4.352   5.414
 9536SOL    HW229508   2.722   4.423   5.272
 9537SOL     OW29509   2.961   6.638   3.129
 9537SOL    HW129510   3.020   6.568   3.088
 9537SOL    HW229511   3.018   6.707   3.174
 9538SOL     OW29512   6.327   2.084   3.393
 9538SOL    HW129513   6.291   2.091   3.486
 9538SOL    HW229514   6.252   2.086   3.328
 9539SOL     OW29515   2.952   3.779   5.104
 9539SOL    HW129516   2.858   3.744   5.102
 9539SOL    HW229517   3.012   3.712   5.148
 9540SOL     OW29518   6.128   4.223   4.375
 9540SOL    HW129519   6.085   4.271   4.451
 9540SOL    HW229520   6.060   4.166   4.329
 9541SOL     OW29521   3.618   0.761   5.496
 9541SOL    HW129522   3.535   0.816   5.505
 9541SOL    HW229523   3.698   0.822   5.494
 9542SOL     OW29524   5.567   4.199   4.506
 9542SOL    HW129525   5.564   4.152   4.418
 9542SOL    HW229526   5.524   4.142   4.576
 9543SOL     OW29527   3.514   1.092   5.350
 9543SOL    HW129528   3.566   1.135   5.277
 9543SOL    HW229529   3.478   1.004   5.318
 9544SOL     OW29530   0.080   1.246   3.904
 9544SOL    HW129531   0.025   1.219   3.825
 9544SOL    HW229532   0.027   1.229   3.988
 9545SOL     OW29533   6.126   5.331   3.746
 9545SOL    HW129534   6.157   5.290   3.832
 9545SOL    HW229535   6.118   5.430   3.757
 9546SOL     OW29536   3.082   2.371   5.717
 9546SOL    HW129537   3.059   2.297   5.653
 9546SOL    HW229538   3.012   2.441   5.714
 9547SOL     OW29539   2.349   6.695   4.520
 9547SOL    HW129540   2.335   6.599   4.497
 9547SOL    HW229541   2.309   6.715   4.610
 9548SOL     OW29542   5.850   6.196   6.281
 9548SOL    HW129543   5.750   6.202   6.273
 9548SOL    HW229544   5.892   6.236   6.200
 9549SOL     OW29545   3.059   3.113   1.131
 9549SOL    HW129546   3.101   3.202   1.147
 9549SOL    HW229547   3.018   3.079   1.215
 9550SOL     OW29548   0.232   1.483   1.092
 9550SOL    HW129549   0.192   1.392   1.077
 9550SOL    HW229550   0.176   1.552   1.047
 9551SOL     OW29551   5.864   1.347   4.108
 9551SOL    HW129552   5.900   1.437   4.132
 9551SOL    HW229553   5.805   1.314   4.182
 9552SOL     OW29554   1.120   6.524   2.695
 9552SOL    HW129555   1.080   6.615   2.688
 9552SOL    HW229556   1.127   6.482   2.604
 9553SOL     OW29557   6.050   3.951   0.119
 9553SOL    HW129558   6.084   3.938   0.212
 9553SOL    HW229559   5.978   4.020   0.119
 9554SOL     OW29560   2.761   0.462   1.594
 9554SOL    HW129561   2.845   0.407   1.602
 9554SOL    HW229562   2.753   0.496   1.500
 9555SOL     OW29563   1.099   0.583   2.746
 9555SOL    HW129564   1.164   0.528   2.693
 9555SOL    HW229565   1.046   0.640   2.683
 9556SOL     OW29566   1.803   2.046   1.111
 9556SOL    HW129567   1.772   2.050   1.206
 9556SOL    HW229568   1.901   2.062   1.107
 9557SOL     OW29569   0.042   0.279   2.711
 9557SOL    HW129570   0.046   0.345   2.786
 9557SOL    HW229571   6.989   0.218   2.725
 9558SOL     OW29572   6.495   6.425   4.709
 9558SOL    HW129573   6.508   6.456   4.614
 9558SOL    HW229574   6.411   6.465   4.746
 9559SOL     OW29575   1.115   4.140   0.868
 9559SOL    HW129576   1.134   4.222   0.814
 9559SOL    HW229577   1.109   4.060   0.808
 9560SOL     OW29578   1.095   1.696   3.278
 9560SOL    HW129579   1.072   1.602   3.306
 9560SOL    HW229580   1.012   1.750   3.273
 9561SOL     OW29581   1.147   6.242   0.408
 9561SOL    HW129582   1.206   6.219   0.485
 9561SOL    HW229583   1.148   6.341   0.394
 9562SOL     OW29584   3.293   0.239   5.467
 9562SOL    HW129585   3.209   0.217   5.516
 9562SOL    HW229586   3.326   0.328   5.497
 9563SOL     OW29587   6.064   6.962   0.741
 9563SOL    HW129588   6.145   6.906   0.726
 9563SOL    HW229589   6.038   6.958   0.837
 9564SOL     OW29590   3.073   0.334   0.030
 9564SOL    HW129591   3.018   0.259   7.019
 9564SOL    HW229592   3.169   0.320   0.005
 9565SOL     OW29593   4.208   5.993   5.089
 9565SOL    HW129594   4.137   6.055   5.124
 9565SOL    HW229595   4.292   6.045   5.075
 9566SOL     OW29596   2.559   4.934   6.640
 9566SOL    HW129597   2.549   4.835   6.648
 9566SOL    HW229598   2.567   4.959   6.543
 9567SOL     OW29599   5.872   4.654   7.009
 9567SOL    HW129600   5.956   4.638   0.037
 9567SOL    HW229601   5.803   4.587   0.011
 9568SOL     OW29602   4.400   2.829   6.816
 9568SOL    HW129603   4.442   2.903   6.868
 9568SOL    HW229604   4.392   2.748   6.874
 9569SOL     OW29605   0.088   0.477   2.904
 9569SOL    HW129606   0.016   0.537   2.870
 9569SOL    HW229607   0.074   0.460   3.002
 9570SOL     OW29608   0.757   2.721   2.552
 9570SOL    HW129609   0.726   2.636   2.596
 9570SOL    HW229610   0.760   2.794   2.620
 9571SOL     OW29611   2.019   3.905   6.946
 9571SOL    HW129612   2.079   3.928   6.870
 9571SOL    HW229613   2.012   3.805   6.954
 9572SOL     OW29614   1.724   5.986   1.482
 9572SOL    HW129615   1.779   5.956   1.560
 9572SOL    HW229616   1.776   5.976   1.398
 9573SOL     OW29617   1.035   1.342   6.642
 9573SOL    HW129618   1.046   1.431   6.597
 9573SOL    HW229619   1.106   1.331   6.712
 9574SOL     OW29620   3.643   3.229   3.944
 9574SOL    HW129621   3.577   3.207   4.016
 9574SOL    HW229622   3.596   3.238   3.857
 9575SOL     OW29623   5.941   1.549   0.910
 9575SOL    HW129624   5.951   1.634   0.962
 9575SOL    HW229625   5.847   1.516   0.917
 9576SOL     OW29626   2.908   0.446   2.621
 9576SOL    HW129627   2.909   0.542   2.650
 9576SOL    HW229628   2.839   0.396   2.672
 9577SOL     OW29629   1.004   0.633   4.209
 9577SOL    HW129630   1.047   0.585   4.132
 9577SOL    HW229631   1.045   0.723   4.219
 9578SOL     OW29632   0.107   4.070   3.611
 9578SOL    HW129633   0.182   4.024   3.563
 9578SOL    HW229634   0.110   4.045   3.708
 9579SOL     OW29635   1.986   5.449   2.438
 9579SOL    HW129636   1.939   5.457   2.527
 9579SOL    HW229637   2.076   5.492   2.445
 9580SOL     OW29638   4.436   3.122   0.927
 9580SOL    HW129639   4.370   3.047   0.927
 9580SOL    HW229640   4.481   3.127   1.017
 9581SOL     OW29641   1.295   5.467   6.151
 9581SOL    HW129642   1.393   5.450   6.163
 9581SOL    HW229643   1.243   5.386   6.178
 9582SOL     OW29644   4.666   4.624   4.667
 9582SOL    HW129645   4.698   4.608   4.574
 9582SOL    HW229646   4.566   4.615   4.670
 9583SOL     OW29647   3.306   4.450   1.134
 9583SOL    HW129648   3.208   4.461   1.151
 9583SOL    HW229649   3.320   4.430   1.037
 9584SOL     OW29650   6.740   6.468   0.094
 9584SOL    HW129651   6.697   6.523   0.166
 9584SOL    HW229652   6.828   6.508   0.070
 9585SOL     OW29653   6.278   0.369   3.427
 9585SOL    HW129654   6.228   0.293   3.385
 9585SOL    HW229655   6.372   0.370   3.392
 9586SOL     OW29656   5.655   3.940   2.215
 9586SOL    HW129657   5.586   3.872   2.192
 9586SOL    HW229658   5.723   3.900   2.277
 9587SOL     OW29659   6.142   0.506   2.271
 9587SOL    HW129660   6.172   0.419   2.308
 9587SOL    HW229661   6.215   0.574   2.280
 9588SOL     OW29662   0.434   1.760   2.343
 9588SOL    HW129663   0.490   1.752   2.426
 9588SOL    HW229664   0.490   1.739   2.263
 9589SOL     OW29665   2.600   5.392   6.226
 9589SOL    HW129666   2.688   5.376   6.180
 9589SOL    HW229667   2.604   5.355   6.319
 9590SOL     OW29668   0.218   4.608   2.132
 9590SOL    HW129669   0.246   4.698   2.165
 9590SOL    HW229670   0.298   4.557   2.102
 9591SOL     OW29671   2.678   6.103   0.444
 9591SOL    HW129672   2.584   6.104   0.408
 9591SOL    HW229673   2.723   6.019   0.415
 9592SOL     OW29674   3.890   4.529   1.658
 9592SOL    HW129675   3.987   4.527   1.634
 9592SOL    HW229676   3.859   4.624   1.664
 9593SOL     OW29677   6.344   0.910   4.857
 9593SOL    HW129678   6.426   0.922   4.801
 9593SOL    HW229679   6.267   0.958   4.815
 9594SOL     OW29680   1.705   6.056   3.397
 9594SOL    HW129681   1.720   5.957   3.386
 9594SOL    HW229682   1.693   6.077   3.494
 9595SOL     OW29683   1.923   4.236   5.119
 9595SOL    HW129684   1.954   4.254   5.212
 9595SOL    HW229685   1.905   4.139   5.108
 9596SOL     OW29686   0.059   5.720   0.292
 9596SOL    HW129687   0.139   5.669   0.324
 9596SOL    HW229688   0.026   5.681   0.206
 9597SOL     OW29689   0.392   4.535   0.505
 9597SOL    HW129690   0.451   4.597   0.453
 9597SOL    HW229691   0.416   4.539   0.602
 9598SOL     OW29692   0.421   3.757   5.262
 9598SOL    HW129693   0.415   3.854   5.284
 9598SOL    HW229694   0.359   3.735   5.186
 9599SOL     OW29695   3.024   0.489   5.433
 9599SOL    HW129696   3.109   0.540   5.421
 9599SOL    HW229697   3.045   0.398   5.471
 9600SOL     OW29698   1.776   6.897   6.777
 9600SOL    HW129699   1.706   6.957   6.814
 9600SOL    HW229700   1.767   6.894   6.677
 9601SOL     OW29701   6.245   4.405   0.134
 9601SOL    HW129702   6.332   4.433   0.173
 9601SOL    HW229703   6.198   4.344   0.198
 9602SOL     OW29704   6.350   5.222   6.840
 9602SOL    HW129705   6.263   5.173   6.847
 9602SOL    HW229706   6.392   5.201   6.751
 9603SOL     OW29707   3.143   0.514   4.752
 9603SOL    HW129708   3.109   0.600   4.791
 9603SOL    HW229709   3.216   0.478   4.809
 9604SOL     OW29710   4.995   0.420   0.796
 9604SOL    HW129711   5.034   0.398   0.886
 9604SOL    HW229712   4.989   0.519   0.786
 9605SOL     OW29713   0.790   4.899   5.332
 9605SOL    HW129714   0.791   4.867   5.237
 9605SOL    HW229715   0.743   4.987   5.337
 9606SOL     OW29716   1.499   6.052   5.096
 9606SOL    HW129717   1.560   6.130   5.107
 9606SOL    HW229718   1.544   5.969   5.130
 9607SOL     OW29719   1.072   2.026   2.005
 9607SOL    HW129720   1.138   2.092   2.041
 9607SOL    HW229721   1.097   2.001   1.912
 9608SOL     OW29722   6.546   6.290   2.242
 9608SOL    HW129723   6.557   6.358   2.170
 9608SOL    HW229724   6.633   6.279   2.291
 9609SOL     OW29725   1.508   3.550   5.560
 9609SOL    HW129726   1.602   3.547   5.526
 9609SOL    HW229727   1.506   3.599   5.648
 9610SOL     OW29728   1.550   4.218   4.645
 9610SOL    HW129729   1.630   4.205   4.704
 9610SOL    HW229730   1.474   4.252   4.700
 9611SOL     OW29731   0.133   6.473   0.473
 9611SOL    HW129732   0.084   6.481   0.560
 9611SOL    HW229733   0.088   6.404   0.416
 9612SOL     OW29734   6.311   3.293   1.397
 9612SOL    HW129735   6.375   3.316   1.324
 9612SOL    HW229736   6.257   3.213   1.371
 9613SOL     OW29737   3.905   6.068   3.414
 9613SOL    HW129738   3.855   5.988   3.448
 9613SOL    HW229739   3.927   6.129   3.490
 9614SOL     OW29740   3.702   3.227   1.540
 9614SOL    HW129741   3.632   3.271   1.596
 9614SOL    HW229742   3.668   3.212   1.448
 9615SOL     OW29743   1.067   6.767   2.354
 9615SOL    HW129744   1.137   6.707   2.315
 9615SOL    HW229745   1.015   6.810   2.280
 9616SOL     OW29746   4.305   3.998   0.734
 9616SOL    HW129747   4.303   4.095   0.713
 9616SOL    HW229748   4.396   3.962   0.715
 9617SOL     OW29749   0.735   3.609   4.426
 9617SOL    HW129750   0.793   3.683   4.391
 9617SOL    HW229751   0.713   3.546   4.352
 9618SOL     OW29752   4.661   6.914   6.119
 9618SOL    HW129753   4.729   6.957   6.179
 9618SOL    HW229754   4.621   6.835   6.165
 9619SOL     OW29755   1.303   0.471   0.353
 9619SOL    HW129756   1.286   0.566   0.378
 9619SOL    HW229757   1.338   0.421   0.432
 9620SOL     OW29758   5.407   1.846   6.514
 9620SOL    HW129759   5.329   1.901   6.482
 9620SOL    HW229760   5.492   1.887   6.480
 9621SOL     OW29761   1.651   1.229   2.901
 9621SOL    HW129762   1.670   1.293   2.826
 9621SOL    HW229763   1.579   1.165   2.873
 9622SOL     OW29764   5.562   1.232   6.778
 9622SOL    HW129765   5.639   1.168   6.772
 9622SOL    HW229766   5.523   1.246   6.687
 9623SOL     OW29767   4.510   5.491   5.685
 9623SOL    HW129768   4.410   5.494   5.674
 9623SOL    HW229769   4.532   5.475   5.781
 9624SOL     OW29770   5.374   4.558   4.170
 9624SOL    HW129771   5.419   4.645   4.152
 9624SOL    HW229772   5.426   4.508   4.240
 9625SOL     OW29773   5.028   4.376   6.993
 9625SOL    HW129774   5.098   4.316   6.954
 9625SOL    HW229775   5.071   4.457   0.009
 9626SOL     OW29776   2.358   5.840   5.534
 9626SOL    HW129777   2.370   5.809   5.629
 9626SOL    HW229778   2.409   5.925   5.521
 9627SOL     OW29779   6.877   3.881   4.933
 9627SOL    HW129780   6.898   3.784   4.930
 9627SOL    HW229781   6.957   3.934   4.906
 9628SOL     OW29782   6.151   4.163   0.739
 9628SOL    HW129783   6.216   4.200   0.673
 9628SOL    HW229784   6.201   4.133   0.821
 9629SOL     OW29785   6.578   5.545   2.436
 9629SOL    HW129786   6.590   5.633   2.388
 9629SOL    HW229787   6.663   5.523   2.485
 9630SOL     OW29788   6.423   6.334   5.770
 9630SOL    HW129789   6.395   6.239   5.784
 9630SOL    HW229790   6.504   6.353   5.827
 9631SOL     OW29791   4.745   2.164   0.968
 9631SOL    HW129792   4.781   2.146   1.060
 9631SOL    HW229793   4.700   2.082   0.933
 9632SOL     OW29794   2.539   5.335   2.135
 9632SOL    HW129795   2.563   5.248   2.094
 9632SOL    HW229796   2.468   5.380   2.079
 9633SOL     OW29797   3.875   4.329   0.684
 9633SOL    HW129798   3.916   4.246   0.646
 9633SOL    HW229799   3.904   4.408   0.630
 9634SOL     OW29800   0.290   5.325   3.554
 9634SOL    HW129801   0.203   5.321   3.604
 9634SOL    HW229802   0.275   5.366   3.464
 9635SOL     OW29803   1.973   4.073   5.489
 9635SOL    HW129804   2.023   4.067   5.402
 9635SOL    HW229805   1.994   4.160   5.534
 9636SOL     OW29806   4.228   1.789   5.985
 9636SOL    HW129807   4.249   1.767   6.080
 9636SOL    HW229808   4.303   1.843   5.946
 9637SOL     OW29809   3.829   2.729   1.114
 9637SOL    HW129810   3.769   2.662   1.159
 9637SOL    HW229811   3.868   2.688   1.031
 9638SOL     OW29812   0.118   3.181   6.190
 9638SOL    HW129813   0.068   3.146   6.110
 9638SOL    HW229814   0.108   3.281   6.193
 9639SOL     OW29815   4.146   2.215   2.073
 9639SOL    HW129816   4.219   2.148   2.086
 9639SOL    HW229817   4.060   2.167   2.053
 9640SOL     OW29818   3.138   0.612   2.821
 9640SOL    HW129819   3.124   0.541   2.890
 9640SOL    HW229820   3.197   0.576   2.748
 9641SOL     OW29821   5.753   5.761   1.946
 9641SOL    HW129822   5.728   5.754   2.043
 9641SOL    HW229823   5.844   5.722   1.933
 9642SOL     OW29824   1.185   6.004   4.706
 9642SOL    HW129825   1.281   5.988   4.683
 9642SOL    HW229826   1.138   6.045   4.627
 9643SOL     OW29827   5.104   4.082   3.454
 9643SOL    HW129828   5.064   4.066   3.364
 9643SOL    HW229829   5.198   4.047   3.456
 9644SOL     OW29830   0.893   5.787   5.525
 9644SOL    HW129831   0.912   5.720   5.597
 9644SOL    HW229832   0.804   5.831   5.543
 9645SOL     OW29833   2.805   4.781   4.096
 9645SOL    HW129834   2.866   4.815   4.169
 9645SOL    HW229835   2.710   4.789   4.126
 9646SOL     OW29836   2.549   5.095   1.948
 9646SOL    HW129837   2.503   5.020   1.997
 9646SOL    HW229838   2.647   5.078   1.947
 9647SOL     OW29839   0.074   6.783   3.157
 9647SOL    HW129840   0.149   6.817   3.101
 9647SOL    HW229841   0.108   6.716   3.222
 9648SOL     OW29842   4.092   2.663   7.013
 9648SOL    HW129843   4.190   2.647   7.013
 9648SOL    HW229844   4.067   2.715   0.071
 9649SOL     OW29845   1.954   4.358   7.004
 9649SOL    HW129846   1.858   4.337   6.984
 9649SOL    HW229847   2.011   4.323   6.930
 9650SOL     OW29848   5.064   4.581   2.935
 9650SOL    HW129849   5.138   4.601   2.871
 9650SOL    HW229850   4.978   4.568   2.884
 9651SOL     OW29851   5.492   1.458   1.042
 9651SOL    HW129852   5.512   1.442   1.139
 9651SOL    HW229853   5.403   1.418   1.019
 9652SOL     OW29854   0.989   4.522   1.609
 9652SOL    HW129855   0.890   4.507   1.606
 9652SOL    HW229856   1.017   4.540   1.704
 9653SOL     OW29857   4.625   4.906   4.469
 9653SOL    HW129858   4.645   4.857   4.554
 9653SOL    HW229859   4.563   4.851   4.413
 9654SOL     OW29860   2.973   3.482   2.943
 9654SOL    HW129861   3.038   3.527   3.004
 9654SOL    HW229862   3.020   3.453   2.860
 9655SOL     OW29863   0.179   2.129   0.244
 9655SOL    HW129864   0.231   2.050   0.277
 9655SOL    HW229865   0.084   2.102   0.228
 9656SOL     OW29866   4.438   2.966   1.396
 9656SOL    HW129867   4.399   2.896   1.337
 9656SOL    HW229868   4.433   2.936   1.491
 9657SOL     OW29869   5.648   3.074   2.577
 9657SOL    HW129870   5.700   2.992   2.551
 9657SOL    HW229871   5.711   3.151   2.587
 9658SOL     OW29872   5.801   1.409   2.638
 9658SOL    HW129873   5.753   1.329   2.602
 9658SOL    HW229874   5.842   1.386   2.726
 9659SOL     OW29875   0.803   3.450   0.009
 9659SOL    HW129876   0.799   3.448   0.109
 9659SOL    HW229877   0.721   3.408   6.995
 9660SOL     OW29878   0.703   6.745   2.959
 9660SOL    HW129879   0.755   6.804   3.021
 9660SOL    HW229880   0.628   6.797   2.917
 9661SOL     OW29881   3.384   6.458   1.733
 9661SOL    HW129882   3.322   6.391   1.774
 9661SOL    HW229883   3.345   6.550   1.743
 9662SOL     OW29884   4.328   3.091   5.871
 9662SOL    HW129885   4.235   3.078   5.837
 9662SOL    HW229886   4.331   3.171   5.931
 9663SOL     OW29887   0.169   6.029   2.739
 9663SOL    HW129888   0.140   6.032   2.835
 9663SOL    HW229889   0.090   6.048   2.680
 9664SOL     OW29890   5.684   5.300   4.219
 9664SOL    HW129891   5.633   5.273   4.138
 9664SOL    HW229892   5.779   5.319   4.194
 9665SOL     OW29893   5.838   6.553   6.624
 9665SOL    HW129894   5.840   6.621   6.551
 9665SOL    HW229895   5.840   6.461   6.584
 9666SOL     OW29896   6.548   3.999   2.102
 9666SOL    HW129897   6.618   4.063   2.069
 9666SOL    HW229898   6.564   3.979   2.199
 9667SOL     OW29899   4.046   3.889   0.316
 9667SOL    HW129900   4.097   3.862   0.398
 9667SOL    HW229901   3.948   3.876   0.333
 9668SOL     OW29902   0.441   0.626   6.436
 9668SOL    HW129903   0.397   0.596   6.352
 9668SOL    HW229904   0.459   0.547   6.495
 9669SOL     OW29905   1.974   6.900   1.980
 9669SOL    HW129906   1.907   6.835   1.944
 9669SOL    HW229907   1.927   6.971   2.032
 9670SOL     OW29908   6.832   4.806   6.128
 9670SOL    HW129909   6.890   4.883   6.102
 9670SOL    HW229910   6.750   4.805   6.072
 9671SOL     OW29911   0.134   4.397   0.666
 9671SOL    HW129912   0.135   4.346   0.580
 9671SOL    HW229913   0.114   4.493   0.647
 9672SOL     OW29914   1.846   5.370   3.223
 9672SOL    HW129915   1.840   5.296   3.157
 9672SOL    HW229916   1.923   5.430   3.200
 9673SOL     OW29917   3.967   3.996   1.210
 9673SOL    HW129918   3.961   4.024   1.114
 9673SOL    HW229919   3.889   3.939   1.233
 9674SOL     OW29920   3.416   6.915   3.515
 9674SOL    HW129921   3.472   6.976   3.571
 9674SOL    HW229922   3.320   6.927   3.540
 9675SOL     OW29923   5.464   2.387   6.275
 9675SOL    HW129924   5.527   2.463   6.292
 9675SOL    HW229925   5.462   2.367   6.177
 9676SOL     OW29926   0.841   2.707   5.821
 9676SOL    HW129927   0.831   2.758   5.736
 9676SOL    HW229928   0.881   2.767   5.891
 9677SOL     OW29929   6.057   5.373   4.881
 9677SOL    HW129930   6.149   5.335   4.885
 9677SOL    HW229931   6.015   5.349   4.793
 9678SOL     OW29932   2.922   3.671   4.265
 9678SOL    HW129933   3.019   3.675   4.286
 9678SOL    HW229934   2.874   3.621   4.338
 9679SOL     OW29935   2.829   0.120   3.164
 9679SOL    HW129936   2.780   0.206   3.170
 9679SOL    HW229937   2.788   0.063   3.092
 9680SOL     OW29938   3.844   0.626   3.805
 9680SOL    HW129939   3.934   0.656   3.837
 9680SOL    HW229940   3.775   0.648   3.874
 9681SOL     OW29941   2.631   1.669   0.628
 9681SOL    HW129942   2.677   1.685   0.541
 9681SOL    HW229943   2.605   1.573   0.635
 9682SOL     OW29944   4.736   4.254   3.519
 9682SOL    HW129945   4.670   4.228   3.448
 9682SOL    HW229946   4.701   4.333   3.570
 9683SOL     OW29947   3.199   6.670   1.766
 9683SOL    HW129948   3.110   6.662   1.721
 9683SOL    HW229949   3.187   6.714   1.855
 9684SOL     OW29950   1.128   3.075   6.320
 9684SOL    HW129951   1.071   3.006   6.364
 9684SOL    HW229952   1.125   3.160   6.373
 9685SOL     OW29953   4.817   4.329   0.689
 9685SOL    HW129954   4.893   4.393   0.699
 9685SOL    HW229955   4.793   4.321   0.592
 9686SOL     OW29956   0.752   3.385   6.349
 9686SOL    HW129957   0.701   3.306   6.317
 9686SOL    HW229958   0.820   3.356   6.416
 9687SOL     OW29959   1.019   0.653   3.893
 9687SOL    HW129960   1.071   0.633   3.810
 9687SOL    HW229961   0.983   0.567   3.931
 9688SOL     OW29962   1.500   3.194   1.105
 9688SOL    HW129963   1.426   3.193   1.037
 9688SOL    HW229964   1.577   3.139   1.071
 9689SOL     OW29965   0.808   4.464   6.450
 9689SOL    HW129966   0.765   4.480   6.361
 9689SOL    HW229967   0.895   4.512   6.453
 9690SOL     OW29968   6.232   5.904   6.720
 9690SOL    HW129969   6.194   5.837   6.656
 9690SOL    HW229970   6.171   5.983   6.724
 9691SOL     OW29971   3.386   4.705   1.135
 9691SOL    HW129972   3.456   4.715   1.206
 9691SOL    HW229973   3.352   4.611   1.136
 9692SOL     OW29974   3.984   6.144   1.667
 9692SOL    HW129975   3.913   6.073   1.663
 9692SOL    HW229976   3.942   6.233   1.679
 9693SOL     OW29977   5.646   3.918   2.695
 9693SOL    HW129978   5.706   3.990   2.661
 9693SOL    HW229979   5.681   3.829   2.663
 9694SOL     OW29980   3.122   1.325   1.498
 9694SOL    HW129981   3.166   1.316   1.408
 9694SOL    HW229982   3.162   1.402   1.547
 9695SOL     OW29983   0.083   2.766   3.229
 9695SOL    HW129984   0.024   2.827   3.284
 9695SOL    HW229985   0.031   2.685   3.202
 9696SOL     OW29986   5.449   2.613   1.363
 9696SOL    HW129987   5.433   2.659   1.450
 9696SOL    HW229988   5.409   2.521   1.365
 9697SOL     OW29989   0.144   5.115   0.152
 9697SOL    HW129990   0.175   5.192   0.096
 9697SOL    HW229991   0.051   5.088   0.123
 9698SOL     OW29992   5.391   2.049   6.159
 9698SOL    HW129993   5.394   1.974   6.093
 9698SOL    HW229994   5.408   2.135   6.111
 9699SOL     OW29995   6.299   6.258   6.599
 9699SOL    HW129996   6.216   6.252   6.655
 9699SOL    HW229997   6.294   6.189   6.526
 9700SOL     OW29998   5.043   5.744   4.891
 9700SOL    HW129999   5.048   5.655   4.845
 9700SOL    HW230000   5.097   5.810   4.840
 9701SOL     OW30001   4.333   5.119   5.125
 9701SOL    HW130002   4.362   5.210   5.154
 9701SOL    HW230003   4.248   5.094   5.171
 9702SOL     OW30004   4.180   1.595   6.676
 9702SOL    HW130005   4.272   1.589   6.716
 9702SOL    HW230006   4.164   1.515   6.618
 9703SOL     OW30007   4.884   3.720   3.773
 9703SOL    HW130008   4.875   3.695   3.870
 9703SOL    HW230009   4.972   3.690   3.739
 9704SOL     OW30010   3.520   6.621   1.466
 9704SOL    HW130011   3.491   6.527   1.487
 9704SOL    HW230012   3.439   6.678   1.452
 9705SOL     OW30013   5.783   3.871   5.971
 9705SOL    HW130014   5.778   3.782   6.015
 9705SOL    HW230015   5.702   3.925   5.995
 9706SOL     OW30016   1.970   2.911   0.768
 9706SOL    HW130017   1.883   2.961   0.770
 9706SOL    HW230018   2.038   2.961   0.822
 9707SOL     OW30019   6.420   4.269   2.219
 9707SOL    HW130020   6.421   4.224   2.308
 9707SOL    HW230021   6.419   4.368   2.232
 9708SOL     OW30022   1.269   1.715   3.605
 9708SOL    HW130023   1.275   1.737   3.703
 9708SOL    HW230024   1.360   1.692   3.571
 9709SOL     OW30025   5.231   6.284   2.996
 9709SOL    HW130026   5.230   6.205   3.058
 9709SOL    HW230027   5.242   6.368   3.050
 9710SOL     OW30028   6.970   1.819   1.710
 9710SOL    HW130029   6.992   1.832   1.613
 9710SOL    HW230030   6.968   1.722   1.731
 9711SOL     OW30031   3.562   5.249   5.708
 9711SOL    HW130032   3.631   5.311   5.672
 9711SOL    HW230033   3.477   5.259   5.657
 9712SOL     OW30034   5.419   3.866   6.879
 9712SOL    HW130035   5.469   3.949   6.907
 9712SOL    HW230036   5.373   3.883   6.792
 9713SOL     OW30037   1.900   4.247   3.481
 9713SOL    HW130038   1.891   4.330   3.536
 9713SOL    HW230039   1.818   4.190   3.491
 9714SOL     OW30040   4.462   6.394   6.608
 9714SOL    HW130041   4.410   6.332   6.668
 9714SOL    HW230042   4.420   6.485   6.611
 9715SOL     OW30043   5.784   4.115   0.371
 9715SOL    HW130044   5.691   4.102   0.403
 9715SOL    HW230045   5.839   4.157   0.444
 9716SOL     OW30046   3.541   4.434   6.476
 9716SOL    HW130047   3.531   4.334   6.478
 9716SOL    HW230048   3.590   4.460   6.393
 9717SOL     OW30049   5.096   6.770   5.914
 9717SOL    HW130050   5.040   6.706   5.862
 9717SOL    HW230051   5.059   6.778   6.007
 9718SOL     OW30052   5.583   3.380   0.291
 9718SOL    HW130053   5.499   3.361   0.341
 9718SOL    HW230054   5.646   3.432   0.349
 9719SOL     OW30055   6.403   0.712   6.027
 9719SOL    HW130056   6.477   0.708   6.094
 9719SOL    HW230057   6.316   0.700   6.074
 9720SOL     OW30058   0.631   4.952   2.242
 9720SOL    HW130059   0.625   4.857   2.274
 9720SOL    HW230060   0.555   4.972   2.180
 9721SOL     OW30061   0.335   2.076   0.587
 9721SOL    HW130062   0.335   2.166   0.631
 9721SOL    HW230063   0.405   2.073   0.516
 9722SOL     OW30064   4.324   1.186   4.309
 9722SOL    HW130065   4.312   1.267   4.253
 9722SOL    HW230066   4.420   1.160   4.311
 9723SOL     OW30067   3.128   6.786   3.269
 9723SOL    HW130068   3.132   6.864   3.331
 9723SOL    HW230069   3.181   6.806   3.187
 9724SOL     OW30070   1.516   5.025   6.865
 9724SOL    HW130071   1.465   5.105   6.832
 9724SOL    HW230072   1.472   4.942   6.831
 9725SOL     OW30073   5.249   5.821   5.914
 9725SOL    HW130074   5.162   5.786   5.880
 9725SOL    HW230075   5.310   5.839   5.836
 9726SOL     OW30076   5.012   1.615   4.066
 9726SOL    HW130077   5.084   1.683   4.084
 9726SOL    HW230078   4.939   1.626   4.133
 9727SOL     OW30079   1.040   2.081   0.090
 9727SOL    HW130080   0.954   2.131   0.104
 9727SOL    HW230081   1.115   2.146   0.077
 9728SOL     OW30082   0.930   0.301   5.585
 9728SOL    HW130083   0.929   0.315   5.486
 9728SOL    HW230084   0.984   0.374   5.628
 9729SOL     OW30085   1.589   4.496   3.209
 9729SOL    HW130086   1.681   4.530   3.187
 9729SOL    HW230087   1.565   4.422   3.146
 9730SOL     OW30088   2.044   4.298   3.748
 9730SOL    HW130089   2.090   4.233   3.688
 9730SOL    HW230090   2.113   4.353   3.796
 9731SOL     OW30091   5.253   4.658   1.088
 9731SOL    HW130092   5.177   4.657   1.153
 9731SOL    HW230093   5.278   4.565   1.063
 9732SOL     OW30094   6.999   5.271   2.610
 9732SOL    HW130095   7.011   5.303   2.517
 9732SOL    HW230096   6.922   5.318   2.652
 9733SOL     OW30097   4.835   5.158   0.262
 9733SOL    HW130098   4.856   5.237   0.319
 9733SOL    HW230099   4.737   5.157   0.239
 9734SOL     OW30100   6.571   1.804   0.749
 9734SOL    HW130101   6.660   1.760   0.757
 9734SOL    HW230102   6.582   1.903   0.754
 9735SOL     OW30103   2.100   3.691   3.485
 9735SOL    HW130104   2.106   3.786   3.456
 9735SOL    HW230105   2.144   3.632   3.417
 9736SOL     OW30106   6.143   1.859   6.198
 9736SOL    HW130107   6.187   1.947   6.216
 9736SOL    HW230108   6.187   1.788   6.254
 9737SOL     OW30109   5.494   2.867   3.203
 9737SOL    HW130110   5.574   2.814   3.177
 9737SOL    HW230111   5.447   2.821   3.278
 9738SOL     OW30112   2.491   0.280   0.402
 9738SOL    HW130113   2.411   0.329   0.437
 9738SOL    HW230114   2.471   0.182   0.399
 9739SOL     OW30115   5.558   5.384   1.373
 9739SOL    HW130116   5.602   5.316   1.315
 9739SOL    HW230117   5.623   5.458   1.394
 9740SOL     OW30118   6.895   0.877   3.546
 9740SOL    HW130119   6.868   0.970   3.523
 9740SOL    HW230120   6.853   0.812   3.482
 9741SOL     OW30121   3.660   2.095   2.475
 9741SOL    HW130122   3.621   2.023   2.418
 9741SOL    HW230123   3.754   2.112   2.447
 9742SOL     OW30124   4.765   1.385   0.447
 9742SOL    HW130125   4.731   1.452   0.381
 9742SOL    HW230126   4.691   1.324   0.474
 9743SOL     OW30127   6.738   3.253   4.354
 9743SOL    HW130128   6.690   3.165   4.352
 9743SOL    HW230129   6.835   3.238   4.336
 9744SOL     OW30130   1.765   6.948   2.274
 9744SOL    HW130131   1.797   0.010   2.236
 9744SOL    HW230132   1.765   6.953   2.374
 9745SOL     OW30133   5.306   2.247   6.461
 9745SOL    HW130134   5.366   2.281   6.388
 9745SOL    HW230135   5.214   2.231   6.424
 9746SOL     OW30136   6.436   7.018   5.474
 9746SOL    HW130137   6.490   0.073   5.504
 9746SOL    HW230138   6.436   6.948   5.545
 9747SOL     OW30139   2.672   1.611   1.849
 9747SOL    HW130140   2.670   1.706   1.817
 9747SOL    HW230141   2.584   1.568   1.827
 9748SOL     OW30142   0.142   0.169   3.508
 9748SOL    HW130143   0.189   0.096   3.458
 9748SOL    HW230144   0.160   0.159   3.605
 9749SOL     OW30145   1.908   0.149   4.172
 9749SOL    HW130146   1.951   0.082   4.112
 9749SOL    HW230147   1.926   0.125   4.267
 9750SOL     OW30148   5.825   3.691   3.434
 9750SOL    HW130149   5.853   3.733   3.348
 9750SOL    HW230150   5.740   3.734   3.465
 9751SOL     OW30151   2.288   0.878   0.397
 9751SOL    HW130152   2.216   0.813   0.421
 9751SOL    HW230153   2.378   0.834   0.408
 9752SOL     OW30154   3.964   2.196   4.851
 9752SOL    HW130155   4.008   2.285   4.850
 9752SOL    HW230156   3.869   2.205   4.822
 9753SOL     OW30157   6.774   5.519   5.888
 9753SOL    HW130158   6.793   5.444   5.826
 9753SOL    HW230159   6.773   5.605   5.837
 9754SOL     OW30160   1.917   0.621   0.118
 9754SOL    HW130161   1.919   0.528   0.154
 9754SOL    HW230162   1.850   0.675   0.169
 9755SOL     OW30163   3.775   3.748   4.421
 9755SOL    HW130164   3.783   3.648   4.427
 9755SOL    HW230165   3.867   3.788   4.415
 9756SOL     OW30166   5.602   2.992   6.661
 9756SOL    HW130167   5.652   3.044   6.592
 9756SOL    HW230168   5.629   2.896   6.657
 9757SOL     OW30169   6.187   4.191   4.071
 9757SOL    HW130170   6.092   4.187   4.042
 9757SOL    HW230171   6.192   4.181   4.171
 9758SOL     OW30172   3.256   0.369   6.196
 9758SOL    HW130173   3.171   0.388   6.146
 9758SOL    HW230174   3.302   0.290   6.154
 9759SOL     OW30175   1.062   0.636   0.097
 9759SOL    HW130176   1.107   0.548   0.082
 9759SOL    HW230177   1.115   0.709   0.053
 9760SOL     OW30178   5.151   2.983   5.784
 9760SOL    HW130179   5.081   2.967   5.854
 9760SOL    HW230180   5.146   2.910   5.716
 9761SOL     OW30181   0.218   1.573   2.393
 9761SOL    HW130182   0.288   1.638   2.363
 9761SOL    HW230183   0.239   1.542   2.486
 9762SOL     OW30184   3.185   1.846   4.783
 9762SOL    HW130185   3.106   1.795   4.818
 9762SOL    HW230186   3.154   1.933   4.744
 9763SOL     OW30187   4.706   1.895   2.476
 9763SOL    HW130188   4.764   1.847   2.410
 9763SOL    HW230189   4.656   1.828   2.531
 9764SOL     OW30190   0.092   2.897   2.904
 9764SOL    HW130191   0.184   2.869   2.931
 9764SOL    HW230192   0.070   2.859   2.814
 9765SOL     OW30193   6.731   6.783   3.404
 9765SOL    HW130194   6.652   6.724   3.389
 9765SOL    HW230195   6.734   6.854   3.333
 9766SOL     OW30196   2.898   0.296   1.977
 9766SOL    HW130197   2.803   0.263   1.984
 9766SOL    HW230198   2.898   0.388   1.938
 9767SOL     OW30199   4.219   1.269   5.289
 9767SOL    HW130200   4.181   1.361   5.280
 9767SOL    HW230201   4.288   1.268   5.361
 9768SOL     OW30202   5.415   1.197   1.944
 9768SOL    HW130203   5.315   1.199   1.939
 9768SOL    HW230204   5.443   1.166   2.035
 9769SOL     OW30205   3.883   1.132   3.788
 9769SOL    HW130206   3.838   1.096   3.706
 9769SOL    HW230207   3.837   1.215   3.817
 9770SOL     OW30208   4.402   1.509   6.203
 9770SOL    HW130209   4.452   1.471   6.282
 9770SOL    HW230210   4.356   1.593   6.231
 9771SOL     OW30211   2.727   6.468   0.232
 9771SOL    HW130212   2.793   6.441   0.302
 9771SOL    HW230213   2.695   6.561   0.251
 9772SOL     OW30214   2.063   6.060   1.485
 9772SOL    HW130215   2.097   5.983   1.540
 9772SOL    HW230216   2.027   6.131   1.546
 9773SOL     OW30217   4.946   5.620   3.899
 9773SOL    HW130218   4.908   5.584   3.984
 9773SOL    HW230219   4.888   5.593   3.822
 9774SOL     OW30220   0.235   5.319   1.905
 9774SOL    HW130221   0.175   5.350   1.978
 9774SOL    HW230222   0.200   5.351   1.817
 9775SOL     OW30223   2.857   0.604   3.108
 9775SOL    HW130224   2.763   0.638   3.116
 9775SOL    HW230225   2.909   0.664   3.047
 9776SOL     OW30226   1.282   4.909   5.059
 9776SOL    HW130227   1.228   4.993   5.070
 9776SOL    HW230228   1.380   4.932   5.063
 9777SOL     OW30229   6.726   5.895   6.877
 9777SOL    HW130230   6.628   5.885   6.860
 9777SOL    HW230231   6.757   5.984   6.844
 9778SOL     OW30232   0.482   0.688   4.334
 9778SOL    HW130233   0.493   0.756   4.406
 9778SOL    HW230234   0.391   0.648   4.340
 9779SOL     OW30235   0.953   1.580   4.291
 9779SOL    HW130236   1.000   1.646   4.232
 9779SOL    HW230237   0.948   1.492   4.246
 9780SOL     OW30238   2.007   2.712   0.977
 9780SOL    HW130239   2.054   2.764   0.906
 9780SOL    HW230240   1.965   2.775   1.042
 9781SOL     OW30241   2.211   3.131   4.303
 9781SOL    HW130242   2.259   3.053   4.263
 9781SOL    HW230243   2.213   3.124   4.403
 9782SOL     OW30244   0.190   0.628   1.239
 9782SOL    HW130245   0.194   0.586   1.148
 9782SOL    HW230246   0.095   0.629   1.271
 9783SOL     OW30247   3.996   2.082   3.043
 9783SOL    HW130248   4.058   2.003   3.052
 9783SOL    HW230249   3.926   2.061   2.975
 9784SOL     OW30250   2.969   1.899   5.407
 9784SOL    HW130251   3.040   1.866   5.346
 9784SOL    HW230252   2.983   1.997   5.425
 9785SOL     OW30253   1.190   2.445   6.568
 9785SOL    HW130254   1.201   2.413   6.662
 9785SOL    HW230255   1.223   2.375   6.505
 9786SOL     OW30256   2.384   4.059   0.179
 9786SOL    HW130257   2.339   4.148   0.175
 9786SOL    HW230258   2.328   3.996   0.234
 9787SOL     OW30259   3.773   3.861   2.316
 9787SOL    HW130260   3.709   3.846   2.240
 9787SOL    HW230261   3.763   3.786   2.382
 9788SOL     OW30262   1.100   1.032   3.750
 9788SOL    HW130263   1.139   0.948   3.711
 9788SOL    HW230264   1.035   1.008   3.822
 9789SOL     OW30265   1.904   5.979   0.538
 9789SOL    HW130266   1.882   5.913   0.467
 9789SOL    HW230267   1.914   6.070   0.497
 9790SOL     OW30268   6.765   4.432   6.735
 9790SOL    HW130269   6.739   4.462   6.643
 9790SOL    HW230270   6.840   4.488   6.769
 9791SOL     OW30271   0.191   0.939   1.127
 9791SOL    HW130272   0.289   0.936   1.105
 9791SOL    HW230273   0.180   0.946   1.226
 9792SOL     OW30274   4.150   4.646   0.351
 9792SOL    HW130275   4.232   4.652   0.295
 9792SOL    HW230276   4.090   4.723   0.331
 9793SOL     OW30277   4.635   6.591   2.957
 9793SOL    HW130278   4.604   6.622   3.046
 9793SOL    HW230279   4.576   6.628   2.886
 9794SOL     OW30280   0.136   4.172   0.230
 9794SOL    HW130281   0.062   4.143   0.292
 9794SOL    HW230282   0.193   4.240   0.276
 9795SOL     OW30283   2.198   2.019   4.455
 9795SOL    HW130284   2.219   1.923   4.436
 9795SOL    HW230285   2.104   2.038   4.426
 9796SOL     OW30286   3.393   2.923   2.346
 9796SOL    HW130287   3.483   2.899   2.381
 9796SOL    HW230288   3.393   2.920   2.246
 9797SOL     OW30289   2.104   5.439   0.111
 9797SOL    HW130290   2.203   5.437   0.095
 9797SOL    HW230291   2.059   5.375   0.049
 9798SOL     OW30292   2.620   0.239   1.955
 9798SOL    HW130293   2.547   0.181   1.991
 9798SOL    HW230294   2.593   0.277   1.867
 9799SOL     OW30295   2.955   3.174   5.082
 9799SOL    HW130296   2.986   3.080   5.091
 9799SOL    HW230297   2.951   3.199   4.985
 9800SOL     OW30298   3.916   5.214   4.831
 9800SOL    HW130299   3.879   5.122   4.841
 9800SOL    HW230300   4.015   5.212   4.841
 9801SOL     OW30301   4.574   4.291   7.023
 9801SOL    HW130302   4.514   4.298   6.943
 9801SOL    HW230303   4.621   4.203   7.022
 9802SOL     OW30304   0.117   4.060   1.493
 9802SOL    HW130305   0.056   3.987   1.524
 9802SOL    HW230306   0.102   4.078   1.396
 9803SOL     OW30307   1.183   2.261   6.828
 9803SOL    HW130308   1.165   2.282   6.924
 9803SOL    HW230309   1.107   2.209   6.790
 9804SOL     OW30310   1.304   5.900   3.332
 9804SOL    HW130311   1.208   5.925   3.345
 9804SOL    HW230312   1.361   5.982   3.343
 9805SOL     OW30313   1.218   6.510   4.246
 9805SOL    HW130314   1.294   6.543   4.190
 9805SOL    HW230315   1.191   6.581   4.310
 9806SOL     OW30316   1.065   0.868   6.506
 9806SOL    HW130317   1.093   0.962   6.525
 9806SOL    HW230318   0.978   0.868   6.456
 9807SOL     OW30319   3.047   4.564   6.897
 9807SOL    HW130320   3.110   4.610   6.833
 9807SOL    HW230321   3.091   4.483   6.935
 9808SOL     OW30322   3.871   0.399   5.231
 9808SOL    HW130323   3.853   0.467   5.160
 9808SOL    HW230324   3.825   0.313   5.208
 9809SOL     OW30325   1.501   2.648   6.546
 9809SOL    HW130326   1.443   2.620   6.623
 9809SOL    HW230327   1.444   2.674   6.469
 9810SOL     OW30328   2.011   2.747   3.526
 9810SOL    HW130329   2.048   2.680   3.461
 9810SOL    HW230330   2.084   2.782   3.584
 9811SOL     OW30331   5.560   4.445   3.193
 9811SOL    HW130332   5.461   4.448   3.205
 9811SOL    HW230333   5.583   4.368   3.133
 9812SOL     OW30334   3.765   2.673   5.937
 9812SOL    HW130335   3.771   2.578   5.906
 9812SOL    HW230336   3.716   2.676   6.024
 9813SOL     OW30337   5.550   1.533   0.584
 9813SOL    HW130338   5.580   1.483   0.503
 9813SOL    HW230339   5.518   1.624   0.557
 9814SOL     OW30340   6.950   0.045   0.403
 9814SOL    HW130341   7.020   0.117   0.401
 9814SOL    HW230342   6.912   0.032   0.312
 9815SOL     OW30343   5.378   4.058   3.700
 9815SOL    HW130344   5.349   4.151   3.721
 9815SOL    HW230345   5.425   4.056   3.612
 9816SOL     OW30346   0.630   1.043   6.219
 9816SOL    HW130347   0.615   1.127   6.272
 9816SOL    HW230348   0.551   0.982   6.230
 9817SOL     OW30349   2.797   6.969   3.658
 9817SOL    HW130350   2.698   6.968   3.671
 9817SOL    HW230351   2.818   6.969   3.560
 9818SOL     OW30352   1.406   1.084   4.666
 9818SOL    HW130353   1.480   1.069   4.732
 9818SOL    HW230354   1.318   1.083   4.714
 9819SOL     OW30355   4.806   3.124   3.831
 9819SOL    HW130356   4.851   3.213   3.828
 9819SOL    HW230357   4.804   3.091   3.926
 9820SOL     OW30358   4.048   3.221   6.530
 9820SOL    HW130359   4.140   3.214   6.567
 9820SOL    HW230360   3.990   3.151   6.573
 9821SOL     OW30361   5.190   0.652   6.759
 9821SOL    HW130362   5.279   0.623   6.722
 9821SOL    HW230363   5.191   0.643   6.859
 9822SOL     OW30364   2.971   6.059   3.627
 9822SOL    HW130365   2.984   6.059   3.528
 9822SOL    HW230366   2.873   6.069   3.647
 9823SOL     OW30367   2.676   1.351   6.376
 9823SOL    HW130368   2.684   1.329   6.473
 9823SOL    HW230369   2.751   1.411   6.349
 9824SOL     OW30370   2.118   4.865   4.550
 9824SOL    HW130371   2.068   4.859   4.464
 9824SOL    HW230372   2.215   4.881   4.531
 9825SOL     OW30373   5.020   5.772   4.452
 9825SOL    HW130374   5.033   5.756   4.549
 9825SOL    HW230375   4.944   5.715   4.419
 9826SOL     OW30376   4.718   5.120   5.550
 9826SOL    HW130377   4.736   5.219   5.546
 9826SOL    HW230378   4.763   5.081   5.630
 9827SOL     OW30379   2.066   3.625   3.754
 9827SOL    HW130380   2.096   3.602   3.661
 9827SOL    HW230381   2.051   3.724   3.761
 9828SOL     OW30382   2.345   2.361   5.419
 9828SOL    HW130383   2.279   2.436   5.414
 9828SOL    HW230384   2.374   2.349   5.514
 9829SOL     OW30385   4.261   5.339   5.974
 9829SOL    HW130386   4.242   5.342   6.072
 9829SOL    HW230387   4.359   5.329   5.959
 9830SOL     OW30388   5.403   2.239   2.345
 9830SOL    HW130389   5.332   2.306   2.365
 9830SOL    HW230390   5.405   2.221   2.246
 9831SOL     OW30391   1.974   5.327   1.699
 9831SOL    HW130392   1.959   5.423   1.723
 9831SOL    HW230393   2.041   5.288   1.761
 9832SOL     OW30394   5.357   5.814   2.098
 9832SOL    HW130395   5.372   5.908   2.066
 9832SOL    HW230396   5.260   5.801   2.120
 9833SOL     OW30397   3.105   3.498   4.879
 9833SOL    HW130398   3.031   3.447   4.837
 9833SOL    HW230399   3.127   3.459   4.968
 9834SOL     OW30400   2.454   4.226   5.304
 9834SOL    HW130401   2.544   4.242   5.344
 9834SOL    HW230402   2.460   4.153   5.236
 9835SOL     OW30403   4.089   3.307   5.197
 9835SOL    HW130404   4.167   3.350   5.243
 9835SOL    HW230405   4.097   3.319   5.098
 9836SOL     OW30406   6.633   3.974   3.481
 9836SOL    HW130407   6.574   3.968   3.562
 9836SOL    HW230408   6.699   4.047   3.494
 9837SOL     OW30409   3.806   0.226   2.455
 9837SOL    HW130410   3.716   0.208   2.415
 9837SOL    HW230411   3.858   0.286   2.395
 9838SOL     OW30412   1.755   6.840   0.504
 9838SOL    HW130413   1.848   6.808   0.526
 9838SOL    HW230414   1.712   6.774   0.442
 9839SOL     OW30415   5.271   0.105   3.786
 9839SOL    HW130416   5.271   0.194   3.832
 9839SOL    HW230417   5.178   0.067   3.787
 9840SOL     OW30418   5.390   2.114   0.791
 9840SOL    HW130419   5.445   2.036   0.762
 9840SOL    HW230420   5.372   2.108   0.889
 9841SOL     OW30421   1.657   4.831   4.810
 9841SOL    HW130422   1.744   4.843   4.762
 9841SOL    HW230423   1.582   4.845   4.746
 9842SOL     OW30424   3.158   3.416   2.011
 9842SOL    HW130425   3.089   3.429   2.082
 9842SOL    HW230426   3.221   3.344   2.038
 9843SOL     OW30427   6.685   0.333   1.686
 9843SOL    HW130428   6.765   0.358   1.630
 9843SOL    HW230429   6.609   0.394   1.664
 9844SOL     OW30430   6.425   0.601   2.902
 9844SOL    HW130431   6.366   0.600   2.822
 9844SOL    HW230432   6.499   0.533   2.890
 9845SOL     OW30433   2.302   2.782   3.171
 9845SOL    HW130434   2.361   2.707   3.139
 9845SOL    HW230435   2.305   2.786   3.271
 9846SOL     OW30436   3.386   2.831   2.063
 9846SOL    HW130437   3.477   2.854   2.029
 9846SOL    HW230438   3.379   2.732   2.077
 9847SOL     OW30439   3.682   2.983   3.478
 9847SOL    HW130440   3.745   2.949   3.548
 9847SOL    HW230441   3.609   3.037   3.522
 9848SOL     OW30442   4.237   3.196   5.471
 9848SOL    HW130443   4.263   3.281   5.426
 9848SOL    HW230444   4.188   3.137   5.406
 9849SOL     OW30445   0.776   6.601   6.477
 9849SOL    HW130446   0.710   6.567   6.411
 9849SOL    HW230447   0.862   6.624   6.431
 9850SOL     OW30448   6.210   0.015   3.892
 9850SOL    HW130449   6.283   0.005   3.824
 9850SOL    HW230450   6.239   6.996   3.978
 9851SOL     OW30451   0.214   0.236   4.848
 9851SOL    HW130452   0.203   0.312   4.911
 9851SOL    HW230453   0.283   0.173   4.882
 9852SOL     OW30454   3.263   1.259   3.958
 9852SOL    HW130455   3.170   1.226   3.978
 9852SOL    HW230456   3.329   1.210   4.015
 9853SOL     OW30457   5.123   3.986   4.572
 9853SOL    HW130458   5.039   3.987   4.627
 9853SOL    HW230459   5.177   4.068   4.593
 9854SOL     OW30460   6.354   6.022   4.673
 9854SOL    HW130461   6.320   5.936   4.710
 9854SOL    HW230462   6.296   6.052   4.598
 9855SOL     OW30463   2.028   3.868   1.096
 9855SOL    HW130464   1.928   3.860   1.101
 9855SOL    HW230465   2.069   3.839   1.183
 9856SOL     OW30466   4.806   3.905   4.519
 9856SOL    HW130467   4.816   3.976   4.449
 9856SOL    HW230468   4.825   3.944   4.609
 9857SOL     OW30469   5.009   2.799   2.462
 9857SOL    HW130470   5.072   2.867   2.501
 9857SOL    HW230471   4.952   2.761   2.535
 9858SOL     OW30472   0.159   0.426   1.904
 9858SOL    HW130473   0.243   0.448   1.854
 9858SOL    HW230474   0.152   0.327   1.915
 9859SOL     OW30475   6.288   6.144   2.623
 9859SOL    HW130476   6.205   6.179   2.580
 9859SOL    HW230477   6.265   6.103   2.711
 9860SOL     OW30478   1.833   2.346   3.577
 9860SOL    HW130479   1.762   2.339   3.647
 9860SOL    HW230480   1.923   2.345   3.620
 9861SOL     OW30481   3.127   0.437   3.033
 9861SOL    HW130482   3.030   0.452   3.052
 9861SOL    HW230483   3.181   0.469   3.110
 9862SOL     OW30484   3.471   2.942   6.688
 9862SOL    HW130485   3.422   2.907   6.608
 9862SOL    HW230486   3.566   2.962   6.663
 9863SOL     OW30487   3.807   6.803   2.389
 9863SOL    HW130488   3.884   6.744   2.412
 9863SOL    HW230489   3.832   6.865   2.315
 9864SOL     OW30490   4.068   6.746   3.764
 9864SOL    HW130491   3.977   6.755   3.804
 9864SOL    HW230492   4.114   6.835   3.765
 9865SOL     OW30493   1.477   6.979   4.689
 9865SOL    HW130494   1.513   6.976   4.596
 9865SOL    HW230495   1.494   6.891   4.734
 9866SOL     OW30496   5.103   4.677   6.125
 9866SOL    HW130497   5.085   4.600   6.063
 9866SOL    HW230498   5.017   4.707   6.166
 9867SOL     OW30499   6.610   1.793   1.172
 9867SOL    HW130500   6.659   1.745   1.245
 9867SOL    HW230501   6.535   1.735   1.139
 9868SOL     OW30502   0.648   3.494   4.835
 9868SOL    HW130503   0.697   3.492   4.923
 9868SOL    HW230504   0.641   3.400   4.799
 9869SOL     OW30505   0.525   2.447   1.709
 9869SOL    HW130506   0.463   2.508   1.660
 9869SOL    HW230507   0.492   2.353   1.700
 9870SOL     OW30508   3.961   5.986   2.491
 9870SOL    HW130509   3.897   6.054   2.455
 9870SOL    HW230510   3.934   5.895   2.459
 9871SOL     OW30511   6.498   4.898   6.245
 9871SOL    HW130512   6.540   4.826   6.191
 9871SOL    HW230513   6.409   4.922   6.206
 9872SOL     OW30514   2.660   5.316   5.320
 9872SOL    HW130515   2.649   5.227   5.276
 9872SOL    HW230516   2.725   5.371   5.268
 9873SOL     OW30517   2.423   2.605   0.843
 9873SOL    HW130518   2.371   2.609   0.928
 9873SOL    HW230519   2.407   2.517   0.798
 9874SOL     OW30520   5.357   3.589   5.134
 9874SOL    HW130521   5.446   3.628   5.108
 9874SOL    HW230522   5.350   3.496   5.099
 9875SOL     OW30523   5.908   5.654   1.635
 9875SOL    HW130524   5.951   5.590   1.698
 9875SOL    HW230525   5.961   5.657   1.550
 9876SOL     OW30526   5.596   1.103   4.042
 9876SOL    HW130527   5.631   1.161   4.116
 9876SOL    HW230528   5.645   1.015   4.043
 9877SOL     OW30529   6.340   4.792   4.502
 9877SOL    HW130530   6.364   4.776   4.406
 9877SOL    HW230531   6.319   4.705   4.546
 9878SOL     OW30532   2.942   4.140   5.439
 9878SOL    HW130533   2.920   4.088   5.357
 9878SOL    HW230534   2.959   4.077   5.515
 9879SOL     OW30535   5.072   6.002   5.238
 9879SOL    HW130536   4.998   5.944   5.203
 9879SOL    HW230537   5.049   6.098   5.221
 9880SOL     OW30538   3.630   0.753   0.047
 9880SOL    HW130539   3.697   0.679   0.046
 9880SOL    HW230540   3.664   0.829   7.015
 9881SOL     OW30541   0.767   1.609   4.946
 9881SOL    HW130542   0.793   1.513   4.939
 9881SOL    HW230543   0.696   1.630   4.878
 9882SOL     OW30544   1.659   3.967   4.930
 9882SOL    HW130545   1.726   3.976   5.005
 9882SOL    HW230546   1.572   3.936   4.967
 9883SOL     OW30547   1.242   6.175   1.085
 9883SOL    HW130548   1.217   6.138   0.995
 9883SOL    HW230549   1.297   6.107   1.134
 9884SOL     OW30550   4.957   2.279   1.213
 9884SOL    HW130551   4.961   2.372   1.176
 9884SOL    HW230552   4.939   2.282   1.311
 9885SOL     OW30553   6.835   1.915   4.882
 9885SOL    HW130554   6.862   2.000   4.927
 9885SOL    HW230555   6.739   1.922   4.854
 9886SOL     OW30556   0.943   5.226   1.984
 9886SOL    HW130557   0.915   5.137   2.021
 9886SOL    HW230558   1.042   5.237   1.994
 9887SOL     OW30559   3.610   0.151   0.000
 9887SOL    HW130560   3.695   0.156   6.972
 9887SOL    HW230561   3.617   0.207   0.083
 9888SOL     OW30562   5.159   5.291   2.534
 9888SOL    HW130563   5.136   5.197   2.511
 9888SOL    HW230564   5.117   5.353   2.469
 9889SOL     OW30565   6.060   4.485   0.904
 9889SOL    HW130566   5.970   4.477   0.947
 9889SOL    HW230567   6.124   4.424   0.950
 9890SOL     OW30568   0.565   2.478   1.193
 9890SOL    HW130569   0.586   2.386   1.228
 9890SOL    HW230570   0.650   2.529   1.181
 9891SOL     OW30571   6.046   3.099   1.729
 9891SOL    HW130572   6.085   3.155   1.655
 9891SOL    HW230573   5.993   3.024   1.689
 9892SOL     OW30574   1.552   5.041   2.515
 9892SOL    HW130575   1.490   5.089   2.453
 9892SOL    HW230576   1.644   5.081   2.507
 9893SOL     OW30577   6.503   0.519   2.513
 9893SOL    HW130578   6.488   0.420   2.524
 9893SOL    HW230579   6.601   0.538   2.514
 9894SOL     OW30580   3.127   2.147   6.571
 9894SOL    HW130581   3.192   2.086   6.526
 9894SOL    HW230582   3.172   2.194   6.647
 9895SOL     OW30583   5.086   3.773   5.476
 9895SOL    HW130584   5.010   3.720   5.439
 9895SOL    HW230585   5.172   3.725   5.458
 9896SOL     OW30586   5.402   1.158   0.677
 9896SOL    HW130587   5.361   1.182   0.589
 9896SOL    HW230588   5.478   1.094   0.663
 9897SOL     OW30589   5.409   0.172   2.242
 9897SOL    HW130590   5.462   0.189   2.159
 9897SOL    HW230591   5.343   0.246   2.256
 9898SOL     OW30592   0.939   4.753   6.131
 9898SOL    HW130593   0.989   4.792   6.209
 9898SOL    HW230594   0.926   4.824   6.062
 9899SOL     OW30595   1.306   5.076   2.311
 9899SOL    HW130596   1.275   5.136   2.237
 9899SOL    HW230597   1.283   5.118   2.399
 9900SOL     OW30598   1.524   3.170   2.096
 9900SOL    HW130599   1.520   3.125   2.007
 9900SOL    HW230600   1.563   3.262   2.085
 9901SOL     OW30601   3.268   0.665   6.904
 9901SOL    HW130602   3.266   0.765   6.912
 9901SOL    HW230603   3.184   0.634   6.859
 9902SOL     OW30604   3.913   4.225   1.391
 9902SOL    HW130605   3.912   4.154   1.321
 9902SOL    HW230606   3.968   4.194   1.469
 9903SOL     OW30607   5.399   1.870   1.364
 9903SOL    HW130608   5.403   1.969   1.365
 9903SOL    HW230609   5.416   1.836   1.271
 9904SOL     OW30610   0.537   3.926   6.408
 9904SOL    HW130611   0.633   3.920   6.434
 9904SOL    HW230612   0.481   3.938   6.489
 9905SOL     OW30613   1.905   0.394   6.222
 9905SOL    HW130614   1.995   0.361   6.249
 9905SOL    HW230615   1.908   0.493   6.208
 9906SOL     OW30616   1.937   3.351   0.579
 9906SOL    HW130617   1.990   3.348   0.664
 9906SOL    HW230618   1.998   3.378   0.504
 9907SOL     OW30619   1.165   1.103   1.812
 9907SOL    HW130620   1.190   1.153   1.895
 9907SOL    HW230621   1.246   1.085   1.757
 9908SOL     OW30622   6.983   2.740   5.126
 9908SOL    HW130623   6.904   2.678   5.124
 9908SOL    HW230624   0.031   2.699   5.183
 9909SOL     OW30625   3.884   0.670   2.584
 9909SOL    HW130626   3.896   0.749   2.524
 9909SOL    HW230627   3.963   0.662   2.645
 9910SOL     OW30628   1.911   5.585   1.428
 9910SOL    HW130629   1.840   5.589   1.499
 9910SOL    HW230630   1.891   5.652   1.357
 9911SOL     OW30631   3.038   5.894   2.487
 9911SOL    HW130632   3.096   5.913   2.407
 9911SOL    HW230633   2.998   5.803   2.478
 9912SOL     OW30634   4.011   1.055   1.748
 9912SOL    HW130635   4.065   0.972   1.734
 9912SOL    HW230636   4.011   1.109   1.665
 9913SOL     OW30637   5.969   2.853   1.399
 9913SOL    HW130638   5.958   2.778   1.464
 9913SOL    HW230639   5.881   2.900   1.387
 9914SOL     OW30640   6.957   6.883   5.539
 9914SOL    HW130641   0.001   6.821   5.500
 9914SOL    HW230642   6.871   6.833   5.554
 9915SOL     OW30643   5.600   1.491   3.147
 9915SOL    HW130644   5.668   1.467   3.077
 9915SOL    HW230645   5.554   1.408   3.179
 9916SOL     OW30646   1.863   2.166   3.344
 9916SOL    HW130647   1.874   2.239   3.411
 9916SOL    HW230648   1.775   2.178   3.296
 9917SOL     OW30649   3.500   3.415   5.458
 9917SOL    HW130650   3.550   3.499   5.477
 9917SOL    HW230651   3.527   3.344   5.523
 9918SOL     OW30652   1.109   3.102   2.406
 9918SOL    HW130653   1.194   3.077   2.359
 9918SOL    HW230654   1.033   3.053   2.363
 9919SOL     OW30655   2.776   5.729   2.204
 9919SOL    HW130656   2.779   5.630   2.193
 9919SOL    HW230657   2.709   5.753   2.275
 9920SOL     OW30658   4.423   0.695   2.900
 9920SOL    HW130659   4.519   0.723   2.889
 9920SOL    HW230660   4.389   0.729   2.987
 9921SOL     OW30661   4.593   0.102   5.010
 9921SOL    HW130662   4.517   0.116   5.074
 9921SOL    HW230663   4.595   0.177   4.945
 9922SOL     OW30664   4.138   4.396   1.239
 9922SOL    HW130665   4.223   4.343   1.233
 9922SOL    HW230666   4.076   4.352   1.303
 9923SOL     OW30667   6.169   3.547   0.580
 9923SOL    HW130668   6.238   3.609   0.542
 9923SOL    HW230669   6.215   3.469   0.621
 9924SOL     OW30670   4.926   1.723   3.238
 9924SOL    HW130671   4.973   1.811   3.249
 9924SOL    HW230672   4.990   1.648   3.256
 9925SOL     OW30673   0.727   4.707   3.745
 9925SOL    HW130674   0.673   4.791   3.751
 9925SOL    HW230675   0.791   4.704   3.822
 9926SOL     OW30676   3.962   2.952   0.434
 9926SOL    HW130677   3.869   2.986   0.447
 9926SOL    HW230678   4.005   2.938   0.523
 9927SOL     OW30679   1.456   1.205   0.640
 9927SOL    HW130680   1.538   1.151   0.658
 9927SOL    HW230681   1.443   1.271   0.715
 9928SOL     OW30682   5.694   3.737   3.120
 9928SOL    HW130683   5.789   3.765   3.136
 9928SOL    HW230684   5.646   3.811   3.072
 9929SOL     OW30685   3.627   3.900   4.781
 9929SOL    HW130686   3.698   3.842   4.822
 9929SOL    HW230687   3.665   3.947   4.701
 9930SOL     OW30688   0.677   6.922   6.237
 9930SOL    HW130689   0.691   7.002   6.296
 9930SOL    HW230690   0.754   6.859   6.246
 9931SOL     OW30691   6.988   5.839   4.058
 9931SOL    HW130692   6.970   5.748   4.022
 9931SOL    HW230693   6.932   5.906   4.009
 9932SOL     OW30694   2.773   2.289   5.733
 9932SOL    HW130695   2.783   2.389   5.730
 9932SOL    HW230696   2.825   2.253   5.810
 9933SOL     OW30697   1.632   6.901   3.979
 9933SOL    HW130698   1.713   6.889   4.037
 9933SOL    HW230699   1.644   6.850   3.894
 9934SOL     OW30700   6.913   1.678   6.255
 9934SOL    HW130701   6.847   1.700   6.184
 9934SOL    HW230702   6.869   1.678   6.345
 9935SOL     OW30703   2.766   0.113   1.082
 9935SOL    HW130704   2.729   0.198   1.119
 9935SOL    HW230705   2.693   0.061   1.038
 9936SOL     OW30706   6.319   4.856   0.827
 9936SOL    HW130707   6.257   4.814   0.761
 9936SOL    HW230708   6.394   4.792   0.848
 9937SOL     OW30709   0.763   1.125   2.175
 9937SOL    HW130710   0.758   1.155   2.270
 9937SOL    HW230711   0.806   1.196   2.120
 9938SOL     OW30712   5.606   5.573   4.064
 9938SOL    HW130713   5.705   5.558   4.058
 9938SOL    HW230714   5.563   5.554   3.976
 9939SOL     OW30715   2.874   3.431   0.792
 9939SOL    HW130716   2.925   3.431   0.706
 9939SOL    HW230717   2.890   3.345   0.840
 9940SOL     OW30718   1.185   0.240   2.254
 9940SOL    HW130719   1.222   0.209   2.167
 9940SOL    HW230720   1.198   0.169   2.323
 9941SOL     OW30721   3.237   4.693   6.006
 9941SOL    HW130722   3.218   4.603   5.967
 9941SOL    HW230723   3.185   4.703   6.091
 9942SOL     OW30724   4.149   5.551   2.381
 9942SOL    HW130725   4.098   5.474   2.343
 9942SOL    HW230726   4.146   5.628   2.318
 9943SOL     OW30727   1.002   4.675   6.537
 9943SOL    HW130728   1.069   4.705   6.469
 9943SOL    HW230729   1.049   4.626   6.610
 9944SOL     OW30730   0.970   4.470   6.761
 9944SOL    HW130731   0.872   4.466   6.776
 9944SOL    HW230732   0.999   4.390   6.709
 9945SOL     OW30733   4.571   5.269   6.856
 9945SOL    HW130734   4.485   5.262   6.908
 9945SOL    HW230735   4.634   5.197   6.887
 9946SOL     OW30736   6.350   0.121   3.171
 9946SOL    HW130737   6.390   0.130   3.262
 9946SOL    HW230738   6.252   0.138   3.175
 9947SOL     OW30739   2.883   2.298   4.880
 9947SOL    HW130740   2.806   2.338   4.929
 9947SOL    HW230741   2.956   2.276   4.945
 9948SOL     OW30742   6.009   5.937   4.901
 9948SOL    HW130743   6.045   6.001   4.970
 9948SOL    HW230744   6.056   5.849   4.910
 9949SOL     OW30745   0.354   4.712   3.837
 9949SOL    HW130746   0.291   4.654   3.889
 9949SOL    HW230747   0.428   4.657   3.800
 9950SOL     OW30748   6.087   6.121   6.735
 9950SOL    HW130749   5.997   6.076   6.731
 9950SOL    HW230750   6.106   6.148   6.830
 9951SOL     OW30751   0.834   2.517   3.292
 9951SOL    HW130752   0.911   2.580   3.278
 9951SOL    HW230753   0.756   2.568   3.327
 9952SOL     OW30754   2.186   4.050   0.972
 9952SOL    HW130755   2.163   4.065   0.876
 9952SOL    HW230756   2.117   3.991   1.014
 9953SOL     OW30757   6.126   1.830   3.588
 9953SOL    HW130758   6.097   1.772   3.664
 9953SOL    HW230759   6.214   1.873   3.610
 9954SOL     OW30760   1.423   0.163   5.104
 9954SOL    HW130761   1.369   0.088   5.141
 9954SOL    HW230762   1.504   0.126   5.058
 9955SOL     OW30763   4.310   3.594   6.230
 9955SOL    HW130764   4.212   3.576   6.233
 9955SOL    HW230765   4.338   3.618   6.137
 9956SOL     OW30766   0.503   4.920   3.774
 9956SOL    HW130767   0.456   4.999   3.814
 9956SOL    HW230768   0.442   4.841   3.775
 9957SOL     OW30769   5.738   0.499   1.974
 9957SOL    HW130770   5.765   0.586   2.016
 9957SOL    HW230771   5.814   0.434   1.982
 9958SOL     OW30772   2.888   6.068   6.755
 9958SOL    HW130773   2.825   6.146   6.756
 9958SOL    HW230774   2.975   6.095   6.795
 9959SOL     OW30775   4.106   3.640   3.492
 9959SOL    HW130776   4.188   3.682   3.531
 9959SOL    HW230777   4.100   3.661   3.395
 9960SOL     OW30778   0.663   6.551   2.285
 9960SOL    HW130779   0.593   6.556   2.214
 9960SOL    HW230780   0.652   6.628   2.348
 9961SOL     OW30781   1.867   5.150   4.513
 9961SOL    HW130782   1.895   5.191   4.426
 9961SOL    HW230783   1.947   5.141   4.572
 9962SOL     OW30784   4.501   0.642   2.599
 9962SOL    HW130785   4.564   0.674   2.670
 9962SOL    HW230786   4.422   0.599   2.641
 9963SOL     OW30787   2.088   2.727   6.179
 9963SOL    HW130788   2.078   2.676   6.264
 9963SOL    HW230789   2.152   2.803   6.194
 9964SOL     OW30790   4.295   4.722   6.050
 9964SOL    HW130791   4.246   4.638   6.071
 9964SOL    HW230792   4.393   4.703   6.044
 9965SOL     OW30793   3.640   4.676   5.320
 9965SOL    HW130794   3.546   4.684   5.287
 9965SOL    HW230795   3.661   4.754   5.380
 9966SOL     OW30796   2.824   5.633   2.483
 9966SOL    HW130797   2.762   5.579   2.540
 9966SOL    HW230798   2.872   5.573   2.420
 9967SOL     OW30799   5.403   5.858   1.772
 9967SOL    HW130800   5.311   5.856   1.734
 9967SOL    HW230801   5.419   5.774   1.825
 9968SOL     OW30802   3.261   5.315   6.453
 9968SOL    HW130803   3.319   5.329   6.533
 9968SOL    HW230804   3.316   5.276   6.379
 9969SOL     OW30805   0.613   2.672   3.875
 9969SOL    HW130806   0.547   2.601   3.902
 9969SOL    HW230807   0.630   2.732   3.954
 9970SOL     OW30808   6.263   4.632   2.076
 9970SOL    HW130809   6.322   4.691   2.020
 9970SOL    HW230810   6.317   4.590   2.149
 9971SOL     OW30811   2.499   4.223   0.475
 9971SOL    HW130812   2.529   4.288   0.404
 9971SOL    HW230813   2.399   4.217   0.473
 9972SOL     OW30814   3.629   4.950   0.009
 9972SOL    HW130815   3.611   4.890   0.087
 9972SOL    HW230816   3.648   5.042   0.042
 9973SOL     OW30817   4.134   2.002   4.697
 9973SOL    HW130818   4.079   2.065   4.641
 9973SOL    HW230819   4.075   1.929   4.731
 9974SOL     OW30820   6.207   3.664   3.230
 9974SOL    HW130821   6.200   3.568   3.256
 9974SOL    HW230822   6.251   3.716   3.303
 9975SOL     OW30823   0.184   4.484   0.142
 9975SOL    HW130824   0.084   4.491   0.140
 9975SOL    HW230825   0.212   4.432   0.222
 9976SOL     OW30826   6.685   5.571   5.282
 9976SOL    HW130827   6.694   5.658   5.233
 9976SOL    HW230828   6.721   5.497   5.226
 9977SOL     OW30829   6.627   4.879   5.729
 9977SOL    HW130830   6.544   4.832   5.700
 9977SOL    HW230831   6.626   4.973   5.694
 9978SOL     OW30832   6.566   2.270   3.935
 9978SOL    HW130833   6.618   2.218   4.003
 9978SOL    HW230834   6.612   2.358   3.919
 9979SOL     OW30835   6.611   4.975   6.470
 9979SOL    HW130836   6.568   4.938   6.388
 9979SOL    HW230837   6.700   4.931   6.484
 9980SOL     OW30838   1.475   1.388   6.449
 9980SOL    HW130839   1.437   1.401   6.540
 9980SOL    HW230840   1.507   1.476   6.414
 9981SOL     OW30841   2.332   1.858   0.912
 9981SOL    HW130842   2.248   1.909   0.894
 9981SOL    HW230843   2.309   1.765   0.941
 9982SOL     OW30844   0.954   1.840   2.950
 9982SOL    HW130845   0.919   1.934   2.949
 9982SOL    HW230846   0.886   1.779   2.991
 9983SOL     OW30847   1.460   1.896   1.688
 9983SOL    HW130848   1.433   1.966   1.755
 9983SOL    HW230849   1.476   1.939   1.599
 9984SOL     OW30850   1.390   0.275   0.545
 9984SOL    HW130851   1.401   0.177   0.529
 9984SOL    HW230852   1.344   0.289   0.632
 9985SOL     OW30853   3.238   0.626   1.222
 9985SOL    HW130854   3.283   0.689   1.284
 9985SOL    HW230855   3.232   0.667   1.131
 9986SOL     OW30856   5.364   4.166   6.567
 9986SOL    HW130857   5.359   4.067   6.582
 9986SOL    HW230858   5.277   4.198   6.528
 9987SOL     OW30859   5.085   2.073   2.873
 9987SOL    HW130860   5.072   1.976   2.891
 9987SOL    HW230861   5.053   2.095   2.781
 9988SOL     OW30862   0.153   5.936   5.076
 9988SOL    HW130863   0.064   5.942   5.120
 9988SOL    HW230864   0.185   6.028   5.054
 9989SOL     OW30865   5.178   3.642   2.535
 9989SOL    HW130866   5.092   3.630   2.485
 9989SOL    HW230867   5.196   3.739   2.547
 9990SOL     OW30868   2.632   6.613   3.514
 9990SOL    HW130869   2.706   6.596   3.580
 9990SOL    HW230870   2.555   6.656   3.562
 9991SOL     OW30871   1.000   2.880   4.998
 9991SOL    HW130872   0.938   2.885   4.919
 9991SOL    HW230873   1.076   2.819   4.977
 9992SOL     OW30874   5.053   3.692   0.543
 9992SOL    HW130875   5.076   3.788   0.556
 9992SOL    HW230876   5.136   3.636   0.541
 9993SOL     OW30877   4.688   6.799   2.568
 9993SOL    HW130878   4.753   6.751   2.510
 9993SOL    HW230879   4.733   6.832   2.650
 9994SOL     OW30880   6.635   3.722   4.353
 9994SOL    HW130881   6.700   3.755   4.283
 9994SOL    HW230882   6.600   3.800   4.405
 9995SOL     OW30883   2.786   6.967   2.590
 9995SOL    HW130884   2.778   6.924   2.680
 9995SOL    HW230885   2.881   6.994   2.575
 9996SOL     OW30886   2.723   1.997   1.183
 9996SOL    HW130887   2.630   1.998   1.146
 9996SOL    HW230888   2.754   2.091   1.198
 9997SOL     OW30889   4.052   2.120   0.915
 9997SOL    HW130890   4.077   2.217   0.907
 9997SOL    HW230891   3.966   2.104   0.867
 9998SOL     OW30892   6.856   3.858   1.962
 9998SOL    HW130893   6.763   3.824   1.954
 9998SOL    HW230894   6.921   3.789   1.931
 9999SOL     OW30895   6.347   4.414   4.393
 9999SOL    HW130896   6.274   4.348   4.376
 9999SOL    HW230897   6.317   4.505   4.364
10000SOL     OW30898   5.992   2.453   6.682
10000SOL    HW130899   5.896   2.450   6.712
10000SOL    HW230900   6.031   2.361   6.688
10001SOL     OW30901   5.065   1.146   1.567
10001SOL    HW130902   5.127   1.190   1.503
10001SOL    HW230903   5.077   1.046   1.562
10002SOL     OW30904   1.286   0.635   1.361
10002SOL    HW130905   1.368   0.653   1.308
10002SOL    HW230906   1.259   0.718   1.411
10003SOL     OW30907   3.934   2.117   3.655
10003SOL    HW130908   3.854   2.113   3.715
10003SOL    HW230909   4.017   2.127   3.710
10004SOL     OW30910   5.122   2.988   4.589
10004SOL    HW130911   5.193   3.054   4.613
10004SOL    HW230912   5.127   2.968   4.491
10005SOL     OW30913   5.051   5.628   3.342
10005SOL    HW130914   5.041   5.696   3.415
10005SOL    HW230915   5.055   5.537   3.383
10006SOL     OW30916   5.686   1.237   4.293
10006SOL    HW130917   5.714   1.174   4.365
10006SOL    HW230918   5.617   1.300   4.329
10007SOL     OW30919   0.992   4.459   4.930
10007SOL    HW130920   0.983   4.407   5.015
10007SOL    HW230921   1.010   4.555   4.951
10008SOL     OW30922   3.997   1.594   3.922
10008SOL    HW130923   3.961   1.647   3.999
10008SOL    HW230924   4.075   1.641   3.882
10009SOL     OW30925   2.118   3.832   1.363
10009SOL    HW130926   2.062   3.817   1.444
10009SOL    HW230927   2.151   3.926   1.362
10010SOL     OW30928   2.157   6.586   6.927
10010SOL    HW130929   2.239   6.618   6.881
10010SOL    HW230930   2.080   6.587   6.863
10011SOL     OW30931   0.173   2.366   5.221
10011SOL    HW130932   0.127   2.385   5.308
10011SOL    HW230933   0.235   2.288   5.233
10012SOL     OW30934   5.204   6.950   2.874
10012SOL    HW130935   5.236   6.863   2.837
10012SOL    HW230936   5.218   6.951   2.973
10013SOL     OW30937   1.851   1.746   4.221
10013SOL    HW130938   1.814   1.692   4.146
10013SOL    HW230939   1.882   1.834   4.187
10014SOL     OW30940   6.601   2.635   0.203
10014SOL    HW130941   6.682   2.641   0.262
10014SOL    HW230942   6.604   2.550   0.150
10015SOL     OW30943   2.948   4.315   0.344
10015SOL    HW130944   3.032   4.350   0.304
10015SOL    HW230945   2.880   4.302   0.272
10016SOL     OW30946   2.479   0.183   4.894
10016SOL    HW130947   2.400   0.121   4.889
10016SOL    HW230948   2.539   0.154   4.968
10017SOL     OW30949   1.808   2.414   2.153
10017SOL    HW130950   1.860   2.337   2.115
10017SOL    HW230951   1.839   2.499   2.111
10018SOL     OW30952   5.589   6.455   6.193
10018SOL    HW130953   5.618   6.472   6.098
10018SOL    HW230954   5.600   6.539   6.246
10019SOL     OW30955   1.340   1.823   3.235
10019SOL    HW130956   1.245   1.799   3.251
10019SOL    HW230957   1.398   1.742   3.244
10020SOL     OW30958   0.054   2.395   1.040
10020SOL    HW130959   7.000   2.341   1.072
10020SOL    HW230960   0.125   2.396   1.111
10021SOL     OW30961   1.070   2.774   1.357
10021SOL    HW130962   1.096   2.870   1.367
10021SOL    HW230963   1.139   2.716   1.402
10022SOL     OW30964   3.358   6.775   1.028
10022SOL    HW130965   3.357   6.778   0.928
10022SOL    HW230966   3.389   6.685   1.059
10023SOL     OW30967   1.695   5.245   5.592
10023SOL    HW130968   1.731   5.261   5.500
10023SOL    HW230969   1.761   5.279   5.659
10024SOL     OW30970   2.194   6.673   2.010
10024SOL    HW130971   2.119   6.739   2.015
10024SOL    HW230972   2.258   6.690   2.085
10025SOL     OW30973   1.311   0.947   0.929
10025SOL    HW130974   1.243   0.896   0.876
10025SOL    HW230975   1.271   1.033   0.961
10026SOL     OW30976   4.992   6.700   3.643
10026SOL    HW130977   4.918   6.707   3.576
10026SOL    HW230978   4.957   6.721   3.734
10027SOL     OW30979   0.637   4.568   5.178
10027SOL    HW130980   0.661   4.491   5.118
10027SOL    HW230981   0.715   4.589   5.237
10028SOL     OW30982   1.574   1.647   1.712
10028SOL    HW130983   1.492   1.704   1.715
10028SOL    HW230984   1.653   1.700   1.744
10029SOL     OW30985   3.186   1.772   3.562
10029SOL    HW130986   3.088   1.760   3.548
10029SOL    HW230987   3.203   1.809   3.653
10030SOL     OW30988   2.361   6.737   4.163
10030SOL    HW130989   2.411   6.654   4.138
10030SOL    HW230990   2.426   6.813   4.170
10031SOL     OW30991   6.012   5.131   3.609
10031SOL    HW130992   6.025   5.169   3.518
10031SOL    HW230993   6.049   5.194   3.677
10032SOL     OW30994   3.120   0.875   5.247
10032SOL    HW130995   3.105   0.928   5.331
10032SOL    HW230996   3.217   0.855   5.238
10033SOL     OW30997   4.856   2.443   4.212
10033SOL    HW130998   4.939   2.490   4.242
10033SOL    HW230999   4.853   2.441   4.112
10034SOL     OW31000   3.129   0.148   4.036
10034SOL    HW131001   3.074   0.162   3.954
10034SOL    HW231002   3.098   0.210   4.109
10035SOL     OW31003   7.019   4.235   2.197
10035SOL    HW131004   6.921   4.232   2.177
10035SOL    HW231005   0.010   4.260   2.292
10036SOL     OW31006   5.259   1.421   0.714
10036SOL    HW131007   5.359   1.420   0.716
10036SOL    HW231008   5.225   1.327   0.725
10037SOL     OW31009   5.682   1.455   0.831
10037SOL    HW131010   5.655   1.476   0.737
10037SOL    HW231011   5.602   1.462   0.891
10038SOL     OW31012   4.172   1.213   6.608
10038SOL    HW131013   4.178   1.120   6.572
10038SOL    HW231014   4.174   1.211   6.708
10039SOL     OW31015   3.399   0.245   3.960
10039SOL    HW131016   3.306   0.208   3.966
10039SOL    HW231017   3.407   0.299   3.877
10040SOL     OW31018   4.106   5.817   6.309
10040SOL    HW131019   4.108   5.747   6.381
10040SOL    HW231020   4.199   5.840   6.282
10041SOL     OW31021   3.991   6.265   6.188
10041SOL    HW131022   3.960   6.187   6.242
10041SOL    HW231023   4.068   6.309   6.233
10042SOL     OW31024   0.972   1.608   4.554
10042SOL    HW131025   0.893   1.666   4.575
10042SOL    HW231026   0.971   1.585   4.457
10043SOL     OW31027   6.538   1.976   4.748
10043SOL    HW131028   6.573   2.070   4.758
10043SOL    HW231029   6.442   1.978   4.722
10044SOL     OW31030   2.675   1.603   5.267
10044SOL    HW131031   2.760   1.629   5.314
10044SOL    HW231032   2.693   1.595   5.169
10045SOL     OW31033   4.139   0.521   2.976
10045SOL    HW131034   4.144   0.486   2.883
10045SOL    HW231035   4.156   0.620   2.976
10046SOL     OW31036   2.435   3.898   0.741
10046SOL    HW131037   2.477   3.844   0.668
10046SOL    HW231038   2.495   3.974   0.764
10047SOL     OW31039   0.678   3.943   5.288
10047SOL    HW131040   0.700   3.917   5.194
10047SOL    HW231041   0.589   3.906   5.313
10048SOL     OW31042   6.317   1.035   2.752
10048SOL    HW131043   6.374   0.970   2.701
10048SOL    HW231044   6.305   1.002   2.846
10049SOL     OW31045   0.639   1.902   6.402
10049SOL    HW131046   0.653   1.803   6.410
10049SOL    HW231047   0.678   1.949   6.481
10050SOL     OW31048   5.458   4.032   4.733
10050SOL    HW131049   5.432   3.942   4.767
10050SOL    HW231050   5.411   4.103   4.786
10051SOL     OW31051   6.059   3.641   5.661
10051SOL    HW131052   6.123   3.683   5.725
10051SOL    HW231053   6.059   3.542   5.675
10052SOL     OW31054   1.705   1.414   3.133
10052SOL    HW131055   1.777   1.458   3.078
10052SOL    HW231056   1.641   1.368   3.072
10053SOL     OW31057   3.622   5.646   2.990
10053SOL    HW131058   3.648   5.661   2.895
10053SOL    HW231059   3.697   5.673   3.050
10054SOL     OW31060   5.422   6.109   6.494
10054SOL    HW131061   5.470   6.154   6.419
10054SOL    HW231062   5.339   6.065   6.459
10055SOL     OW31063   5.848   1.073   4.733
10055SOL    HW131064   5.862   1.136   4.810
10055SOL    HW231065   5.874   0.980   4.761
10056SOL     OW31066   5.394   4.404   2.897
10056SOL    HW131067   5.322   4.378   2.832
10056SOL    HW231068   5.415   4.327   2.956
10057SOL     OW31069   4.100   2.540   5.625
10057SOL    HW131070   4.061   2.479   5.556
10057SOL    HW231071   4.136   2.486   5.700
10058SOL     OW31072   6.504   3.383   5.389
10058SOL    HW131073   6.584   3.363   5.332
10058SOL    HW231074   6.528   3.451   5.458
10059SOL     OW31075   6.940   1.431   0.823
10059SOL    HW131076   6.902   1.342   0.798
10059SOL    HW231077   0.009   1.439   0.787
10060SOL     OW31078   2.167   3.016   2.203
10060SOL    HW131079   2.126   3.082   2.266
10060SOL    HW231080   2.174   3.057   2.112
10061SOL     OW31081   4.829   1.338   4.353
10061SOL    HW131082   4.829   1.389   4.439
10061SOL    HW231083   4.756   1.270   4.355
10062SOL     OW31084   5.488   0.493   3.644
10062SOL    HW131085   5.448   0.410   3.605
10062SOL    HW231086   5.573   0.469   3.691
10063SOL     OW31087   2.643   0.925   4.130
10063SOL    HW131088   2.663   0.973   4.215
10063SOL    HW231089   2.625   0.992   4.057
10064SOL     OW31090   4.731   6.737   0.389
10064SOL    HW131091   4.768   6.664   0.447
10064SOL    HW231092   4.638   6.715   0.363
10065SOL     OW31093   2.658   6.813   2.808
10065SOL    HW131094   2.605   6.778   2.886
10065SOL    HW231095   2.599   6.867   2.749
10066SOL     OW31096   0.240   2.457   4.181
10066SOL    HW131097   0.175   2.406   4.125
10066SOL    HW231098   0.262   2.404   4.264
10067SOL     OW31099   0.382   3.643   4.975
10067SOL    HW131100   0.288   3.614   4.958
10067SOL    HW231101   0.444   3.587   4.919
10068SOL     OW31102   0.346   3.445   3.362
10068SOL    HW131103   0.436   3.468   3.398
10068SOL    HW231104   0.311   3.364   3.408
10069SOL     OW31105   3.177   5.356   1.691
10069SOL    HW131106   3.213   5.299   1.617
10069SOL    HW231107   3.177   5.304   1.776
10070SOL     OW31108   0.016   6.311   5.200
10070SOL    HW131109   0.049   6.241   5.263
10070SOL    HW231110   0.094   6.357   5.157
10071SOL     OW31111   6.384   6.156   4.284
10071SOL    HW131112   6.450   6.207   4.338
10071SOL    HW231113   6.317   6.113   4.345
10072SOL     OW31114   0.632   6.691   4.171
10072SOL    HW131115   0.637   6.787   4.196
10072SOL    HW231116   0.538   6.659   4.179
10073SOL     OW31117   6.632   4.144   4.263
10073SOL    HW131118   6.567   4.160   4.188
10073SOL    HW231119   6.585   4.097   4.338
10074SOL     OW31120   2.396   0.355   5.927
10074SOL    HW131121   2.447   0.290   5.983
10074SOL    HW231122   2.367   0.432   5.983
10075SOL     OW31123   1.583   2.409   1.985
10075SOL    HW131124   1.604   2.346   1.910
10075SOL    HW231125   1.662   2.416   2.046
10076SOL     OW31126   6.112   5.907   3.553
10076SOL    HW131127   6.058   5.971   3.608
10076SOL    HW231128   6.171   5.959   3.491
10077SOL     OW31129   4.656   3.545   0.097
10077SOL    HW131130   4.588   3.486   0.054
10077SOL    HW231131   4.694   3.608   0.029
10078SOL     OW31132   6.363   6.295   4.032
10078SOL    HW131133   6.269   6.318   4.007
10078SOL    HW231134   6.363   6.236   4.112
10079SOL     OW31135   5.935   3.068   3.502
10079SOL    HW131136   5.987   3.032   3.579
10079SOL    HW231137   5.954   3.013   3.420
10080SOL     OW31138   5.380   0.671   5.829
10080SOL    HW131139   5.305   0.714   5.878
10080SOL    HW231140   5.346   0.633   5.743
10081SOL     OW31141   0.525   1.519   0.198
10081SOL    HW131142   0.498   1.549   0.289
10081SOL    HW231143   0.623   1.534   0.185
10082SOL     OW31144   0.680   5.238   1.852
10082SOL    HW131145   0.628   5.271   1.931
10082SOL    HW231146   0.775   5.270   1.859
10083SOL     OW31147   3.795   0.324   3.804
10083SOL    HW131148   3.813   0.423   3.803
10083SOL    HW231149   3.775   0.295   3.898
10084SOL     OW31150   1.593   0.664   5.774
10084SOL    HW131151   1.521   0.654   5.705
10084SOL    HW231152   1.628   0.574   5.799
10085SOL     OW31153   3.024   6.653   0.643
10085SOL    HW131154   2.932   6.617   0.657
10085SOL    HW231155   3.058   6.624   0.554
10086SOL     OW31156   6.206   5.986   2.851
10086SOL    HW131157   6.213   5.937   2.938
10086SOL    HW231158   6.181   5.922   2.779
10087SOL     OW31159   6.248   5.893   3.843
10087SOL    HW131160   6.271   5.970   3.784
10087SOL    HW231161   6.286   5.909   3.934
10088SOL     OW31162   6.873   6.960   2.506
10088SOL    HW131163   6.860   6.968   2.407
10088SOL    HW231164   6.946   7.023   2.534
10089SOL     OW31165   2.941   2.091   3.722
10089SOL    HW131166   3.035   2.055   3.719
10089SOL    HW231167   2.902   2.091   3.630
10090SOL     OW31168   6.939   5.015   1.990
10090SOL    HW131169   6.920   4.972   2.078
10090SOL    HW231170   0.007   4.989   1.959
10091SOL     OW31171   6.783   5.810   6.598
10091SOL    HW131172   6.704   5.762   6.638
10091SOL    HW231173   6.751   5.890   6.547
10092SOL     OW31174   1.925   2.980   6.185
10092SOL    HW131175   2.011   3.030   6.185
10092SOL    HW231176   1.902   2.954   6.279
10093SOL     OW31177   4.552   3.429   5.361
10093SOL    HW131178   4.594   3.340   5.383
10093SOL    HW231179   4.605   3.474   5.289
10094SOL     OW31180   2.810   5.908   1.540
10094SOL    HW131181   2.713   5.921   1.521
10094SOL    HW231182   2.823   5.885   1.636
10095SOL     OW31183   5.480   1.619   4.583
10095SOL    HW131184   5.397   1.577   4.546
10095SOL    HW231185   5.460   1.713   4.612
10096SOL     OW31186   4.843   6.342   2.445
10096SOL    HW131187   4.780   6.310   2.516
10096SOL    HW231188   4.937   6.325   2.474
10097SOL     OW31189   1.634   2.057   0.102
10097SOL    HW131190   1.610   1.960   0.106
10097SOL    HW231191   1.728   2.066   0.068
10098SOL     OW31192   2.956   0.258   5.070
10098SOL    HW131193   2.911   0.265   5.159
10098SOL    HW231194   3.003   0.344   5.050
10099SOL     OW31195   1.030   4.694   0.965
10099SOL    HW131196   0.980   4.657   0.887
10099SOL    HW231197   1.093   4.625   1.001
10100SOL     OW31198   4.980   6.143   5.478
10100SOL    HW131199   4.985   6.069   5.411
10100SOL    HW231200   5.005   6.108   5.569
10101SOL     OW31201   6.969   2.850   1.967
10101SOL    HW131202   6.975   2.756   2.002
10101SOL    HW231203   6.885   2.860   1.914
10102SOL     OW31204   0.203   1.039   1.750
10102SOL    HW131205   0.240   1.081   1.832
10102SOL    HW231206   0.277   1.004   1.693
10103SOL     OW31207   2.153   0.244   5.464
10103SOL    HW131208   2.225   0.277   5.525
10103SOL    HW231209   2.154   0.144   5.461
10104SOL     OW31210   1.412   2.092   5.572
10104SOL    HW131211   1.484   2.034   5.534
10104SOL    HW231212   1.386   2.160   5.504
10105SOL     OW31213   2.153   0.214   6.126
10105SOL    HW131214   2.122   0.129   6.085
10105SOL    HW231215   2.244   0.237   6.092
10106SOL     OW31216   3.571   6.538   0.816
10106SOL    HW131217   3.604   6.449   0.788
10106SOL    HW231218   3.567   6.543   0.916
10107SOL     OW31219   5.043   1.701   6.072
10107SOL    HW131220   4.993   1.684   6.157
10107SOL    HW231221   5.117   1.634   6.063
10108SOL     OW31222   6.924   1.109   0.365
10108SOL    HW131223   6.942   1.040   0.435
10108SOL    HW231224   6.953   1.074   0.276
10109SOL     OW31225   0.049   0.844   0.908
10109SOL    HW131226   0.103   0.886   0.980
10109SOL    HW231227   6.990   0.805   0.947
10110SOL     OW31228   5.080   4.878   4.013
10110SOL    HW131229   5.099   4.812   4.085
10110SOL    HW231230   5.069   4.830   3.925
10111SOL     OW31231   6.810   3.531   3.606
10111SOL    HW131232   6.773   3.614   3.646
10111SOL    HW231233   6.843   3.470   3.678
10112SOL     OW31234   5.990   3.402   3.165
10112SOL    HW131235   5.984   3.491   3.120
10112SOL    HW231236   6.077   3.358   3.140
10113SOL     OW31237   4.472   6.922   0.414
10113SOL    HW131238   4.391   6.980   0.409
10113SOL    HW231239   4.554   6.979   0.405
10114SOL     OW31240   4.308   2.006   2.165
10114SOL    HW131241   4.318   1.911   2.136
10114SOL    HW231242   4.382   2.030   2.228
10115SOL     OW31243   4.369   2.146   5.140
10115SOL    HW131244   4.441   2.163   5.072
10115SOL    HW231245   4.319   2.063   5.114
10116SOL     OW31246   0.747   6.839   6.609
10116SOL    HW131247   0.729   6.756   6.556
10116SOL    HW231248   0.830   6.883   6.575
10117SOL     OW31249   6.512   6.596   5.755
10117SOL    HW131250   6.495   6.604   5.853
10117SOL    HW231251   6.490   6.503   5.725
10118SOL     OW31252   2.497   4.561   3.494
10118SOL    HW131253   2.570   4.627   3.510
10118SOL    HW231254   2.471   4.563   3.398
10119SOL     OW31255   6.532   5.047   3.864
10119SOL    HW131256   6.454   5.082   3.811
10119SOL    HW231257   6.498   4.985   3.934
10120SOL     OW31258   1.835   3.860   4.246
10120SOL    HW131259   1.789   3.836   4.161
10120SOL    HW231260   1.767   3.882   4.315
10121SOL     OW31261   5.627   3.931   0.229
10121SOL    HW131262   5.701   3.994   0.251
10121SOL    HW231263   5.660   3.862   0.165
10122SOL     OW31264   5.353   2.710   3.415
10122SOL    HW131265   5.265   2.742   3.451
10122SOL    HW231266   5.346   2.614   3.388
10123SOL     OW31267   5.442   6.374   0.562
10123SOL    HW131268   5.406   6.363   0.470
10123SOL    HW231269   5.516   6.441   0.561
10124SOL     OW31270   1.528   4.784   0.467
10124SOL    HW131271   1.612   4.789   0.413
10124SOL    HW231272   1.483   4.873   0.467
10125SOL     OW31273   2.167   1.109   1.057
10125SOL    HW131274   2.140   1.013   1.069
10125SOL    HW231275   2.265   1.118   1.068
10126SOL     OW31276   0.439   0.167   0.061
10126SOL    HW131277   0.478   0.214   7.005
10126SOL    HW231278   0.512   0.149   0.127
10127SOL     OW31279   2.026   3.708   0.304
10127SOL    HW131280   2.083   3.628   0.322
10127SOL    HW231281   1.959   3.717   0.378
10128SOL     OW31282   3.107   0.983   5.507
10128SOL    HW131283   3.067   0.918   5.571
10128SOL    HW231284   3.204   0.996   5.529
10129SOL     OW31285   6.754   1.346   2.325
10129SOL    HW131286   6.685   1.418   2.332
10129SOL    HW231287   6.766   1.320   2.230
10130SOL     OW31288   0.800   3.667   1.250
10130SOL    HW131289   0.772   3.576   1.222
10130SOL    HW231290   0.771   3.683   1.345
10131SOL     OW31291   2.181   0.040   4.667
10131SOL    HW131292   2.114   0.080   4.604
10131SOL    HW231293   2.175   0.086   4.756
10132SOL     OW31294   1.764   0.838   3.149
10132SOL    HW131295   1.765   0.929   3.109
10132SOL    HW231296   1.791   0.771   3.079
10133SOL     OW31297   4.629   6.709   1.038
10133SOL    HW131298   4.554   6.761   0.997
10133SOL    HW231299   4.602   6.613   1.046
10134SOL     OW31300   5.447   1.399   2.729
10134SOL    HW131301   5.457   1.308   2.687
10134SOL    HW231302   5.402   1.389   2.818
10135SOL     OW31303   5.102   2.543   4.296
10135SOL    HW131304   5.139   2.556   4.388
10135SOL    HW231305   5.141   2.612   4.235
10136SOL     OW31306   5.511   1.745   2.563
10136SOL    HW131307   5.576   1.724   2.489
10136SOL    HW231308   5.431   1.686   2.554
10137SOL     OW31309   0.400   4.610   5.535
10137SOL    HW131310   0.375   4.519   5.568
10137SOL    HW231311   0.452   4.658   5.606
10138SOL     OW31312   5.490   3.193   0.101
10138SOL    HW131313   5.531   3.252   0.171
10138SOL    HW231314   5.416   3.242   0.055
10139SOL     OW31315   3.091   3.771   4.882
10139SOL    HW131316   3.021   3.774   4.954
10139SOL    HW231317   3.123   3.677   4.871
10140SOL     OW31318   0.445   6.637   6.902
10140SOL    HW131319   0.496   6.721   6.885
10140SOL    HW231320   0.492   6.560   6.860
10141SOL     OW31321   4.595   1.310   5.090
10141SOL    HW131322   4.672   1.361   5.053
10141SOL    HW231323   4.511   1.362   5.078
10142SOL     OW31324   5.957   6.383   5.777
10142SOL    HW131325   5.874   6.390   5.722
10142SOL    HW231326   6.037   6.381   5.716
10143SOL     OW31327   5.326   2.360   0.458
10143SOL    HW131328   5.369   2.444   0.491
10143SOL    HW231329   5.230   2.359   0.486
10144SOL     OW31330   4.417   0.221   6.020
10144SOL    HW131331   4.494   0.186   5.967
10144SOL    HW231332   4.435   0.208   6.118
10145SOL     OW31333   3.769   5.700   2.731
10145SOL    HW131334   3.771   5.773   2.799
10145SOL    HW231335   3.863   5.676   2.705
10146SOL     OW31336   6.279   4.084   4.620
10146SOL    HW131337   6.205   4.016   4.610
10146SOL    HW231338   6.275   4.148   4.543
10147SOL     OW31339   4.856   3.899   6.719
10147SOL    HW131340   4.773   3.919   6.666
10147SOL    HW231341   4.885   3.982   6.768
10148SOL     OW31342   5.880   4.891   0.211
10148SOL    HW131343   5.958   4.940   0.171
10148SOL    HW231344   5.848   4.822   0.146
10149SOL     OW31345   5.052   4.009   1.350
10149SOL    HW131346   5.113   3.976   1.278
10149SOL    HW231347   5.002   4.089   1.317
10150SOL     OW31348   4.218   3.182   1.417
10150SOL    HW131349   4.238   3.270   1.460
10150SOL    HW231350   4.303   3.136   1.394
10151SOL     OW31351   1.391   6.730   6.763
10151SOL    HW131352   1.324   6.738   6.689
10151SOL    HW231353   1.448   6.650   6.747
10152SOL     OW31354   6.782   5.988   3.704
10152SOL    HW131355   6.848   6.059   3.680
10152SOL    HW231356   6.820   5.931   3.778
10153SOL     OW31357   5.094   6.285   3.817
10153SOL    HW131358   5.151   6.292   3.735
10153SOL    HW231359   5.138   6.334   3.892
10154SOL     OW31360   3.949   6.575   5.085
10154SOL    HW131361   3.881   6.626   5.137
10154SOL    HW231362   3.904   6.531   5.007
10155SOL     OW31363   5.074   2.473   5.287
10155SOL    HW131364   4.978   2.500   5.288
10155SOL    HW231365   5.081   2.373   5.283
10156SOL     OW31366   5.328   0.549   1.662
10156SOL    HW131367   5.275   0.478   1.616
10156SOL    HW231368   5.408   0.508   1.706
10157SOL     OW31369   6.928   2.160   0.180
10157SOL    HW131370   6.854   2.114   0.132
10157SOL    HW231371   6.979   2.217   0.117
10158SOL     OW31372   6.176   6.425   0.951
10158SOL    HW131373   6.192   6.339   0.902
10158SOL    HW231374   6.260   6.450   1.000
10159SOL     OW31375   3.685   3.341   2.607
10159SOL    HW131376   3.773   3.300   2.585
10159SOL    HW231377   3.651   3.303   2.693
10160SOL     OW31378   1.195   3.749   3.284
10160SOL    HW131379   1.111   3.716   3.240
10160SOL    HW231380   1.204   3.706   3.374
10161SOL     OW31381   3.492   4.152   6.444
10161SOL    HW131382   3.541   4.071   6.413
10161SOL    HW231383   3.407   4.161   6.394
10162SOL     OW31384   3.009   4.587   0.762
10162SOL    HW131385   2.967   4.506   0.803
10162SOL    HW231386   3.108   4.576   0.759
10163SOL     OW31387   0.322   3.990   6.921
10163SOL    HW131388   0.288   3.941   7.001
10163SOL    HW231389   0.310   4.088   6.934
10164SOL     OW31390   5.535   3.642   4.583
10164SOL    HW131391   5.496   3.701   4.653
10164SOL    HW231392   5.568   3.557   4.625
10165SOL     OW31393   6.550   2.231   3.287
10165SOL    HW131394   6.464   2.183   3.301
10165SOL    HW231395   6.573   2.283   3.369
10166SOL     OW31396   2.088   1.564   1.029
10166SOL    HW131397   2.165   1.569   1.093
10166SOL    HW231398   2.019   1.632   1.056
10167SOL     OW31399   0.135   5.561   0.046
10167SOL    HW131400   0.096   5.608   6.992
10167SOL    HW231401   0.234   5.575   0.048
10168SOL     OW31402   6.704   2.365   6.104
10168SOL    HW131403   6.666   2.282   6.144
10168SOL    HW231404   6.658   2.445   6.142
10169SOL     OW31405   6.625   3.540   3.129
10169SOL    HW131406   6.541   3.487   3.115
10169SOL    HW231407   6.605   3.617   3.190
10170SOL     OW31408   6.163   5.653   6.321
10170SOL    HW131409   6.137   5.666   6.417
10170SOL    HW231410   6.091   5.603   6.273
10171SOL     OW31411   0.450   2.469   3.982
10171SOL    HW131412   0.360   2.502   4.012
10171SOL    HW231413   0.468   2.380   4.023
10172SOL     OW31414   0.801   6.552   4.386
10172SOL    HW131415   0.728   6.484   4.389
10172SOL    HW231416   0.771   6.632   4.334
10173SOL     OW31417   2.169   3.116   6.631
10173SOL    HW131418   2.132   3.087   6.719
10173SOL    HW231419   2.248   3.176   6.646
10174SOL     OW31420   5.071   4.677   3.822
10174SOL    HW131421   5.027   4.666   3.733
10174SOL    HW231422   5.055   4.596   3.878
10175SOL     OW31423   5.838   2.158   3.547
10175SOL    HW131424   5.802   2.221   3.478
10175SOL    HW231425   5.914   2.106   3.508
10176SOL     OW31426   6.395   2.774   5.359
10176SOL    HW131427   6.490   2.777   5.329
10176SOL    HW231428   6.345   2.852   5.323
10177SOL     OW31429   1.732   0.553   0.527
10177SOL    HW131430   1.799   0.482   0.550
10177SOL    HW231431   1.714   0.551   0.429
10178SOL     OW31432   0.868   1.025   0.307
10178SOL    HW131433   0.877   0.927   0.323
10178SOL    HW231434   0.775   1.054   0.329
10179SOL     OW31435   0.894   3.609   6.278
10179SOL    HW131436   0.827   3.535   6.283
10179SOL    HW231437   0.910   3.646   6.369
10180SOL     OW31438   4.623   0.429   0.884
10180SOL    HW131439   4.681   0.449   0.963
10180SOL    HW231440   4.659   0.349   0.836
10181SOL     OW31441   0.627   2.717   0.964
10181SOL    HW131442   0.671   2.710   1.053
10181SOL    HW231443   0.528   2.721   0.976
10182SOL     OW31444   4.753   0.729   7.024
10182SOL    HW131445   4.698   0.709   0.081
10182SOL    HW231446   4.692   0.745   6.946
10183SOL     OW31447   5.814   2.929   6.010
10183SOL    HW131448   5.852   3.017   6.039
10183SOL    HW231449   5.818   2.865   6.086
10184SOL     OW31450   4.718   2.999   6.717
10184SOL    HW131451   4.662   2.944   6.656
10184SOL    HW231452   4.801   3.028   6.669
10185SOL     OW31453   6.224   5.639   1.954
10185SOL    HW131454   6.213   5.647   2.053
10185SOL    HW231455   6.320   5.622   1.932
10186SOL     OW31456   4.920   3.656   4.541
10186SOL    HW131457   4.843   3.719   4.527
10186SOL    HW231458   4.920   3.624   4.636
10187SOL     OW31459   1.385   3.716   6.181
10187SOL    HW131460   1.357   3.802   6.138
10187SOL    HW231461   1.361   3.639   6.122
10188SOL     OW31462   2.337   5.116   6.387
10188SOL    HW131463   2.276   5.092   6.463
10188SOL    HW231464   2.364   5.211   6.395
10189SOL     OW31465   1.024   0.786   6.031
10189SOL    HW131466   1.016   0.697   6.076
10189SOL    HW231467   0.934   0.827   6.022
10190SOL     OW31468   4.000   2.875   1.636
10190SOL    HW131469   3.991   2.789   1.686
10190SOL    HW231470   4.079   2.871   1.576
10191SOL     OW31471   4.935   5.319   6.733
10191SOL    HW131472   5.034   5.310   6.722
10191SOL    HW231473   4.914   5.339   6.829
10192SOL     OW31474   3.481   1.817   5.286
10192SOL    HW131475   3.493   1.793   5.190
10192SOL    HW231476   3.557   1.873   5.317
10193SOL     OW31477   3.012   3.920   2.751
10193SOL    HW131478   2.970   3.993   2.696
10193SOL    HW231479   3.058   3.960   2.830
10194SOL     OW31480   4.601   1.163   4.285
10194SOL    HW131481   4.624   1.081   4.338
10194SOL    HW231482   4.611   1.143   4.188
10195SOL     OW31483   0.186   6.985   1.962
10195SOL    HW131484   0.198   7.023   1.870
10195SOL    HW231485   0.106   0.004   2.005
10196SOL     OW31486   4.539   2.537   3.613
10196SOL    HW131487   4.474   2.585   3.673
10196SOL    HW231488   4.583   2.604   3.552
10197SOL     OW31489   4.515   2.100   3.899
10197SOL    HW131490   4.538   2.156   3.819
10197SOL    HW231491   4.497   2.006   3.870
10198SOL     OW31492   3.973   7.005   1.177
10198SOL    HW131493   4.044   0.050   1.191
10198SOL    HW231494   4.012   6.926   1.129
10199SOL     OW31495   0.738   1.962   6.890
10199SOL    HW131496   0.775   2.047   6.852
10199SOL    HW231497   0.652   1.980   6.938
10200SOL     OW31498   5.210   3.328   5.394
10200SOL    HW131499   5.281   3.393   5.420
10200SOL    HW231500   5.121   3.360   5.426
10201SOL     OW31501   0.528   6.153   0.893
10201SOL    HW131502   0.531   6.142   0.794
10201SOL    HW231503   0.519   6.064   0.936
10202SOL     OW31504   2.004   4.595   0.111
10202SOL    HW131505   1.975   4.510   0.066
10202SOL    HW231506   1.958   4.673   0.069
10203SOL     OW31507   1.165   2.697   2.026
10203SOL    HW131508   1.111   2.684   1.943
10203SOL    HW231509   1.108   2.739   2.097
10204SOL     OW31510   3.496   5.580   6.147
10204SOL    HW131511   3.426   5.604   6.214
10204SOL    HW231512   3.459   5.513   6.083
10205SOL     OW31513   3.095   1.262   2.036
10205SOL    HW131514   3.181   1.226   1.997
10205SOL    HW231515   3.114   1.346   2.085
10206SOL     OW31516   5.258   0.257   6.356
10206SOL    HW131517   5.225   0.351   6.363
10206SOL    HW231518   5.225   0.216   6.270
10207SOL     OW31519   2.445   1.111   0.042
10207SOL    HW131520   2.402   1.065   6.989
10207SOL    HW231521   2.504   1.047   0.091
10208SOL     OW31522   6.455   4.520   3.855
10208SOL    HW131523   6.525   4.450   3.868
10208SOL    HW231524   6.497   4.603   3.819
10209SOL     OW31525   0.360   0.280   5.905
10209SOL    HW131526   0.421   0.358   5.897
10209SOL    HW231527   0.408   0.197   5.876
10210SOL     OW31528   5.276   6.895   1.593
10210SOL    HW131529   5.339   6.820   1.614
10210SOL    HW231530   5.223   6.918   1.675
10211SOL     OW31531   4.090   6.271   4.876
10211SOL    HW131532   4.043   6.351   4.839
10211SOL    HW231533   4.036   6.231   4.950
10212SOL     OW31534   6.877   0.461   5.154
10212SOL    HW131535   6.851   0.459   5.251
10212SOL    HW231536   6.795   0.464   5.097
10213SOL     OW31537   5.473   2.597   2.525
10213SOL    HW131538   5.484   2.662   2.599
10213SOL    HW231539   5.508   2.507   2.553
10214SOL     OW31540   1.101   1.794   2.460
10214SOL    HW131541   1.145   1.706   2.478
10214SOL    HW231542   1.037   1.815   2.534
10215SOL     OW31543   3.798   3.000   3.983
10215SOL    HW131544   3.759   3.090   3.967
10215SOL    HW231545   3.743   2.950   4.050
10216SOL     OW31546   0.627   6.837   0.784
10216SOL    HW131547   0.582   6.902   0.723
10216SOL    HW231548   0.654   6.884   0.868
10217SOL     OW31549   2.416   1.762   3.116
10217SOL    HW131550   2.325   1.782   3.078
10217SOL    HW231551   2.421   1.665   3.141
10218SOL     OW31552   1.699   0.556   2.003
10218SOL    HW131553   1.653   0.468   2.002
10218SOL    HW231554   1.709   0.589   1.909
10219SOL     OW31555   6.979   2.894   2.308
10219SOL    HW131556   6.913   2.967   2.289
10219SOL    HW231557   0.033   2.903   2.246
10220SOL     OW31558   4.452   2.027   1.450
10220SOL    HW131559   4.529   2.029   1.514
10220SOL    HW231560   4.486   1.999   1.360
10221SOL     OW31561   1.998   2.992   4.190
10221SOL    HW131562   2.073   3.041   4.234
10221SOL    HW231563   1.953   3.052   4.124
10222SOL     OW31564   2.740   3.682   5.864
10222SOL    HW131565   2.780   3.729   5.943
10222SOL    HW231566   2.650   3.720   5.844
10223SOL     OW31567   1.816   5.791   6.691
10223SOL    HW131568   1.732   5.830   6.654
10223SOL    HW231569   1.893   5.817   6.633
10224SOL     OW31570   0.220   1.663   5.307
10224SOL    HW131571   0.208   1.573   5.350
10224SOL    HW231572   0.279   1.653   5.227
10225SOL     OW31573   2.075   6.193   6.586
10225SOL    HW131574   2.018   6.178   6.667
10225SOL    HW231575   2.170   6.173   6.609
10226SOL     OW31576   2.758   0.645   6.425
10226SOL    HW131577   2.726   0.740   6.426
10226SOL    HW231578   2.832   0.635   6.358
10227SOL     OW31579   5.183   4.825   0.837
10227SOL    HW131580   5.148   4.788   0.923
10227SOL    HW231581   5.176   4.756   0.765
10228SOL     OW31582   0.801   5.591   2.322
10228SOL    HW131583   0.873   5.522   2.329
10228SOL    HW231584   0.757   5.602   2.411
10229SOL     OW31585   1.155   1.755   4.189
10229SOL    HW131586   1.153   1.804   4.102
10229SOL    HW231587   1.208   1.808   4.255
10230SOL     OW31588   6.317   6.183   3.000
10230SOL    HW131589   6.262   6.265   3.008
10230SOL    HW231590   6.278   6.122   2.931
10231SOL     OW31591   6.132   5.766   5.175
10231SOL    HW131592   6.052   5.761   5.235
10231SOL    HW231593   6.113   5.716   5.090
10232SOL     OW31594   2.797   0.779   4.542
10232SOL    HW131595   2.734   0.846   4.502
10232SOL    HW231596   2.859   0.825   4.605
10233SOL     OW31597   4.867   3.714   5.311
10233SOL    HW131598   4.791   3.659   5.275
10233SOL    HW231599   4.952   3.685   5.267
10234SOL     OW31600   5.338   0.513   0.466
10234SOL    HW131601   5.279   0.442   0.506
10234SOL    HW231602   5.427   0.511   0.511
10235SOL     OW31603   4.163   3.258   0.232
10235SOL    HW131604   4.192   3.170   0.194
10235SOL    HW231605   4.102   3.304   0.167
10236SOL     OW31606   2.059   0.259   1.792
10236SOL    HW131607   2.037   0.311   1.874
10236SOL    HW231608   1.976   0.221   1.752
10237SOL     OW31609   6.664   4.393   0.849
10237SOL    HW131610   6.722   4.316   0.873
10237SOL    HW231611   6.713   4.478   0.865
10238SOL     OW31612   3.326   4.115   3.583
10238SOL    HW131613   3.396   4.105   3.512
10238SOL    HW231614   3.368   4.153   3.666
10239SOL     OW31615   1.604   3.769   5.705
10239SOL    HW131616   1.671   3.772   5.631
10239SOL    HW231617   1.650   3.743   5.790
10240SOL     OW31618   1.915   4.840   3.353
10240SOL    HW131619   1.848   4.898   3.400
10240SOL    HW231620   1.867   4.774   3.295
10241SOL     OW31621   6.648   0.416   2.097
10241SOL    HW131622   6.655   0.347   2.026
10241SOL    HW231623   6.564   0.401   2.150
10242SOL     OW31624   0.185   1.130   0.042
10242SOL    HW131625   0.159   1.046   0.089
10242SOL    HW231626   0.114   1.155   7.000
10243SOL     OW31627   1.057   4.782   1.555
10243SOL    HW131628   1.072   4.833   1.640
10243SOL    HW231629   1.091   4.689   1.566
10244SOL     OW31630   1.015   4.103   0.377
10244SOL    HW131631   1.045   4.169   0.446
10244SOL    HW231632   0.955   4.035   0.420
10245SOL     OW31633   2.797   4.647   6.783
10245SOL    HW131634   2.722   4.588   6.813
10245SOL    HW231635   2.883   4.612   6.821
10246SOL     OW31636   3.465   4.171   3.810
10246SOL    HW131637   3.437   4.100   3.874
10246SOL    HW231638   3.551   4.212   3.840
10247SOL     OW31639   6.747   5.350   5.528
10247SOL    HW131640   6.782   5.333   5.436
10247SOL    HW231641   6.757   5.447   5.550
10248SOL     OW31642   3.249   6.953   2.283
10248SOL    HW131643   3.191   6.970   2.363
10248SOL    HW231644   3.345   6.964   2.309
10249SOL     OW31645   3.357   0.904   5.552
10249SOL    HW131646   3.407   0.985   5.581
10249SOL    HW231647   3.346   0.842   5.629
10250SOL     OW31648   6.844   2.853   0.865
10250SOL    HW131649   6.824   2.948   0.887
10250SOL    HW231650   6.824   2.796   0.945
10251SOL     OW31651   2.342   1.991   5.562
10251SOL    HW131652   2.316   1.895   5.550
10251SOL    HW231653   2.343   2.036   5.473
10252SOL     OW31654   4.686   4.845   0.029
10252SOL    HW131655   4.658   4.753   0.001
10252SOL    HW231656   4.639   4.868   0.115
10253SOL     OW31657   3.582   5.893   0.157
10253SOL    HW131658   3.613   5.850   0.072
10253SOL    HW231659   3.587   5.992   0.148
10254SOL     OW31660   4.982   1.653   5.137
10254SOL    HW131661   4.977   1.752   5.150
10254SOL    HW231662   5.073   1.628   5.106
10255SOL     OW31663   1.877   6.798   1.057
10255SOL    HW131664   1.953   6.838   1.107
10255SOL    HW231665   1.808   6.764   1.121
10256SOL     OW31666   5.913   1.198   1.851
10256SOL    HW131667   5.912   1.155   1.760
10256SOL    HW231668   5.985   1.267   1.853
10257SOL     OW31669   1.842   5.448   4.779
10257SOL    HW131670   1.750   5.479   4.805
10257SOL    HW231671   1.852   5.351   4.801
10258SOL     OW31672   3.468   0.951   4.387
10258SOL    HW131673   3.402   1.025   4.373
10258SOL    HW231674   3.559   0.991   4.399
10259SOL     OW31675   0.214   4.396   3.349
10259SOL    HW131676   0.210   4.495   3.335
10259SOL    HW231677   0.122   4.358   3.346
10260SOL     OW31678   0.381   0.749   3.423
10260SOL    HW131679   0.440   0.676   3.456
10260SOL    HW231680   0.421   0.838   3.446
10261SOL     OW31681   0.023   5.465   3.171
10261SOL    HW131682   0.043   5.559   3.142
10261SOL    HW231683   0.038   5.403   3.094
10262SOL     OW31684   1.838   6.821   4.402
10262SOL    HW131685   1.878   6.730   4.412
10262SOL    HW231686   1.852   6.854   4.308
10263SOL     OW31687   5.431   0.673   6.331
10263SOL    HW131688   5.399   0.606   6.264
10263SOL    HW231689   5.354   0.730   6.360
10264SOL     OW31690   6.111   2.723   5.956
10264SOL    HW131691   6.086   2.817   5.977
10264SOL    HW231692   6.028   2.668   5.945
10265SOL     OW31693   2.969   2.162   3.275
10265SOL    HW131694   2.910   2.239   3.251
10265SOL    HW231695   3.003   2.175   3.369
10266SOL     OW31696   3.273   2.971   4.972
10266SOL    HW131697   3.303   3.062   5.002
10266SOL    HW231698   3.253   2.915   5.052
10267SOL     OW31699   6.162   1.559   6.975
10267SOL    HW131700   6.086   1.496   6.990
10267SOL    HW231701   6.131   1.635   6.919
10268SOL     OW31702   5.411   5.031   2.009
10268SOL    HW131703   5.336   4.978   2.049
10268SOL    HW231704   5.496   5.011   2.058
10269SOL     OW31705   0.302   2.798   5.311
10269SOL    HW131706   0.395   2.834   5.312
10269SOL    HW231707   0.237   2.873   5.295
10270SOL     OW31708   3.136   5.084   3.167
10270SOL    HW131709   3.206   5.014   3.177
10270SOL    HW231710   3.155   5.161   3.228
10271SOL     OW31711   3.418   2.472   6.954
10271SOL    HW131712   3.413   2.553   6.896
10271SOL    HW231713   3.507   2.468   6.999
10272SOL     OW31714   0.702   0.275   5.180
10272SOL    HW131715   0.698   0.289   5.278
10272SOL    HW231716   0.612   0.289   5.140
10273SOL     OW31717   4.213   5.567   3.018
10273SOL    HW131718   4.172   5.476   3.013
10273SOL    HW231719   4.257   5.588   2.931
10274SOL     OW31720   6.882   5.010   4.387
10274SOL    HW131721   6.854   5.028   4.482
10274SOL    HW231722   6.862   4.915   4.365
10275SOL     OW31723   0.866   6.778   1.753
10275SOL    HW131724   0.951   6.762   1.802
10275SOL    HW231725   0.795   6.717   1.787
10276SOL     OW31726   5.798   5.307   5.316
10276SOL    HW131727   5.748   5.392   5.335
10276SOL    HW231728   5.823   5.263   5.402
10277SOL     OW31729   2.287   5.532   4.128
10277SOL    HW131730   2.303   5.503   4.223
10277SOL    HW231731   2.209   5.482   4.090
10278SOL     OW31732   6.579   0.995   4.724
10278SOL    HW131733   6.659   1.002   4.666
10278SOL    HW231734   6.552   1.086   4.755
10279SOL     OW31735   2.671   5.622   4.676
10279SOL    HW131736   2.627   5.559   4.612
10279SOL    HW231737   2.761   5.586   4.703
10280SOL     OW31738   1.332   4.176   1.394
10280SOL    HW131739   1.335   4.089   1.443
10280SOL    HW231740   1.298   4.160   1.301
10281SOL     OW31741   6.099   1.159   2.633
10281SOL    HW131742   6.148   1.246   2.632
10281SOL    HW231743   6.156   1.090   2.679
10282SOL     OW31744   6.456   4.117   4.053
10282SOL    HW131745   6.467   4.029   4.006
10282SOL    HW231746   6.359   4.143   4.052
10283SOL     OW31747   0.773   3.755   0.973
10283SOL    HW131748   0.857   3.791   0.932
10283SOL    HW231749   0.793   3.720   1.064
10284SOL     OW31750   5.459   3.195   5.282
10284SOL    HW131751   5.437   3.202   5.184
10284SOL    HW231752   5.447   3.284   5.325
10285SOL     OW31753   4.905   1.078   1.178
10285SOL    HW131754   4.889   1.053   1.082
10285SOL    HW231755   5.002   1.100   1.191
10286SOL     OW31756   3.377   1.709   3.818
10286SOL    HW131757   3.302   1.720   3.884
10286SOL    HW231758   3.437   1.789   3.823
10287SOL     OW31759   2.424   6.191   0.880
10287SOL    HW131760   2.449   6.115   0.819
10287SOL    HW231761   2.340   6.234   0.847
10288SOL     OW31762   5.199   6.012   2.494
10288SOL    HW131763   5.262   6.077   2.452
10288SOL    HW231764   5.181   6.039   2.589
10289SOL     OW31765   3.148   0.877   2.169
10289SOL    HW131766   3.107   0.791   2.200
10289SOL    HW231767   3.098   0.910   2.089
10290SOL     OW31768   2.920   3.622   1.667
10290SOL    HW131769   2.919   3.619   1.567
10290SOL    HW231770   2.869   3.544   1.703
10291SOL     OW31771   3.500   0.802   3.732
10291SOL    HW131772   3.482   0.837   3.640
10291SOL    HW231773   3.425   0.826   3.793
10292SOL     OW31774   1.727   0.497   4.843
10292SOL    HW131775   1.720   0.593   4.869
10292SOL    HW231776   1.636   0.454   4.849
10293SOL     OW31777   1.828   5.171   3.782
10293SOL    HW131778   1.762   5.173   3.857
10293SOL    HW231779   1.800   5.102   3.715
10294SOL     OW31780   5.822   3.677   2.588
10294SOL    HW131781   5.797   3.669   2.685
10294SOL    HW231782   5.808   3.589   2.543
10295SOL     OW31783   5.796   5.322   6.109
10295SOL    HW131784   5.888   5.341   6.075
10295SOL    HW231785   5.763   5.236   6.070
10296SOL     OW31786   4.574   2.942   0.224
10296SOL    HW131787   4.519   2.864   0.254
10296SOL    HW231788   4.583   3.007   0.299
10297SOL     OW31789   2.013   6.485   6.494
10297SOL    HW131790   2.005   6.467   6.396
10297SOL    HW231791   2.083   6.425   6.533
10298SOL     OW31792   3.606   5.057   2.043
10298SOL    HW131793   3.515   5.099   2.039
10298SOL    HW231794   3.599   4.959   2.025
10299SOL     OW31795   4.792   5.290   2.283
10299SOL    HW131796   4.745   5.343   2.354
10299SOL    HW231797   4.731   5.278   2.205
10300SOL     OW31798   1.583   4.839   3.421
10300SOL    HW131799   1.564   4.794   3.334
10300SOL    HW231800   1.497   4.850   3.473
10301SOL     OW31801   5.787   1.941   3.890
10301SOL    HW131802   5.697   1.910   3.920
10301SOL    HW231803   5.789   1.948   3.790
10302SOL     OW31804   0.894   5.613   3.746
10302SOL    HW131805   0.884   5.595   3.844
10302SOL    HW231806   0.811   5.657   3.711
10303SOL     OW31807   2.070   6.145   2.500
10303SOL    HW131808   2.149   6.157   2.440
10303SOL    HW231809   1.986   6.165   2.449
10304SOL     OW31810   5.012   0.714   2.353
10304SOL    HW131811   5.008   0.623   2.313
10304SOL    HW231812   4.962   0.715   2.440
10305SOL     OW31813   0.362   4.890   6.818
10305SOL    HW131814   0.305   4.874   6.899
10305SOL    HW231815   0.440   4.828   6.820
10306SOL     OW31816   4.270   6.415   0.049
10306SOL    HW131817   4.176   6.434   0.077
10306SOL    HW231818   4.293   6.321   0.073
10307SOL     OW31819   2.428   2.292   4.467
10307SOL    HW131820   2.395   2.375   4.421
10307SOL    HW231821   2.352   2.248   4.515
10308SOL     OW31822   2.540   5.179   4.646
10308SOL    HW131823   2.571   5.185   4.741
10308SOL    HW231824   2.492   5.092   4.633
10309SOL     OW31825   5.941   1.279   4.550
10309SOL    HW131826   5.997   1.253   4.472
10309SOL    HW231827   5.900   1.197   4.591
10310SOL     OW31828   4.364   2.934   1.667
10310SOL    HW131829   4.353   2.836   1.681
10310SOL    HW231830   4.324   2.984   1.744
10311SOL     OW31831   0.746   5.983   1.276
10311SOL    HW131832   0.764   5.885   1.281
10311SOL    HW231833   0.743   6.022   1.368
10312SOL     OW31834   2.414   6.466   1.480
10312SOL    HW131835   2.349   6.425   1.416
10312SOL    HW231836   2.429   6.562   1.457
10313SOL     OW31837   4.179   0.142   1.266
10313SOL    HW131838   4.272   0.106   1.269
10313SOL    HW231839   4.178   0.227   1.212
10314SOL     OW31840   6.873   0.331   2.318
10314SOL    HW131841   6.940   0.389   2.364
10314SOL    HW231842   6.826   0.384   2.247
10315SOL     OW31843   6.478   5.654   4.237
10315SOL    HW131844   6.568   5.612   4.238
10315SOL    HW231845   6.424   5.615   4.163
10316SOL     OW31846   6.593   2.469   4.990
10316SOL    HW131847   6.647   2.404   4.937
10316SOL    HW231848   6.533   2.419   5.053
10317SOL     OW31849   3.761   5.852   5.511
10317SOL    HW131850   3.775   5.858   5.610
10317SOL    HW231851   3.687   5.789   5.492
10318SOL     OW31852   5.041   6.122   6.464
10318SOL    HW131853   4.966   6.075   6.508
10318SOL    HW231854   5.046   6.216   6.498
10319SOL     OW31855   2.042   2.744   5.560
10319SOL    HW131856   2.084   2.674   5.502
10319SOL    HW231857   1.956   2.709   5.597
10320SOL     OW31858   0.809   0.719   2.124
10320SOL    HW131859   0.824   0.768   2.209
10320SOL    HW231860   0.806   0.783   2.048
10321SOL     OW31861   4.447   0.655   3.262
10321SOL    HW131862   4.385   0.728   3.290
10321SOL    HW231863   4.531   0.696   3.225
10322SOL     OW31864   6.710   5.933   6.157
10322SOL    HW131865   6.787   5.988   6.188
10322SOL    HW231866   6.736   5.837   6.153
10323SOL     OW31867   6.292   3.222   5.941
10323SOL    HW131868   6.282   3.289   6.015
10323SOL    HW231869   6.326   3.268   5.859
10324SOL     OW31870   2.947   3.243   3.100
10324SOL    HW131871   2.887   3.314   3.061
10324SOL    HW231872   3.024   3.228   3.039
10325SOL     OW31873   6.538   3.840   2.991
10325SOL    HW131874   6.582   3.922   3.028
10325SOL    HW231875   6.569   3.760   3.043
10326SOL     OW31876   3.837   3.608   0.227
10326SOL    HW131877   3.799   3.696   0.257
10326SOL    HW231878   3.920   3.588   0.279
10327SOL     OW31879   2.508   1.639   1.582
10327SOL    HW131880   2.514   1.544   1.553
10327SOL    HW231881   2.600   1.678   1.587
10328SOL     OW31882   5.853   3.134   0.978
10328SOL    HW131883   5.767   3.159   1.023
10328SOL    HW231884   5.924   3.200   1.002
10329SOL     OW31885   3.511   0.494   4.169
10329SOL    HW131886   3.495   0.593   4.166
10329SOL    HW231887   3.600   0.473   4.129
10330SOL     OW31888   3.951   5.737   1.859
10330SOL    HW131889   4.045   5.702   1.867
10330SOL    HW231890   3.891   5.685   1.919
10331SOL     OW31891   6.365   0.629   4.067
10331SOL    HW131892   6.380   0.643   4.165
10331SOL    HW231893   6.452   0.635   4.018
10332SOL     OW31894   5.955   1.502   0.311
10332SOL    HW131895   5.942   1.495   0.410
10332SOL    HW231896   6.051   1.523   0.292
10333SOL     OW31897   6.578   4.570   4.311
10333SOL    HW131898   6.642   4.501   4.344
10333SOL    HW231899   6.484   4.535   4.319
10334SOL     OW31900   2.481   5.908   4.157
10334SOL    HW131901   2.549   5.851   4.204
10334SOL    HW231902   2.389   5.880   4.186
10335SOL     OW31903   2.833   4.905   6.746
10335SOL    HW131904   2.818   4.806   6.756
10335SOL    HW231905   2.779   4.939   6.669
10336SOL     OW31906   5.510   0.055   3.012
10336SOL    HW131907   5.428   0.099   3.049
10336SOL    HW231908   5.551   0.115   2.943
10337SOL     OW31909   6.577   6.404   5.958
10337SOL    HW131910   6.636   6.476   5.995
10337SOL    HW231911   6.568   6.330   6.024
10338SOL     OW31912   3.061   6.207   2.167
10338SOL    HW131913   3.083   6.283   2.105
10338SOL    HW231914   3.079   6.120   2.121
10339SOL     OW31915   2.758   5.601   0.231
10339SOL    HW131916   2.845   5.585   0.279
10339SOL    HW231917   2.702   5.518   0.237
10340SOL     OW31918   1.562   5.162   0.552
10340SOL    HW131919   1.550   5.245   0.497
10340SOL    HW231920   1.656   5.158   0.586
10341SOL     OW31921   2.186   3.433   1.648
10341SOL    HW131922   2.222   3.462   1.737
10341SOL    HW231923   2.229   3.487   1.576
10342SOL     OW31924   1.800   6.025   5.933
10342SOL    HW131925   1.890   5.996   5.902
10342SOL    HW231926   1.738   6.032   5.855
10343SOL     OW31927   2.187   3.994   0.679
10343SOL    HW131928   2.279   3.962   0.703
10343SOL    HW231929   2.193   4.053   0.598
10344SOL     OW31930   4.211   3.377   1.632
10344SOL    HW131931   4.173   3.380   1.725
10344SOL    HW231932   4.261   3.461   1.613
10345SOL     OW31933   1.599   0.861   5.947
10345SOL    HW131934   1.631   0.822   6.033
10345SOL    HW231935   1.592   0.789   5.878
10346SOL     OW31936   6.205   1.196   1.097
10346SOL    HW131937   6.236   1.150   1.014
10346SOL    HW231938   6.218   1.136   1.176
10347SOL     OW31939   5.210   2.371   2.665
10347SOL    HW131940   5.244   2.398   2.575
10347SOL    HW231941   5.141   2.299   2.654
10348SOL     OW31942   6.702   1.912   6.757
10348SOL    HW131943   6.750   1.833   6.794
10348SOL    HW231944   6.684   1.978   6.829
10349SOL     OW31945   6.801   1.689   0.430
10349SOL    HW131946   6.886   1.672   0.479
10349SOL    HW231947   6.727   1.637   0.472
10350SOL     OW31948   2.416   6.443   5.204
10350SOL    HW131949   2.443   6.376   5.273
10350SOL    HW231950   2.343   6.405   5.148
10351SOL     OW31951   5.793   5.054   6.347
10351SOL    HW131952   5.767   4.958   6.357
10351SOL    HW231953   5.861   5.077   6.416
10352SOL     OW31954   5.622   1.564   6.645
10352SOL    HW131955   5.629   1.491   6.577
10352SOL    HW231956   5.644   1.652   6.603
10353SOL     OW31957   6.431   2.212   4.487
10353SOL    HW131958   6.426   2.279   4.412
10353SOL    HW231959   6.481   2.131   4.455
10354SOL     OW31960   0.111   2.225   1.633
10354SOL    HW131961   0.042   2.219   1.561
10354SOL    HW231962   0.081   2.171   1.712
10355SOL     OW31963   1.471   0.551   0.953
10355SOL    HW131964   1.493   0.489   1.029
10355SOL    HW231965   1.552   0.561   0.895
10356SOL     OW31966   0.025   3.686   5.650
10356SOL    HW131967   0.092   3.616   5.674
10356SOL    HW231968   0.047   3.771   5.700
10357SOL     OW31969   3.631   2.662   6.455
10357SOL    HW131970   3.691   2.600   6.404
10357SOL    HW231971   3.582   2.611   6.526
10358SOL     OW31972   0.338   2.831   3.856
10358SOL    HW131973   0.283   2.774   3.917
10358SOL    HW231974   0.294   2.921   3.847
10359SOL     OW31975   5.158   1.643   1.677
10359SOL    HW131976   5.204   1.631   1.589
10359SOL    HW231977   5.095   1.567   1.693
10360SOL     OW31978   5.118   5.822   1.751
10360SOL    HW131979   5.043   5.888   1.760
10360SOL    HW231980   5.083   5.730   1.768
10361SOL     OW31981   2.400   1.047   2.728
10361SOL    HW131982   2.325   0.989   2.758
10361SOL    HW231983   2.486   0.998   2.736
10362SOL     OW31984   0.779   5.136   3.157
10362SOL    HW131985   0.812   5.149   3.064
10362SOL    HW231986   0.763   5.039   3.173
10363SOL     OW31987   5.062   2.800   1.505
10363SOL    HW131988   5.106   2.759   1.425
10363SOL    HW231989   5.099   2.891   1.520
10364SOL     OW31990   4.499   4.224   1.351
10364SOL    HW131991   4.479   4.140   1.302
10364SOL    HW231992   4.473   4.303   1.295
10365SOL     OW31993   5.709   4.437   6.984
10365SOL    HW131994   5.766   4.392   6.916
10365SOL    HW231995   5.724   4.395   0.049
10366SOL     OW31996   3.124   6.733   3.775
10366SOL    HW131997   3.030   6.724   3.808
10366SOL    HW231998   3.155   6.645   3.738
10367SOL     OW31999   6.933   1.520   1.723
10367SOL    HW132000   6.848   1.474   1.751
10367SOL    HW232001   7.001   1.452   1.697
10368SOL     OW32002   1.851   1.444   2.409
10368SOL    HW132003   1.804   1.358   2.389
10368SOL    HW232004   1.854   1.458   2.508
10369SOL     OW32005   3.292   6.910   5.933
10369SOL    HW132006   3.202   6.877   5.906
10369SOL    HW232007   3.363   6.863   5.879
10370SOL     OW32008   0.020   0.983   5.260
10370SOL    HW132009   6.986   1.002   5.181
10370SOL    HW232010   0.023   0.884   5.276
10371SOL     OW32011   2.101   6.310   4.730
10371SOL    HW132012   2.006   6.282   4.745
10371SOL    HW232013   2.114   6.402   4.767
10372SOL     OW32014   2.463   1.353   0.152
10372SOL    HW132015   2.454   1.327   0.249
10372SOL    HW232016   2.443   1.273   0.095
10373SOL     OW32017   1.913   6.614   5.112
10373SOL    HW132018   1.923   6.515   5.098
10373SOL    HW232019   1.837   6.631   5.174
10374SOL     OW32020   3.360   0.555   3.712
10374SOL    HW132021   3.410   0.471   3.692
10374SOL    HW232022   3.425   0.631   3.722
10375SOL     OW32023   2.379   2.484   6.065
10375SOL    HW132024   2.398   2.401   6.012
10375SOL    HW232025   2.295   2.526   6.030
10376SOL     OW32026   1.129   6.011   4.039
10376SOL    HW132027   1.048   6.000   4.097
10376SOL    HW232028   1.204   5.954   4.075
10377SOL     OW32029   0.131   0.689   2.234
10377SOL    HW132030   0.204   0.739   2.188
10377SOL    HW232031   0.069   0.754   2.278
10378SOL     OW32032   6.029   5.817   5.688
10378SOL    HW132033   6.028   5.796   5.786
10378SOL    HW232034   5.939   5.799   5.649
10379SOL     OW32035   3.052   5.924   4.167
10379SOL    HW132036   3.111   6.003   4.182
10379SOL    HW232037   2.989   5.944   4.092
10380SOL     OW32038   0.754   2.433   4.513
10380SOL    HW132039   0.686   2.502   4.539
10380SOL    HW232040   0.778   2.379   4.594
10381SOL     OW32041   4.220   3.881   1.278
10381SOL    HW132042   4.134   3.928   1.259
10381SOL    HW232043   4.205   3.782   1.278
10382SOL     OW32044   2.413   5.376   1.473
10382SOL    HW132045   2.416   5.349   1.377
10382SOL    HW232046   2.496   5.344   1.519
10383SOL     OW32047   1.297   4.084   0.329
10383SOL    HW132048   1.330   4.031   0.408
10383SOL    HW232049   1.197   4.084   0.328
10384SOL     OW32050   6.630   0.031   1.035
10384SOL    HW132051   6.688   6.981   1.069
10384SOL    HW232052   6.534   0.011   1.057
10385SOL     OW32053   3.942   6.031   6.330
10385SOL    HW132054   4.004   5.953   6.336
10385SOL    HW232055   3.871   6.012   6.262
10386SOL     OW32056   6.617   1.151   5.576
10386SOL    HW132057   6.673   1.090   5.632
10386SOL    HW232058   6.521   1.143   5.605
10387SOL     OW32059   4.338   1.778   3.233
10387SOL    HW132060   4.433   1.798   3.257
10387SOL    HW232061   4.336   1.700   3.170
10388SOL     OW32062   2.085   5.639   2.005
10388SOL    HW132063   2.067   5.733   2.033
10388SOL    HW232064   2.006   5.582   2.027
10389SOL     OW32065   6.397   5.267   0.807
10389SOL    HW132066   6.458   5.303   0.878
10389SOL    HW232067   6.313   5.233   0.850
10390SOL     OW32068   1.829   3.785   0.697
10390SOL    HW132069   1.758   3.798   0.767
10390SOL    HW232070   1.917   3.813   0.735
10391SOL     OW32071   0.366   5.931   3.313
10391SOL    HW132072   0.434   5.994   3.276
10391SOL    HW232073   0.362   5.942   3.412
10392SOL     OW32074   6.581   4.514   5.550
10392SOL    HW132075   6.565   4.609   5.575
10392SOL    HW232076   6.494   4.468   5.534
10393SOL     OW32077   2.552   2.581   3.461
10393SOL    HW132078   2.509   2.499   3.499
10393SOL    HW232079   2.576   2.566   3.365
10394SOL     OW32080   2.279   5.428   5.620
10394SOL    HW132081   2.234   5.487   5.687
10394SOL    HW232082   2.355   5.478   5.578
10395SOL     OW32083   0.642   0.766   1.604
10395SOL    HW132084   0.601   0.681   1.569
10395SOL    HW232085   0.688   0.814   1.530
10396SOL     OW32086   3.597   1.192   3.531
10396SOL    HW132087   3.623   1.273   3.478
10396SOL    HW232088   3.510   1.209   3.578
10397SOL     OW32089   3.052   1.362   4.897
10397SOL    HW132090   3.094   1.427   4.834
10397SOL    HW232091   3.046   1.272   4.853
10398SOL     OW32092   5.960   2.195   0.563
10398SOL    HW132093   5.985   2.274   0.508
10398SOL    HW232094   5.871   2.160   0.532
10399SOL     OW32095   4.904   1.960   3.679
10399SOL    HW132096   4.928   1.873   3.723
10399SOL    HW232097   4.921   1.954   3.581
10400SOL     OW32098   4.239   5.713   0.325
10400SOL    HW132099   4.172   5.733   0.395
10400SOL    HW232100   4.193   5.700   0.237
10401SOL     OW32101   0.031   6.497   1.843
10401SOL    HW132102   0.088   6.481   1.762
10401SOL    HW232103   6.962   6.466   1.824
10402SOL     OW32104   0.031   1.295   5.581
10402SOL    HW132105   6.997   1.215   5.595
10402SOL    HW232106   7.004   1.364   5.530
10403SOL     OW32107   4.065   1.863   3.214
10403SOL    HW132108   4.162   1.840   3.204
10403SOL    HW232109   4.048   1.898   3.306
10404SOL     OW32110   6.717   6.216   4.369
10404SOL    HW132111   6.809   6.219   4.329
10404SOL    HW232112   6.703   6.297   4.425
10405SOL     OW32113   1.022   5.988   5.052
10405SOL    HW132114   1.066   6.062   5.001
10405SOL    HW232115   1.090   5.918   5.074
10406SOL     OW32116   2.118   3.164   4.972
10406SOL    HW132117   2.205   3.115   4.966
10406SOL    HW232118   2.095   3.179   5.068
10407SOL     OW32119   2.881   0.113   6.265
10407SOL    HW132120   2.950   0.150   6.327
10407SOL    HW232121   2.925   0.081   6.181
10408SOL     OW32122   4.567   0.038   1.584
10408SOL    HW132123   4.532   0.074   1.497
10408SOL    HW232124   4.662   0.011   1.573
10409SOL     OW32125   0.078   4.318   1.243
10409SOL    HW132126   0.092   4.408   1.204
10409SOL    HW232127   7.004   4.296   1.245
10410SOL     OW32128   5.104   2.303   1.865
10410SOL    HW132129   5.006   2.324   1.866
10410SOL    HW232130   5.151   2.360   1.932
10411SOL     OW32131   3.287   6.039   3.494
10411SOL    HW132132   3.273   6.137   3.507
10411SOL    HW232133   3.334   6.001   3.573
10412SOL     OW32134   0.660   1.142   1.115
10412SOL    HW132135   0.669   1.230   1.069
10412SOL    HW232136   0.726   1.137   1.190
10413SOL     OW32137   6.282   2.897   1.651
10413SOL    HW132138   6.302   2.850   1.737
10413SOL    HW232139   6.240   2.986   1.671
10414SOL     OW32140   3.642   4.620   6.182
10414SOL    HW132141   3.732   4.580   6.166
10414SOL    HW232142   3.626   4.694   6.117
10415SOL     OW32143   1.657   4.564   4.122
10415SOL    HW132144   1.635   4.621   4.201
10415SOL    HW232145   1.572   4.531   4.080
10416SOL     OW32146   5.790   6.853   5.251
10416SOL    HW132147   5.833   6.917   5.314
10416SOL    HW232148   5.691   6.851   5.268
10417SOL     OW32149   4.109   4.843   3.714
10417SOL    HW132150   4.079   4.920   3.771
10417SOL    HW232151   4.145   4.771   3.773
10418SOL     OW32152   6.602   4.743   6.003
10418SOL    HW132153   6.567   4.788   5.921
10418SOL    HW232154   6.614   4.646   5.985
10419SOL     OW32155   3.410   6.594   6.069
10419SOL    HW132156   3.465   6.670   6.101
10419SOL    HW232157   3.327   6.628   6.025
10420SOL     OW32158   0.418   3.591   4.065
10420SOL    HW132159   0.460   3.672   4.023
10420SOL    HW232160   0.326   3.614   4.097
10421SOL     OW32161   0.808   3.670   3.869
10421SOL    HW132162   0.845   3.635   3.955
10421SOL    HW232163   0.750   3.600   3.827
10422SOL     OW32164   5.905   3.256   5.468
10422SOL    HW132165   5.930   3.164   5.496
10422SOL    HW232166   5.908   3.263   5.368
10423SOL     OW32167   5.874   4.851   5.607
10423SOL    HW132168   5.855   4.883   5.515
10423SOL    HW232169   5.938   4.914   5.652
10424SOL     OW32170   3.890   3.122   0.857
10424SOL    HW132171   3.907   3.188   0.929
10424SOL    HW232172   3.796   3.088   0.863
10425SOL     OW32173   1.087   6.385   2.464
10425SOL    HW132174   0.994   6.349   2.477
10425SOL    HW232175   1.101   6.407   2.368
10426SOL     OW32176   5.387   4.772   6.858
10426SOL    HW132177   5.312   4.826   6.897
10426SOL    HW232178   5.403   4.691   6.915
10427SOL     OW32179   3.879   1.347   0.489
10427SOL    HW132180   3.887   1.446   0.501
10427SOL    HW232181   3.859   1.326   0.393
10428SOL     OW32182   3.182   0.775   4.106
10428SOL    HW132183   3.181   0.681   4.071
10428SOL    HW232184   3.100   0.823   4.075
10429SOL     OW32185   6.984   4.212   2.485
10429SOL    HW132186   6.985   4.114   2.506
10429SOL    HW232187   6.958   4.264   2.566
10430SOL     OW32188   4.851   7.000   5.287
10430SOL    HW132189   4.893   0.033   5.217
10430SOL    HW232190   4.777   6.946   5.246
10431SOL     OW32191   2.546   6.219   4.398
10431SOL    HW132192   2.631   6.171   4.375
10431SOL    HW232193   2.468   6.165   4.366
10432SOL     OW32194   6.009   0.287   4.583
10432SOL    HW132195   5.972   0.242   4.664
10432SOL    HW232196   6.060   0.369   4.611
10433SOL     OW32197   0.851   6.060   2.971
10433SOL    HW132198   0.852   5.964   2.943
10433SOL    HW232199   0.870   6.118   2.891
10434SOL     OW32200   4.035   6.096   2.903
10434SOL    HW132201   4.026   6.124   2.807
10434SOL    HW232202   4.132   6.089   2.925
10435SOL     OW32203   1.087   1.548   5.552
10435SOL    HW132204   1.115   1.644   5.563
10435SOL    HW232205   1.168   1.490   5.549
10436SOL     OW32206   6.202   4.835   5.347
10436SOL    HW132207   6.298   4.830   5.319
10436SOL    HW232208   6.178   4.753   5.398
10437SOL     OW32209   4.703   4.378   6.077
10437SOL    HW132210   4.769   4.451   6.091
10437SOL    HW232211   4.622   4.415   6.030
10438SOL     OW32212   0.439   6.210   6.622
10438SOL    HW132213   0.392   6.146   6.683
10438SOL    HW232214   0.491   6.158   6.554
10439SOL     OW32215   4.168   1.320   4.774
10439SOL    HW132216   4.219   1.366   4.702
10439SOL    HW232217   4.178   1.371   4.860
10440SOL     OW32218   0.222   6.817   0.822
10440SOL    HW132219   0.249   6.911   0.802
10440SOL    HW232220   0.249   6.757   0.747
10441SOL     OW32221   4.055   1.493   1.402
10441SOL    HW132222   4.022   1.574   1.451
10441SOL    HW232223   3.998   1.415   1.424
10442SOL     OW32224   4.413   6.539   6.877
10442SOL    HW132225   4.344   6.493   6.932
10442SOL    HW232226   4.371   6.574   6.793
10443SOL     OW32227   4.895   3.390   3.852
10443SOL    HW132228   4.971   3.393   3.917
10443SOL    HW232229   4.835   3.468   3.868
10444SOL     OW32230   4.487   5.766   3.138
10444SOL    HW132231   4.544   5.723   3.208
10444SOL    HW232232   4.398   5.720   3.134
10445SOL     OW32233   0.175   4.403   4.323
10445SOL    HW132234   0.115   4.442   4.393
10445SOL    HW232235   0.127   4.401   4.235
10446SOL     OW32236   2.256   3.421   5.905
10446SOL    HW132237   2.325   3.483   5.869
10446SOL    HW232238   2.266   3.414   6.005
10447SOL     OW32239   0.315   0.608   2.966
10447SOL    HW132240   0.248   0.558   2.911
10447SOL    HW232241   0.271   0.641   3.050
10448SOL     OW32242   4.706   0.771   2.809
10448SOL    HW132243   4.749   0.685   2.834
10448SOL    HW232244   4.749   0.846   2.859
10449SOL     OW32245   1.574   4.926   5.835
10449SOL    HW132246   1.657   4.938   5.889
10449SOL    HW232247   1.596   4.927   5.738
10450SOL     OW32248   0.185   1.303   0.779
10450SOL    HW132249   0.170   1.289   0.877
10450SOL    HW232250   0.274   1.347   0.765
10451SOL     OW32251   2.223   5.576   2.448
10451SOL    HW132252   2.263   5.545   2.534
10451SOL    HW232253   2.297   5.594   2.382
10452SOL     OW32254   6.642   3.136   2.032
10452SOL    HW132255   6.695   3.189   1.966
10452SOL    HW232256   6.588   3.067   1.983
10453SOL     OW32257   5.007   6.920   1.221
10453SOL    HW132258   4.949   6.999   1.235
10453SOL    HW232259   4.961   6.855   1.160
10454SOL     OW32260   5.041   2.949   0.342
10454SOL    HW132261   4.973   2.913   0.278
10454SOL    HW232262   5.114   2.995   0.290
10455SOL     OW32263   6.415   6.722   3.641
10455SOL    HW132264   6.502   6.679   3.617
10455SOL    HW232265   6.376   6.677   3.721
10456SOL     OW32266   1.770   5.305   0.407
10456SOL    HW132267   1.761   5.287   0.309
10456SOL    HW232268   1.769   5.404   0.423
10457SOL     OW32269   3.521   2.839   1.309
10457SOL    HW132270   3.457   2.908   1.275
10457SOL    HW232271   3.489   2.805   1.398
10458SOL     OW32272   6.163   0.676   6.381
10458SOL    HW132273   6.231   0.745   6.407
10458SOL    HW232274   6.209   0.601   6.334
10459SOL     OW32275   4.341   6.323   1.853
10459SOL    HW132276   4.384   6.233   1.853
10459SOL    HW232277   4.290   6.336   1.768
10460SOL     OW32278   0.477   3.958   2.376
10460SOL    HW132279   0.390   4.007   2.364
10460SOL    HW232280   0.470   3.899   2.456
10461SOL     OW32281   6.229   5.237   5.144
10461SOL    HW132282   6.279   5.261   5.227
10461SOL    HW232283   6.187   5.320   5.106
10462SOL     OW32284   5.036   1.362   3.373
10462SOL    HW132285   5.082   1.298   3.311
10462SOL    HW232286   5.056   1.336   3.467
10463SOL     OW32287   4.537   3.271   6.070
10463SOL    HW132288   4.612   3.320   6.115
10463SOL    HW232289   4.515   3.316   5.984
10464SOL     OW32290   6.778   6.491   1.414
10464SOL    HW132291   6.792   6.569   1.353
10464SOL    HW232292   6.756   6.524   1.506
10465SOL     OW32293   6.196   6.037   0.403
10465SOL    HW132294   6.240   5.970   0.463
10465SOL    HW232295   6.260   6.110   0.382
10466SOL     OW32296   5.068   5.156   5.760
10466SOL    HW132297   5.159   5.138   5.797
10466SOL    HW232298   4.999   5.134   5.829
10467SOL     OW32299   2.643   1.087   6.866
10467SOL    HW132300   2.608   1.166   6.916
10467SOL    HW232301   2.719   1.047   6.917
10468SOL     OW32302   4.104   5.334   3.072
10468SOL    HW132303   4.061   5.359   3.160
10468SOL    HW232304   4.096   5.236   3.058
10469SOL     OW32305   4.267   4.679   5.598
10469SOL    HW132306   4.298   4.584   5.608
10469SOL    HW232307   4.255   4.720   5.688
10470SOL     OW32308   2.346   2.750   3.425
10470SOL    HW132309   2.326   2.819   3.494
10470SOL    HW232310   2.433   2.705   3.447
10471SOL     OW32311   3.362   1.594   1.119
10471SOL    HW132312   3.287   1.654   1.093
10471SOL    HW232313   3.331   1.528   1.187
10472SOL     OW32314   3.430   5.693   0.546
10472SOL    HW132315   3.477   5.668   0.461
10472SOL    HW232316   3.484   5.761   0.595
10473SOL     OW32317   6.575   6.843   0.200
10473SOL    HW132318   6.622   6.931   0.201
10473SOL    HW232319   6.630   6.775   0.248
10474SOL     OW32320   3.345   2.147   4.308
10474SOL    HW132321   3.285   2.080   4.352
10474SOL    HW232322   3.289   2.213   4.258
10475SOL     OW32323   4.624   6.817   1.300
10475SOL    HW132324   4.656   6.732   1.342
10475SOL    HW232325   4.601   6.800   1.205
10476SOL     OW32326   6.834   6.194   0.069
10476SOL    HW132327   6.872   6.267   0.125
10476SOL    HW232328   6.776   6.233   7.022
10477SOL     OW32329   0.041   1.030   4.747
10477SOL    HW132330   6.977   0.989   4.721
10477SOL    HW232331   0.061   1.106   4.685
10478SOL     OW32332   6.709   0.756   1.128
10478SOL    HW132333   6.673   0.702   1.051
10478SOL    HW232334   6.670   0.848   1.126
10479SOL     OW32335   0.227   2.351   2.607
10479SOL    HW132336   0.208   2.449   2.595
10479SOL    HW232337   0.179   2.300   2.535
10480SOL     OW32338   6.740   0.201   1.941
10480SOL    HW132339   6.739   0.260   1.860
10480SOL    HW232340   6.689   0.117   1.921
10481SOL     OW32341   2.909   6.858   4.501
10481SOL    HW132342   2.811   6.838   4.491
10481SOL    HW232343   2.921   6.953   4.530
10482SOL     OW32344   6.233   4.956   4.204
10482SOL    HW132345   6.214   4.926   4.110
10482SOL    HW232346   6.161   5.018   4.234
10483SOL     OW32347   6.675   4.562   0.106
10483SOL    HW132348   6.608   4.528   0.172
10483SOL    HW232349   6.635   4.638   0.054
10484SOL     OW32350   6.149   1.772   1.836
10484SOL    HW132351   6.100   1.709   1.896
10484SOL    HW232352   6.085   1.812   1.770
10485SOL     OW32353   3.062   4.112   0.742
10485SOL    HW132354   2.967   4.101   0.711
10485SOL    HW232355   3.062   4.141   0.838
10486SOL     OW32356   0.188   0.718   0.375
10486SOL    HW132357   0.173   0.622   0.399
10486SOL    HW232358   0.285   0.740   0.384
10487SOL     OW32359   4.893   2.046   1.946
10487SOL    HW132360   4.800   2.042   1.910
10487SOL    HW232361   4.903   2.128   2.003
10488SOL     OW32362   3.027   1.587   5.461
10488SOL    HW132363   3.007   1.683   5.440
10488SOL    HW232364   2.953   1.550   5.518
10489SOL     OW32365   0.096   7.018   4.772
10489SOL    HW132366   0.135   0.050   4.845
10489SOL    HW232367   0.130   0.026   4.683
10490SOL     OW32368   5.600   1.948   0.685
10490SOL    HW132369   5.641   1.996   0.608
10490SOL    HW232370   5.567   1.858   0.655
10491SOL     OW32371   2.455   2.250   5.949
10491SOL    HW132372   2.554   2.247   5.965
10491SOL    HW232373   2.435   2.224   5.855
10492SOL     OW32374   5.583   5.855   0.930
10492SOL    HW132375   5.612   5.883   0.838
10492SOL    HW232376   5.613   5.924   0.996
10493SOL     OW32377   3.576   0.197   1.768
10493SOL    HW132378   3.540   0.216   1.677
10493SOL    HW232379   3.518   0.241   1.837
10494SOL     OW32380   6.066   4.313   5.513
10494SOL    HW132381   6.117   4.248   5.570
10494SOL    HW232382   6.000   4.263   5.457
10495SOL     OW32383   1.014   6.202   1.241
10495SOL    HW132384   1.047   6.171   1.331
10495SOL    HW232385   1.078   6.172   1.170
10496SOL     OW32386   6.367   3.571   6.610
10496SOL    HW132387   6.385   3.597   6.705
10496SOL    HW232388   6.279   3.609   6.582
10497SOL     OW32389   1.933   0.366   2.014
10497SOL    HW132390   1.935   0.466   2.006
10497SOL    HW232391   1.839   0.334   2.005
10498SOL     OW32392   5.231   5.617   0.263
10498SOL    HW132393   5.181   5.646   0.344
10498SOL    HW232394   5.295   5.689   0.235
10499SOL     OW32395   4.247   6.859   2.055
10499SOL    HW132396   4.236   6.861   1.956
10499SOL    HW232397   4.345   6.860   2.077
10500SOL     OW32398   6.474   1.510   5.961
10500SOL    HW132399   6.455   1.604   5.933
10500SOL    HW232400   6.430   1.447   5.897
10501SOL     OW32401   2.442   5.727   2.078
10501SOL    HW132402   2.517   5.792   2.088
10501SOL    HW232403   2.431   5.674   2.162
10502SOL     OW32404   2.558   1.895   1.980
10502SOL    HW132405   2.649   1.910   1.941
10502SOL    HW232406   2.499   1.849   1.913
10503SOL     OW32407   4.950   2.551   0.830
10503SOL    HW132408   4.972   2.509   0.919
10503SOL    HW232409   5.030   2.599   0.795
10504SOL     OW32410   1.343   2.303   5.804
10504SOL    HW132411   1.350   2.319   5.706
10504SOL    HW232412   1.435   2.302   5.844
10505SOL     OW32413   5.270   5.469   0.609
10505SOL    HW132414   5.292   5.382   0.565
10505SOL    HW232415   5.352   5.527   0.612
10506SOL     OW32416   0.398   3.826   0.285
10506SOL    HW132417   0.466   3.759   0.254
10506SOL    HW232418   0.361   3.797   0.373
10507SOL     OW32419   1.625   6.503   0.828
10507SOL    HW132420   1.701   6.455   0.784
10507SOL    HW232421   1.579   6.561   0.761
10508SOL     OW32422   6.340   5.731   4.481
10508SOL    HW132423   6.387   5.815   4.508
10508SOL    HW232424   6.361   5.711   4.385
10509SOL     OW32425   6.780   5.552   4.923
10509SOL    HW132426   6.690   5.568   4.964
10509SOL    HW232427   6.786   5.456   4.893
10510SOL     OW32428   4.871   5.740   6.690
10510SOL    HW132429   4.790   5.686   6.713
10510SOL    HW232430   4.924   5.757   6.773
10511SOL     OW32431   2.843   1.251   1.853
10511SOL    HW132432   2.890   1.251   1.942
10511SOL    HW232433   2.842   1.344   1.816
10512SOL     OW32434   4.455   0.655   6.308
10512SOL    HW132435   4.377   0.600   6.277
10512SOL    HW232436   4.479   0.722   6.237
10513SOL     OW32437   6.130   2.496   4.562
10513SOL    HW132438   6.043   2.475   4.607
10513SOL    HW232439   6.205   2.453   4.613
10514SOL     OW32440   0.710   3.132   1.500
10514SOL    HW132441   0.610   3.137   1.507
10514SOL    HW232442   0.745   3.066   1.566
10515SOL     OW32443   0.662   3.435   3.744
10515SOL    HW132444   0.748   3.385   3.755
10515SOL    HW232445   0.650   3.459   3.648
10516SOL     OW32446   4.364   1.652   0.442
10516SOL    HW132447   4.329   1.746   0.442
10516SOL    HW232448   4.363   1.616   0.349
10517SOL     OW32449   0.707   3.370   1.387
10517SOL    HW132450   0.744   3.290   1.434
10517SOL    HW232451   0.611   3.384   1.415
10518SOL     OW32452   6.872   5.610   0.432
10518SOL    HW132453   6.925   5.670   0.371
10518SOL    HW232454   6.861   5.520   0.389
10519SOL     OW32455   3.316   3.595   0.869
10519SOL    HW132456   3.298   3.499   0.891
10519SOL    HW232457   3.338   3.604   0.772
10520SOL     OW32458   0.503   2.254   6.098
10520SOL    HW132459   0.571   2.327   6.096
10520SOL    HW232460   0.547   2.168   6.124
10521SOL     OW32461   6.390   5.488   1.585
10521SOL    HW132462   6.474   5.434   1.586
10521SOL    HW232463   6.412   5.583   1.608
10522SOL     OW32464   0.458   0.402   4.977
10522SOL    HW132465   0.472   0.450   4.891
10522SOL    HW232466   0.431   0.468   5.048
10523SOL     OW32467   0.850   4.657   3.027
10523SOL    HW132468   0.933   4.703   3.059
10523SOL    HW232469   0.804   4.716   2.960
10524SOL     OW32470   0.451   6.810   3.623
10524SOL    HW132471   0.512   6.764   3.558
10524SOL    HW232472   0.493   6.810   3.713
10525SOL     OW32473   4.618   0.521   5.816
10525SOL    HW132474   4.589   0.453   5.749
10525SOL    HW232475   4.538   0.570   5.850
10526SOL     OW32476   1.405   6.588   3.163
10526SOL    HW132477   1.330   6.653   3.174
10526SOL    HW232478   1.474   6.605   3.233
10527SOL     OW32479   0.820   1.295   5.220
10527SOL    HW132480   0.812   1.198   5.239
10527SOL    HW232481   0.752   1.346   5.274
10528SOL     OW32482   1.573   3.193   6.281
10528SOL    HW132483   1.551   3.160   6.372
10528SOL    HW232484   1.528   3.281   6.265
10529SOL     OW32485   2.719   6.505   4.151
10529SOL    HW132486   2.738   6.552   4.237
10529SOL    HW232487   2.804   6.469   4.112
10530SOL     OW32488   1.452   0.027   6.476
10530SOL    HW132489   1.472   0.085   6.397
10530SOL    HW232490   1.530   0.030   6.539
10531SOL     OW32491   1.754   2.939   4.630
10531SOL    HW132492   1.816   3.001   4.679
10531SOL    HW232493   1.757   2.849   4.673
10532SOL     OW32494   0.956   6.739   6.304
10532SOL    HW132495   0.936   6.673   6.232
10532SOL    HW232496   1.048   6.776   6.291
10533SOL     OW32497   3.057   6.590   3.465
10533SOL    HW132498   3.133   6.559   3.521
10533SOL    HW232499   3.088   6.660   3.400
10534SOL     OW32500   6.510   5.542   1.874
10534SOL    HW132501   6.550   5.544   1.783
10534SOL    HW232502   6.532   5.455   1.918
10535SOL     OW32503   1.142   1.999   1.719
10535SOL    HW132504   1.203   2.077   1.708
10535SOL    HW232505   1.057   2.015   1.668
10536SOL     OW32506   4.043   0.984   3.959
10536SOL    HW132507   3.973   0.972   4.030
10536SOL    HW232508   4.006   1.042   3.886
10537SOL     OW32509   4.300   6.080   4.053
10537SOL    HW132510   4.330   6.146   3.984
10537SOL    HW232511   4.232   6.122   4.113
10538SOL     OW32512   5.665   3.243   0.599
10538SOL    HW132513   5.579   3.257   0.550
10538SOL    HW232514   5.734   3.207   0.536
10539SOL     OW32515   0.943   4.844   6.850
10539SOL    HW132516   0.906   4.911   6.786
10539SOL    HW232517   0.871   4.779   6.874
10540SOL     OW32518   1.372   2.916   5.936
10540SOL    HW132519   1.447   2.928   5.870
10540SOL    HW232520   1.398   2.846   6.003
10541SOL     OW32521   3.278   3.692   2.028
10541SOL    HW132522   3.221   3.621   1.986
10541SOL    HW232523   3.340   3.730   1.960
10542SOL     OW32524   0.191   0.909   5.589
10542SOL    HW132525   0.201   0.822   5.636
10542SOL    HW232526   0.281   0.949   5.573
10543SOL     OW32527   0.328   1.814   5.008
10543SOL    HW132528   0.383   1.866   5.073
10543SOL    HW232529   0.345   1.716   5.021
10544SOL     OW32530   2.615   6.865   2.006
10544SOL    HW132531   2.711   6.893   2.014
10544SOL    HW232532   2.602   6.815   1.920
10545SOL     OW32533   0.295   2.018   1.244
10545SOL    HW132534   0.277   1.921   1.255
10545SOL    HW232535   0.271   2.046   1.151
10546SOL     OW32536   1.283   0.311   0.805
10546SOL    HW132537   1.347   0.248   0.849
10546SOL    HW232538   1.282   0.397   0.855
10547SOL     OW32539   5.095   3.187   3.030
10547SOL    HW132540   5.162   3.113   3.026
10547SOL    HW232541   5.054   3.200   2.939
10548SOL     OW32542   5.947   4.565   4.147
10548SOL    HW132543   5.989   4.632   4.208
10548SOL    HW232544   5.923   4.483   4.199
10549SOL     OW32545   0.811   0.334   1.838
10549SOL    HW132546   0.732   0.292   1.792
10549SOL    HW232547   0.838   0.417   1.789
10550SOL     OW32548   4.448   6.978   3.881
10550SOL    HW132549   4.411   6.907   3.821
10550SOL    HW232550   4.475   6.938   3.969
10551SOL     OW32551   1.444   2.708   0.239
10551SOL    HW132552   1.453   2.714   0.338
10551SOL    HW232553   1.492   2.785   0.197
10552SOL     OW32554   2.444   0.906   5.640
10552SOL    HW132555   2.449   0.951   5.550
10552SOL    HW232556   2.353   0.918   5.678
10553SOL     OW32557   0.444   4.422   1.513
10553SOL    HW132558   0.349   4.435   1.540
10553SOL    HW232559   0.463   4.325   1.498
10554SOL     OW32560   5.733   4.598   0.759
10554SOL    HW132561   5.679   4.640   0.686
10554SOL    HW232562   5.823   4.572   0.723
10555SOL     OW32563   2.184   2.651   0.193
10555SOL    HW132564   2.158   2.737   0.239
10555SOL    HW232565   2.101   2.603   0.165
10556SOL     OW32566   1.669   1.607   4.866
10556SOL    HW132567   1.713   1.695   4.883
10556SOL    HW232568   1.572   1.623   4.843
10557SOL     OW32569   1.699   3.019   3.330
10557SOL    HW132570   1.622   3.082   3.329
10557SOL    HW232571   1.783   3.068   3.304
10558SOL     OW32572   4.216   6.994   4.647
10558SOL    HW132573   4.145   0.027   4.686
10558SOL    HW232574   4.189   6.965   4.555
10559SOL     OW32575   4.988   0.869   1.578
10559SOL    HW132576   4.969   0.859   1.480
10559SOL    HW232577   5.082   0.842   1.597
10560SOL     OW32578   4.506   6.754   2.350
10560SOL    HW132579   4.582   6.779   2.411
10560SOL    HW232580   4.514   6.804   2.264
10561SOL     OW32581   3.815   4.267   1.718
10561SOL    HW132582   3.727   4.250   1.762
10561SOL    HW232583   3.822   4.364   1.693
10562SOL     OW32584   3.800   5.554   6.803
10562SOL    HW132585   3.746   5.590   6.727
10562SOL    HW232586   3.853   5.476   6.772
10563SOL     OW32587   0.219   1.267   3.517
10563SOL    HW132588   0.291   1.256   3.585
10563SOL    HW232589   0.260   1.288   3.428
10564SOL     OW32590   6.034   6.063   3.181
10564SOL    HW132591   6.068   6.127   3.111
10564SOL    HW232592   6.039   5.970   3.146
10565SOL     OW32593   0.868   6.589   5.752
10565SOL    HW132594   0.912   6.555   5.669
10565SOL    HW232595   0.798   6.523   5.781
10566SOL     OW32596   3.476   1.709   6.691
10566SOL    HW132597   3.405   1.766   6.651
10566SOL    HW232598   3.563   1.725   6.644
10567SOL     OW32599   2.636   2.049   4.961
10567SOL    HW132600   2.671   2.111   5.031
10567SOL    HW232601   2.692   2.056   4.878
10568SOL     OW32602   6.878   3.178   1.484
10568SOL    HW132603   6.956   3.163   1.545
10568SOL    HW232604   6.793   3.164   1.534
10569SOL     OW32605   6.058   1.154   2.367
10569SOL    HW132606   6.030   1.235   2.315
10569SOL    HW232607   6.074   1.180   2.462
10570SOL     OW32608   1.240   4.583   2.842
10570SOL    HW132609   1.157   4.556   2.794
10570SOL    HW232610   1.219   4.655   2.908
10571SOL     OW32611   6.863   4.551   5.005
10571SOL    HW132612   6.842   4.648   4.989
10571SOL    HW232613   6.818   4.495   4.936
10572SOL     OW32614   6.378   4.072   3.271
10572SOL    HW132615   6.390   4.113   3.362
10572SOL    HW232616   6.461   4.021   3.247
10573SOL     OW32617   5.610   0.436   5.228
10573SOL    HW132618   5.610   0.343   5.266
10573SOL    HW232619   5.521   0.457   5.189
10574SOL     OW32620   1.309   1.521   4.095
10574SOL    HW132621   1.257   1.439   4.076
10574SOL    HW232622   1.247   1.595   4.123
10575SOL     OW32623   0.083   0.803   3.942
10575SOL    HW132624   0.084   0.884   4.001
10575SOL    HW232625   0.023   0.734   3.982
10576SOL     OW32626   6.934   5.935   5.238
10576SOL    HW132627   6.987   5.859   5.276
10576SOL    HW232628   6.841   5.903   5.218
10577SOL     OW32629   2.136   4.669   0.346
10577SOL    HW132630   2.092   4.671   0.256
10577SOL    HW232631   2.140   4.761   0.384
10578SOL     OW32632   4.503   1.717   2.855
10578SOL    HW132633   4.476   1.810   2.877
10578SOL    HW232634   4.567   1.683   2.924
10579SOL     OW32635   4.702   2.991   1.424
10579SOL    HW132636   4.603   2.996   1.410
10579SOL    HW232637   4.726   3.043   1.506
10580SOL     OW32638   6.455   0.589   6.724
10580SOL    HW132639   6.433   0.681   6.754
10580SOL    HW232640   6.495   0.593   6.632
10581SOL     OW32641   5.781   6.924   2.918
10581SOL    HW132642   5.720   6.865   2.972
10581SOL    HW232643   5.731   6.962   2.841
10582SOL     OW32644   4.775   4.607   5.907
10582SOL    HW132645   4.848   4.544   5.879
10582SOL    HW232646   4.708   4.615   5.833
10583SOL     OW32647   3.577   1.418   4.159
10583SOL    HW132648   3.507   1.468   4.108
10583SOL    HW232649   3.600   1.469   4.243
10584SOL     OW32650   6.620   0.217   0.470
10584SOL    HW132651   6.645   0.300   0.520
10584SOL    HW232652   6.699   0.157   0.463
10585SOL     OW32653   2.598   2.030   5.317
10585SOL    HW132654   2.664   2.036   5.242
10585SOL    HW232655   2.645   2.049   5.404
10586SOL     OW32656   6.218   4.786   5.003
10586SOL    HW132657   6.174   4.864   5.048
10586SOL    HW232658   6.300   4.816   4.955
10587SOL     OW32659   6.512   4.740   6.978
10587SOL    HW132660   6.567   4.744   6.895
10587SOL    HW232661   6.421   4.703   6.955
10588SOL     OW32662   1.383   3.346   4.640
10588SOL    HW132663   1.461   3.284   4.643
10588SOL    HW232664   1.328   3.335   4.722
10589SOL     OW32665   6.313   1.433   4.635
10589SOL    HW132666   6.376   1.395   4.702
10589SOL    HW232667   6.363   1.493   4.572
10590SOL     OW32668   0.506   0.442   0.905
10590SOL    HW132669   0.516   0.364   0.843
10590SOL    HW232670   0.545   0.420   0.994
10591SOL     OW32671   1.894   2.226   6.854
10591SOL    HW132672   1.823   2.282   6.810
10591SOL    HW232673   1.982   2.272   6.846
10592SOL     OW32674   6.105   3.676   2.732
10592SOL    HW132675   6.039   3.715   2.668
10592SOL    HW232676   6.180   3.633   2.682
10593SOL     OW32677   1.873   6.229   0.432
10593SOL    HW132678   1.833   6.164   0.367
10593SOL    HW232679   1.939   6.287   0.385
10594SOL     OW32680   4.973   0.924   3.165
10594SOL    HW132681   4.953   0.953   3.259
10594SOL    HW232682   5.051   0.861   3.166
10595SOL     OW32683   5.130   6.483   0.063
10595SOL    HW132684   5.204   6.455   0.124
10595SOL    HW232685   5.056   6.523   0.117
10596SOL     OW32686   4.676   0.964   0.208
10596SOL    HW132687   4.618   0.892   0.170
10596SOL    HW232688   4.684   0.951   0.307
10597SOL     OW32689   3.019   1.187   5.750
10597SOL    HW132690   3.033   1.286   5.748
10597SOL    HW232691   2.922   1.166   5.735
10598SOL     OW32692   3.512   2.778   0.160
10598SOL    HW132693   3.576   2.762   0.085
10598SOL    HW232694   3.520   2.873   0.190
10599SOL     OW32695   5.308   3.521   6.300
10599SOL    HW132696   5.210   3.536   6.309
10599SOL    HW232697   5.341   3.468   6.378
10600SOL     OW32698   3.286   2.382   0.538
10600SOL    HW132699   3.320   2.430   0.619
10600SOL    HW232700   3.312   2.432   0.456
10601SOL     OW32701   1.863   4.475   5.407
10601SOL    HW132702   1.772   4.508   5.383
10601SOL    HW232703   1.932   4.526   5.356
10602SOL     OW32704   2.195   0.795   2.006
10602SOL    HW132705   2.130   0.733   1.963
10602SOL    HW232706   2.274   0.743   2.039
10603SOL     OW32707   3.798   0.333   3.196
10603SOL    HW132708   3.723   0.391   3.166
10603SOL    HW232709   3.883   0.385   3.195
10604SOL     OW32710   6.128   6.083   5.342
10604SOL    HW132711   6.042   6.041   5.371
10604SOL    HW232712   6.121   6.112   5.247
10605SOL     OW32713   2.402   6.681   6.855
10605SOL    HW132714   2.452   6.597   6.833
10605SOL    HW232715   2.467   6.753   6.877
10606SOL     OW32716   0.535   0.524   1.501
10606SOL    HW132717   0.571   0.440   1.462
10606SOL    HW232718   0.467   0.564   1.439
10607SOL     OW32719   4.385   5.105   5.561
10607SOL    HW132720   4.296   5.151   5.567
10607SOL    HW232721   4.458   5.169   5.584
10608SOL     OW32722   6.003   3.061   5.121
10608SOL    HW132723   6.005   3.089   5.025
10608SOL    HW232724   5.917   3.092   5.163
10609SOL     OW32725   2.682   6.552   6.552
10609SOL    HW132726   2.594   6.569   6.506
10609SOL    HW232727   2.665   6.513   6.642
10610SOL     OW32728   0.682   2.243   4.333
10610SOL    HW132729   0.771   2.233   4.288
10610SOL    HW232730   0.685   2.319   4.397
10611SOL     OW32731   2.205   3.945   6.746
10611SOL    HW132732   2.217   3.923   6.649
10611SOL    HW232733   2.252   4.030   6.767
10612SOL     OW32734   3.413   1.723   5.013
10612SOL    HW132735   3.459   1.712   4.926
10612SOL    HW232736   3.317   1.698   5.003
10613SOL     OW32737   5.275   5.700   5.310
10613SOL    HW132738   5.272   5.797   5.288
10613SOL    HW232739   5.289   5.646   5.227
10614SOL     OW32740   5.006   1.945   4.931
10614SOL    HW132741   5.040   1.930   5.024
10614SOL    HW232742   4.998   2.044   4.915
10615SOL     OW32743   4.299   0.572   5.456
10615SOL    HW132744   4.244   0.653   5.477
10615SOL    HW232745   4.369   0.595   5.388
10616SOL     OW32746   2.051   6.964   0.329
10616SOL    HW132747   2.047   6.875   0.375
10616SOL    HW232748   2.059   0.013   0.397
10617SOL     OW32749   3.174   4.094   1.284
10617SOL    HW132750   3.228   4.035   1.224
10617SOL    HW232751   3.134   4.039   1.358
10618SOL     OW32752   1.021   3.409   5.846
10618SOL    HW132753   1.116   3.393   5.820
10618SOL    HW232754   1.016   3.488   5.908
10619SOL     OW32755   0.271   2.997   2.630
10619SOL    HW132756   0.346   3.009   2.564
10619SOL    HW232757   0.184   2.994   2.581
10620SOL     OW32758   1.249   6.264   5.167
10620SOL    HW132759   1.249   6.170   5.201
10620SOL    HW232760   1.166   6.280   5.114
10621SOL     OW32761   0.651   4.969   1.685
10621SOL    HW132762   0.654   4.881   1.733
10621SOL    HW232763   0.665   5.042   1.752
10622SOL     OW32764   5.148   1.806   2.106
10622SOL    HW132765   5.148   1.824   2.204
10622SOL    HW232766   5.054   1.790   2.074
10623SOL     OW32767   0.321   4.915   5.722
10623SOL    HW132768   0.292   4.916   5.817
10623SOL    HW232769   0.243   4.939   5.663
10624SOL     OW32770   1.213   2.371   4.756
10624SOL    HW132771   1.118   2.394   4.734
10624SOL    HW232772   1.264   2.454   4.775
10625SOL     OW32773   0.662   4.744   0.894
10625SOL    HW132774   0.751   4.789   0.906
10625SOL    HW232775   0.593   4.792   0.947
10626SOL     OW32776   2.726   2.878   0.519
10626SOL    HW132777   2.670   2.827   0.585
10626SOL    HW232778   2.679   2.962   0.494
10627SOL     OW32779   4.791   0.221   0.797
10627SOL    HW132780   4.857   0.288   0.763
10627SOL    HW232781   4.836   0.156   0.858
10628SOL     OW32782   4.750   6.356   0.025
10628SOL    HW132783   4.729   6.350   0.122
10628SOL    HW232784   4.714   6.443   7.013
10629SOL     OW32785   2.479   4.981   4.903
10629SOL    HW132786   2.568   4.992   4.858
10629SOL    HW232787   2.478   4.896   4.954
10630SOL     OW32788   5.998   1.288   3.877
10630SOL    HW132789   5.928   1.313   3.810
10630SOL    HW232790   5.968   1.315   3.968
10631SOL     OW32791   3.125   5.176   5.522
10631SOL    HW132792   3.071   5.180   5.438
10631SOL    HW232793   3.078   5.120   5.589
10632SOL     OW32794   5.372   1.017   3.632
10632SOL    HW132795   5.435   1.094   3.643
10632SOL    HW232796   5.425   0.934   3.616
10633SOL     OW32797   2.323   2.317   0.760
10633SOL    HW132798   2.336   2.248   0.688
10633SOL    HW232799   2.239   2.368   0.742
10634SOL     OW32800   3.439   4.250   0.293
10634SOL    HW132801   3.413   4.296   0.378
10634SOL    HW232802   3.423   4.152   0.303
10635SOL     OW32803   1.806   3.566   0.527
10635SOL    HW132804   1.856   3.484   0.555
10635SOL    HW232805   1.817   3.637   0.596
10636SOL     OW32806   0.670   2.261   1.323
10636SOL    HW132807   0.605   2.191   1.351
10636SOL    HW232808   0.759   2.220   1.306
10637SOL     OW32809   2.174   4.606   5.998
10637SOL    HW132810   2.227   4.526   6.025
10637SOL    HW232811   2.178   4.617   5.899
10638SOL     OW32812   6.042   5.763   2.798
10638SOL    HW132813   6.072   5.692   2.862
10638SOL    HW232814   6.097   5.759   2.715
10639SOL     OW32815   1.009   3.455   3.321
10639SOL    HW132816   1.077   3.488   3.386
10639SOL    HW232817   0.981   3.530   3.261
10640SOL     OW32818   3.972   0.412   4.851
10640SOL    HW132819   3.900   0.482   4.847
10640SOL    HW232820   3.977   0.375   4.944
10641SOL     OW32821   2.431   2.193   1.913
10641SOL    HW132822   2.523   2.189   1.953
10641SOL    HW232823   2.384   2.275   1.947
10642SOL     OW32824   6.321   2.647   1.500
10642SOL    HW132825   6.352   2.670   1.407
10642SOL    HW232826   6.300   2.731   1.550
10643SOL     OW32827   1.951   5.453   5.051
10643SOL    HW132828   1.886   5.381   5.073
10643SOL    HW232829   1.979   5.444   4.955
10644SOL     OW32830   5.828   2.738   2.635
10644SOL    HW132831   5.820   2.758   2.537
10644SOL    HW232832   5.745   2.768   2.683
10645SOL     OW32833   2.018   2.743   4.882
10645SOL    HW132834   1.954   2.687   4.934
10645SOL    HW232835   2.077   2.684   4.827
10646SOL     OW32836   0.993   0.223   6.840
10646SOL    HW132837   1.019   0.224   6.744
10646SOL    HW232838   1.002   0.315   6.878
10647SOL     OW32839   2.810   5.286   4.883
10647SOL    HW132840   2.756   5.337   4.950
10647SOL    HW232841   2.898   5.331   4.870
10648SOL     OW32842   6.004   4.027   5.914
10648SOL    HW132843   5.945   3.953   5.945
10648SOL    HW232844   6.058   4.061   5.991
10649SOL     OW32845   0.180   4.442   2.347
10649SOL    HW132846   0.176   4.511   2.275
10649SOL    HW232847   0.122   4.470   2.423
10650SOL     OW32848   0.877   0.211   3.816
10650SOL    HW132849   0.801   0.248   3.763
10650SOL    HW232850   0.856   0.117   3.843
10651SOL     OW32851   5.580   6.569   0.302
10651SOL    HW132852   5.499   6.511   0.308
10651SOL    HW232853   5.662   6.513   0.314
10652SOL     OW32854   3.592   0.062   5.361
10652SOL    HW132855   3.581   0.158   5.337
10652SOL    HW232856   3.676   0.050   5.414
10653SOL     OW32857   4.016   5.018   2.984
10653SOL    HW132858   4.043   4.931   2.942
10653SOL    HW232859   3.917   5.019   2.995
10654SOL     OW32860   5.362   1.052   0.922
10654SOL    HW132861   5.416   1.096   0.851
10654SOL    HW232862   5.271   1.031   0.886
10655SOL     OW32863   2.343   5.776   0.857
10655SOL    HW132864   2.319   5.682   0.833
10655SOL    HW232865   2.443   5.784   0.865
10656SOL     OW32866   6.912   2.245   2.803
10656SOL    HW132867   6.822   2.204   2.788
10656SOL    HW232868   6.981   2.172   2.810
10657SOL     OW32869   6.228   0.304   5.682
10657SOL    HW132870   6.316   0.328   5.642
10657SOL    HW232871   6.225   0.331   5.778
10658SOL     OW32872   6.233   5.149   4.845
10658SOL    HW132873   6.253   5.086   4.920
10658SOL    HW232874   6.183   5.101   4.773
10659SOL     OW32875   0.496   5.394   1.196
10659SOL    HW132876   0.406   5.379   1.157
10659SOL    HW232877   0.526   5.312   1.244
10660SOL     OW32878   5.046   4.280   6.579
10660SOL    HW132879   5.003   4.237   6.659
10660SOL    HW232880   5.052   4.213   6.505
10661SOL     OW32881   1.117   6.396   1.753
10661SOL    HW132882   1.165   6.395   1.664
10661SOL    HW232883   1.154   6.471   1.808
10662SOL     OW32884   5.200   6.553   3.136
10662SOL    HW132885   5.118   6.540   3.192
10662SOL    HW232886   5.278   6.572   3.196
10663SOL     OW32887   0.536   1.882   1.981
10663SOL    HW132888   0.504   1.976   1.997
10663SOL    HW232889   0.632   1.884   1.956
10664SOL     OW32890   6.753   4.257   4.986
10664SOL    HW132891   6.793   4.283   4.898
10664SOL    HW232892   6.752   4.157   4.994
10665SOL     OW32893   0.922   1.461   0.742
10665SOL    HW132894   0.872   1.412   0.671
10665SOL    HW232895   0.865   1.534   0.779
10666SOL     OW32896   3.544   4.238   1.782
10666SOL    HW132897   3.549   4.203   1.876
10666SOL    HW232898   3.469   4.192   1.734
10667SOL     OW32899   4.117   3.080   5.692
10667SOL    HW132900   4.092   2.993   5.650
10667SOL    HW232901   4.167   3.136   5.625
10668SOL     OW32902   2.726   0.430   5.196
10668SOL    HW132903   2.629   0.436   5.173
10668SOL    HW232904   2.767   0.521   5.193
10669SOL     OW32905   5.445   6.709   0.891
10669SOL    HW132906   5.430   6.694   0.989
10669SOL    HW232907   5.359   6.698   0.842
10670SOL     OW32908   5.239   4.199   4.914
10670SOL    HW132909   5.232   4.295   4.887
10670SOL    HW232910   5.149   4.156   4.907
10671SOL     OW32911   2.761   2.356   3.207
10671SOL    HW132912   2.770   2.326   3.112
10671SOL    HW232913   2.690   2.426   3.213
10672SOL     OW32914   6.511   2.950   0.641
10672SOL    HW132915   6.456   2.868   0.657
10672SOL    HW232916   6.508   2.975   0.544
10673SOL     OW32917   1.208   1.249   6.267
10673SOL    HW132918   1.184   1.159   6.232
10673SOL    HW232919   1.307   1.255   6.278
10674SOL     OW32920   3.594   4.127   2.069
10674SOL    HW132921   3.528   4.171   2.130
10674SOL    HW232922   3.627   4.042   2.110
10675SOL     OW32923   1.766   6.887   6.498
10675SOL    HW132924   1.694   6.819   6.499
10675SOL    HW232925   1.790   6.910   6.403
10676SOL     OW32926   6.591   6.212   6.219
10676SOL    HW132927   6.613   6.123   6.180
10676SOL    HW232928   6.672   6.270   6.218
10677SOL     OW32929   1.353   0.895   2.556
10677SOL    HW132930   1.417   0.972   2.562
10677SOL    HW232931   1.402   0.810   2.572
10678SOL     OW32932   3.490   5.758   4.152
10678SOL    HW132933   3.447   5.813   4.079
10678SOL    HW232934   3.493   5.812   4.236
10679SOL     OW32935   4.673   5.950   6.226
10679SOL    HW132936   4.680   5.895   6.143
10679SOL    HW232937   4.726   6.034   6.215
10680SOL     OW32938   3.027   2.124   2.966
10680SOL    HW132939   2.962   2.199   2.974
10680SOL    HW232940   3.082   2.118   3.049
10681SOL     OW32941   0.811   3.465   0.289
10681SOL    HW132942   0.831   3.563   0.299
10681SOL    HW232943   0.832   3.418   0.375
10682SOL     OW32944   1.794   0.997   4.695
10682SOL    HW132945   1.758   0.958   4.610
10682SOL    HW232946   1.891   1.019   4.684
10683SOL     OW32947   3.406   1.874   3.473
10683SOL    HW132948   3.320   1.825   3.487
10683SOL    HW232949   3.480   1.808   3.462
10684SOL     OW32950   5.193   4.068   0.876
10684SOL    HW132951   5.188   3.985   0.931
10684SOL    HW232952   5.117   4.129   0.902
10685SOL     OW32953   0.696   5.576   2.610
10685SOL    HW132954   0.601   5.591   2.585
10685SOL    HW232955   0.709   5.479   2.632
10686SOL     OW32956   1.271   4.946   6.182
10686SOL    HW132957   1.355   4.913   6.227
10686SOL    HW232958   1.192   4.912   6.232
10687SOL     OW32959   6.898   5.088   1.714
10687SOL    HW132960   6.827   5.023   1.686
10687SOL    HW232961   6.912   5.082   1.812
10688SOL     OW32962   6.198   4.477   3.099
10688SOL    HW132963   6.174   4.419   3.021
10688SOL    HW232964   6.123   4.474   3.167
10689SOL     OW32965   0.586   6.010   3.516
10689SOL    HW132966   0.654   5.941   3.492
10689SOL    HW232967   0.625   6.101   3.504
10690SOL     OW32968   0.363   6.236   3.108
10690SOL    HW132969   0.446   6.269   3.153
10690SOL    HW232970   0.374   6.240   3.009
10691SOL     OW32971   0.472   2.242   2.266
10691SOL    HW132972   0.506   2.180   2.336
10691SOL    HW232973   0.468   2.195   2.178
10692SOL     OW32974   2.530   5.745   3.244
10692SOL    HW132975   2.529   5.808   3.321
10692SOL    HW232976   2.620   5.701   3.237
10693SOL     OW32977   2.632   0.216   7.003
10693SOL    HW132978   2.617   0.169   6.916
10693SOL    HW232979   2.546   0.258   0.009
10694SOL     OW32980   5.249   6.472   1.800
10694SOL    HW132981   5.263   6.517   1.888
10694SOL    HW232982   5.171   6.513   1.753
10695SOL     OW32983   5.192   2.078   3.237
10695SOL    HW132984   5.149   2.154   3.189
10695SOL    HW232985   5.268   2.043   3.183
10696SOL     OW32986   7.006   3.658   3.861
10696SOL    HW132987   6.958   3.660   3.950
10696SOL    HW232988   7.011   3.751   3.824
10697SOL     OW32989   0.273   6.207   4.269
10697SOL    HW132990   0.283   6.298   4.308
10697SOL    HW232991   0.212   6.152   4.326
10698SOL     OW32992   4.272   5.732   5.070
10698SOL    HW132993   4.224   5.820   5.070
10698SOL    HW232994   4.365   5.744   5.037
10699SOL     OW32995   4.129   3.063   1.815
10699SOL    HW132996   4.079   3.143   1.782
10699SOL    HW232997   4.100   2.982   1.763
10700SOL     OW32998   0.081   6.934   1.240
10700SOL    HW132999   0.139   6.861   1.204
10700SOL    HW233000   7.018   6.895   1.270
10701SOL     OW33001   3.274   5.733   0.049
10701SOL    HW133002   3.209   5.789   7.022
10701SOL    HW233003   3.368   5.756   0.021
10702SOL     OW33004   5.904   2.978   2.007
10702SOL    HW133005   5.863   3.029   2.082
10702SOL    HW233006   5.844   2.983   1.927
10703SOL     OW33007   3.438   4.073   5.231
10703SOL    HW133008   3.430   4.170   5.257
10703SOL    HW233009   3.493   4.065   5.148
10704SOL     OW33010   6.656   5.360   1.606
10704SOL    HW133011   6.668   5.312   1.693
10704SOL    HW233012   6.658   5.294   1.531
10705SOL     OW33013   6.063   4.450   2.036
10705SOL    HW133014   6.137   4.516   2.024
10705SOL    HW233015   6.101   4.360   2.056
10706SOL     OW33016   4.901   0.033   2.479
10706SOL    HW133017   4.952   6.979   2.443
10706SOL    HW233018   4.810   0.035   2.439
10707SOL     OW33019   0.415   6.362   3.603
10707SOL    HW133020   0.364   6.330   3.523
10707SOL    HW233021   0.397   6.301   3.680
10708SOL     OW33022   4.196   0.889   2.519
10708SOL    HW133023   4.295   0.881   2.528
10708SOL    HW233024   4.162   0.815   2.461
10709SOL     OW33025   6.056   6.619   5.374
10709SOL    HW133026   6.148   6.655   5.386
10709SOL    HW233027   5.989   6.692   5.388
10710SOL     OW33028   0.385   6.631   4.965
10710SOL    HW133029   0.412   6.536   4.949
10710SOL    HW233030   0.422   6.662   5.052
10711SOL     OW33031   1.800   5.613   3.613
10711SOL    HW133032   1.823   5.538   3.551
10711SOL    HW233033   1.701   5.614   3.628
10712SOL     OW33034   2.344   0.869   1.380
10712SOL    HW133035   2.328   0.772   1.399
10712SOL    HW233036   2.281   0.924   1.435
10713SOL     OW33037   0.992   3.809   1.488
10713SOL    HW133038   0.898   3.781   1.468
10713SOL    HW233039   1.037   3.838   1.403
10714SOL     OW33040   6.044   3.712   5.149
10714SOL    HW133041   6.004   3.722   5.240
10714SOL    HW233042   6.136   3.673   5.158
10715SOL     OW33043   4.946   6.861   3.069
10715SOL    HW133044   4.956   6.945   3.123
10715SOL    HW233045   4.923   6.885   2.974
10716SOL     OW33046   5.902   2.761   4.550
10716SOL    HW133047   5.861   2.684   4.501
10716SOL    HW233048   5.832   2.805   4.606
10717SOL     OW33049   1.190   2.522   1.009
10717SOL    HW133050   1.186   2.450   0.940
10717SOL    HW233051   1.098   2.558   1.025
10718SOL     OW33052   0.931   2.894   6.425
10718SOL    HW133053   0.880   2.836   6.362
10718SOL    HW233054   0.999   2.839   6.473
10719SOL     OW33055   5.152   5.251   7.022
10719SOL    HW133056   5.228   5.228   6.960
10719SOL    HW233057   5.068   5.260   6.969
10720SOL     OW33058   6.308   3.213   5.364
10720SOL    HW133059   6.386   3.274   5.378
10720SOL    HW233060   6.226   3.255   5.403
10721SOL     OW33061   6.357   4.322   5.479
10721SOL    HW133062   6.397   4.245   5.428
10721SOL    HW233063   6.267   4.343   5.442
10722SOL     OW33064   0.317   3.699   0.558
10722SOL    HW133065   0.347   3.604   0.567
10722SOL    HW233066   0.351   3.752   0.636
10723SOL     OW33067   0.365   3.989   6.205
10723SOL    HW133068   0.427   3.996   6.127
10723SOL    HW233069   0.417   3.973   6.289
10724SOL     OW33070   4.449   1.100   7.020
10724SOL    HW133071   4.384   1.063   6.955
10724SOL    HW233072   4.540   1.104   6.978
10725SOL     OW33073   0.202   4.750   4.137
10725SOL    HW133074   0.174   4.803   4.217
10725SOL    HW233075   0.298   4.725   4.146
10726SOL     OW33076   5.457   6.360   5.900
10726SOL    HW133077   5.375   6.400   5.941
10726SOL    HW233078   5.502   6.428   5.842
10727SOL     OW33079   0.300   5.299   4.426
10727SOL    HW133080   0.203   5.281   4.442
10727SOL    HW233081   0.332   5.370   4.489
10728SOL     OW33082   6.058   6.209   1.497
10728SOL    HW133083   6.112   6.259   1.430
10728SOL    HW233084   6.074   6.111   1.487
10729SOL     OW33085   5.821   0.922   2.898
10729SOL    HW133086   5.845   0.935   2.995
10729SOL    HW233087   5.887   0.861   2.855
10730SOL     OW33088   2.386   0.225   1.181
10730SOL    HW133089   2.298   0.177   1.178
10730SOL    HW233090   2.401   0.273   1.095
10731SOL     OW33091   2.696   5.820   0.355
10731SOL    HW133092   2.780   5.858   0.394
10731SOL    HW233093   2.721   5.747   0.290
10732SOL     OW33094   5.022   5.472   2.388
10732SOL    HW133095   4.940   5.528   2.376
10732SOL    HW233096   5.082   5.483   2.309
10733SOL     OW33097   5.057   2.072   6.694
10733SOL    HW133098   5.104   2.066   6.782
10733SOL    HW233099   5.081   1.993   6.638
10734SOL     OW33100   1.184   0.251   0.190
10734SOL    HW133101   1.247   0.322   0.222
10734SOL    HW233102   1.109   0.241   0.256
10735SOL     OW33103   1.835   4.619   3.153
10735SOL    HW133104   1.807   4.709   3.120
10735SOL    HW233105   1.832   4.554   3.077
10736SOL     OW33106   0.541   0.326   3.403
10736SOL    HW133107   0.605   0.402   3.404
10736SOL    HW233108   0.447   0.360   3.402
10737SOL     OW33109   1.408   1.881   0.244
10737SOL    HW133110   1.402   1.851   0.340
10737SOL    HW233111   1.472   1.823   0.195
10738SOL     OW33112   2.338   0.349   2.865
10738SOL    HW133113   2.426   0.360   2.912
10738SOL    HW233114   2.355   0.332   2.768
10739SOL     OW33115   0.128   1.347   1.678
10739SOL    HW133116   0.184   1.275   1.636
10739SOL    HW233117   0.165   1.369   1.768
10740SOL     OW33118   1.518   4.424   5.480
10740SOL    HW133119   1.536   4.434   5.578
10740SOL    HW233120   1.553   4.504   5.431
10741SOL     OW33121   0.147   0.408   3.164
10741SOL    HW133122   0.211   0.423   3.239
10741SOL    HW233123   0.098   0.322   3.177
10742SOL     OW33124   6.134   0.209   1.646
10742SOL    HW133125   6.177   0.297   1.665
10742SOL    HW233126   6.162   0.143   1.716
10743SOL     OW33127   2.442   1.866   4.179
10743SOL    HW133128   2.429   1.965   4.188
10743SOL    HW233129   2.481   1.845   4.090
10744SOL     OW33130   2.782   1.411   2.348
10744SOL    HW133131   2.784   1.440   2.253
10744SOL    HW233132   2.826   1.480   2.406
10745SOL     OW33133   0.951   5.105   0.809
10745SOL    HW133134   0.884   5.119   0.881
10745SOL    HW233135   1.014   5.031   0.836
10746SOL     OW33136   1.922   3.723   1.533
10746SOL    HW133137   1.915   3.629   1.567
10746SOL    HW233138   1.916   3.786   1.611
10747SOL     OW33139   4.632   0.933   3.328
10747SOL    HW133140   4.593   0.953   3.418
10747SOL    HW233141   4.558   0.929   3.260
10748SOL     OW33142   3.680   0.411   0.909
10748SOL    HW133143   3.624   0.404   0.991
10748SOL    HW233144   3.653   0.492   0.856
10749SOL     OW33145   0.110   4.705   3.649
10749SOL    HW133146   0.051   4.624   3.656
10749SOL    HW233147   0.198   4.686   3.692
10750SOL     OW33148   4.000   6.011   4.353
10750SOL    HW133149   4.026   5.933   4.297
10750SOL    HW233150   4.037   6.095   4.312
10751SOL     OW33151   0.916   3.855   5.390
10751SOL    HW133152   0.837   3.896   5.344
10751SOL    HW233153   0.983   3.926   5.410
10752SOL     OW33154   6.281   3.803   6.311
10752SOL    HW133155   6.377   3.818   6.334
10752SOL    HW233156   6.227   3.797   6.396
10753SOL     OW33157   5.323   0.670   4.003
10753SOL    HW133158   5.373   0.700   3.922
10753SOL    HW233159   5.313   0.747   4.066
10754SOL     OW33160   1.661   2.274   3.807
10754SOL    HW133161   1.593   2.232   3.748
10754SOL    HW233162   1.619   2.304   3.893
10755SOL     OW33163   0.569   2.140   0.454
10755SOL    HW133164   0.591   2.069   0.386
10755SOL    HW233165   0.624   2.126   0.536
10756SOL     OW33166   6.480   4.383   6.791
10756SOL    HW133167   6.414   4.444   6.835
10756SOL    HW233168   6.570   4.398   6.831
10757SOL     OW33169   1.217   3.659   0.456
10757SOL    HW133170   1.134   3.644   0.509
10757SOL    HW233171   1.195   3.661   0.358
10758SOL     OW33172   1.129   6.704   5.350
10758SOL    HW133173   1.092   6.677   5.261
10758SOL    HW233174   1.085   6.789   5.380
10759SOL     OW33175   1.823   3.245   7.002
10759SOL    HW133176   1.781   3.166   0.022
10759SOL    HW233177   1.873   3.299   0.046
10760SOL     OW33178   7.002   0.867   0.520
10760SOL    HW133179   0.068   0.838   0.487
10760SOL    HW233180   7.011   0.903   0.613
10761SOL     OW33181   0.838   2.227   6.206
10761SOL    HW133182   0.783   2.263   6.282
10761SOL    HW233183   0.782   2.163   6.152
10762SOL     OW33184   3.772   1.855   5.155
10762SOL    HW133185   3.796   1.889   5.246
10762SOL    HW233186   3.756   1.756   5.160
10763SOL     OW33187   4.482   6.317   1.283
10763SOL    HW133188   4.431   6.349   1.363
10763SOL    HW233189   4.501   6.220   1.292
10764SOL     OW33190   5.813   1.501   5.437
10764SOL    HW133191   5.764   1.542   5.360
10764SOL    HW233192   5.769   1.528   5.523
10765SOL     OW33193   5.664   2.992   1.383
10765SOL    HW133194   5.668   3.074   1.327
10765SOL    HW233195   5.571   2.981   1.418
10766SOL     OW33196   3.384   3.215   1.227
10766SOL    HW133197   3.324   3.293   1.245
10766SOL    HW233198   3.330   3.131   1.227
10767SOL     OW33199   1.092   0.497   6.859
10767SOL    HW133200   1.184   0.459   6.870
10767SOL    HW233201   1.093   0.565   6.786
10768SOL     OW33202   4.388   5.479   1.309
10768SOL    HW133203   4.401   5.578   1.302
10768SOL    HW233204   4.387   5.439   1.218
10769SOL     OW33205   1.824   5.186   4.844
10769SOL    HW133206   1.804   5.150   4.753
10769SOL    HW233207   1.890   5.127   4.890
10770SOL     OW33208   5.574   6.998   5.021
10770SOL    HW133209   5.656   0.029   5.031
10770SOL    HW233210   5.504   0.005   5.086
10771SOL     OW33211   4.605   0.899   4.367
10771SOL    HW133212   4.675   0.895   4.438
10771SOL    HW233213   4.603   0.813   4.316
10772SOL     OW33214   6.238   6.357   4.484
10772SOL    HW133215   6.301   6.365   4.407
10772SOL    HW233216   6.198   6.265   4.485
10773SOL     OW33217   6.400   5.179   5.961
10773SOL    HW133218   6.450   5.143   6.039
10773SOL    HW233219   6.354   5.264   5.986
10774SOL     OW33220   1.556   1.661   6.352
10774SOL    HW133221   1.530   1.757   6.359
10774SOL    HW233222   1.644   1.648   6.399
10775SOL     OW33223   0.683   3.383   0.557
10775SOL    HW133224   0.713   3.320   0.629
10775SOL    HW233225   0.585   3.399   0.566
10776SOL     OW33226   1.662   6.171   6.961
10776SOL    HW133227   1.611   6.192   6.878
10776SOL    HW233228   1.598   6.161   0.014
10777SOL     OW33229   4.279   6.513   4.227
10777SOL    HW133230   4.263   6.580   4.154
10777SOL    HW233231   4.303   6.561   4.312
10778SOL     OW33232   5.531   6.194   5.061
10778SOL    HW133233   5.488   6.216   5.149
10778SOL    HW233234   5.469   6.134   5.009
10779SOL     OW33235   6.438   5.017   2.969
10779SOL    HW133236   6.414   5.001   3.064
10779SOL    HW233237   6.457   5.114   2.954
10780SOL     OW33238   1.550   0.233   3.635
10780SOL    HW133239   1.594   0.211   3.722
10780SOL    HW233240   1.453   0.208   3.639
10781SOL     OW33241   3.918   1.642   3.149
10781SOL    HW133242   3.830   1.682   3.173
10781SOL    HW233243   3.992   1.701   3.181
10782SOL     OW33244   6.760   1.651   3.667
10782SOL    HW133245   6.807   1.696   3.591
10782SOL    HW233246   6.662   1.644   3.646
10783SOL     OW33247   1.293   3.365   3.277
10783SOL    HW133248   1.290   3.340   3.373
10783SOL    HW233249   1.371   3.426   3.261
10784SOL     OW33250   2.787   0.044   2.910
10784SOL    HW133251   2.712   7.002   2.911
10784SOL    HW233252   2.873   7.020   2.892
10785SOL     OW33253   0.891   4.863   0.656
10785SOL    HW133254   0.796   4.857   0.627
10785SOL    HW233255   0.913   4.957   0.680
10786SOL     OW33256   4.811   4.292   2.700
10786SOL    HW133257   4.900   4.261   2.668
10786SOL    HW233258   4.754   4.319   2.621
10787SOL     OW33259   3.217   1.895   4.419
10787SOL    HW133260   3.220   1.798   4.441
10787SOL    HW233261   3.152   1.941   4.479
10788SOL     OW33262   2.304   4.555   6.867
10788SOL    HW133263   2.338   4.649   6.879
10788SOL    HW233264   2.204   4.556   6.863
10789SOL     OW33265   5.771   2.997   0.414
10789SOL    HW133266   5.713   2.987   0.333
10789SOL    HW233267   5.848   3.057   0.392
10790SOL     OW33268   1.169   0.506   3.280
10790SOL    HW133269   1.217   0.427   3.319
10790SOL    HW233270   1.138   0.565   3.354
10791SOL     OW33271   0.018   0.387   0.874
10791SOL    HW133272   0.114   0.363   0.892
10791SOL    HW233273   7.020   0.365   0.779
10792SOL     OW33274   3.624   3.136   1.992
10792SOL    HW133275   3.682   3.055   1.978
10792SOL    HW233276   3.678   3.219   1.975
10793SOL     OW33277   5.457   2.688   4.573
10793SOL    HW133278   5.482   2.597   4.605
10793SOL    HW233279   5.485   2.700   4.478
10794SOL     OW33280   2.976   3.805   3.505
10794SOL    HW133281   3.034   3.727   3.483
10794SOL    HW233282   2.898   3.774   3.560
10795SOL     OW33283   6.861   3.159   3.795
10795SOL    HW133284   6.792   3.206   3.850
10795SOL    HW233285   6.926   3.226   3.759
10796SOL     OW33286   4.888   6.647   0.158
10796SOL    HW133287   4.837   6.690   0.232
10796SOL    HW233288   4.824   6.616   0.088
10797SOL     OW33289   3.678   2.151   1.216
10797SOL    HW133290   3.621   2.232   1.204
10797SOL    HW233291   3.716   2.151   1.309
10798SOL     OW33292   2.177   6.253   0.739
10798SOL    HW133293   2.182   6.294   0.648
10798SOL    HW233294   2.181   6.324   0.809
10799SOL     OW33295   3.644   0.905   2.374
10799SOL    HW133296   3.693   0.949   2.299
10799SOL    HW233297   3.606   0.974   2.435
10800SOL     OW33298   0.889   0.054   0.021
10800SOL    HW133299   0.820   0.105   0.072
10800SOL    HW233300   0.935   0.115   6.979
10801SOL     OW33301   0.768   6.781   5.545
10801SOL    HW133302   0.825   6.861   5.525
10801SOL    HW233303   0.786   6.750   5.638
10802SOL     OW33304   1.613   2.848   3.562
10802SOL    HW133305   1.663   2.901   3.630
10802SOL    HW233306   1.626   2.889   3.472
10803SOL     OW33307   4.371   4.438   5.626
10803SOL    HW133308   4.379   4.427   5.527
10803SOL    HW233309   4.389   4.350   5.671
10804SOL     OW33310   6.351   3.828   1.660
10804SOL    HW133311   6.407   3.764   1.712
10804SOL    HW233312   6.255   3.801   1.668
10805SOL     OW33313   3.800   0.089   6.824
10805SOL    HW133314   3.804   0.048   6.733
10805SOL    HW233315   3.862   0.041   6.886
10806SOL     OW33316   4.906   4.456   6.309
10806SOL    HW133317   4.974   4.382   6.308
10806SOL    HW233318   4.826   4.426   6.361
10807SOL     OW33319   1.310   6.404   3.408
10807SOL    HW133320   1.211   6.399   3.393
10807SOL    HW233321   1.351   6.315   3.386
10808SOL     OW33322   6.539   3.797   6.626
10808SOL    HW133323   6.546   3.702   6.596
10808SOL    HW233324   6.490   3.850   6.557
10809SOL     OW33325   2.811   5.742   3.680
10809SOL    HW133326   2.811   5.722   3.778
10809SOL    HW233327   2.776   5.834   3.664
10810SOL     OW33328   2.177   0.182   4.908
10810SOL    HW133329   2.118   0.238   4.850
10810SOL    HW233330   2.182   0.222   5.000
10811SOL     OW33331   4.472   4.879   5.739
10811SOL    HW133332   4.396   4.896   5.802
10811SOL    HW233333   4.465   4.940   5.660
10812SOL     OW33334   1.193   3.723   1.661
10812SOL    HW133335   1.209   3.789   1.734
10812SOL    HW233336   1.136   3.764   1.590
10813SOL     OW33337   2.268   5.705   6.804
10813SOL    HW133338   2.322   5.677   6.884
10813SOL    HW233339   2.232   5.797   6.819
10814SOL     OW33340   1.713   6.369   6.665
10814SOL    HW133341   1.773   6.289   6.651
10814SOL    HW233342   1.698   6.414   6.577
10815SOL     OW33343   4.838   4.558   2.797
10815SOL    HW133344   4.850   4.603   2.709
10815SOL    HW233345   4.817   4.461   2.783
10816SOL     OW33346   1.783   2.084   1.711
10816SOL    HW133347   1.876   2.080   1.675
10816SOL    HW233348   1.764   2.002   1.764
10817SOL     OW33349   5.454   6.731   2.287
10817SOL    HW133350   5.541   6.762   2.248
10817SOL    HW233351   5.460   6.731   2.387
10818SOL     OW33352   4.663   4.528   5.413
10818SOL    HW133353   4.658   4.444   5.467
10818SOL    HW233354   4.758   4.559   5.409
10819SOL     OW33355   6.704   4.230   0.212
10819SOL    HW133356   6.736   4.317   0.174
10819SOL    HW233357   6.620   4.202   0.167
10820SOL     OW33358   5.908   5.613   3.716
10820SOL    HW133359   5.969   5.647   3.644
10820SOL    HW233360   5.853   5.537   3.680
10821SOL     OW33361   5.743   6.299   2.202
10821SOL    HW133362   5.791   6.212   2.201
10821SOL    HW233363   5.650   6.286   2.167
10822SOL     OW33364   1.321   3.003   3.173
10822SOL    HW133365   1.224   2.989   3.154
10822SOL    HW233366   1.341   2.972   3.266
10823SOL     OW33367   1.554   5.306   2.033
10823SOL    HW133368   1.531   5.402   2.052
10823SOL    HW233369   1.552   5.290   1.934
10824SOL     OW33370   5.688   0.857   4.001
10824SOL    HW133371   5.620   0.824   4.067
10824SOL    HW233372   5.738   0.779   3.962
10825SOL     OW33373   3.459   6.993   6.268
10825SOL    HW133374   3.496   6.906   6.236
10825SOL    HW233375   3.382   6.976   6.329
10826SOL     OW33376   0.347   3.168   3.204
10826SOL    HW133377   0.256   3.145   3.170
10826SOL    HW233378   0.416   3.118   3.152
10827SOL     OW33379   5.976   3.934   4.053
10827SOL    HW133380   6.057   3.879   4.029
10827SOL    HW233381   5.977   3.954   4.151
10828SOL     OW33382   0.973   4.731   1.865
10828SOL    HW133383   0.961   4.632   1.874
10828SOL    HW233384   1.008   4.768   1.950
10829SOL     OW33385   3.579   2.480   0.873
10829SOL    HW133386   3.488   2.475   0.833
10829SOL    HW233387   3.576   2.535   0.956
10830SOL     OW33388   5.109   1.404   3.806
10830SOL    HW133389   5.182   1.421   3.872
10830SOL    HW233390   5.090   1.488   3.754
10831SOL     OW33391   4.189   5.701   2.157
10831SOL    HW133392   4.159   5.777   2.099
10831SOL    HW233393   4.254   5.644   2.107
10832SOL     OW33394   0.503   2.580   0.632
10832SOL    HW133395   0.437   2.531   0.576
10832SOL    HW233396   0.566   2.631   0.572
10833SOL     OW33397   1.560   1.683   2.290
10833SOL    HW133398   1.534   1.739   2.370
10833SOL    HW233399   1.635   1.621   2.316
10834SOL     OW33400   1.848   2.072   6.152
10834SOL    HW133401   1.763   2.052   6.200
10834SOL    HW233402   1.869   1.998   6.088
10835SOL     OW33403   6.521   2.195   0.246
10835SOL    HW133404   6.526   2.098   0.269
10835SOL    HW233405   6.468   2.243   0.315
10836SOL     OW33406   6.939   1.687   4.768
10836SOL    HW133407   6.918   1.776   4.809
10836SOL    HW233408   6.948   1.698   4.669
10837SOL     OW33409   6.705   4.875   0.582
10837SOL    HW133410   6.606   4.862   0.587
10837SOL    HW233411   6.726   4.972   0.598
10838SOL     OW33412   5.757   6.527   4.823
10838SOL    HW133413   5.820   6.548   4.748
10838SOL    HW233414   5.763   6.599   4.892
10839SOL     OW33415   3.452   3.130   0.940
10839SOL    HW133416   3.537   3.078   0.939
10839SOL    HW233417   3.442   3.178   1.027
10840SOL     OW33418   3.781   5.728   1.428
10840SOL    HW133419   3.726   5.803   1.391
10840SOL    HW233420   3.736   5.691   1.510
10841SOL     OW33421   4.177   6.298   0.383
10841SOL    HW133422   4.114   6.343   0.319
10841SOL    HW233423   4.237   6.367   0.424
10842SOL     OW33424   5.146   3.131   1.257
10842SOL    HW133425   5.048   3.110   1.261
10842SOL    HW233426   5.168   3.176   1.171
10843SOL     OW33427   0.436   2.176   1.698
10843SOL    HW133428   0.443   2.076   1.699
10843SOL    HW233429   0.343   2.204   1.721
10844SOL     OW33430   0.518   0.018   4.184
10844SOL    HW133431   0.543   0.003   4.280
10844SOL    HW233432   0.430   6.999   4.165
10845SOL     OW33433   3.688   0.459   6.104
10845SOL    HW133434   3.600   0.506   6.110
10845SOL    HW233435   3.728   0.474   6.014
10846SOL     OW33436   4.584   2.898   0.761
10846SOL    HW133437   4.561   2.973   0.823
10846SOL    HW233438   4.674   2.862   0.785
10847SOL     OW33439   3.710   3.588   6.454
10847SOL    HW133440   3.611   3.590   6.471
10847SOL    HW233441   3.727   3.556   6.361
10848SOL     OW33442   2.467   2.768   0.141
10848SOL    HW133443   2.495   2.752   0.236
10848SOL    HW233444   2.368   2.756   0.132
10849SOL     OW33445   2.578   4.716   2.982
10849SOL    HW133446   2.529   4.796   2.948
10849SOL    HW233447   2.632   4.676   2.907
10850SOL     OW33448   3.543   5.594   0.325
10850SOL    HW133449   3.571   5.662   0.258
10850SOL    HW233450   3.500   5.517   0.279
10851SOL     OW33451   2.795   3.343   6.905
10851SOL    HW133452   2.741   3.267   6.868
10851SOL    HW233453   2.884   3.308   6.935
10852SOL     OW33454   0.797   6.572   6.748
10852SOL    HW133455   0.788   6.581   6.649
10852SOL    HW233456   0.771   6.657   6.792
10853SOL     OW33457   3.461   2.208   5.722
10853SOL    HW133458   3.440   2.229   5.818
10853SOL    HW233459   3.449   2.291   5.667
10854SOL     OW33460   5.027   0.178   5.399
10854SOL    HW133461   4.950   0.224   5.442
10854SOL    HW233462   5.003   0.082   5.380
10855SOL     OW33463   2.782   6.511   2.025
10855SOL    HW133464   2.852   6.522   2.095
10855SOL    HW233465   2.692   6.514   2.068
10856SOL     OW33466   6.000   1.495   2.225
10856SOL    HW133467   5.932   1.436   2.181
10856SOL    HW233468   5.960   1.537   2.306
10857SOL     OW33469   5.961   2.983   3.100
10857SOL    HW133470   6.061   2.980   3.098
10857SOL    HW233471   5.929   3.056   3.039
10858SOL     OW33472   0.725   2.571   6.497
10858SOL    HW133473   0.823   2.564   6.480
10858SOL    HW233474   0.710   2.610   6.588
10859SOL     OW33475   2.151   3.491   4.015
10859SOL    HW133476   2.158   3.393   3.994
10859SOL    HW233477   2.118   3.540   3.935
10860SOL     OW33478   6.534   0.652   5.768
10860SOL    HW133479   6.622   0.606   5.772
10860SOL    HW233480   6.504   0.675   5.861
10861SOL     OW33481   3.808   3.110   2.999
10861SOL    HW133482   3.782   3.026   3.047
10861SOL    HW233483   3.855   3.171   3.063
10862SOL     OW33484   2.752   2.075   6.744
10862SOL    HW133485   2.760   2.169   6.711
10862SOL    HW233486   2.809   2.015   6.688
10863SOL     OW33487   3.925   0.805   2.935
10863SOL    HW133488   3.864   0.727   2.947
10863SOL    HW233489   3.871   0.888   2.921
10864SOL     OW33490   3.387   5.218   0.785
10864SOL    HW133491   3.340   5.307   0.790
10864SOL    HW233492   3.331   5.148   0.829
10865SOL     OW33493   6.170   1.574   3.079
10865SOL    HW133494   6.164   1.506   3.151
10865SOL    HW233495   6.134   1.661   3.111
10866SOL     OW33496   4.680   5.136   0.630
10866SOL    HW133497   4.741   5.181   0.564
10866SOL    HW233498   4.643   5.053   0.590
10867SOL     OW33499   3.372   4.002   0.347
10867SOL    HW133500   3.281   4.042   0.358
10867SOL    HW233501   3.365   3.917   0.294
10868SOL     OW33502   2.358   2.013   3.804
10868SOL    HW133503   2.339   2.045   3.711
10868SOL    HW233504   2.322   2.078   3.870
10869NA      NA33505   0.408   2.361   6.294
10870NA      NA33506   4.483   4.560   5.188
10871NA      NA33507   2.155   4.142   2.190
10872NA      NA33508   4.904   4.095   3.557
10873NA      NA33509   4.269   2.329   5.249
10874NA      NA33510   3.240   4.491   1.579
10875NA      NA33511   0.372   4.649   0.138
10876NA      NA33512   3.407   3.608   2.682
10877NA      NA33513   5.362   5.224   0.987
10878NA      NA33514   3.310   0.085   5.302
10879NA      NA33515   5.923   5.895   0.825
10880NA      NA33516   2.147   0.810   5.223
10881NA      NA33517   4.067   4.902   1.808
10882NA      NA33518   3.820   3.032   1.579
   7.02398   7.02398   7.02398
