Generated by trjconv : CNT in water t= 277.00000
33518
    1C        C    1   2.840   2.766   4.749
    1C        C    2   2.901   2.719   4.867
    1C        C    3   2.843   2.764   4.986
    1C        C    4   2.844   2.767   4.263
    1C        C    5   2.897   2.721   4.385
    1C        C    6   2.845   2.770   4.507
    1C        C    7   3.010   2.636   4.624
    1C        C    8   2.892   2.714   4.628
    1C        C    9   3.077   2.604   4.745
    1C        C   10   3.012   2.632   4.867
    1C        C   11   3.184   2.488   4.974
    1C        C   12   3.062   2.557   4.975
    1C        C   13   2.847   2.768   3.771
    1C        C   14   2.899   2.720   3.894
    1C        C   15   2.848   2.771   4.015
    1C        C   16   3.015   2.646   4.137
    1C        C   17   2.898   2.726   4.139
    1C        C   18   3.080   2.615   4.259
    1C        C   19   3.013   2.641   4.380
    1C        C   20   3.207   2.561   4.501
    1C        C   21   3.072   2.601   4.502
    1C        C   22   3.278   2.539   4.622
    1C        C   23   3.207   2.548   4.744
    1C        C   24   3.412   2.477   4.860
    1C        C   25   3.270   2.494   4.860
    1C        C   26   3.488   2.471   4.978
    1C        C   27   2.846   2.767   3.281
    1C        C   28   2.903   2.727   3.404
    1C        C   29   2.850   2.774   3.526
    1C        C   30   3.014   2.640   3.647
    1C        C   31   2.901   2.725   3.648
    1C        C   32   3.075   2.602   3.769
    1C        C   33   3.016   2.642   3.891
    1C        C   34   3.205   2.554   4.015
    1C        C   35   3.075   2.609   4.015
    1C        C   36   3.277   2.534   4.136
    1C        C   37   3.210   2.558   4.258
    1C        C   38   3.414   2.507   4.380
    1C        C   39   3.277   2.538   4.380
    1C        C   40   3.488   2.504   4.501
    1C        C   41   3.415   2.503   4.622
    1C        C   42   3.629   2.482   4.743
    1C        C   43   3.487   2.474   4.739
    1C        C   44   3.703   2.487   4.863
    1C        C   45   3.627   2.476   4.980
    1C        C   46   2.833   2.751   2.794
    1C        C   47   2.892   2.712   2.917
    1C        C   48   2.840   2.764   3.038
    1C        C   49   3.014   2.639   3.160
    1C        C   50   2.897   2.718   3.158
    1C        C   51   3.079   2.608   3.282
    1C        C   52   3.018   2.645   3.404
    1C        C   53   3.205   2.546   3.523
    1C        C   54   3.077   2.605   3.526
    1C        C   55   3.273   2.530   3.647
    1C        C   56   3.205   2.547   3.770
    1C        C   57   3.412   2.508   3.894
    1C        C   58   3.273   2.531   3.893
    1C        C   59   3.486   2.500   4.014
    1C        C   60   3.415   2.505   4.136
    1C        C   61   3.627   2.501   4.258
    1C        C   62   3.485   2.498   4.258
    1C        C   63   3.700   2.510   4.378
    1C        C   64   3.629   2.506   4.500
    1C        C   65   3.835   2.539   4.622
    1C        C   66   3.699   2.499   4.622
    1C        C   67   3.903   2.561   4.743
    1C        C   68   3.839   2.525   4.864
    1C        C   69   4.055   2.579   4.975
    1C        C   70   3.922   2.534   4.976
    1C        C   71   2.823   2.730   2.304
    1C        C   72   2.883   2.694   2.427
    1C        C   73   2.829   2.741   2.549
    1C        C   74   3.009   2.632   2.673
    1C        C   75   2.888   2.706   2.672
    1C        C   76   3.074   2.599   2.794
    1C        C   77   3.011   2.636   2.915
    1C        C   78   3.203   2.548   3.036
    1C        C   79   3.072   2.600   3.037
    1C        C   80   3.274   2.528   3.157
    1C        C   81   3.208   2.549   3.280
    1C        C   82   3.413   2.499   3.404
    1C        C   83   3.273   2.520   3.402
    1C        C   84   3.483   2.500   3.527
    1C        C   85   3.412   2.508   3.649
    1C        C   86   3.623   2.505   3.768
    1C        C   87   3.482   2.502   3.772
    1C        C   88   3.694   2.511   3.890
    1C        C   89   3.627   2.503   4.014
    1C        C   90   3.834   2.550   4.135
    1C        C   91   3.696   2.519   4.136
    1C        C   92   3.901   2.573   4.257
    1C        C   93   3.836   2.549   4.380
    1C        C   94   4.031   2.631   4.499
    1C        C   95   3.904   2.568   4.502
    1C        C   96   4.090   2.670   4.621
    1C        C   97   4.030   2.626   4.741
    1C        C   98   4.188   2.767   4.860
    1C        C   99   4.098   2.656   4.862
    1C        C  100   4.208   2.844   4.975
    1C        C  101   2.821   2.735   2.070
    1C        C  102   2.993   2.592   2.190
    1C        C  103   2.880   2.680   2.184
    1C        C  104   3.066   2.577   2.311
    1C        C  105   2.999   2.614   2.430
    1C        C  106   3.199   2.538   2.550
    1C        C  107   3.068   2.591   2.551
    1C        C  108   3.267   2.517   2.671
    1C        C  109   3.202   2.540   2.795
    1C        C  110   3.411   2.492   2.916
    1C        C  111   3.272   2.518   2.916
    1C        C  112   3.481   2.488   3.038
    1C        C  113   3.412   2.498   3.160
    1C        C  114   3.625   2.504   3.277
    1C        C  115   3.484   2.497   3.282
    1C        C  116   3.693   2.513   3.401
    1C        C  117   3.624   2.508   3.523
    1C        C  118   3.830   2.552   3.646
    1C        C  119   3.692   2.522   3.646
    1C        C  120   3.899   2.574   3.768
    1C        C  121   3.831   2.548   3.890
    1C        C  122   4.023   2.638   4.012
    1C        C  123   3.899   2.571   4.011
    1C        C  124   4.087   2.673   4.133
    1C        C  125   4.030   2.631   4.255
    1C        C  126   4.196   2.763   4.378
    1C        C  127   4.091   2.669   4.377
    1C        C  128   4.243   2.820   4.498
    1C        C  129   4.193   2.767   4.619
    1C        C  130   4.326   2.935   4.738
    1C        C  131   4.245   2.818   4.740
    1C        C  132   4.357   3.001   4.859
    1C        C  133   4.282   2.961   4.971
    1C        C  134   3.174   2.461   2.081
    1C        C  135   3.042   2.506   2.087
    1C        C  136   3.258   2.470   2.193
    1C        C  137   3.197   2.521   2.310
    1C        C  138   3.406   2.480   2.427
    1C        C  139   3.267   2.505   2.431
    1C        C  140   3.477   2.483   2.549
    1C        C  141   3.407   2.500   2.671
    1C        C  142   3.620   2.499   2.789
    1C        C  143   3.479   2.491   2.792
    1C        C  144   3.691   2.504   2.911
    1C        C  145   3.622   2.493   3.035
    1C        C  146   3.834   2.534   3.154
    1C        C  147   3.695   2.505   3.155
    1C        C  148   3.899   2.565   3.276
    1C        C  149   3.830   2.548   3.398
    1C        C  150   4.022   2.631   3.521
    1C        C  151   3.894   2.572   3.522
    1C        C  152   4.086   2.666   3.642
    1C        C  153   4.027   2.632   3.766
    1C        C  154   4.192   2.765   3.886
    1C        C  155   4.082   2.676   3.889
    1C        C  156   4.242   2.812   4.010
    1C        C  157   4.197   2.762   4.134
    1C        C  158   4.335   2.922   4.251
    1C        C  159   4.250   2.810   4.256
    1C        C  160   4.374   2.986   4.371
    1C        C  161   4.329   2.932   4.494
    1C        C  162   4.445   3.110   4.616
    1C        C  163   4.368   2.992   4.616
    1C        C  164   4.474   3.181   4.735
    1C        C  165   4.438   3.116   4.856
    1C        C  166   4.512   3.315   4.975
    1C        C  167   4.482   3.179   4.973
    1C        C  168   3.475   2.434   2.073
    1C        C  169   3.398   2.451   2.189
    1C        C  170   3.619   2.460   2.307
    1C        C  171   3.477   2.464   2.306
    1C        C  172   3.692   2.482   2.425
    1C        C  173   3.619   2.479   2.546
    1C        C  174   3.825   2.541   2.665
    1C        C  175   3.689   2.501   2.666
    1C        C  176   3.894   2.557   2.787
    1C        C  177   3.828   2.538   2.910
    1C        C  178   4.024   2.624   3.029
    1C        C  179   3.898   2.561   3.031
    1C        C  180   4.085   2.663   3.150
    1C        C  181   4.025   2.628   3.273
    1C        C  182   4.195   2.747   3.395
    1C        C  183   4.085   2.659   3.398
    1C        C  184   4.242   2.803   3.517
    1C        C  185   4.194   2.757   3.641
    1C        C  186   4.343   2.909   3.766
    1C        C  187   4.246   2.806   3.763
    1C        C  188   4.381   2.972   3.886
    1C        C  189   4.336   2.917   4.008
    1C        C  190   4.441   3.105   4.129
    1C        C  191   4.375   2.980   4.129
    1C        C  192   4.472   3.172   4.249
    1C        C  193   4.443   3.109   4.372
    1C        C  194   4.502   3.314   4.493
    1C        C  195   4.469   3.176   4.494
    1C        C  196   4.520   3.387   4.613
    1C        C  197   4.502   3.320   4.736
    1C        C  198   4.549   3.532   4.853
    1C        C  199   4.520   3.391   4.858
    1C        C  200   4.580   3.618   4.963
    1C        C  201   3.614   2.419   2.072
    1C        C  202   3.823   2.513   2.181
    1C        C  203   3.693   2.453   2.186
    1C        C  204   3.894   2.543   2.300
    1C        C  205   3.830   2.515   2.423
    1C        C  206   4.020   2.618   2.540
    1C        C  207   3.895   2.552   2.542
    1C        C  208   4.082   2.654   2.662
    1C        C  209   4.020   2.621   2.785
    1C        C  210   4.193   2.747   2.905
    1C        C  211   4.084   2.658   2.905
    1C        C  212   4.250   2.792   3.026
    1C        C  213   4.199   2.748   3.150
    1C        C  214   4.337   2.905   3.274
    1C        C  215   4.247   2.796   3.274
    1C        C  216   4.376   2.964   3.396
    1C        C  217   4.335   2.909   3.520
    1C        C  218   4.433   3.097   3.639
    1C        C  219   4.378   2.967   3.641
    1C        C  220   4.460   3.166   3.760
    1C        C  221   4.440   3.101   3.884
    1C        C  222   4.499   3.306   4.005
    1C        C  223   4.469   3.168   4.005
    1C        C  224   4.511   3.378   4.126
    1C        C  225   4.503   3.310   4.250
    1C        C  226   4.519   3.524   4.366
    1C        C  227   4.515   3.382   4.370
    1C        C  228   4.518   3.596   4.488
    1C        C  229   4.530   3.528   4.611
    1C        C  230   4.501   3.740   4.729
    1C        C  231   4.536   3.602   4.731
    1C        C  232   4.491   3.816   4.847
    1C        C  233   4.544   3.754   4.961
    1C        C  234   4.023   2.600   2.063
    1C        C  235   3.897   2.542   2.065
    1C        C  236   4.084   2.650   2.179
    1C        C  237   4.021   2.607   2.298
    1C        C  238   4.200   2.730   2.420
    1C        C  239   4.084   2.648   2.418
    1C        C  240   4.249   2.784   2.541
    1C        C  241   4.196   2.736   2.663
    1C        C  242   4.338   2.901   2.784
    1C        C  243   4.248   2.792   2.783
    1C        C  244   4.376   2.962   2.905
    1C        C  245   4.338   2.902   3.028
    1C        C  246   4.436   3.090   3.149
    1C        C  247   4.378   2.961   3.150
    1C        C  248   4.457   3.159   3.270
    1C        C  249   4.433   3.093   3.393
    1C        C  250   4.493   3.297   3.515
    1C        C  251   4.454   3.161   3.515
    1C        C  252   4.504   3.370   3.636
    1C        C  253   4.495   3.303   3.760
    1C        C  254   4.519   3.514   3.878
    1C        C  255   4.512   3.373   3.881
    1C        C  256   4.512   3.587   3.999
    1C        C  257   4.517   3.519   4.122
    1C        C  258   4.482   3.731   4.238
    1C        C  259   4.507   3.592   4.243
    1C        C  260   4.471   3.800   4.361
    1C        C  261   4.489   3.734   4.484
    1C        C  262   4.429   3.938   4.604
    1C        C  263   4.471   3.804   4.606
    1C        C  264   4.402   4.011   4.722
    1C        C  265   4.435   3.946   4.843
    1C        C  266   4.316   4.127   4.955
    1C        C  267   4.396   4.013   4.959
    1C        C  268   4.260   2.776   2.061
    1C        C  269   4.199   2.731   2.179
    1C        C  270   4.347   2.887   2.300
    1C        C  271   4.255   2.779   2.299
    1C        C  272   4.382   2.952   2.420
    1C        C  273   4.334   2.896   2.541
    1C        C  274   4.447   3.080   2.660
    1C        C  275   4.372   2.961   2.660
    1C        C  276   4.478   3.148   2.781
    1C        C  277   4.445   3.085   2.902
    1C        C  278   4.500   3.288   3.024
    1C        C  279   4.468   3.151   3.025
    1C        C  280   4.510   3.361   3.145
    1C        C  281   4.491   3.296   3.269
    1C        C  282   4.517   3.506   3.389
    1C        C  283   4.503   3.365   3.391
    1C        C  284   4.510   3.577   3.511
    1C        C  285   4.511   3.511   3.636
    1C        C  286   4.488   3.724   3.752
    1C        C  287   4.515   3.585   3.756
    1C        C  288   4.469   3.794   3.873
    1C        C  289   4.488   3.726   3.996
    1C        C  290   4.427   3.934   4.116
    1C        C  291   4.469   3.799   4.115
    1C        C  292   4.400   4.000   4.238
    1C        C  293   4.425   3.934   4.360
    1C        C  294   4.327   4.124   4.480
    1C        C  295   4.396   4.000   4.481
    1C        C  296   4.284   4.184   4.600
    1C        C  297   4.326   4.131   4.724
    1C        C  298   4.194   4.313   4.839
    1C        C  299   4.278   4.197   4.840
    1C        C  300   4.167   4.405   4.946
    1C        C  301   4.352   2.880   2.060
    1C        C  302   4.463   3.070   2.175
    1C        C  303   4.392   2.946   2.178
    1C        C  304   4.476   3.144   2.295
    1C        C  305   4.445   3.078   2.416
    1C        C  306   4.510   3.281   2.537
    1C        C  307   4.475   3.145   2.538
    1C        C  308   4.516   3.355   2.657
    1C        C  309   4.500   3.288   2.780
    1C        C  310   4.518   3.500   2.898
    1C        C  311   4.512   3.359   2.902
    1C        C  312   4.512   3.574   3.019
    1C        C  313   4.512   3.502   3.140
    1C        C  314   4.484   3.710   3.263
    1C        C  315   4.510   3.571   3.264
    1C        C  316   4.469   3.782   3.384
    1C        C  317   4.486   3.716   3.507
    1C        C  318   4.421   3.921   3.626
    1C        C  319   4.467   3.788   3.627
    1C        C  320   4.392   3.988   3.748
    1C        C  321   4.423   3.927   3.872
    1C        C  322   4.324   4.117   3.992
    1C        C  323   4.399   3.997   3.992
    1C        C  324   4.284   4.176   4.113
    1C        C  325   4.327   4.121   4.236
    1C        C  326   4.187   4.281   4.353
    1C        C  327   4.288   4.183   4.357
    1C        C  328   4.133   4.333   4.473
    1C        C  329   4.185   4.285   4.595
    1C        C  330   4.023   4.432   4.711
    1C        C  331   4.136   4.345   4.714
    1C        C  332   3.970   4.492   4.827
    1C        C  333   4.047   4.478   4.942
    1C        C  334   4.548   3.267   2.060
    1C        C  335   4.531   3.128   2.063
    1C        C  336   4.536   3.349   2.173
    1C        C  337   4.512   3.282   2.295
    1C        C  338   4.524   3.495   2.411
    1C        C  339   4.521   3.354   2.416
    1C        C  340   4.523   3.566   2.532
    1C        C  341   4.520   3.497   2.655
    1C        C  342   4.492   3.710   2.773
    1C        C  343   4.513   3.570   2.776
    1C        C  344   4.476   3.780   2.895
    1C        C  345   4.491   3.713   3.019
    1C        C  346   4.415   3.910   3.136
    1C        C  347   4.471   3.780   3.142
    1C        C  348   4.383   3.973   3.259
    1C        C  349   4.423   3.916   3.381
    1C        C  350   4.322   4.104   3.500
    1C        C  351   4.396   3.984   3.502
    1C        C  352   4.279   4.163   3.621
    1C        C  353   4.318   4.108   3.745
    1C        C  354   4.178   4.265   3.865
    1C        C  355   4.278   4.165   3.868
    1C        C  356   4.124   4.314   3.985
    1C        C  357   4.178   4.270   4.108
    1C        C  358   4.016   4.405   4.230
    1C        C  359   4.131   4.323   4.230
    1C        C  360   3.953   4.447   4.349
    1C        C  361   4.020   4.417   4.470
    1C        C  362   3.829   4.519   4.592
    1C        C  363   3.959   4.462   4.589
    1C        C  364   3.759   4.549   4.711
    1C        C  365   3.837   4.540   4.828
    1C        C  366   3.627   4.590   4.945
    1C        C  367   3.765   4.573   4.944
    1C        C  368   4.507   3.566   2.051
    1C        C  369   4.524   3.490   2.167
    1C        C  370   4.498   3.703   2.286
    1C        C  371   4.520   3.564   2.287
    1C        C  372   4.482   3.774   2.407
    1C        C  373   4.500   3.706   2.530
    1C        C  374   4.432   3.910   2.646
    1C        C  375   4.481   3.778   2.650
    1C        C  376   4.394   3.972   2.767
    1C        C  377   4.423   3.910   2.891
    1C        C  378   4.316   4.093   3.009
    1C        C  379   4.394   3.975   3.013
    1C        C  380   4.278   4.154   3.130
    1C        C  381   4.313   4.095   3.254
    1C        C  382   4.175   4.255   3.374
    1C        C  383   4.273   4.153   3.377
    1C        C  384   4.122   4.303   3.496
    1C        C  385   4.180   4.264   3.619
    1C        C  386   4.007   4.387   3.743
    1C        C  387   4.126   4.311   3.741
    1C        C  388   3.946   4.428   3.864
    1C        C  389   4.008   4.395   3.986
    1C        C  390   3.819   4.489   4.107
    1C        C  391   3.949   4.434   4.109
    1C        C  392   3.751   4.507   4.230
    1C        C  393   3.822   4.499   4.352
    1C        C  394   3.614   4.547   4.473
    1C        C  395   3.754   4.526   4.472
    1C        C  396   3.541   4.563   4.592
    1C        C  397   3.619   4.565   4.710
    1C        C  398   3.408   4.553   4.835
    1C        C  399   3.547   4.575   4.831
    1C        C  400   3.339   4.521   4.953
    1C        C  401   4.508   3.705   2.048
    1C        C  402   4.448   3.912   2.166
    1C        C  403   4.491   3.778   2.166
    1C        C  404   4.412   3.976   2.286
    1C        C  405   4.438   3.908   2.407
    1C        C  406   4.326   4.097   2.523
    1C        C  407   4.401   3.977   2.525
    1C        C  408   4.276   4.146   2.645
    1C        C  409   4.314   4.089   2.768
    1C        C  410   4.176   4.255   2.888
    1C        C  411   4.273   4.153   2.888
    1C        C  412   4.121   4.296   3.011
    1C        C  413   4.180   4.255   3.133
    1C        C  414   4.004   4.380   3.252
    1C        C  415   4.124   4.305   3.252
    1C        C  416   3.942   4.411   3.376
    1C        C  417   4.003   4.379   3.499
    1C        C  418   3.811   4.468   3.619
    1C        C  419   3.942   4.415   3.621
    1C        C  420   3.745   4.495   3.741
    1C        C  421   3.815   4.479   3.863
    1C        C  422   3.610   4.529   3.985
    1C        C  423   3.749   4.504   3.986
    1C        C  424   3.539   4.533   4.107
    1C        C  425   3.611   4.527   4.229
    1C        C  426   3.401   4.545   4.352
    1C        C  427   3.542   4.544   4.351
    1C        C  428   3.327   4.548   4.472
    1C        C  429   3.400   4.558   4.593
    1C        C  430   3.192   4.525   4.719
    1C        C  431   3.331   4.553   4.716
    1C        C  432   3.123   4.499   4.841
    1C        C  433   3.201   4.503   4.957
    1C        C  434   4.387   4.120   2.053
    1C        C  435   4.447   3.993   2.052
    1C        C  436   4.304   4.163   2.161
    1C        C  437   4.339   4.098   2.282
    1C        C  438   4.180   4.247   2.398
    1C        C  439   4.285   4.153   2.400
    1C        C  440   4.120   4.287   2.520
    1C        C  441   4.175   4.245   2.643
    1C        C  442   4.006   4.376   2.765
    1C        C  443   4.124   4.298   2.764
    1C        C  444   3.946   4.416   2.886
    1C        C  445   4.005   4.378   3.009
    1C        C  446   3.812   4.470   3.130
    1C        C  447   3.943   4.415   3.130
    1C        C  448   3.746   4.491   3.253
    1C        C  449   3.812   4.467   3.375
    1C        C  450   3.607   4.524   3.497
    1C        C  451   3.745   4.493   3.497
    1C        C  452   3.538   4.535   3.620
    1C        C  453   3.608   4.530   3.742
    1C        C  454   3.397   4.539   3.865
    1C        C  455   3.538   4.544   3.864
    1C        C  456   3.327   4.532   3.987
    1C        C  457   3.398   4.536   4.109
    1C        C  458   3.189   4.504   4.236
    1C        C  459   3.328   4.532   4.232
    1C        C  460   3.121   4.489   4.359
    1C        C  461   3.189   4.518   4.479
    1C        C  462   2.992   4.439   4.602
    1C        C  463   3.121   4.496   4.600
    1C        C  464   2.927   4.404   4.723
    1C        C  465   2.991   4.445   4.844
    1C        C  466   2.804   4.337   4.959
    1C        C  467   2.907   4.433   4.959
    1C        C  468   4.122   4.282   2.037
    1C        C  469   4.187   4.245   2.156
    1C        C  470   4.004   4.366   2.279
    1C        C  471   4.125   4.290   2.276
    1C        C  472   3.937   4.393   2.400
    1C        C  473   3.999   4.360   2.522
    1C        C  474   3.812   4.463   2.642
    1C        C  475   3.938   4.400   2.643
    1C        C  476   3.744   4.487   2.764
    1C        C  477   3.813   4.465   2.885
    1C        C  478   3.607   4.515   3.008
    1C        C  479   3.746   4.490   3.007
    1C        C  480   3.539   4.527   3.132
    1C        C  481   3.609   4.526   3.254
    1C        C  482   3.396   4.531   3.375
    1C        C  483   3.537   4.538   3.375
    1C        C  484   3.326   4.527   3.498
    1C        C  485   3.397   4.539   3.619
    1C        C  486   3.190   4.497   3.743
    1C        C  487   3.327   4.531   3.742
    1C        C  488   3.124   4.474   3.866
    1C        C  489   3.190   4.500   3.989
    1C        C  490   2.998   4.417   4.114
    1C        C  491   3.124   4.481   4.113
    1C        C  492   2.935   4.388   4.236
    1C        C  493   2.993   4.430   4.358
    1C        C  494   2.825   4.304   4.481
    1C        C  495   2.934   4.394   4.482
    1C        C  496   2.774   4.254   4.603
    1C        C  497   2.818   4.313   4.724
    1C        C  498   2.663   4.166   4.842
    1C        C  499   2.758   4.271   4.844
    1C        C  500   2.591   4.119   4.952
    1C        C  501   4.006   4.359   2.040
    1C        C  502   3.814   4.461   2.153
    1C        C  503   3.943   4.402   2.157
    1C        C  504   3.743   4.475   2.274
    1C        C  505   3.807   4.449   2.397
    1C        C  506   3.605   4.509   2.520
    1C        C  507   3.742   4.475   2.520
    1C        C  508   3.534   4.513   2.642
    1C        C  509   3.605   4.511   2.764
    1C        C  510   3.394   4.521   2.887
    1C        C  511   3.535   4.516   2.887
    1C        C  512   3.324   4.519   3.010
    1C        C  513   3.398   4.527   3.130
    1C        C  514   3.188   4.495   3.254
    1C        C  515   3.326   4.523   3.252
    1C        C  516   3.122   4.468   3.376
    1C        C  517   3.189   4.493   3.498
    1C        C  518   2.997   4.409   3.623
    1C        C  519   3.122   4.476   3.621
    1C        C  520   2.938   4.372   3.746
    1C        C  521   2.998   4.411   3.868
    1C        C  522   2.827   4.292   3.994
    1C        C  523   2.938   4.379   3.992
    1C        C  524   2.783   4.239   4.117
    1C        C  525   2.830   4.294   4.238
    1C        C  526   2.692   4.135   4.362
    1C        C  527   2.776   4.249   4.361
    1C        C  528   2.650   4.079   4.484
    1C        C  529   2.687   4.143   4.605
    1C        C  530   2.589   3.956   4.727
    1C        C  531   2.638   4.089   4.726
    1C        C  532   2.541   3.900   4.849
    1C        C  533   2.527   3.994   4.956
    1C        C  534   3.617   4.551   2.040
    1C        C  535   3.751   4.512   2.039
    1C        C  536   3.535   4.528   2.155
    1C        C  537   3.604   4.505   2.278
    1C        C  538   3.391   4.519   2.401
    1C        C  539   3.533   4.518   2.399
    1C        C  540   3.321   4.513   2.523
    1C        C  541   3.393   4.516   2.645
    1C        C  542   3.182   4.486   2.765
    1C        C  543   3.321   4.513   2.766
    1C        C  544   3.119   4.464   2.889
    1C        C  545   3.186   4.487   3.011
    1C        C  546   2.994   4.403   3.132
    1C        C  547   3.119   4.468   3.134
    1C        C  548   2.934   4.367   3.255
    1C        C  549   2.996   4.404   3.377
    1C        C  550   2.828   4.283   3.501
    1C        C  551   2.937   4.372   3.501
    1C        C  552   2.782   4.230   3.624
    1C        C  553   2.827   4.285   3.746
    1C        C  554   2.695   4.127   3.874
    1C        C  555   2.779   4.240   3.872
    1C        C  556   2.655   4.068   3.996
    1C        C  557   2.698   4.126   4.118
    1C        C  558   2.595   3.944   4.244
    1C        C  559   2.658   4.070   4.241
    1C        C  560   2.569   3.878   4.367
    1C        C  561   2.595   3.949   4.486
    1C        C  562   2.537   3.745   4.613
    1C        C  563   2.568   3.883   4.608
    1C        C  564   2.519   3.679   4.737
    1C        C  565   2.517   3.759   4.854
    1C        C  566   2.534   3.548   4.973
    1C        C  567   2.518   3.686   4.974
    1C        C  568   3.332   4.460   2.042
    1C        C  569   3.394   4.513   2.156
    1C        C  570   3.183   4.476   2.282
    1C        C  571   3.321   4.508   2.278
    1C        C  572   3.114   4.454   2.403
    1C        C  573   3.185   4.476   2.524
    1C        C  574   2.986   4.400   2.646
    1C        C  575   3.112   4.464   2.644
    1C        C  576   2.931   4.359   2.770
    1C        C  577   2.992   4.401   2.890
    1C        C  578   2.821   4.276   3.012
    1C        C  579   2.929   4.367   3.012
    1C        C  580   2.773   4.227   3.136
    1C        C  581   2.822   4.281   3.257
    1C        C  582   2.689   4.119   3.382
    1C        C  583   2.775   4.231   3.381
    1C        C  584   2.663   4.057   3.507
    1C        C  585   2.698   4.117   3.630
    1C        C  586   2.595   3.936   3.755
    1C        C  587   2.658   4.063   3.754
    1C        C  588   2.575   3.871   3.879
    1C        C  589   2.595   3.940   4.000
    1C        C  590   2.538   3.737   4.127
    1C        C  591   2.572   3.874   4.123
    1C        C  592   2.523   3.668   4.250
    1C        C  593   2.537   3.741   4.370
    1C        C  594   2.513   3.531   4.494
    1C        C  595   2.526   3.672   4.493
    1C        C  596   2.515   3.462   4.617
    1C        C  597   2.517   3.537   4.737
    1C        C  598   2.531   3.326   4.863
    1C        C  599   2.530   3.467   4.859
    1C        C  600   2.536   3.246   4.978
    1C        C  601   3.196   4.439   2.044
    1C        C  602   2.983   4.397   2.159
    1C        C  603   3.118   4.442   2.160
    1C        C  604   2.922   4.360   2.281
    1C        C  605   2.985   4.397   2.402
    1C        C  606   2.819   4.267   2.526
    1C        C  607   2.928   4.357   2.525
    1C        C  608   2.769   4.218   2.649
    1C        C  609   2.822   4.269   2.769
    1C        C  610   2.684   4.110   2.894
    1C        C  611   2.769   4.223   2.892
    1C        C  612   2.649   4.051   3.018
    1C        C  613   2.688   4.114   3.138
    1C        C  614   2.586   3.931   3.266
    1C        C  615   2.653   4.055   3.262
    1C        C  616   2.567   3.865   3.390
    1C        C  617   2.598   3.931   3.511
    1C        C  618   2.540   3.730   3.637
    1C        C  619   2.573   3.867   3.634
    1C        C  620   2.528   3.663   3.760
    1C        C  621   2.541   3.734   3.882
    1C        C  622   2.518   3.526   4.008
    1C        C  623   2.526   3.667   4.005
    1C        C  624   2.519   3.455   4.130
    1C        C  625   2.515   3.527   4.251
    1C        C  626   2.540   3.318   4.381
    1C        C  627   2.518   3.457   4.374
    1C        C  628   2.556   3.249   4.503
    1C        C  629   2.535   3.322   4.623
    1C        C  630   2.593   3.116   4.745
    1C        C  631   2.549   3.252   4.744
    1C        C  632   2.619   3.047   4.867
    1C        C  633   2.561   3.108   4.982
    1C        C  634   2.779   4.308   2.056
    1C        C  635   2.892   4.391   2.048
    1C        C  636   2.744   4.231   2.167
    1C        C  637   2.808   4.274   2.285
    1C        C  638   2.678   4.104   2.407
    1C        C  639   2.761   4.219   2.406
    1C        C  640   2.635   4.051   2.531
    1C        C  641   2.683   4.107   2.652
    1C        C  642   2.589   3.917   2.777
    1C        C  643   2.645   4.047   2.774
    1C        C  644   2.558   3.856   2.901
    1C        C  645   2.588   3.924   3.021
    1C        C  646   2.532   3.723   3.148
    1C        C  647   2.564   3.861   3.145
    1C        C  648   2.516   3.656   3.271
    1C        C  649   2.534   3.728   3.391
    1C        C  650   2.508   3.520   3.517
    1C        C  651   2.520   3.661   3.515
    1C        C  652   2.512   3.450   3.640
    1C        C  653   2.516   3.522   3.762
    1C        C  654   2.540   3.316   3.890
    1C        C  655   2.516   3.455   3.886
    1C        C  656   2.559   3.248   4.013
    1C        C  657   2.546   3.316   4.136
    1C        C  658   2.602   3.114   4.259
    1C        C  659   2.556   3.247   4.259
    1C        C  660   2.629   3.048   4.381
    1C        C  661   2.602   3.116   4.502
    1C        C  662   2.708   2.934   4.626
    1C        C  663   2.629   3.051   4.625
    1C        C  664   2.747   2.873   4.747
    1C        C  665   2.703   2.931   4.870
    1C        C  666   2.743   2.861   4.984
    1C        C  667   2.686   4.022   2.052
    1C        C  668   2.680   4.105   2.165
    1C        C  669   2.590   3.910   2.288
    1C        C  670   2.643   4.042   2.286
    1C        C  671   2.560   3.847   2.411
    1C        C  672   2.580   3.921   2.529
    1C        C  673   2.521   3.720   2.659
    1C        C  674   2.558   3.857   2.653
    1C        C  675   2.505   3.648   2.779
    1C        C  676   2.523   3.719   2.900
    1C        C  677   2.509   3.513   3.029
    1C        C  678   2.516   3.655   3.025
    1C        C  679   2.511   3.442   3.151
    1C        C  680   2.507   3.515   3.272
    1C        C  681   2.536   3.308   3.402
    1C        C  682   2.512   3.447   3.396
    1C        C  683   2.556   3.242   3.525
    1C        C  684   2.537   3.311   3.646
    1C        C  685   2.600   3.111   3.770
    1C        C  686   2.551   3.243   3.770
    1C        C  687   2.632   3.048   3.893
    1C        C  688   2.605   3.115   4.014
    1C        C  689   2.712   2.932   4.139
    1C        C  690   2.636   3.051   4.137
    1C        C  691   2.750   2.873   4.262
    1C        C  692   2.706   2.930   4.384
    1C        C  693   2.748   2.873   4.506
    1C        C  694   2.633   3.893   2.052
    1C        C  695   2.530   3.703   2.172
    1C        C  696   2.583   3.834   2.169
    1C        C  697   2.509   3.637   2.295
    1C        C  698   2.522   3.711   2.415
    1C        C  699   2.498   3.505   2.543
    1C        C  700   2.510   3.646   2.540
    1C        C  701   2.501   3.434   2.665
    1C        C  702   2.498   3.507   2.786
    1C        C  703   2.518   3.298   2.913
    1C        C  704   2.500   3.438   2.910
    1C        C  705   2.530   3.227   3.035
    1C        C  706   2.524   3.301   3.155
    1C        C  707   2.581   3.101   3.278
    1C        C  708   2.544   3.237   3.280
    1C        C  709   2.627   3.046   3.399
    1C        C  710   2.606   3.109   3.524
    1C        C  711   2.713   2.931   3.648
    1C        C  712   2.635   3.049   3.648
    1C        C  713   2.756   2.876   3.771
    1C        C  714   2.712   2.932   3.893
    1C        C  715   2.754   2.877   4.016
    1C        C  716   2.444   3.498   2.061
    1C        C  717   2.492   3.630   2.060
    1C        C  718   2.456   3.422   2.182
    1C        C  719   2.482   3.497   2.300
    1C        C  720   2.518   3.290   2.426
    1C        C  721   2.494   3.430   2.423
    1C        C  722   2.539   3.223   2.548
    1C        C  723   2.527   3.296   2.668
    1C        C  724   2.595   3.099   2.791
    1C        C  725   2.539   3.228   2.792
    1C        C  726   2.618   3.033   2.914
    1C        C  727   2.578   3.094   3.035
    1C        C  728   2.695   2.920   3.158
    1C        C  729   2.607   3.030   3.158
    1C        C  730   2.747   2.868   3.279
    1C        C  731   2.709   2.930   3.400
    1C        C  732   2.756   2.880   3.523
    1C        C  733   2.495   3.200   2.073
    1C        C  734   2.487   3.282   2.186
    1C        C  735   2.584   3.086   2.305
    1C        C  736   2.527   3.217   2.305
    1C        C  737   2.615   3.021   2.426
    1C        C  738   2.585   3.089   2.546
    1C        C  739   2.696   2.911   2.669
    1C        C  740   2.621   3.031   2.670
    1C        C  741   2.739   2.856   2.792
    1C        C  742   2.693   2.913   2.913
    1C        C  743   2.740   2.864   3.037
    1C        C  744   2.542   3.069   2.073
    1C        C  745   2.686   2.900   2.189
    1C        C  746   2.610   3.018   2.184
    1C        C  747   2.729   2.837   2.308
    1C        C  748   2.690   2.901   2.427
    1C        C  749   2.732   2.844   2.550
    1C        C  750   2.733   2.843   2.069
    1C        C  751   3.656   2.326   1.965
    1C        O  752   3.702   2.219   2.012
    1C        O  753   3.713   2.366   1.843
    1C        C  754   4.614   3.050   1.968
    1C        O  755   4.658   3.086   1.855
    1C        O  756   4.710   2.956   2.007
    1C        C  757   4.431   4.212   1.945
    1C        O  758   4.545   4.265   1.944
    1C        O  759   4.387   4.214   1.812
    1C        C  760   3.584   4.660   1.945
    1C        O  761   3.591   4.776   1.994
    1C        O  762   3.599   4.651   1.806
    1C        C  763   2.878   4.504   1.954
    1C        O  764   2.912   4.488   1.833
    1C        O  765   2.784   4.606   1.972
    1C        C  766   2.352   3.467   1.950
    1C        O  767   2.389   3.468   1.829
    1C        O  768   2.214   3.493   1.948
    1C        C  769   4.685   3.588   5.063
    1C        O  770   4.667   3.571   5.187
    1C        O  771   4.818   3.564   5.029
    1C        C  772   4.281   4.476   5.007
    1C        O  773   4.307   4.452   5.128
    1C        O  774   4.311   4.610   4.976
    1C        C  775   4.149   2.514   5.070
    1C        O  776   4.173   2.391   5.073
    1C        O  777   4.150   2.550   5.205
    1C        C  778   2.901   4.529   5.072
    1C        O  779   2.861   4.648   5.061
    1C        O  780   2.957   4.503   5.198
    1C        C  781   2.453   3.042   5.059
    1C        O  782   2.349   2.995   5.006
    1C        O  783   2.481   2.995   5.187
    1C        C  784   2.410   3.985   5.047
    1C        O  785   2.289   3.988   5.012
    1C        O  786   2.431   3.989   5.185
    1C        C  787   2.946   2.431   2.001
    1C        O  788   2.915   2.473   1.887
    1C        O  789   2.867   2.322   2.032
    1C        C  790   3.182   2.361   5.051
    1C        O  791   3.117   2.267   4.998
    1C        O  792   3.243   2.356   5.176
    1C        H  793   4.326   2.983   5.066
    1C        H  794   4.164   2.815   5.068
    1C        H  795   4.519   3.112   5.047
    1C        H  796   4.522   3.363   5.071
    1C        H  797   4.602   3.819   5.022
    1C        H  798   4.455   3.993   5.046
    1C        H  799   4.299   4.172   5.050
    1C        H  800   4.017   4.530   5.031
    1C        H  801   3.819   4.578   5.036
    1C        H  802   3.580   4.617   5.038
    1C        H  803   3.388   4.515   5.048
    1C        H  804   3.163   4.456   5.045
    1C        H  805   3.883   2.516   5.074
    1C        H  806   3.673   2.441   5.070
    1C        H  807   3.031   2.595   5.070
    1C        H  808   3.448   2.398   5.045
    1C        H  809   2.867   2.718   5.080
    1C        H  810   2.692   2.884   5.075
    1C        H  811   2.569   3.297   5.066
    1C        H  812   2.585   3.502   5.055
    1C        H  813   2.532   3.740   5.065
    1C        H  814   2.559   4.194   5.021
    1C        H  815   2.794   4.289   5.054
    1C        H  816   2.703   2.876   1.972
    1C        H  817   2.848   2.700   1.972
    1C        H  818   3.220   2.478   1.986
    1C        H  819   3.427   2.413   1.979
    1C        H  820   3.841   2.537   1.973
    1C        H  821   4.087   2.575   1.981
    1C        H  822   4.249   2.717   1.972
    1C        H  823   4.429   2.875   1.986
    1C        H  824   4.602   3.314   1.981
    1C        H  825   4.496   3.507   1.962
    1C        H  826   4.544   3.751   1.958
    1C        H  827   3.817   4.550   1.964
    1C        H  828   3.977   4.393   1.943
    1C        H  829   4.154   4.248   1.941
    1C        H  830   4.500   3.969   1.962
    1C        H  831   2.643   3.840   1.959
    1C        H  832   2.689   4.066   1.955
    1C        H  833   2.693   4.343   2.003
    1C        H  834   3.392   4.393   1.984
    1C        H  835   3.151   4.442   1.946
    1C        H  836   2.482   3.000   2.017
    1C        H  837   2.448   3.235   1.983
    1C        H  838   2.456   3.687   1.977
    2V3OU   H29  839   2.802   3.545   2.706
    2V3OU   C27  840   2.792   3.507   2.810
    2V3OU   H27  841   2.736   3.572   2.882
    2V3OU   H28  842   2.741   3.407   2.802
    2V3OU   O11  843   2.914   3.485   2.881
    2V3OU   C15  844   2.926   3.405   2.993
    2V3OU   C13  845   3.055   3.375   3.042
    2V3OU   C14  846   3.078   3.269   3.131
    2V3OU   C16  847   2.975   3.191   3.182
    2V3OU    H6  848   2.990   3.108   3.253
    2V3OU   C12  849   3.210   3.231   3.186
    2V3OU    O2  850   3.236   3.126   3.249
    2V3OU   C10  851   3.324   3.307   3.133
    2V3OU    C8  852   3.457   3.270   3.143
    2V3OU   O10  853   3.487   3.149   3.199
    2V3OU   H26  854   3.404   3.115   3.235
    2V3OU    C6  855   3.566   3.349   3.094
    2V3OU    C5  856   3.538   3.471   3.035
    2V3OU    C4  857   3.704   3.294   3.105
    2V3OU    H4  858   3.722   3.227   3.194
    2V3OU    H5  859   3.706   3.223   3.017
    2V3OU    C2  860   3.817   3.396   3.091
    2V3OU    O6  861   3.805   3.472   3.211
    2V3OU   H21  862   3.763   3.551   3.172
    2V3OU    C3  863   3.785   3.499   2.982
    2V3OU    H2  864   3.860   3.582   2.980
    2V3OU    H3  865   3.786   3.442   2.886
    2V3OU   C25  866   3.953   3.330   3.068
    2V3OU    O7  867   3.994   3.296   2.958
    2V3OU   C26  868   4.031   3.289   3.192
    2V3OU   H22  869   4.063   3.380   3.249
    2V3OU   H23  870   4.120   3.228   3.163
    2V3OU    O8  871   3.962   3.209   3.285
    2V3OU   H24  872   3.929   3.266   3.357
    2V3OU    C1  873   3.648   3.564   2.991
    2V3OU    H1  874   3.626   3.613   2.892
    2V3OU    O3  875   3.658   3.658   3.098
    2V3OU   C19  876   3.618   3.794   3.076
    2V3OU    H9  877   3.521   3.796   3.018
    2V3OU    O4  878   3.717   3.848   2.993
    2V3OU   C20  879   3.847   3.872   3.047
    2V3OU   H10  880   3.893   3.771   3.067
    2V3OU   C24  881   3.609   3.856   3.216
    2V3OU   H16  882   3.537   3.797   3.277
    2V3OU   H17  883   3.562   3.956   3.196
    2V3OU   C23  884   3.747   3.878   3.279
    2V3OU   H15  885   3.789   3.775   3.304
    2V3OU    N1  886   3.736   3.954   3.402
    2V3OU   H19  887   3.806   3.923   3.465
    2V3OU   H20  888   3.655   3.929   3.455
    2V3OU   C21  889   3.843   3.950   3.179
    2V3OU   H11  890   3.947   3.928   3.218
    2V3OU    O5  891   3.820   4.089   3.193
    2V3OU   H18  892   3.790   4.101   3.284
    2V3OU   C22  893   3.911   3.949   2.933
    2V3OU   H12  894   3.861   4.049   2.924
    2V3OU   H13  895   3.902   3.892   2.837
    2V3OU   H14  896   4.022   3.957   2.948
    2V3OU   C11  897   3.160   3.477   3.050
    2V3OU    O1  898   3.142   3.599   3.028
    2V3OU    C9  899   3.300   3.431   3.069
    2V3OU    C7  900   3.402   3.512   3.018
    2V3OU    O9  901   3.381   3.611   2.925
    2V3OU   H25  902   3.286   3.621   2.941
    2V3OU   C17  903   2.825   3.318   3.038
    2V3OU    H7  904   2.725   3.352   3.012
    2V3OU   C18  905   2.849   3.215   3.129
    2V3OU    H8  906   2.778   3.166   3.197
    3SOL     OW  907   2.252   5.483   6.473
    3SOL    HW1  908   2.344   5.479   6.435
    3SOL    HW2  909   2.222   5.579   6.477
    4SOL     OW  910   6.833   0.640   2.084
    4SOL    HW1  911   6.782   0.582   2.147
    4SOL    HW2  912   6.843   0.594   1.996
    5SOL     OW  913   4.267   2.187   2.135
    5SOL    HW1  914   4.274   2.087   2.139
    5SOL    HW2  915   4.252   2.215   2.040
    6SOL     OW  916   4.551   1.497   1.526
    6SOL    HW1  917   4.464   1.483   1.574
    6SOL    HW2  918   4.546   1.452   1.437
    7SOL     OW  919   0.615   3.625   3.863
    7SOL    HW1  920   0.565   3.558   3.809
    7SOL    HW2  921   0.645   3.584   3.949
    8SOL     OW  922   3.044   1.297   5.599
    8SOL    HW1  923   3.003   1.312   5.509
    8SOL    HW2  924   2.996   1.222   5.645
    9SOL     OW  925   4.889   1.647   5.870
    9SOL    HW1  926   4.791   1.642   5.852
    9SOL    HW2  927   4.905   1.707   5.949
   10SOL     OW  928   2.332   5.060   4.935
   10SOL    HW1  929   2.237   5.073   4.963
   10SOL    HW2  930   2.334   5.016   4.845
   11SOL     OW  931   2.683   1.179   5.591
   11SOL    HW1  932   2.713   1.198   5.498
   11SOL    HW2  933   2.709   1.086   5.615
   12SOL     OW  934   2.760   5.323   3.458
   12SOL    HW1  935   2.764   5.269   3.374
   12SOL    HW2  936   2.772   5.420   3.437
   13SOL     OW  937   3.730   6.580   4.243
   13SOL    HW1  938   3.790   6.656   4.220
   13SOL    HW2  939   3.642   6.614   4.275
   14SOL     OW  940   3.770   4.904   6.195
   14SOL    HW1  941   3.750   4.995   6.160
   14SOL    HW2  942   3.868   4.885   6.186
   15SOL     OW  943   0.759   6.747   1.154
   15SOL    HW1  944   0.710   6.682   1.212
   15SOL    HW2  945   0.857   6.738   1.170
   16SOL     OW  946   5.750   2.839   6.010
   16SOL    HW1  947   5.676   2.852   6.076
   16SOL    HW2  948   5.813   2.916   6.014
   17SOL     OW  949   5.808   5.310   6.623
   17SOL    HW1  950   5.786   5.296   6.720
   17SOL    HW2  951   5.905   5.292   6.608
   18SOL     OW  952   3.023   1.380   5.299
   18SOL    HW1  953   2.947   1.346   5.243
   18SOL    HW2  954   3.017   1.479   5.305
   19SOL     OW  955   0.137   1.643   2.788
   19SOL    HW1  956   0.140   1.601   2.879
   19SOL    HW2  957   0.230   1.658   2.755
   20SOL     OW  958   4.960   1.817   4.499
   20SOL    HW1  959   4.929   1.912   4.504
   20SOL    HW2  960   4.892   1.757   4.540
   21SOL     OW  961   3.511   0.785   1.917
   21SOL    HW1  962   3.479   0.740   2.000
   21SOL    HW2  963   3.464   0.746   1.837
   22SOL     OW  964   1.251   6.421   6.781
   22SOL    HW1  965   1.186   6.345   6.781
   22SOL    HW2  966   1.343   6.385   6.764
   23SOL     OW  967   4.902   5.368   2.511
   23SOL    HW1  968   4.839   5.357   2.588
   23SOL    HW2  969   4.961   5.447   2.527
   24SOL     OW  970   3.297   0.539   2.813
   24SOL    HW1  971   3.362   0.616   2.812
   24SOL    HW2  972   3.228   0.552   2.742
   25SOL     OW  973   3.620   6.944   3.660
   25SOL    HW1  974   3.572   6.869   3.615
   25SOL    HW2  975   3.714   6.916   3.681
   26SOL     OW  976   6.614   1.246   0.606
   26SOL    HW1  977   6.615   1.268   0.704
   26SOL    HW2  978   6.585   1.327   0.554
   27SOL     OW  979   2.300   0.893   2.164
   27SOL    HW1  980   2.205   0.904   2.133
   27SOL    HW2  981   2.328   0.974   2.215
   28SOL     OW  982   1.928   0.287   4.764
   28SOL    HW1  983   1.890   0.235   4.687
   28SOL    HW2  984   2.027   0.299   4.750
   29SOL     OW  985   6.076   1.935   1.679
   29SOL    HW1  986   6.091   1.881   1.596
   29SOL    HW2  987   6.101   1.881   1.759
   30SOL     OW  988   4.386   0.761   3.372
   30SOL    HW1  989   4.439   0.774   3.456
   30SOL    HW2  990   4.375   0.849   3.325
   31SOL     OW  991   0.471   2.289   6.571
   31SOL    HW1  992   0.404   2.362   6.586
   31SOL    HW2  993   0.555   2.328   6.534
   32SOL     OW  994   0.236   1.479   3.112
   32SOL    HW1  995   0.284   1.415   3.051
   32SOL    HW2  996   0.273   1.571   3.099
   33SOL     OW  997   1.016   4.350   4.789
   33SOL    HW1  998   1.005   4.307   4.699
   33SOL    HW2  999   0.963   4.435   4.792
   34SOL     OW 1000   2.496   6.717   4.894
   34SOL    HW1 1001   2.539   6.787   4.951
   34SOL    HW2 1002   2.453   6.761   4.815
   35SOL     OW 1003   4.851   3.054   5.967
   35SOL    HW1 1004   4.893   3.067   5.877
   35SOL    HW2 1005   4.885   2.969   6.008
   36SOL     OW 1006   4.844   2.040   4.591
   36SOL    HW1 1007   4.821   2.056   4.687
   36SOL    HW2 1008   4.763   2.009   4.541
   37SOL     OW 1009   1.211   1.559   5.549
   37SOL    HW1 1010   1.187   1.652   5.523
   37SOL    HW2 1011   1.299   1.535   5.508
   38SOL     OW 1012   0.642   5.397   2.670
   38SOL    HW1 1013   0.694   5.432   2.592
   38SOL    HW2 1014   0.696   5.407   2.753
   39SOL     OW 1015   6.281   4.411   6.334
   39SOL    HW1 1016   6.227   4.477   6.387
   39SOL    HW2 1017   6.285   4.439   6.239
   40SOL     OW 1018   4.692   1.827   0.579
   40SOL    HW1 1019   4.665   1.817   0.675
   40SOL    HW2 1020   4.625   1.882   0.531
   41SOL     OW 1021   6.760   4.468   3.706
   41SOL    HW1 1022   6.663   4.470   3.679
   41SOL    HW2 1023   6.813   4.422   3.634
   42SOL     OW 1024   3.052   5.373   3.928
   42SOL    HW1 1025   3.071   5.440   3.857
   42SOL    HW2 1026   3.095   5.286   3.905
   43SOL     OW 1027   4.956   6.896   5.678
   43SOL    HW1 1028   5.024   6.853   5.619
   43SOL    HW2 1029   4.876   6.921   5.624
   44SOL     OW 1030   4.714   2.320   5.964
   44SOL    HW1 1031   4.813   2.329   5.970
   44SOL    HW2 1032   4.671   2.410   5.975
   45SOL     OW 1033   4.705   4.993   1.205
   45SOL    HW1 1034   4.775   4.938   1.250
   45SOL    HW2 1035   4.615   4.970   1.242
   46SOL     OW 1036   0.696   2.772   3.820
   46SOL    HW1 1037   0.772   2.777   3.755
   46SOL    HW2 1038   0.723   2.814   3.907
   47SOL     OW 1039   4.712   4.160   1.143
   47SOL    HW1 1040   4.742   4.218   1.068
   47SOL    HW2 1041   4.615   4.138   1.131
   48SOL     OW 1042   6.659   2.529   6.100
   48SOL    HW1 1043   6.651   2.601   6.030
   48SOL    HW2 1044   6.615   2.560   6.184
   49SOL     OW 1045   5.900   3.321   2.542
   49SOL    HW1 1046   5.841   3.308   2.463
   49SOL    HW2 1047   5.995   3.327   2.512
   50SOL     OW 1048   5.472   1.041   4.930
   50SOL    HW1 1049   5.541   1.112   4.946
   50SOL    HW2 1050   5.466   0.982   5.011
   51SOL     OW 1051   2.434   6.587   3.256
   51SOL    HW1 1052   2.365   6.537   3.203
   51SOL    HW2 1053   2.493   6.637   3.193
   52SOL     OW 1054   6.113   2.822   2.308
   52SOL    HW1 1055   6.192   2.819   2.246
   52SOL    HW2 1056   6.141   2.789   2.398
   53SOL     OW 1057   4.099   1.177   3.791
   53SOL    HW1 1058   4.178   1.178   3.854
   53SOL    HW2 1059   4.128   1.211   3.702
   54SOL     OW 1060   4.981   5.341   0.871
   54SOL    HW1 1061   4.919   5.387   0.935
   54SOL    HW2 1062   5.054   5.296   0.923
   55SOL     OW 1063   1.985   2.786   5.746
   55SOL    HW1 1064   2.083   2.768   5.750
   55SOL    HW2 1065   1.935   2.710   5.789
   56SOL     OW 1066   0.201   0.574   1.444
   56SOL    HW1 1067   0.269   0.508   1.411
   56SOL    HW2 1068   0.239   0.628   1.519
   57SOL     OW 1069   4.302   0.954   1.109
   57SOL    HW1 1070   4.288   0.959   1.208
   57SOL    HW2 1071   4.307   1.047   1.072
   58SOL     OW 1072   1.098   0.117   5.115
   58SOL    HW1 1073   1.168   0.063   5.069
   58SOL    HW2 1074   1.077   0.198   5.061
   59SOL     OW 1075   0.283   2.625   6.149
   59SOL    HW1 1076   0.327   2.703   6.105
   59SOL    HW2 1077   0.238   2.655   6.233
   60SOL     OW 1078   5.300   2.636   4.339
   60SOL    HW1 1079   5.364   2.710   4.358
   60SOL    HW2 1080   5.208   2.665   4.364
   61SOL     OW 1081   6.384   2.128   4.236
   61SOL    HW1 1082   6.463   2.066   4.241
   61SOL    HW2 1083   6.406   2.214   4.283
   62SOL     OW 1084   1.978   0.798   1.829
   62SOL    HW1 1085   2.011   0.877   1.881
   62SOL    HW2 1086   1.882   0.810   1.806
   63SOL     OW 1087   5.007   0.563   4.324
   63SOL    HW1 1088   4.920   0.612   4.312
   63SOL    HW2 1089   5.025   0.551   4.421
   64SOL     OW 1090   0.136   3.021   5.820
   64SOL    HW1 1091   0.053   3.005   5.768
   64SOL    HW2 1092   0.184   2.934   5.834
   65SOL     OW 1093   0.694   4.433   6.509
   65SOL    HW1 1094   0.639   4.366   6.559
   65SOL    HW2 1095   0.634   4.503   6.471
   66SOL     OW 1096   3.525   0.747   3.929
   66SOL    HW1 1097   3.465   0.708   3.999
   66SOL    HW2 1098   3.485   0.729   3.839
   67SOL     OW 1099   6.623   2.355   5.894
   67SOL    HW1 1100   6.684   2.277   5.882
   67SOL    HW2 1101   6.650   2.407   5.975
   68SOL     OW 1102   0.098   1.373   7.012
   68SOL    HW1 1103   0.192   1.404   6.998
   68SOL    HW2 1104   0.038   1.451   0.010
   69SOL     OW 1105   0.837   3.009   6.181
   69SOL    HW1 1106   0.917   3.049   6.226
   69SOL    HW2 1107   0.815   3.063   6.100
   70SOL     OW 1108   4.931   4.598   4.211
   70SOL    HW1 1109   4.958   4.520   4.268
   70SOL    HW2 1110   5.006   4.664   4.208
   71SOL     OW 1111   4.273   2.248   3.352
   71SOL    HW1 1112   4.356   2.284   3.395
   71SOL    HW2 1113   4.269   2.276   3.257
   72SOL     OW 1114   1.444   1.096   3.524
   72SOL    HW1 1115   1.470   1.000   3.534
   72SOL    HW2 1116   1.363   1.114   3.580
   73SOL     OW 1117   3.741   0.321   1.482
   73SOL    HW1 1118   3.768   0.225   1.494
   73SOL    HW2 1119   3.744   0.345   1.385
   74SOL     OW 1120   3.701   0.540   6.936
   74SOL    HW1 1121   3.708   0.639   6.927
   74SOL    HW2 1122   3.790   0.502   6.962
   75SOL     OW 1123   4.491   0.376   1.310
   75SOL    HW1 1124   4.492   0.475   1.295
   75SOL    HW2 1125   4.401   0.348   1.343
   76SOL     OW 1126   2.876   3.190   0.997
   76SOL    HW1 1127   2.806   3.212   1.065
   76SOL    HW2 1128   2.833   3.141   0.921
   77SOL     OW 1129   1.040   0.425   3.520
   77SOL    HW1 1130   1.002   0.483   3.593
   77SOL    HW2 1131   1.002   0.454   3.432
   78SOL     OW 1132   5.095   1.555   0.474
   78SOL    HW1 1133   5.017   1.571   0.534
   78SOL    HW2 1134   5.086   1.613   0.392
   79SOL     OW 1135   3.337   5.596   1.268
   79SOL    HW1 1136   3.311   5.519   1.327
   79SOL    HW2 1137   3.368   5.561   1.179
   80SOL     OW 1138   4.770   1.056   3.489
   80SOL    HW1 1139   4.869   1.063   3.473
   80SOL    HW2 1140   4.746   1.107   3.572
   81SOL     OW 1141   2.299   0.105   2.387
   81SOL    HW1 1142   2.236   0.028   2.395
   81SOL    HW2 1143   2.388   0.072   2.357
   82SOL     OW 1144   5.679   5.233   0.905
   82SOL    HW1 1145   5.704   5.136   0.911
   82SOL    HW2 1146   5.615   5.246   0.829
   83SOL     OW 1147   0.162   7.021   0.542
   83SOL    HW1 1148   0.212   0.041   0.466
   83SOL    HW2 1149   0.081   0.055   0.562
   84SOL     OW 1150   6.308   3.196   2.817
   84SOL    HW1 1151   6.286   3.149   2.731
   84SOL    HW2 1152   6.233   3.258   2.841
   85SOL     OW 1153   1.854   1.463   3.046
   85SOL    HW1 1154   1.916   1.541   3.049
   85SOL    HW2 1155   1.805   1.455   3.133
   86SOL     OW 1156   0.438   1.471   6.374
   86SOL    HW1 1157   0.373   1.416   6.426
   86SOL    HW2 1158   0.504   1.513   6.436
   87SOL     OW 1159   5.030   4.151   0.860
   87SOL    HW1 1160   4.978   4.078   0.904
   87SOL    HW2 1161   5.012   4.151   0.761
   88SOL     OW 1162   3.078   1.597   6.468
   88SOL    HW1 1163   2.993   1.638   6.437
   88SOL    HW2 1164   3.109   1.529   6.401
   89SOL     OW 1165   2.587   2.974   6.924
   89SOL    HW1 1166   2.563   2.904   6.992
   89SOL    HW2 1167   2.660   3.032   6.959
   90SOL     OW 1168   3.893   5.678   2.296
   90SOL    HW1 1169   3.942   5.594   2.318
   90SOL    HW2 1170   3.927   5.752   2.354
   91SOL     OW 1171   6.506   4.005   6.105
   91SOL    HW1 1172   6.464   4.034   6.019
   91SOL    HW2 1173   6.539   4.085   6.155
   92SOL     OW 1174   4.725   4.309   1.378
   92SOL    HW1 1175   4.712   4.229   1.319
   92SOL    HW2 1176   4.798   4.290   1.443
   93SOL     OW 1177   3.196   3.627   0.430
   93SOL    HW1 1178   3.174   3.706   0.373
   93SOL    HW2 1179   3.184   3.650   0.526
   94SOL     OW 1180   3.004   5.578   6.934
   94SOL    HW1 1181   3.089   5.590   6.986
   94SOL    HW2 1182   2.985   5.662   6.883
   95SOL     OW 1183   2.134   1.132   2.431
   95SOL    HW1 1184   2.044   1.167   2.454
   95SOL    HW2 1185   2.138   1.033   2.449
   96SOL     OW 1186   3.906   6.641   5.183
   96SOL    HW1 1187   3.982   6.608   5.126
   96SOL    HW2 1188   3.928   6.733   5.216
   97SOL     OW 1189   2.292   3.010   6.193
   97SOL    HW1 1190   2.336   2.928   6.228
   97SOL    HW2 1191   2.349   3.053   6.124
   98SOL     OW 1192   1.070   2.402   0.701
   98SOL    HW1 1193   1.059   2.419   0.799
   98SOL    HW2 1194   1.064   2.303   0.683
   99SOL     OW 1195   4.593   3.580   1.694
   99SOL    HW1 1196   4.499   3.553   1.670
   99SOL    HW2 1197   4.658   3.524   1.643
  100SOL     OW 1198   0.876   6.218   3.467
  100SOL    HW1 1199   0.777   6.205   3.473
  100SOL    HW2 1200   0.910   6.255   3.554
  101SOL     OW 1201   1.110   4.632   2.077
  101SOL    HW1 1202   1.140   4.557   2.018
  101SOL    HW2 1203   1.101   4.716   2.023
  102SOL     OW 1204   3.134   5.354   2.231
  102SOL    HW1 1205   3.205   5.336   2.299
  102SOL    HW2 1206   3.087   5.269   2.207
  103SOL     OW 1207   2.426   1.914   1.915
  103SOL    HW1 1208   2.344   1.855   1.914
  103SOL    HW2 1209   2.403   2.002   1.873
  104SOL     OW 1210   1.126   5.785   2.568
  104SOL    HW1 1211   1.164   5.845   2.638
  104SOL    HW2 1212   1.084   5.840   2.496
  105SOL     OW 1213   5.904   1.179   6.172
  105SOL    HW1 1214   5.872   1.118   6.244
  105SOL    HW2 1215   5.931   1.267   6.212
  106SOL     OW 1216   3.535   5.800   3.551
  106SOL    HW1 1217   3.528   5.797   3.451
  106SOL    HW2 1218   3.585   5.883   3.578
  107SOL     OW 1219   0.643   1.062   6.885
  107SOL    HW1 1220   0.543   1.069   6.884
  107SOL    HW2 1221   0.669   0.967   6.902
  108SOL     OW 1222   3.978   6.581   5.969
  108SOL    HW1 1223   3.929   6.668   5.966
  108SOL    HW2 1224   3.927   6.516   6.025
  109SOL     OW 1225   2.796   1.419   2.879
  109SOL    HW1 1226   2.853   1.400   2.800
  109SOL    HW2 1227   2.820   1.356   2.953
  110SOL     OW 1228   3.217   4.953   4.340
  110SOL    HW1 1229   3.316   4.943   4.346
  110SOL    HW2 1230   3.195   5.040   4.295
  111SOL     OW 1231   2.343   0.991   3.810
  111SOL    HW1 1232   2.432   0.947   3.817
  111SOL    HW2 1233   2.312   0.989   3.715
  112SOL     OW 1234   3.309   5.742   0.289
  112SOL    HW1 1235   3.233   5.804   0.266
  112SOL    HW2 1236   3.282   5.685   0.367
  113SOL     OW 1237   0.932   6.295   2.699
  113SOL    HW1 1238   0.876   6.279   2.618
  113SOL    HW2 1239   0.886   6.256   2.779
  114SOL     OW 1240   0.710   6.410   1.202
  114SOL    HW1 1241   0.675   6.444   1.289
  114SOL    HW2 1242   0.795   6.359   1.218
  115SOL     OW 1243   4.926   0.774   2.984
  115SOL    HW1 1244   4.908   0.749   2.889
  115SOL    HW2 1245   5.023   0.759   3.004
  116SOL     OW 1246   6.891   6.264   1.089
  116SOL    HW1 1247   6.802   6.307   1.077
  116SOL    HW2 1248   6.937   6.302   1.170
  117SOL     OW 1249   6.755   1.729   1.029
  117SOL    HW1 1250   6.852   1.726   1.054
  117SOL    HW2 1251   6.745   1.770   0.939
  118SOL     OW 1252   1.648   1.231   2.345
  118SOL    HW1 1253   1.667   1.317   2.298
  118SOL    HW2 1254   1.687   1.155   2.291
  119SOL     OW 1255   0.398   0.186   6.934
  119SOL    HW1 1256   0.343   0.183   6.851
  119SOL    HW2 1257   0.350   0.238   7.005
  120SOL     OW 1258   5.138   1.449   5.621
  120SOL    HW1 1259   5.050   1.401   5.620
  120SOL    HW2 1260   5.210   1.385   5.594
  121SOL     OW 1261   1.463   3.075   0.522
  121SOL    HW1 1262   1.393   3.031   0.466
  121SOL    HW2 1263   1.541   3.013   0.531
  122SOL     OW 1264   1.434   4.181   0.193
  122SOL    HW1 1265   1.469   4.104   0.140
  122SOL    HW2 1266   1.337   4.192   0.177
  123SOL     OW 1267   1.402   2.013   2.846
  123SOL    HW1 1268   1.353   1.959   2.777
  123SOL    HW2 1269   1.345   2.020   2.928
  124SOL     OW 1270   3.732   2.770   0.730
  124SOL    HW1 1271   3.656   2.834   0.733
  124SOL    HW2 1272   3.814   2.814   0.768
  125SOL     OW 1273   3.960   2.333   0.646
  125SOL    HW1 1274   4.049   2.347   0.688
  125SOL    HW2 1275   3.949   2.395   0.568
  126SOL     OW 1276   3.544   3.577   1.984
  126SOL    HW1 1277   3.465   3.632   2.014
  126SOL    HW2 1278   3.583   3.616   1.901
  127SOL     OW 1279   0.898   4.951   6.463
  127SOL    HW1 1280   0.913   4.858   6.431
  127SOL    HW2 1281   0.907   5.015   6.386
  128SOL     OW 1282   4.790   3.176   1.221
  128SOL    HW1 1283   4.709   3.144   1.270
  128SOL    HW2 1284   4.844   3.234   1.282
  129SOL     OW 1285   2.823   3.476   6.720
  129SOL    HW1 1286   2.896   3.479   6.789
  129SOL    HW2 1287   2.743   3.429   6.757
  130SOL     OW 1288   1.147   1.308   4.396
  130SOL    HW1 1289   1.092   1.229   4.422
  130SOL    HW2 1290   1.111   1.347   4.312
  131SOL     OW 1291   4.825   0.721   3.249
  131SOL    HW1 1292   4.871   0.701   3.336
  131SOL    HW2 1293   4.864   0.664   3.177
  132SOL     OW 1294   2.833   2.383   1.670
  132SOL    HW1 1295   2.764   2.451   1.643
  132SOL    HW2 1296   2.869   2.407   1.760
  133SOL     OW 1297   5.077   1.218   4.536
  133SOL    HW1 1298   5.023   1.135   4.519
  133SOL    HW2 1299   5.144   1.199   4.608
  134SOL     OW 1300   0.239   1.096   2.620
  134SOL    HW1 1301   0.156   1.150   2.637
  134SOL    HW2 1302   0.216   0.999   2.626
  135SOL     OW 1303   4.900   3.621   4.313
  135SOL    HW1 1304   4.905   3.530   4.270
  135SOL    HW2 1305   4.886   3.690   4.242
  136SOL     OW 1306   1.389   4.986   5.497
  136SOL    HW1 1307   1.485   5.003   5.522
  136SOL    HW2 1308   1.373   5.022   5.405
  137SOL     OW 1309   4.265   1.462   3.335
  137SOL    HW1 1310   4.190   1.525   3.311
  137SOL    HW2 1311   4.337   1.470   3.267
  138SOL     OW 1312   1.246   3.946   2.860
  138SOL    HW1 1313   1.203   3.861   2.828
  138SOL    HW2 1314   1.283   3.996   2.782
  139SOL     OW 1315   2.267   6.408   5.280
  139SOL    HW1 1316   2.341   6.351   5.244
  139SOL    HW2 1317   2.233   6.468   5.207
  140SOL     OW 1318   1.968   6.801   3.798
  140SOL    HW1 1319   2.003   6.710   3.773
  140SOL    HW2 1320   1.880   6.816   3.754
  141SOL     OW 1321   0.139   2.454   4.908
  141SOL    HW1 1322   0.052   2.407   4.923
  141SOL    HW2 1323   0.203   2.429   4.981
  142SOL     OW 1324   2.129   3.695   2.177
  142SOL    HW1 1325   2.056   3.739   2.124
  142SOL    HW2 1326   2.196   3.656   2.115
  143SOL     OW 1327   5.594   5.129   0.618
  143SOL    HW1 1328   5.588   5.227   0.635
  143SOL    HW2 1329   5.558   5.109   0.527
  144SOL     OW 1330   1.983   4.421   5.675
  144SOL    HW1 1331   2.028   4.510   5.669
  144SOL    HW2 1332   2.012   4.375   5.758
  145SOL     OW 1333   1.560   4.877   1.909
  145SOL    HW1 1334   1.506   4.961   1.916
  145SOL    HW2 1335   1.657   4.898   1.916
  146SOL     OW 1336   5.353   0.429   6.353
  146SOL    HW1 1337   5.396   0.437   6.443
  146SOL    HW2 1338   5.257   0.457   6.360
  147SOL     OW 1339   5.647   1.787   6.149
  147SOL    HW1 1340   5.621   1.733   6.070
  147SOL    HW2 1341   5.585   1.865   6.158
  148SOL     OW 1342   6.876   5.671   1.414
  148SOL    HW1 1343   6.918   5.582   1.399
  148SOL    HW2 1344   6.947   5.738   1.436
  149SOL     OW 1345   3.696   1.925   5.078
  149SOL    HW1 1346   3.623   1.959   5.138
  149SOL    HW2 1347   3.783   1.969   5.103
  150SOL     OW 1348   5.649   6.918   6.697
  150SOL    HW1 1349   5.636   7.006   6.651
  150SOL    HW2 1350   5.648   6.844   6.630
  151SOL     OW 1351   3.411   0.499   1.318
  151SOL    HW1 1352   3.377   0.544   1.235
  151SOL    HW2 1353   3.339   0.499   1.387
  152SOL     OW 1354   0.030   1.767   0.988
  152SOL    HW1 1355   0.094   1.710   1.041
  152SOL    HW2 1356   0.062   1.774   0.894
  153SOL     OW 1357   2.766   6.848   3.222
  153SOL    HW1 1358   2.668   6.826   3.213
  153SOL    HW2 1359   2.820   6.767   3.199
  154SOL     OW 1360   0.713   3.412   0.632
  154SOL    HW1 1361   0.719   3.492   0.572
  154SOL    HW2 1362   0.777   3.342   0.602
  155SOL     OW 1363   1.113   1.083   4.187
  155SOL    HW1 1364   1.187   1.017   4.172
  155SOL    HW2 1365   1.025   1.034   4.189
  156SOL     OW 1366   6.793   0.867   0.736
  156SOL    HW1 1367   6.767   0.909   0.649
  156SOL    HW2 1368   6.727   0.795   0.759
  157SOL     OW 1369   5.720   4.019   0.458
  157SOL    HW1 1370   5.786   3.982   0.393
  157SOL    HW2 1371   5.768   4.050   0.540
  158SOL     OW 1372   1.510   2.959   1.798
  158SOL    HW1 1373   1.426   2.905   1.792
  158SOL    HW2 1374   1.540   2.963   1.893
  159SOL     OW 1375   4.273   4.803   1.662
  159SOL    HW1 1376   4.275   4.775   1.759
  159SOL    HW2 1377   4.333   4.743   1.609
  160SOL     OW 1378   5.583   6.854   0.766
  160SOL    HW1 1379   5.515   6.782   0.784
  160SOL    HW2 1380   5.661   6.843   0.828
  161SOL     OW 1381   1.416   0.458   3.093
  161SOL    HW1 1382   1.397   0.555   3.079
  161SOL    HW2 1383   1.499   0.433   3.043
  162SOL     OW 1384   3.889   6.064   0.417
  162SOL    HW1 1385   3.836   6.033   0.339
  162SOL    HW2 1386   3.942   6.145   0.391
  163SOL     OW 1387   6.826   5.846   2.184
  163SOL    HW1 1388   6.836   5.746   2.187
  163SOL    HW2 1389   6.760   5.871   2.113
  164SOL     OW 1390   1.195   4.088   3.367
  164SOL    HW1 1391   1.249   4.161   3.323
  164SOL    HW2 1392   1.104   4.122   3.388
  165SOL     OW 1393   4.939   3.976   6.917
  165SOL    HW1 1394   4.981   4.048   6.972
  165SOL    HW2 1395   4.981   3.973   6.827
  166SOL     OW 1396   0.942   3.062   2.307
  166SOL    HW1 1397   0.874   3.117   2.259
  166SOL    HW2 1398   0.965   3.105   2.394
  167SOL     OW 1399   5.752   2.112   6.946
  167SOL    HW1 1400   5.763   2.175   0.001
  167SOL    HW2 1401   5.748   2.164   6.860
  168SOL     OW 1402   3.586   1.834   0.631
  168SOL    HW1 1403   3.656   1.881   0.577
  168SOL    HW2 1404   3.601   1.851   0.728
  169SOL     OW 1405   6.416   2.448   0.879
  169SOL    HW1 1406   6.329   2.401   0.891
  169SOL    HW2 1407   6.400   2.547   0.882
  170SOL     OW 1408   6.897   6.613   2.627
  170SOL    HW1 1409   6.924   6.587   2.534
  170SOL    HW2 1410   6.977   6.606   2.687
  171SOL     OW 1411   2.682   4.774   6.952
  171SOL    HW1 1412   2.654   4.829   6.873
  171SOL    HW2 1413   2.714   4.834   0.003
  172SOL     OW 1414   6.170   1.659   3.460
  172SOL    HW1 1415   6.231   1.587   3.425
  172SOL    HW2 1416   6.214   1.705   3.537
  173SOL     OW 1417   5.852   1.233   3.797
  173SOL    HW1 1418   5.865   1.302   3.726
  173SOL    HW2 1419   5.906   1.152   3.775
  174SOL     OW 1420   4.188   5.035   3.954
  174SOL    HW1 1421   4.173   5.123   3.909
  174SOL    HW2 1422   4.137   4.963   3.907
  175SOL     OW 1423   3.300   0.634   1.105
  175SOL    HW1 1424   3.206   0.649   1.135
  175SOL    HW2 1425   3.299   0.576   1.023
  176SOL     OW 1426   6.377   4.640   2.192
  176SOL    HW1 1427   6.354   4.737   2.187
  176SOL    HW2 1428   6.302   4.586   2.155
  177SOL     OW 1429   5.261   3.133   4.104
  177SOL    HW1 1430   5.274   3.231   4.119
  177SOL    HW2 1431   5.164   3.115   4.085
  178SOL     OW 1432   3.222   4.181   5.320
  178SOL    HW1 1433   3.209   4.150   5.226
  178SOL    HW2 1434   3.292   4.124   5.364
  179SOL     OW 1435   3.780   1.181   6.467
  179SOL    HW1 1436   3.794   1.267   6.516
  179SOL    HW2 1437   3.775   1.199   6.369
  180SOL     OW 1438   1.926   0.141   0.928
  180SOL    HW1 1439   1.939   0.108   1.022
  180SOL    HW2 1440   1.962   0.234   0.920
  181SOL     OW 1441   3.041   3.441   6.060
  181SOL    HW1 1442   3.083   3.416   6.148
  181SOL    HW2 1443   2.946   3.410   6.059
  182SOL     OW 1444   3.957   1.905   6.042
  182SOL    HW1 1445   3.943   1.839   6.115
  182SOL    HW2 1446   4.036   1.963   6.063
  183SOL     OW 1447   3.248   1.738   3.319
  183SOL    HW1 1448   3.234   1.837   3.322
  183SOL    HW2 1449   3.260   1.709   3.224
  184SOL     OW 1450   0.337   6.375   3.916
  184SOL    HW1 1451   0.307   6.422   3.833
  184SOL    HW2 1452   0.296   6.418   3.996
  185SOL     OW 1453   1.349   1.318   4.806
  185SOL    HW1 1454   1.349   1.250   4.880
  185SOL    HW2 1455   1.343   1.271   4.718
  186SOL     OW 1456   6.322   1.416   4.106
  186SOL    HW1 1457   6.233   1.454   4.131
  186SOL    HW2 1458   6.362   1.370   4.185
  187SOL     OW 1459   5.230   6.614   2.247
  187SOL    HW1 1460   5.236   6.537   2.311
  187SOL    HW2 1461   5.139   6.655   2.252
  188SOL     OW 1462   1.161   3.439   3.727
  188SOL    HW1 1463   1.246   3.473   3.687
  188SOL    HW2 1464   1.118   3.375   3.664
  189SOL     OW 1465   1.591   5.701   0.187
  189SOL    HW1 1466   1.527   5.726   0.115
  189SOL    HW2 1467   1.650   5.779   0.208
  190SOL     OW 1468   6.382   4.375   5.539
  190SOL    HW1 1469   6.335   4.324   5.467
  190SOL    HW2 1470   6.473   4.402   5.507
  191SOL     OW 1471   6.111   0.585   0.026
  191SOL    HW1 1472   6.193   0.638   0.049
  191SOL    HW2 1473   6.048   0.588   0.103
  192SOL     OW 1474   0.730   5.309   1.680
  192SOL    HW1 1475   0.634   5.317   1.707
  192SOL    HW2 1476   0.772   5.231   1.727
  193SOL     OW 1477   4.797   3.725   5.374
  193SOL    HW1 1478   4.895   3.707   5.381
  193SOL    HW2 1479   4.763   3.694   5.285
  194SOL     OW 1480   3.780   6.635   3.446
  194SOL    HW1 1481   3.796   6.692   3.527
  194SOL    HW2 1482   3.696   6.665   3.401
  195SOL     OW 1483   1.396   1.162   4.554
  195SOL    HW1 1484   1.409   1.070   4.518
  195SOL    HW2 1485   1.332   1.213   4.495
  196SOL     OW 1486   2.310   0.163   6.536
  196SOL    HW1 1487   2.353   0.146   6.625
  196SOL    HW2 1488   2.266   0.253   6.537
  197SOL     OW 1489   2.798   0.041   1.373
  197SOL    HW1 1490   2.883   0.000   1.341
  197SOL    HW2 1491   2.722   0.013   1.314
  198SOL     OW 1492   4.629   6.385   2.005
  198SOL    HW1 1493   4.592   6.325   1.934
  198SOL    HW2 1494   4.553   6.424   2.058
  199SOL     OW 1495   6.594   1.221   3.941
  199SOL    HW1 1496   6.586   1.321   3.939
  199SOL    HW2 1497   6.661   1.192   3.873
  200SOL     OW 1498   0.916   4.533   1.780
  200SOL    HW1 1499   0.851   4.526   1.855
  200SOL    HW2 1500   0.892   4.466   1.709
  201SOL     OW 1501   5.439   0.033   6.164
  201SOL    HW1 1502   5.508   7.021   6.228
  201SOL    HW2 1503   5.351   0.041   6.212
  202SOL     OW 1504   5.217   0.604   5.427
  202SOL    HW1 1505   5.160   0.644   5.355
  202SOL    HW2 1506   5.207   0.505   5.427
  203SOL     OW 1507   4.622   2.560   4.667
  203SOL    HW1 1508   4.642   2.636   4.605
  203SOL    HW2 1509   4.597   2.595   4.757
  204SOL     OW 1510   6.387   0.458   6.414
  204SOL    HW1 1511   6.323   0.506   6.355
  204SOL    HW2 1512   6.474   0.445   6.366
  205SOL     OW 1513   0.790   0.720   3.075
  205SOL    HW1 1514   0.693   0.705   3.059
  205SOL    HW2 1515   0.803   0.797   3.137
  206SOL     OW 1516   0.308   5.271   2.120
  206SOL    HW1 1517   0.287   5.336   2.048
  206SOL    HW2 1518   0.348   5.320   2.198
  207SOL     OW 1519   4.293   0.546   4.158
  207SOL    HW1 1520   4.295   0.597   4.245
  207SOL    HW2 1521   4.373   0.571   4.104
  208SOL     OW 1522   5.247   3.786   5.740
  208SOL    HW1 1523   5.177   3.748   5.800
  208SOL    HW2 1524   5.284   3.713   5.682
  209SOL     OW 1525   0.802   4.962   4.691
  209SOL    HW1 1526   0.834   4.990   4.601
  209SOL    HW2 1527   0.737   4.887   4.682
  210SOL     OW 1528   4.197   2.107   1.390
  210SOL    HW1 1529   4.107   2.147   1.404
  210SOL    HW2 1530   4.221   2.109   1.293
  211SOL     OW 1531   1.631   6.445   3.252
  211SOL    HW1 1532   1.698   6.513   3.284
  211SOL    HW2 1533   1.544   6.461   3.298
  212SOL     OW 1534   1.260   4.493   1.324
  212SOL    HW1 1535   1.309   4.406   1.321
  212SOL    HW2 1536   1.221   4.506   1.415
  213SOL     OW 1537   3.695   1.096   5.792
  213SOL    HW1 1538   3.675   1.170   5.856
  213SOL    HW2 1539   3.687   1.129   5.698
  214SOL     OW 1540   4.280   5.534   1.728
  214SOL    HW1 1541   4.314   5.620   1.766
  214SOL    HW2 1542   4.254   5.547   1.632
  215SOL     OW 1543   2.428   4.185   1.193
  215SOL    HW1 1544   2.351   4.214   1.250
  215SOL    HW2 1545   2.399   4.185   1.097
  216SOL     OW 1546   1.982   5.867   4.558
  216SOL    HW1 1547   2.073   5.873   4.517
  216SOL    HW2 1548   1.915   5.846   4.488
  217SOL     OW 1549   2.337   2.789   3.509
  217SOL    HW1 1550   2.319   2.875   3.556
  217SOL    HW2 1551   2.255   2.758   3.462
  218SOL     OW 1552   1.115   2.569   4.481
  218SOL    HW1 1553   1.029   2.619   4.483
  218SOL    HW2 1554   1.186   2.620   4.530
  219SOL     OW 1555   3.400   6.737   5.698
  219SOL    HW1 1556   3.377   6.645   5.667
  219SOL    HW2 1557   3.493   6.737   5.736
  220SOL     OW 1558   3.928   6.659   0.151
  220SOL    HW1 1559   3.934   6.706   0.063
  220SOL    HW2 1560   4.017   6.618   0.173
  221SOL     OW 1561   6.622   3.982   2.916
  221SOL    HW1 1562   6.623   4.040   2.997
  221SOL    HW2 1563   6.692   3.911   2.925
  222SOL     OW 1564   2.744   4.975   5.616
  222SOL    HW1 1565   2.843   4.981   5.613
  222SOL    HW2 1566   2.713   4.902   5.554
  223SOL     OW 1567   5.916   3.692   1.187
  223SOL    HW1 1568   5.878   3.752   1.257
  223SOL    HW2 1569   5.842   3.662   1.126
  224SOL     OW 1570   2.641   1.720   4.039
  224SOL    HW1 1571   2.733   1.727   4.001
  224SOL    HW2 1572   2.574   1.725   3.964
  225SOL     OW 1573   5.995   1.992   5.399
  225SOL    HW1 1574   5.981   1.994   5.300
  225SOL    HW2 1575   5.914   1.953   5.443
  226SOL     OW 1576   1.831   0.541   6.078
  226SOL    HW1 1577   1.889   0.488   6.140
  226SOL    HW2 1578   1.846   0.638   6.093
  227SOL     OW 1579   1.595   4.063   2.590
  227SOL    HW1 1580   1.667   4.022   2.646
  227SOL    HW2 1581   1.594   4.019   2.500
  228SOL     OW 1582   3.415   6.101   3.740
  228SOL    HW1 1583   3.478   6.058   3.806
  228SOL    HW2 1584   3.335   6.136   3.788
  229SOL     OW 1585   5.015   5.940   0.458
  229SOL    HW1 1586   4.959   6.023   0.448
  229SOL    HW2 1587   5.019   5.893   0.371
  230SOL     OW 1588   2.673   4.854   2.554
  230SOL    HW1 1589   2.630   4.776   2.600
  230SOL    HW2 1590   2.772   4.841   2.554
  231SOL     OW 1591   6.489   1.564   6.699
  231SOL    HW1 1592   6.428   1.571   6.777
  231SOL    HW2 1593   6.463   1.631   6.630
  232SOL     OW 1594   1.216   3.978   6.096
  232SOL    HW1 1595   1.154   4.020   6.162
  232SOL    HW2 1596   1.271   4.049   6.052
  233SOL     OW 1597   2.282   1.448   4.424
  233SOL    HW1 1598   2.189   1.454   4.461
  233SOL    HW2 1599   2.290   1.366   4.367
  234SOL     OW 1600   4.251   6.170   5.232
  234SOL    HW1 1601   4.348   6.175   5.256
  234SOL    HW2 1602   4.198   6.230   5.293
  235SOL     OW 1603   3.094   3.010   1.570
  235SOL    HW1 1604   3.063   3.105   1.562
  235SOL    HW2 1605   3.185   3.001   1.530
  236SOL     OW 1606   5.669   2.609   6.288
  236SOL    HW1 1607   5.586   2.664   6.277
  236SOL    HW2 1608   5.742   2.666   6.327
  237SOL     OW 1609   6.361   5.954   1.927
  237SOL    HW1 1610   6.346   5.890   2.002
  237SOL    HW2 1611   6.389   5.903   1.845
  238SOL     OW 1612   6.025   2.071   0.209
  238SOL    HW1 1613   5.995   2.166   0.216
  238SOL    HW2 1614   6.025   2.043   0.113
  239SOL     OW 1615   0.312   5.669   6.295
  239SOL    HW1 1616   0.267   5.585   6.323
  239SOL    HW2 1617   0.394   5.647   6.242
  240SOL     OW 1618   0.667   2.678   5.523
  240SOL    HW1 1619   0.742   2.627   5.564
  240SOL    HW2 1620   0.584   2.667   5.578
  241SOL     OW 1621   1.624   6.884   4.941
  241SOL    HW1 1622   1.549   6.846   4.886
  241SOL    HW2 1623   1.711   6.866   4.896
  242SOL     OW 1624   2.976   3.083   5.670
  242SOL    HW1 1625   3.074   3.099   5.657
  242SOL    HW2 1626   2.930   3.087   5.581
  243SOL     OW 1627   4.745   0.803   5.939
  243SOL    HW1 1628   4.696   0.889   5.953
  243SOL    HW2 1629   4.756   0.757   6.027
  244SOL     OW 1630   5.043   2.735   4.420
  244SOL    HW1 1631   5.008   2.829   4.410
  244SOL    HW2 1632   5.011   2.697   4.507
  245SOL     OW 1633   0.246   3.074   5.296
  245SOL    HW1 1634   0.309   3.024   5.237
  245SOL    HW2 1635   0.188   3.133   5.240
  246SOL     OW 1636   4.919   2.351   2.647
  246SOL    HW1 1637   4.861   2.421   2.688
  246SOL    HW2 1638   4.872   2.263   2.648
  247SOL     OW 1639   2.856   0.936   1.957
  247SOL    HW1 1640   2.881   0.857   1.901
  247SOL    HW2 1641   2.889   1.020   1.912
  248SOL     OW 1642   3.976   1.534   3.661
  248SOL    HW1 1643   3.955   1.486   3.746
  248SOL    HW2 1644   3.954   1.631   3.671
  249SOL     OW 1645   4.543   0.156   6.154
  249SOL    HW1 1646   4.515   0.202   6.238
  249SOL    HW2 1647   4.574   0.224   6.087
  250SOL     OW 1648   5.382   2.523   0.446
  250SOL    HW1 1649   5.452   2.505   0.515
  250SOL    HW2 1650   5.331   2.438   0.428
  251SOL     OW 1651   4.613   4.302   6.303
  251SOL    HW1 1652   4.677   4.225   6.293
  251SOL    HW2 1653   4.526   4.279   6.259
  252SOL     OW 1654   5.688   0.446   6.738
  252SOL    HW1 1655   5.787   0.442   6.744
  252SOL    HW2 1656   5.652   0.505   6.810
  253SOL     OW 1657   1.982   4.608   6.882
  253SOL    HW1 1658   1.928   4.532   6.845
  253SOL    HW2 1659   1.966   4.690   6.827
  254SOL     OW 1660   5.398   3.546   3.257
  254SOL    HW1 1661   5.333   3.590   3.195
  254SOL    HW2 1662   5.425   3.458   3.220
  255SOL     OW 1663   1.610   3.248   4.540
  255SOL    HW1 1664   1.669   3.319   4.577
  255SOL    HW2 1665   1.636   3.159   4.578
  256SOL     OW 1666   6.110   4.634   6.419
  256SOL    HW1 1667   6.068   4.675   6.500
  256SOL    HW2 1668   6.039   4.595   6.361
  257SOL     OW 1669   4.309   6.610   4.524
  257SOL    HW1 1670   4.215   6.581   4.547
  257SOL    HW2 1671   4.335   6.570   4.436
  258SOL     OW 1672   6.005   5.107   4.928
  258SOL    HW1 1673   5.995   5.081   4.832
  258SOL    HW2 1674   6.087   5.164   4.939
  259SOL     OW 1675   1.661   2.783   2.309
  259SOL    HW1 1676   1.714   2.777   2.224
  259SOL    HW2 1677   1.708   2.844   2.373
  260SOL     OW 1678   3.894   0.787   0.866
  260SOL    HW1 1679   3.808   0.837   0.880
  260SOL    HW2 1680   3.967   0.852   0.847
  261SOL     OW 1681   0.117   3.810   1.329
  261SOL    HW1 1682   0.066   3.804   1.244
  261SOL    HW2 1683   0.113   3.904   1.364
  262SOL     OW 1684   0.553   4.116   1.389
  262SOL    HW1 1685   0.454   4.126   1.376
  262SOL    HW2 1686   0.571   4.079   1.480
  263SOL     OW 1687   1.056   1.631   3.914
  263SOL    HW1 1688   1.096   1.709   3.866
  263SOL    HW2 1689   1.082   1.546   3.868
  264SOL     OW 1690   4.820   4.105   5.814
  264SOL    HW1 1691   4.750   4.177   5.806
  264SOL    HW2 1692   4.801   4.033   5.747
  265SOL     OW 1693   4.575   4.560   3.604
  265SOL    HW1 1694   4.647   4.557   3.673
  265SOL    HW2 1695   4.488   4.582   3.648
  266SOL     OW 1696   3.728   3.681   5.744
  266SOL    HW1 1697   3.649   3.656   5.800
  266SOL    HW2 1698   3.717   3.775   5.712
  267SOL     OW 1699   6.111   2.556   5.911
  267SOL    HW1 1700   6.197   2.604   5.928
  267SOL    HW2 1701   6.127   2.483   5.845
  268SOL     OW 1702   4.434   6.754   5.423
  268SOL    HW1 1703   4.510   6.777   5.483
  268SOL    HW2 1704   4.462   6.765   5.327
  269SOL     OW 1705   1.882   3.176   0.717
  269SOL    HW1 1706   1.843   3.206   0.630
  269SOL    HW2 1707   1.945   3.245   0.751
  270SOL     OW 1708   6.472   7.016   1.641
  270SOL    HW1 1709   6.439   6.921   1.640
  270SOL    HW2 1710   6.510   0.017   1.551
  271SOL     OW 1711   2.446   2.564   0.664
  271SOL    HW1 1712   2.364   2.534   0.711
  271SOL    HW2 1713   2.445   2.531   0.570
  272SOL     OW 1714   3.240   5.182   3.860
  272SOL    HW1 1715   3.324   5.138   3.891
  272SOL    HW2 1716   3.255   5.222   3.770
  273SOL     OW 1717   1.858   4.977   5.083
  273SOL    HW1 1718   1.912   5.053   5.120
  273SOL    HW2 1719   1.920   4.904   5.052
  274SOL     OW 1720   4.497   2.522   3.992
  274SOL    HW1 1721   4.497   2.449   4.060
  274SOL    HW2 1722   4.514   2.610   4.036
  275SOL     OW 1723   5.876   5.698   6.271
  275SOL    HW1 1724   5.812   5.730   6.341
  275SOL    HW2 1725   5.902   5.603   6.289
  276SOL     OW 1726   0.600   5.185   3.596
  276SOL    HW1 1727   0.666   5.246   3.639
  276SOL    HW2 1728   0.603   5.096   3.641
  277SOL     OW 1729   2.392   3.260   0.882
  277SOL    HW1 1730   2.475   3.213   0.913
  277SOL    HW2 1731   2.368   3.332   0.948
  278SOL     OW 1732   0.226   5.007   1.398
  278SOL    HW1 1733   0.256   4.917   1.431
  278SOL    HW2 1734   0.229   5.073   1.474
  279SOL     OW 1735   0.262   2.932   4.434
  279SOL    HW1 1736   0.355   2.954   4.466
  279SOL    HW2 1737   0.261   2.839   4.398
  280SOL     OW 1738   2.979   6.793   2.985
  280SOL    HW1 1739   2.918   6.716   3.003
  280SOL    HW2 1740   2.931   6.862   2.931
  281SOL     OW 1741   3.582   4.967   2.188
  281SOL    HW1 1742   3.498   4.997   2.142
  281SOL    HW2 1743   3.613   4.881   2.147
  282SOL     OW 1744   3.926   2.062   5.119
  282SOL    HW1 1745   4.007   2.069   5.061
  282SOL    HW2 1746   3.925   2.136   5.186
  283SOL     OW 1747   6.816   1.037   6.103
  283SOL    HW1 1748   6.801   0.951   6.152
  283SOL    HW2 1749   6.908   1.070   6.120
  284SOL     OW 1750   0.281   4.662   4.943
  284SOL    HW1 1751   0.268   4.752   4.903
  284SOL    HW2 1752   0.216   4.649   5.019
  285SOL     OW 1753   5.647   5.554   6.552
  285SOL    HW1 1754   5.741   5.586   6.543
  285SOL    HW2 1755   5.642   5.458   6.527
  286SOL     OW 1756   3.559   4.903   4.835
  286SOL    HW1 1757   3.637   4.957   4.867
  286SOL    HW2 1758   3.563   4.811   4.874
  287SOL     OW 1759   0.536   4.895   6.243
  287SOL    HW1 1760   0.596   4.974   6.258
  287SOL    HW2 1761   0.592   4.814   6.227
  288SOL     OW 1762   4.255   2.402   0.195
  288SOL    HW1 1763   4.236   2.476   0.131
  288SOL    HW2 1764   4.301   2.438   0.276
  289SOL     OW 1765   0.201   5.515   5.019
  289SOL    HW1 1766   0.234   5.444   5.081
  289SOL    HW2 1767   0.114   5.485   4.979
  290SOL     OW 1768   5.109   1.822   3.833
  290SOL    HW1 1769   5.152   1.908   3.803
  290SOL    HW2 1770   5.037   1.843   3.899
  291SOL     OW 1771   3.557   0.611   4.498
  291SOL    HW1 1772   3.523   0.583   4.588
  291SOL    HW2 1773   3.552   0.533   4.435
  292SOL     OW 1774   4.034   1.974   2.794
  292SOL    HW1 1775   4.090   1.898   2.760
  292SOL    HW2 1776   4.071   2.060   2.759
  293SOL     OW 1777   4.371   5.246   2.140
  293SOL    HW1 1778   4.289   5.297   2.163
  293SOL    HW2 1779   4.388   5.253   2.041
  294SOL     OW 1780   7.002   5.426   6.641
  294SOL    HW1 1781   6.985   5.403   6.546
  294SOL    HW2 1782   6.982   5.346   6.699
  295SOL     OW 1783   3.402   1.261   5.031
  295SOL    HW1 1784   3.303   1.250   5.035
  295SOL    HW2 1785   3.435   1.296   5.118
  296SOL     OW 1786   5.947   1.721   2.128
  296SOL    HW1 1787   5.851   1.737   2.148
  296SOL    HW2 1788   5.986   1.801   2.082
  297SOL     OW 1789   3.145   4.837   2.523
  297SOL    HW1 1790   3.087   4.829   2.603
  297SOL    HW2 1791   3.220   4.771   2.528
  298SOL     OW 1792   3.469   6.669   0.557
  298SOL    HW1 1793   3.451   6.768   0.561
  298SOL    HW2 1794   3.448   6.628   0.646
  299SOL     OW 1795   4.842   2.489   6.985
  299SOL    HW1 1796   4.769   2.533   6.932
  299SOL    HW2 1797   4.916   2.554   7.001
  300SOL     OW 1798   5.009   1.097   1.477
  300SOL    HW1 1799   5.007   1.057   1.385
  300SOL    HW2 1800   4.959   1.184   1.477
  301SOL     OW 1801   5.019   2.757   0.989
  301SOL    HW1 1802   4.987   2.830   1.050
  301SOL    HW2 1803   5.102   2.716   1.026
  302SOL     OW 1804   6.990   0.731   3.611
  302SOL    HW1 1805   6.938   0.784   3.678
  302SOL    HW2 1806   0.023   0.793   3.555
  303SOL     OW 1807   6.699   6.834   2.528
  303SOL    HW1 1808   6.772   6.862   2.465
  303SOL    HW2 1809   6.737   6.782   2.604
  304SOL     OW 1810   2.280   6.219   5.746
  304SOL    HW1 1811   2.259   6.315   5.764
  304SOL    HW2 1812   2.317   6.209   5.654
  305SOL     OW 1813   1.408   2.297   0.690
  305SOL    HW1 1814   1.325   2.248   0.663
  305SOL    HW2 1815   1.396   2.336   0.781
  306SOL     OW 1816   1.636   0.981   3.233
  306SOL    HW1 1817   1.561   1.029   3.187
  306SOL    HW2 1818   1.646   1.016   3.326
  307SOL     OW 1819   4.845   5.017   0.634
  307SOL    HW1 1820   4.791   4.934   0.640
  307SOL    HW2 1821   4.796   5.093   0.677
  308SOL     OW 1822   5.857   3.146   4.749
  308SOL    HW1 1823   5.842   3.052   4.720
  308SOL    HW2 1824   5.793   3.207   4.702
  309SOL     OW 1825   2.119   6.001   0.558
  309SOL    HW1 1826   2.050   5.978   0.626
  309SOL    HW2 1827   2.208   5.965   0.587
  310SOL     OW 1828   5.173   6.372   5.633
  310SOL    HW1 1829   5.212   6.294   5.680
  310SOL    HW2 1830   5.213   6.380   5.542
  311SOL     OW 1831   3.832   5.310   3.092
  311SOL    HW1 1832   3.905   5.250   3.124
  311SOL    HW2 1833   3.744   5.267   3.110
  312SOL     OW 1834   4.539   1.019   4.093
  312SOL    HW1 1835   4.508   1.014   4.188
  312SOL    HW2 1836   4.638   1.026   4.090
  313SOL     OW 1837   3.118   3.102   2.309
  313SOL    HW1 1838   3.145   3.009   2.334
  313SOL    HW2 1839   3.102   3.107   2.211
  314SOL     OW 1840   2.779   4.524   6.996
  314SOL    HW1 1841   2.768   4.624   6.992
  314SOL    HW2 1842   2.715   4.481   6.934
  315SOL     OW 1843   1.368   3.005   4.054
  315SOL    HW1 1844   1.329   2.981   4.143
  315SOL    HW2 1845   1.399   2.923   4.008
  316SOL     OW 1846   2.664   1.224   4.709
  316SOL    HW1 1847   2.633   1.166   4.634
  316SOL    HW2 1848   2.674   1.318   4.677
  317SOL     OW 1849   0.005   1.645   1.280
  317SOL    HW1 1850   6.996   1.739   1.291
  317SOL    HW2 1851   6.961   1.595   1.224
  318SOL     OW 1852   0.623   5.466   6.663
  318SOL    HW1 1853   0.539   5.520   6.655
  318SOL    HW2 1854   0.690   5.516   6.718
  319SOL     OW 1855   6.359   1.408   3.704
  319SOL    HW1 1856   6.322   1.317   3.724
  319SOL    HW2 1857   6.457   1.410   3.725
  320SOL     OW 1858   6.371   2.844   0.949
  320SOL    HW1 1859   6.368   2.796   0.861
  320SOL    HW2 1860   6.426   2.792   1.014
  321SOL     OW 1861   3.083   1.169   7.012
  321SOL    HW1 1862   3.009   1.153   6.947
  321SOL    HW2 1863   3.078   1.263   0.025
  322SOL     OW 1864   2.975   3.161   3.693
  322SOL    HW1 1865   2.889   3.207   3.673
  322SOL    HW2 1866   2.991   3.159   3.792
  323SOL     OW 1867   1.312   3.073   6.131
  323SOL    HW1 1868   1.348   3.130   6.057
  323SOL    HW2 1869   1.365   2.988   6.137
  324SOL     OW 1870   2.778   0.828   3.593
  324SOL    HW1 1871   2.761   0.770   3.513
  324SOL    HW2 1872   2.833   0.907   3.565
  325SOL     OW 1873   0.608   2.383   2.022
  325SOL    HW1 1874   0.512   2.366   1.998
  325SOL    HW2 1875   0.624   2.350   2.115
  326SOL     OW 1876   1.198   5.151   6.559
  326SOL    HW1 1877   1.269   5.194   6.615
  326SOL    HW2 1878   1.241   5.103   6.482
  327SOL     OW 1879   1.602   4.563   2.252
  327SOL    HW1 1880   1.533   4.522   2.312
  327SOL    HW2 1881   1.688   4.572   2.301
  328SOL     OW 1882   1.273   5.735   1.977
  328SOL    HW1 1883   1.312   5.818   1.937
  328SOL    HW2 1884   1.234   5.678   1.904
  329SOL     OW 1885   3.192   2.945   4.255
  329SOL    HW1 1886   3.192   2.928   4.156
  329SOL    HW2 1887   3.285   2.938   4.290
  330SOL     OW 1888   3.454   6.045   1.423
  330SOL    HW1 1889   3.366   6.044   1.470
  330SOL    HW2 1890   3.452   6.113   1.350
  331SOL     OW 1891   3.929   5.746   0.374
  331SOL    HW1 1892   3.954   5.656   0.409
  331SOL    HW2 1893   3.985   5.816   0.419
  332SOL     OW 1894   4.863   2.119   5.418
  332SOL    HW1 1895   4.852   2.138   5.321
  332SOL    HW2 1896   4.954   2.148   5.448
  333SOL     OW 1897   3.818   0.410   6.116
  333SOL    HW1 1898   3.771   0.404   6.205
  333SOL    HW2 1899   3.902   0.357   6.119
  334SOL     OW 1900   3.159   1.194   1.020
  334SOL    HW1 1901   3.102   1.206   0.939
  334SOL    HW2 1902   3.109   1.140   1.088
  335SOL     OW 1903   4.308   6.566   5.660
  335SOL    HW1 1904   4.220   6.603   5.691
  335SOL    HW2 1905   4.310   6.564   5.560
  336SOL     OW 1906   2.950   1.116   3.789
  336SOL    HW1 1907   3.041   1.082   3.815
  336SOL    HW2 1908   2.951   1.142   3.692
  337SOL     OW 1909   0.501   2.650   6.399
  337SOL    HW1 1910   0.518   2.742   6.361
  337SOL    HW2 1911   0.582   2.621   6.451
  338SOL     OW 1912   2.992   2.577   1.469
  338SOL    HW1 1913   2.941   2.662   1.454
  338SOL    HW2 1914   2.942   2.500   1.430
  339SOL     OW 1915   4.264   5.897   4.330
  339SOL    HW1 1916   4.164   5.901   4.323
  339SOL    HW2 1917   4.304   5.932   4.246
  340SOL     OW 1918   4.649   4.318   4.900
  340SOL    HW1 1919   4.713   4.242   4.893
  340SOL    HW2 1920   4.662   4.365   4.987
  341SOL     OW 1921   6.289   0.014   4.575
  341SOL    HW1 1922   6.195   7.005   4.561
  341SOL    HW2 1923   6.320   0.066   4.495
  342SOL     OW 1924   6.611   3.245   0.312
  342SOL    HW1 1925   6.627   3.150   0.339
  342SOL    HW2 1926   6.638   3.257   0.217
  343SOL     OW 1927   1.835   5.810   1.307
  343SOL    HW1 1928   1.796   5.727   1.269
  343SOL    HW2 1929   1.855   5.797   1.404
  344SOL     OW 1930   1.417   3.326   1.823
  344SOL    HW1 1931   1.467   3.348   1.906
  344SOL    HW2 1932   1.323   3.359   1.831
  345SOL     OW 1933   4.341   1.783   3.008
  345SOL    HW1 1934   4.406   1.784   3.084
  345SOL    HW2 1935   4.360   1.861   2.948
  346SOL     OW 1936   2.145   1.082   2.878
  346SOL    HW1 1937   2.115   1.139   2.955
  346SOL    HW2 1938   2.110   0.989   2.890
  347SOL     OW 1939   2.741   5.863   6.479
  347SOL    HW1 1940   2.758   5.960   6.491
  347SOL    HW2 1941   2.828   5.815   6.469
  348SOL     OW 1942   5.426   4.219   2.252
  348SOL    HW1 1943   5.458   4.278   2.326
  348SOL    HW2 1944   5.326   4.221   2.248
  349SOL     OW 1945   6.447   5.763   0.982
  349SOL    HW1 1946   6.437   5.692   0.912
  349SOL    HW2 1947   6.364   5.818   0.986
  350SOL     OW 1948   3.232   3.148   0.713
  350SOL    HW1 1949   3.135   3.158   0.691
  350SOL    HW2 1950   3.245   3.070   0.774
  351SOL     OW 1951   1.909   3.512   1.457
  351SOL    HW1 1952   1.820   3.466   1.461
  351SOL    HW2 1953   1.895   3.610   1.442
  352SOL     OW 1954   3.000   0.103   4.639
  352SOL    HW1 1955   2.937   0.179   4.622
  352SOL    HW2 1956   3.073   0.104   4.570
  353SOL     OW 1957   2.233   0.112   0.754
  353SOL    HW1 1958   2.248   0.211   0.764
  353SOL    HW2 1959   2.211   0.073   0.843
  354SOL     OW 1960   3.873   2.434   1.053
  354SOL    HW1 1961   3.799   2.454   0.990
  354SOL    HW2 1962   3.870   2.497   1.131
  355SOL     OW 1963   1.418   3.453   2.275
  355SOL    HW1 1964   1.366   3.369   2.288
  355SOL    HW2 1965   1.356   3.528   2.252
  356SOL     OW 1966   2.918   6.869   6.243
  356SOL    HW1 1967   2.867   6.904   6.321
  356SOL    HW2 1968   2.857   6.816   6.184
  357SOL     OW 1969   6.562   5.746   5.948
  357SOL    HW1 1970   6.492   5.674   5.952
  357SOL    HW2 1971   6.541   5.816   6.016
  358SOL     OW 1972   4.350   6.360   0.414
  358SOL    HW1 1973   4.402   6.392   0.493
  358SOL    HW2 1974   4.400   6.382   0.330
  359SOL     OW 1975   2.204   2.268   1.646
  359SOL    HW1 1976   2.201   2.269   1.546
  359SOL    HW2 1977   2.276   2.207   1.677
  360SOL     OW 1978   1.291   4.739   6.092
  360SOL    HW1 1979   1.357   4.734   6.167
  360SOL    HW2 1980   1.287   4.650   6.046
  361SOL     OW 1981   6.233   6.494   2.907
  361SOL    HW1 1982   6.275   6.584   2.909
  361SOL    HW2 1983   6.304   6.424   2.911
  362SOL     OW 1984   3.451   3.094   1.046
  362SOL    HW1 1985   3.374   3.048   1.090
  362SOL    HW2 1986   3.430   3.192   1.037
  363SOL     OW 1987   5.124   4.060   3.390
  363SOL    HW1 1988   5.041   4.036   3.340
  363SOL    HW2 1989   5.179   3.978   3.405
  364SOL     OW 1990   6.830   5.075   0.006
  364SOL    HW1 1991   6.754   5.099   0.066
  364SOL    HW2 1992   6.897   5.021   0.056
  365SOL     OW 1993   6.090   5.809   1.779
  365SOL    HW1 1994   6.164   5.752   1.813
  365SOL    HW2 1995   6.111   5.905   1.798
  366SOL     OW 1996   5.381   0.659   6.097
  366SOL    HW1 1997   5.346   0.748   6.126
  366SOL    HW2 1998   5.305   0.593   6.092
  367SOL     OW 1999   5.678   3.340   1.280
  367SOL    HW1 2000   5.620   3.264   1.249
  367SOL    HW2 2001   5.682   3.410   1.209
  368SOL     OW 2002   0.151   2.928   4.718
  368SOL    HW1 2003   0.159   2.951   4.815
  368SOL    HW2 2004   0.177   3.007   4.663
  369SOL     OW 2005   6.224   5.400   2.379
  369SOL    HW1 2006   6.172   5.346   2.444
  369SOL    HW2 2007   6.164   5.467   2.336
  370SOL     OW 2008   2.186   1.454   5.415
  370SOL    HW1 2009   2.122   1.471   5.490
  370SOL    HW2 2010   2.202   1.355   5.408
  371SOL     OW 2011   2.260   3.784   6.016
  371SOL    HW1 2012   2.319   3.850   6.062
  371SOL    HW2 2013   2.175   3.774   6.067
  372SOL     OW 2014   1.040   6.887   5.908
  372SOL    HW1 2015   1.096   6.914   5.986
  372SOL    HW2 2016   0.968   6.824   5.938
  373SOL     OW 2017   6.222   6.627   4.359
  373SOL    HW1 2018   6.177   6.711   4.328
  373SOL    HW2 2019   6.204   6.614   4.457
  374SOL     OW 2020   2.977   1.929   3.703
  374SOL    HW1 2021   3.074   1.947   3.723
  374SOL    HW2 2022   2.938   1.874   3.777
  375SOL     OW 2023   0.830   4.346   4.492
  375SOL    HW1 2024   0.915   4.295   4.477
  375SOL    HW2 2025   0.787   4.315   4.576
  376SOL     OW 2026   2.781   1.177   5.286
  376SOL    HW1 2027   2.824   1.239   5.220
  376SOL    HW2 2028   2.682   1.182   5.276
  377SOL     OW 2029   1.414   2.131   1.370
  377SOL    HW1 2030   1.449   2.057   1.428
  377SOL    HW2 2031   1.487   2.162   1.309
  378SOL     OW 2032   4.732   2.744   6.561
  378SOL    HW1 2033   4.819   2.788   6.585
  378SOL    HW2 2034   4.656   2.805   6.585
  379SOL     OW 2035   6.584   3.434   1.093
  379SOL    HW1 2036   6.558   3.524   1.128
  379SOL    HW2 2037   6.550   3.363   1.154
  380SOL     OW 2038   2.178   1.152   0.363
  380SOL    HW1 2039   2.224   1.071   0.398
  380SOL    HW2 2040   2.087   1.160   0.405
  381SOL     OW 2041   1.328   4.112   2.685
  381SOL    HW1 2042   1.425   4.137   2.688
  381SOL    HW2 2043   1.297   4.112   2.590
  382SOL     OW 2044   5.891   0.271   6.551
  382SOL    HW1 2045   5.903   0.267   6.452
  382SOL    HW2 2046   5.798   0.242   6.574
  383SOL     OW 2047   4.084   3.904   6.069
  383SOL    HW1 2048   4.109   3.927   6.163
  383SOL    HW2 2049   4.029   3.821   6.069
  384SOL     OW 2050   6.778   5.867   4.148
  384SOL    HW1 2051   6.822   5.871   4.238
  384SOL    HW2 2052   6.787   5.775   4.111
  385SOL     OW 2053   3.499   5.139   5.570
  385SOL    HW1 2054   3.448   5.081   5.507
  385SOL    HW2 2055   3.537   5.217   5.520
  386SOL     OW 2056   1.964   6.975   5.269
  386SOL    HW1 2057   1.987   0.042   5.310
  386SOL    HW2 2058   1.869   6.952   5.291
  387SOL     OW 2059   1.105   6.967   2.959
  387SOL    HW1 2060   1.050   6.918   2.891
  387SOL    HW2 2061   1.073   0.040   2.967
  388SOL     OW 2062   1.194   1.751   4.887
  388SOL    HW1 2063   1.146   1.727   4.971
  388SOL    HW2 2064   1.262   1.681   4.866
  389SOL     OW 2065   3.995   4.233   1.497
  389SOL    HW1 2066   3.936   4.302   1.456
  389SOL    HW2 2067   4.063   4.277   1.555
  390SOL     OW 2068   3.208   1.090   0.207
  390SOL    HW1 2069   3.300   1.127   0.205
  390SOL    HW2 2070   3.153   1.133   0.135
  391SOL     OW 2071   2.216   3.032   6.459
  391SOL    HW1 2072   2.241   3.020   6.363
  391SOL    HW2 2073   2.198   2.942   6.499
  392SOL     OW 2074   1.367   4.255   0.618
  392SOL    HW1 2075   1.313   4.197   0.557
  392SOL    HW2 2076   1.361   4.350   0.587
  393SOL     OW 2077   1.638   4.499   6.229
  393SOL    HW1 2078   1.701   4.442   6.282
  393SOL    HW2 2079   1.645   4.594   6.260
  394SOL     OW 2080   0.013   2.325   0.674
  394SOL    HW1 2081   0.085   2.375   0.625
  394SOL    HW2 2082   6.947   2.369   0.658
  395SOL     OW 2083   5.316   4.047   3.148
  395SOL    HW1 2084   5.247   4.077   3.214
  395SOL    HW2 2085   5.407   4.067   3.184
  396SOL     OW 2086   2.900   3.693   1.871
  396SOL    HW1 2087   2.967   3.762   1.898
  396SOL    HW2 2088   2.886   3.629   1.946
  397SOL     OW 2089   6.028   1.993   5.924
  397SOL    HW1 2090   6.011   2.010   6.021
  397SOL    HW2 2091   6.123   1.965   5.911
  398SOL     OW 2092   1.593   0.348   2.898
  398SOL    HW1 2093   1.584   0.385   2.805
  398SOL    HW2 2094   1.591   0.248   2.893
  399SOL     OW 2095   5.340   6.207   2.545
  399SOL    HW1 2096   5.440   6.212   2.547
  399SOL    HW2 2097   5.303   6.236   2.633
  400SOL     OW 2098   6.397   6.427   5.581
  400SOL    HW1 2099   6.310   6.476   5.585
  400SOL    HW2 2100   6.406   6.369   5.662
  401SOL     OW 2101   5.687   0.044   6.376
  401SOL    HW1 2102   5.636   0.069   6.458
  401SOL    HW2 2103   5.737   0.124   6.341
  402SOL     OW 2104   6.281   0.238   3.981
  402SOL    HW1 2105   6.194   0.189   3.971
  402SOL    HW2 2106   6.355   0.172   3.997
  403SOL     OW 2107   4.028   1.396   4.663
  403SOL    HW1 2108   4.007   1.316   4.719
  403SOL    HW2 2109   3.944   1.448   4.644
  404SOL     OW 2110   1.532   5.314   3.902
  404SOL    HW1 2111   1.592   5.331   3.825
  404SOL    HW2 2112   1.574   5.246   3.963
  405SOL     OW 2113   2.202   2.904   2.547
  405SOL    HW1 2114   2.295   2.930   2.520
  405SOL    HW2 2115   2.138   2.930   2.475
  406SOL     OW 2116   1.022   4.821   4.839
  406SOL    HW1 2117   1.065   4.834   4.929
  406SOL    HW2 2118   0.953   4.892   4.825
  407SOL     OW 2119   0.350   1.047   4.540
  407SOL    HW1 2120   0.362   1.107   4.461
  407SOL    HW2 2121   0.395   1.089   4.619
  408SOL     OW 2122   2.227   2.045   3.161
  408SOL    HW1 2123   2.180   2.033   3.074
  408SOL    HW2 2124   2.253   2.142   3.172
  409SOL     OW 2125   6.656   3.315   2.333
  409SOL    HW1 2126   6.710   3.232   2.315
  409SOL    HW2 2127   6.622   3.313   2.427
  410SOL     OW 2128   1.281   1.490   1.069
  410SOL    HW1 2129   1.313   1.411   1.121
  410SOL    HW2 2130   1.216   1.459   1.000
  411SOL     OW 2131   6.582   0.902   1.581
  411SOL    HW1 2132   6.580   0.995   1.544
  411SOL    HW2 2133   6.676   0.868   1.580
  412SOL     OW 2134   3.027   5.877   3.213
  412SOL    HW1 2135   3.052   5.833   3.299
  412SOL    HW2 2136   3.109   5.918   3.172
  413SOL     OW 2137   5.948   3.873   1.975
  413SOL    HW1 2138   6.023   3.890   2.039
  413SOL    HW2 2139   5.948   3.776   1.950
  414SOL     OW 2140   3.271   5.172   3.265
  414SOL    HW1 2141   3.201   5.207   3.203
  414SOL    HW2 2142   3.290   5.241   3.335
  415SOL     OW 2143   1.003   6.209   6.277
  415SOL    HW1 2144   0.987   6.129   6.336
  415SOL    HW2 2145   0.927   6.219   6.214
  416SOL     OW 2146   4.707   6.206   4.752
  416SOL    HW1 2147   4.671   6.298   4.733
  416SOL    HW2 2148   4.728   6.160   4.666
  417SOL     OW 2149   2.217   5.976   5.885
  417SOL    HW1 2150   2.242   6.065   5.846
  417SOL    HW2 2151   2.216   5.907   5.813
  418SOL     OW 2152   4.106   6.664   6.532
  418SOL    HW1 2153   4.033   6.721   6.570
  418SOL    HW2 2154   4.108   6.576   6.580
  419SOL     OW 2155   1.641   6.465   1.769
  419SOL    HW1 2156   1.696   6.545   1.747
  419SOL    HW2 2157   1.557   6.466   1.715
  420SOL     OW 2158   6.118   1.583   0.383
  420SOL    HW1 2159   6.103   1.490   0.348
  420SOL    HW2 2160   6.069   1.648   0.325
  421SOL     OW 2161   6.713   4.051   5.030
  421SOL    HW1 2162   6.714   3.955   5.057
  421SOL    HW2 2163   6.776   4.066   4.954
  422SOL     OW 2164   5.369   3.705   1.288
  422SOL    HW1 2165   5.443   3.679   1.349
  422SOL    HW2 2166   5.292   3.642   1.300
  423SOL     OW 2167   0.864   2.585   6.176
  423SOL    HW1 2168   0.936   2.576   6.108
  423SOL    HW2 2169   0.899   2.559   6.266
  424SOL     OW 2170   1.250   5.095   1.012
  424SOL    HW1 2171   1.231   5.032   1.087
  424SOL    HW2 2172   1.267   5.187   1.048
  425SOL     OW 2173   4.863   1.939   3.648
  425SOL    HW1 2174   4.873   1.955   3.549
  425SOL    HW2 2175   4.870   1.841   3.666
  426SOL     OW 2176   2.775   1.950   4.401
  426SOL    HW1 2177   2.784   1.941   4.500
  426SOL    HW2 2178   2.705   1.886   4.369
  427SOL     OW 2179   5.516   6.771   3.932
  427SOL    HW1 2180   5.531   6.809   3.841
  427SOL    HW2 2181   5.564   6.684   3.941
  428SOL     OW 2182   4.440   6.887   3.392
  428SOL    HW1 2183   4.491   6.971   3.374
  428SOL    HW2 2184   4.369   6.905   3.460
  429SOL     OW 2185   0.828   5.015   2.839
  429SOL    HW1 2186   0.729   4.997   2.836
  429SOL    HW2 2187   0.862   5.028   2.746
  430SOL     OW 2188   1.485   6.812   4.149
  430SOL    HW1 2189   1.571   6.765   4.128
  430SOL    HW2 2190   1.461   6.798   4.245
  431SOL     OW 2191   2.713   0.601   1.157
  431SOL    HW1 2192   2.655   0.680   1.139
  431SOL    HW2 2193   2.795   0.607   1.101
  432SOL     OW 2194   6.374   2.552   1.172
  432SOL    HW1 2195   6.442   2.624   1.155
  432SOL    HW2 2196   6.417   2.476   1.221
  433SOL     OW 2197   1.889   6.767   4.839
  433SOL    HW1 2198   1.956   6.803   4.905
  433SOL    HW2 2199   1.913   6.798   4.747
  434SOL     OW 2200   3.760   5.356   3.629
  434SOL    HW1 2201   3.769   5.454   3.646
  434SOL    HW2 2202   3.849   5.312   3.642
  435SOL     OW 2203   4.663   2.274   6.645
  435SOL    HW1 2204   4.685   2.270   6.743
  435SOL    HW2 2205   4.731   2.222   6.594
  436SOL     OW 2206   3.224   4.745   1.603
  436SOL    HW1 2207   3.178   4.725   1.516
  436SOL    HW2 2208   3.158   4.782   1.668
  437SOL     OW 2209   0.406   1.378   6.075
  437SOL    HW1 2210   0.460   1.389   6.158
  437SOL    HW2 2211   0.342   1.455   6.067
  438SOL     OW 2212   2.174   3.781   4.210
  438SOL    HW1 2213   2.116   3.861   4.200
  438SOL    HW2 2214   2.222   3.763   4.123
  439SOL     OW 2215   6.290   6.138   2.386
  439SOL    HW1 2216   6.347   6.219   2.376
  439SOL    HW2 2217   6.349   6.057   2.393
  440SOL     OW 2218   2.547   2.177   5.278
  440SOL    HW1 2219   2.597   2.091   5.286
  440SOL    HW2 2220   2.556   2.213   5.185
  441SOL     OW 2221   0.327   3.139   3.705
  441SOL    HW1 2222   0.256   3.199   3.740
  441SOL    HW2 2223   0.397   3.124   3.775
  442SOL     OW 2224   3.804   6.031   5.474
  442SOL    HW1 2225   3.819   6.006   5.570
  442SOL    HW2 2226   3.887   6.073   5.437
  443SOL     OW 2227   5.699   4.453   4.162
  443SOL    HW1 2228   5.696   4.366   4.212
  443SOL    HW2 2229   5.760   4.516   4.208
  444SOL     OW 2230   5.007   1.107   6.232
  444SOL    HW1 2231   4.995   1.059   6.145
  444SOL    HW2 2232   4.966   1.053   6.306
  445SOL     OW 2233   1.711   5.715   2.696
  445SOL    HW1 2234   1.805   5.726   2.664
  445SOL    HW2 2235   1.698   5.623   2.732
  446SOL     OW 2236   3.936   4.904   3.142
  446SOL    HW1 2237   3.868   4.909   3.069
  446SOL    HW2 2238   4.017   4.856   3.109
  447SOL     OW 2239   0.004   3.166   6.032
  447SOL    HW1 2240   6.966   3.243   6.010
  447SOL    HW2 2241   0.028   3.118   5.947
  448SOL     OW 2242   2.285   0.677   2.872
  448SOL    HW1 2243   2.260   0.602   2.811
  448SOL    HW2 2244   2.202   0.724   2.902
  449SOL     OW 2245   2.601   1.277   4.041
  449SOL    HW1 2246   2.664   1.205   4.013
  449SOL    HW2 2247   2.569   1.326   3.960
  450SOL     OW 2248   1.487   4.774   3.360
  450SOL    HW1 2249   1.434   4.742   3.438
  450SOL    HW2 2250   1.574   4.811   3.391
  451SOL     OW 2251   1.470   2.462   4.924
  451SOL    HW1 2252   1.405   2.414   4.865
  451SOL    HW2 2253   1.551   2.486   4.871
  452SOL     OW 2254   5.332   6.724   0.597
  452SOL    HW1 2255   5.249   6.668   0.598
  452SOL    HW2 2256   5.317   6.807   0.651
  453SOL     OW 2257   3.600   0.700   6.669
  453SOL    HW1 2258   3.529   0.680   6.602
  453SOL    HW2 2259   3.559   0.746   6.748
  454SOL     OW 2260   0.060   4.139   6.141
  454SOL    HW1 2261   6.996   4.167   6.183
  454SOL    HW2 2262   0.064   4.040   6.135
  455SOL     OW 2263   5.424   2.461   4.520
  455SOL    HW1 2264   5.379   2.538   4.474
  455SOL    HW2 2265   5.390   2.376   4.481
  456SOL     OW 2266   0.502   0.287   3.845
  456SOL    HW1 2267   0.490   0.268   3.943
  456SOL    HW2 2268   0.593   0.324   3.829
  457SOL     OW 2269   1.719   3.812   5.025
  457SOL    HW1 2270   1.698   3.720   4.993
  457SOL    HW2 2271   1.782   3.856   4.961
  458SOL     OW 2272   3.252   5.981   2.673
  458SOL    HW1 2273   3.272   6.060   2.730
  458SOL    HW2 2274   3.161   5.991   2.633
  459SOL     OW 2275   2.563   6.754   6.326
  459SOL    HW1 2276   2.509   6.781   6.246
  459SOL    HW2 2277   2.613   6.834   6.360
  460SOL     OW 2278   2.058   6.890   4.255
  460SOL    HW1 2279   2.123   6.965   4.267
  460SOL    HW2 2280   1.999   6.884   4.336
  461SOL     OW 2281   6.825   5.496   5.725
  461SOL    HW1 2282   6.888   5.424   5.755
  461SOL    HW2 2283   6.810   5.560   5.800
  462SOL     OW 2284   4.042   3.422   6.574
  462SOL    HW1 2285   4.052   3.374   6.486
  462SOL    HW2 2286   3.945   3.427   6.597
  463SOL     OW 2287   6.458   6.120   4.032
  463SOL    HW1 2288   6.533   6.185   4.045
  463SOL    HW2 2289   6.495   6.029   4.014
  464SOL     OW 2290   2.850   0.877   5.345
  464SOL    HW1 2291   2.794   0.946   5.299
  464SOL    HW2 2292   2.929   0.922   5.388
  465SOL     OW 2293   0.604   2.192   0.304
  465SOL    HW1 2294   0.538   2.117   0.293
  465SOL    HW2 2295   0.678   2.179   0.238
  466SOL     OW 2296   2.076   6.345   3.881
  466SOL    HW1 2297   2.173   6.352   3.902
  466SOL    HW2 2298   2.057   6.258   3.835
  467SOL     OW 2299   1.840   1.435   1.969
  467SOL    HW1 2300   1.807   1.341   1.961
  467SOL    HW2 2301   1.929   1.444   1.926
  468SOL     OW 2302   3.363   6.289   5.240
  468SOL    HW1 2303   3.302   6.212   5.222
  468SOL    HW2 2304   3.452   6.271   5.198
  469SOL     OW 2305   2.598   3.545   6.245
  469SOL    HW1 2306   2.506   3.525   6.277
  469SOL    HW2 2307   2.659   3.555   6.324
  470SOL     OW 2308   4.430   6.229   0.806
  470SOL    HW1 2309   4.464   6.242   0.899
  470SOL    HW2 2310   4.448   6.135   0.777
  471SOL     OW 2311   2.498   2.653   4.069
  471SOL    HW1 2312   2.527   2.731   4.125
  471SOL    HW2 2313   2.401   2.635   4.085
  472SOL     OW 2314   5.483   4.483   6.526
  472SOL    HW1 2315   5.434   4.405   6.566
  472SOL    HW2 2316   5.576   4.484   6.563
  473SOL     OW 2317   1.265   1.898   2.618
  473SOL    HW1 2318   1.191   1.924   2.556
  473SOL    HW2 2319   1.330   1.840   2.570
  474SOL     OW 2320   5.340   5.695   4.540
  474SOL    HW1 2321   5.292   5.752   4.607
  474SOL    HW2 2322   5.435   5.685   4.568
  475SOL     OW 2323   6.565   2.626   0.169
  475SOL    HW1 2324   6.545   2.560   0.097
  475SOL    HW2 2325   6.652   2.672   0.148
  476SOL     OW 2326   0.199   3.779   2.205
  476SOL    HW1 2327   0.232   3.831   2.284
  476SOL    HW2 2328   0.173   3.687   2.234
  477SOL     OW 2329   2.584   5.813   2.921
  477SOL    HW1 2330   2.506   5.873   2.938
  477SOL    HW2 2331   2.566   5.722   2.959
  478SOL     OW 2332   4.167   6.454   2.779
  478SOL    HW1 2333   4.187   6.365   2.740
  478SOL    HW2 2334   4.234   6.476   2.850
  479SOL     OW 2335   3.448   3.541   5.092
  479SOL    HW1 2336   3.501   3.458   5.077
  479SOL    HW2 2337   3.498   3.620   5.055
  480SOL     OW 2338   2.411   0.444   1.023
  480SOL    HW1 2339   2.449   0.388   1.096
  480SOL    HW2 2340   2.363   0.523   1.062
  481SOL     OW 2341   0.999   6.473   1.499
  481SOL    HW1 2342   0.930   6.406   1.523
  481SOL    HW2 2343   1.034   6.517   1.582
  482SOL     OW 2344   4.518   4.578   2.349
  482SOL    HW1 2345   4.581   4.624   2.412
  482SOL    HW2 2346   4.520   4.479   2.367
  483SOL     OW 2347   6.302   1.929   2.843
  483SOL    HW1 2348   6.385   1.929   2.898
  483SOL    HW2 2349   6.224   1.957   2.900
  484SOL     OW 2350   1.678   3.731   5.464
  484SOL    HW1 2351   1.645   3.779   5.383
  484SOL    HW2 2352   1.732   3.652   5.436
  485SOL     OW 2353   4.182   4.771   2.692
  485SOL    HW1 2354   4.085   4.795   2.686
  485SOL    HW2 2355   4.215   4.745   2.601
  486SOL     OW 2356   6.667   1.180   0.089
  486SOL    HW1 2357   6.586   1.219   0.133
  486SOL    HW2 2358   6.675   1.216   7.017
  487SOL     OW 2359   0.735   0.344   3.097
  487SOL    HW1 2360   0.792   0.261   3.101
  487SOL    HW2 2361   0.724   0.372   3.002
  488SOL     OW 2362   1.211   0.671   2.734
  488SOL    HW1 2363   1.138   0.713   2.680
  488SOL    HW2 2364   1.173   0.638   2.821
  489SOL     OW 2365   5.133   5.969   5.592
  489SOL    HW1 2366   5.208   5.943   5.531
  489SOL    HW2 2367   5.171   6.008   5.676
  490SOL     OW 2368   1.582   6.179   3.520
  490SOL    HW1 2369   1.590   6.081   3.500
  490SOL    HW2 2370   1.645   6.230   3.461
  491SOL     OW 2371   1.289   2.773   1.848
  491SOL    HW1 2372   1.228   2.791   1.771
  491SOL    HW2 2373   1.247   2.805   1.933
  492SOL     OW 2374   1.153   0.899   5.769
  492SOL    HW1 2375   1.123   0.949   5.850
  492SOL    HW2 2376   1.111   0.938   5.688
  493SOL     OW 2377   3.588   6.425   5.623
  493SOL    HW1 2378   3.681   6.462   5.633
  493SOL    HW2 2379   3.563   6.375   5.705
  494SOL     OW 2380   1.276   6.799   6.327
  494SOL    HW1 2381   1.197   6.824   6.272
  494SOL    HW2 2382   1.246   6.743   6.404
  495SOL     OW 2383   4.273   5.677   3.663
  495SOL    HW1 2384   4.356   5.720   3.699
  495SOL    HW2 2385   4.289   5.578   3.653
  496SOL     OW 2386   5.569   3.061   1.925
  496SOL    HW1 2387   5.659   3.046   1.968
  496SOL    HW2 2388   5.514   2.979   1.935
  497SOL     OW 2389   3.381   1.267   4.667
  497SOL    HW1 2390   3.438   1.319   4.731
  497SOL    HW2 2391   3.323   1.204   4.719
  498SOL     OW 2392   0.510   5.228   2.541
  498SOL    HW1 2393   0.566   5.294   2.591
  498SOL    HW2 2394   0.454   5.176   2.605
  499SOL     OW 2395   1.789   5.395   4.762
  499SOL    HW1 2396   1.871   5.437   4.722
  499SOL    HW2 2397   1.801   5.296   4.766
  500SOL     OW 2398   6.482   2.619   6.294
  500SOL    HW1 2399   6.431   2.676   6.230
  500SOL    HW2 2400   6.419   2.577   6.359
  501SOL     OW 2401   4.045   6.986   0.792
  501SOL    HW1 2402   3.956   6.960   0.829
  501SOL    HW2 2403   4.034   0.037   0.725
  502SOL     OW 2404   0.719   4.759   5.895
  502SOL    HW1 2405   0.813   4.740   5.868
  502SOL    HW2 2406   0.670   4.673   5.912
  503SOL     OW 2407   0.443   4.706   6.728
  503SOL    HW1 2408   0.535   4.712   6.765
  503SOL    HW2 2409   0.437   4.761   6.645
  504SOL     OW 2410   0.819   5.475   2.451
  504SOL    HW1 2411   0.804   5.531   2.369
  504SOL    HW2 2412   0.908   5.498   2.491
  505SOL     OW 2413   3.579   6.140   4.683
  505SOL    HW1 2414   3.646   6.100   4.621
  505SOL    HW2 2415   3.584   6.093   4.771
  506SOL     OW 2416   3.731   5.382   2.750
  506SOL    HW1 2417   3.823   5.375   2.712
  506SOL    HW2 2418   3.730   5.453   2.821
  507SOL     OW 2419   3.491   6.464   2.845
  507SOL    HW1 2420   3.405   6.449   2.894
  507SOL    HW2 2421   3.473   6.513   2.760
  508SOL     OW 2422   0.031   3.394   3.091
  508SOL    HW1 2423   6.994   3.475   3.083
  508SOL    HW2 2424   0.125   3.423   3.106
  509SOL     OW 2425   3.110   1.545   0.922
  509SOL    HW1 2426   3.185   1.610   0.931
  509SOL    HW2 2427   3.073   1.524   1.013
  510SOL     OW 2428   6.127   3.884   0.047
  510SOL    HW1 2429   6.163   3.811   7.010
  510SOL    HW2 2430   6.033   3.864   0.071
  511SOL     OW 2431   0.545   2.877   6.268
  511SOL    HW1 2432   0.463   2.897   6.214
  511SOL    HW2 2433   0.598   2.961   6.281
  512SOL     OW 2434   0.213   1.916   6.697
  512SOL    HW1 2435   0.293   1.869   6.661
  512SOL    HW2 2436   0.216   2.012   6.671
  513SOL     OW 2437   5.535   6.987   3.314
  513SOL    HW1 2438   5.601   6.961   3.243
  513SOL    HW2 2439   5.572   6.964   3.404
  514SOL     OW 2440   6.535   0.348   4.560
  514SOL    HW1 2441   6.562   0.414   4.490
  514SOL    HW2 2442   6.455   0.383   4.609
  515SOL     OW 2443   1.030   0.864   1.092
  515SOL    HW1 2444   1.039   0.828   1.184
  515SOL    HW2 2445   0.942   0.839   1.054
  516SOL     OW 2446   2.538   4.659   2.094
  516SOL    HW1 2447   2.621   4.610   2.065
  516SOL    HW2 2448   2.564   4.744   2.140
  517SOL     OW 2449   3.354   4.917   2.012
  517SOL    HW1 2450   3.441   4.867   2.015
  517SOL    HW2 2451   3.372   5.013   1.990
  518SOL     OW 2452   2.162   2.163   3.779
  518SOL    HW1 2453   2.204   2.205   3.860
  518SOL    HW2 2454   2.108   2.232   3.730
  519SOL     OW 2455   0.810   6.521   3.282
  519SOL    HW1 2456   0.717   6.483   3.287
  519SOL    HW2 2457   0.855   6.488   3.200
  520SOL     OW 2458   6.351   3.329   6.617
  520SOL    HW1 2459   6.276   3.344   6.552
  520SOL    HW2 2460   6.419   3.269   6.576
  521SOL     OW 2461   6.808   6.484   5.348
  521SOL    HW1 2462   6.906   6.504   5.350
  521SOL    HW2 2463   6.785   6.425   5.425
  522SOL     OW 2464   3.710   3.352   4.057
  522SOL    HW1 2465   3.785   3.387   4.113
  522SOL    HW2 2466   3.731   3.365   3.961
  523SOL     OW 2467   0.108   6.119   1.507
  523SOL    HW1 2468   0.151   6.139   1.419
  523SOL    HW2 2469   0.009   6.127   1.497
  524SOL     OW 2470   1.280   2.405   2.976
  524SOL    HW1 2471   1.284   2.501   3.003
  524SOL    HW2 2472   1.358   2.356   3.014
  525SOL     OW 2473   2.259   4.155   6.279
  525SOL    HW1 2474   2.299   4.069   6.310
  525SOL    HW2 2475   2.264   4.161   6.180
  526SOL     OW 2476   3.631   6.358   3.960
  526SOL    HW1 2477   3.694   6.364   4.037
  526SOL    HW2 2478   3.542   6.327   3.992
  527SOL     OW 2479   0.054   3.119   0.660
  527SOL    HW1 2480   0.008   3.147   0.576
  527SOL    HW2 2481   0.148   3.093   0.640
  528SOL     OW 2482   1.755   2.267   3.368
  528SOL    HW1 2483   1.834   2.206   3.369
  528SOL    HW2 2484   1.686   2.232   3.305
  529SOL     OW 2485   1.961   6.214   4.969
  529SOL    HW1 2486   1.905   6.245   4.891
  529SOL    HW2 2487   2.016   6.135   4.940
  530SOL     OW 2488   4.126   3.468   3.513
  530SOL    HW1 2489   4.111   3.561   3.479
  530SOL    HW2 2490   4.049   3.410   3.486
  531SOL     OW 2491   0.543   1.954   2.810
  531SOL    HW1 2492   0.503   2.045   2.819
  531SOL    HW2 2493   0.641   1.963   2.789
  532SOL     OW 2494   0.750   2.296   0.535
  532SOL    HW1 2495   0.829   2.242   0.563
  532SOL    HW2 2496   0.699   2.246   0.464
  533SOL     OW 2497   4.355   6.890   3.087
  533SOL    HW1 2498   4.447   6.885   3.125
  533SOL    HW2 2499   4.313   6.799   3.089
  534SOL     OW 2500   5.183   5.975   2.539
  534SOL    HW1 2501   5.239   6.057   2.527
  534SOL    HW2 2502   5.196   5.940   2.632
  535SOL     OW 2503   6.705   3.553   3.870
  535SOL    HW1 2504   6.734   3.632   3.924
  535SOL    HW2 2505   6.614   3.524   3.900
  536SOL     OW 2506   5.791   4.527   2.859
  536SOL    HW1 2507   5.881   4.503   2.824
  536SOL    HW2 2508   5.746   4.445   2.895
  537SOL     OW 2509   3.149   6.863   4.809
  537SOL    HW1 2510   3.142   6.957   4.843
  537SOL    HW2 2511   3.194   6.863   4.720
  538SOL     OW 2512   0.839   4.309   4.168
  538SOL    HW1 2513   0.848   4.296   4.267
  538SOL    HW2 2514   0.852   4.405   4.145
  539SOL     OW 2515   1.769   4.751   1.226
  539SOL    HW1 2516   1.725   4.748   1.316
  539SOL    HW2 2517   1.851   4.694   1.227
  540SOL     OW 2518   1.726   1.701   2.826
  540SOL    HW1 2519   1.701   1.692   2.730
  540SOL    HW2 2520   1.660   1.653   2.883
  541SOL     OW 2521   5.727   5.517   4.060
  541SOL    HW1 2522   5.777   5.592   4.017
  541SOL    HW2 2523   5.676   5.467   3.990
  542SOL     OW 2524   5.913   6.951   6.516
  542SOL    HW1 2525   5.848   6.996   6.455
  542SOL    HW2 2526   5.996   7.005   6.522
  543SOL     OW 2527   6.622   4.127   4.740
  543SOL    HW1 2528   6.580   4.117   4.831
  543SOL    HW2 2529   6.631   4.037   4.698
  544SOL     OW 2530   1.573   4.936   0.395
  544SOL    HW1 2531   1.536   4.988   0.472
  544SOL    HW2 2532   1.502   4.875   0.359
  545SOL     OW 2533   3.262   1.526   0.572
  545SOL    HW1 2534   3.297   1.513   0.665
  545SOL    HW2 2535   3.213   1.444   0.543
  546SOL     OW 2536   1.638   3.884   0.253
  546SOL    HW1 2537   1.687   3.853   0.335
  546SOL    HW2 2538   1.619   3.982   0.261
  547SOL     OW 2539   3.009   1.837   0.248
  547SOL    HW1 2540   3.043   1.931   0.246
  547SOL    HW2 2541   3.074   1.777   0.202
  548SOL     OW 2542   3.311   3.352   1.683
  548SOL    HW1 2543   3.342   3.257   1.687
  548SOL    HW2 2544   3.213   3.354   1.660
  549SOL     OW 2545   5.691   2.461   1.081
  549SOL    HW1 2546   5.720   2.477   1.176
  549SOL    HW2 2547   5.592   2.452   1.077
  550SOL     OW 2548   1.362   5.507   3.962
  550SOL    HW1 2549   1.431   5.435   3.947
  550SOL    HW2 2550   1.271   5.469   3.949
  551SOL     OW 2551   0.958   0.111   2.187
  551SOL    HW1 2552   1.045   0.128   2.140
  551SOL    HW2 2553   0.941   0.183   2.254
  552SOL     OW 2554   6.448   4.717   6.909
  552SOL    HW1 2555   6.411   4.752   6.995
  552SOL    HW2 2556   6.515   4.782   6.872
  553SOL     OW 2557   2.348   6.350   3.896
  553SOL    HW1 2558   2.417   6.291   3.937
  553SOL    HW2 2559   2.387   6.441   3.881
  554SOL     OW 2560   6.035   6.937   0.012
  554SOL    HW1 2561   6.083   6.912   6.949
  554SOL    HW2 2562   5.964   7.005   7.013
  555SOL     OW 2563   2.967   4.951   4.636
  555SOL    HW1 2564   2.974   4.892   4.555
  555SOL    HW2 2565   2.950   4.894   4.717
  556SOL     OW 2566   4.624   1.758   3.567
  556SOL    HW1 2567   4.594   1.850   3.591
  556SOL    HW2 2568   4.694   1.763   3.496
  557SOL     OW 2569   0.139   5.472   0.917
  557SOL    HW1 2570   0.150   5.401   0.987
  557SOL    HW2 2571   0.217   5.470   0.855
  558SOL     OW 2572   2.858   3.580   3.213
  558SOL    HW1 2573   2.766   3.552   3.240
  558SOL    HW2 2574   2.922   3.559   3.287
  559SOL     OW 2575   0.353   5.529   6.611
  559SOL    HW1 2576   0.349   5.461   6.538
  559SOL    HW2 2577   0.262   5.571   6.622
  560SOL     OW 2578   5.788   4.306   4.578
  560SOL    HW1 2579   5.781   4.318   4.479
  560SOL    HW2 2580   5.696   4.302   4.618
  561SOL     OW 2581   0.327   1.995   1.516
  561SOL    HW1 2582   0.237   1.987   1.560
  561SOL    HW2 2583   0.324   1.950   1.426
  562SOL     OW 2584   4.351   6.905   6.571
  562SOL    HW1 2585   4.340   6.993   6.526
  562SOL    HW2 2586   4.330   6.831   6.507
  563SOL     OW 2587   2.868   6.913   3.464
  563SOL    HW1 2588   2.952   6.964   3.443
  563SOL    HW2 2589   2.836   6.865   3.382
  564SOL     OW 2590   1.310   2.681   6.923
  564SOL    HW1 2591   1.271   2.770   6.944
  564SOL    HW2 2592   1.282   2.615   6.992
  565SOL     OW 2593   3.229   3.155   4.956
  565SOL    HW1 2594   3.226   3.103   5.041
  565SOL    HW2 2595   3.135   3.176   4.927
  566SOL     OW 2596   0.638   4.484   3.641
  566SOL    HW1 2597   0.579   4.528   3.708
  566SOL    HW2 2598   0.597   4.397   3.612
  567SOL     OW 2599   2.628   2.868   1.447
  567SOL    HW1 2600   2.602   2.810   1.524
  567SOL    HW2 2601   2.727   2.859   1.430
  568SOL     OW 2602   4.948   0.281   6.990
  568SOL    HW1 2603   4.987   0.373   6.986
  568SOL    HW2 2604   5.004   0.219   6.936
  569SOL     OW 2605   2.044   2.523   0.102
  569SOL    HW1 2606   2.058   2.620   0.123
  569SOL    HW2 2607   2.032   2.472   0.187
  570SOL     OW 2608   4.246   5.967   6.720
  570SOL    HW1 2609   4.165   5.939   6.771
  570SOL    HW2 2610   4.250   5.917   6.634
  571SOL     OW 2611   3.463   5.940   2.520
  571SOL    HW1 2612   3.459   5.845   2.492
  571SOL    HW2 2613   3.394   5.957   2.591
  572SOL     OW 2614   2.653   4.760   5.444
  572SOL    HW1 2615   2.596   4.804   5.375
  572SOL    HW2 2616   2.601   4.688   5.490
  573SOL     OW 2617   4.960   1.295   5.854
  573SOL    HW1 2618   4.916   1.330   5.937
  573SOL    HW2 2619   5.053   1.264   5.876
  574SOL     OW 2620   3.332   1.272   4.400
  574SOL    HW1 2621   3.332   1.180   4.362
  574SOL    HW2 2622   3.374   1.270   4.491
  575SOL     OW 2623   5.363   3.795   0.832
  575SOL    HW1 2624   5.274   3.753   0.853
  575SOL    HW2 2625   5.399   3.757   0.747
  576SOL     OW 2626   1.494   1.985   3.290
  576SOL    HW1 2627   1.569   2.016   3.231
  576SOL    HW2 2628   1.408   1.990   3.240
  577SOL     OW 2629   1.331   1.506   2.984
  577SOL    HW1 2630   1.335   1.494   2.885
  577SOL    HW2 2631   1.418   1.542   3.017
  578SOL     OW 2632   6.231   5.355   4.336
  578SOL    HW1 2633   6.247   5.315   4.246
  578SOL    HW2 2634   6.309   5.411   4.363
  579SOL     OW 2635   1.900   3.273   3.640
  579SOL    HW1 2636   1.987   3.309   3.607
  579SOL    HW2 2637   1.908   3.249   3.737
  580SOL     OW 2638   4.953   5.922   6.132
  580SOL    HW1 2639   4.968   5.825   6.117
  580SOL    HW2 2640   4.854   5.941   6.129
  581SOL     OW 2641   2.018   3.301   1.643
  581SOL    HW1 2642   1.964   3.361   1.585
  581SOL    HW2 2643   1.962   3.268   1.719
  582SOL     OW 2644   4.320   5.812   1.891
  582SOL    HW1 2645   4.349   5.812   1.987
  582SOL    HW2 2646   4.228   5.849   1.884
  583SOL     OW 2647   2.793   6.589   5.567
  583SOL    HW1 2648   2.826   6.643   5.645
  583SOL    HW2 2649   2.700   6.617   5.544
  584SOL     OW 2650   3.092   5.216   6.736
  584SOL    HW1 2651   3.053   5.300   6.700
  584SOL    HW2 2652   3.181   5.200   6.692
  585SOL     OW 2653   4.875   1.615   6.512
  585SOL    HW1 2654   4.843   1.695   6.562
  585SOL    HW2 2655   4.827   1.533   6.545
  586SOL     OW 2656   3.770   0.697   6.085
  586SOL    HW1 2657   3.733   0.721   6.175
  586SOL    HW2 2658   3.773   0.598   6.075
  587SOL     OW 2659   4.793   1.644   4.590
  587SOL    HW1 2660   4.799   1.586   4.671
  587SOL    HW2 2661   4.696   1.662   4.570
  588SOL     OW 2662   2.063   4.858   2.026
  588SOL    HW1 2663   2.028   4.934   2.081
  588SOL    HW2 2664   2.162   4.849   2.040
  589SOL     OW 2665   3.388   4.536   1.660
  589SOL    HW1 2666   3.299   4.581   1.650
  589SOL    HW2 2667   3.447   4.592   1.719
  590SOL     OW 2668   5.437   2.956   2.516
  590SOL    HW1 2669   5.392   2.920   2.435
  590SOL    HW2 2670   5.515   2.899   2.539
  591SOL     OW 2671   2.816   5.339   3.812
  591SOL    HW1 2672   2.798   5.417   3.751
  591SOL    HW2 2673   2.902   5.355   3.861
  592SOL     OW 2674   3.993   1.491   0.934
  592SOL    HW1 2675   3.896   1.475   0.921
  592SOL    HW2 2676   4.007   1.582   0.972
  593SOL     OW 2677   4.350   2.219   4.726
  593SOL    HW1 2678   4.364   2.217   4.627
  593SOL    HW2 2679   4.291   2.143   4.754
  594SOL     OW 2680   6.777   1.511   0.217
  594SOL    HW1 2681   6.683   1.539   0.236
  594SOL    HW2 2682   6.800   1.430   0.270
  595SOL     OW 2683   5.334   0.678   3.926
  595SOL    HW1 2684   5.374   0.729   3.849
  595SOL    HW2 2685   5.302   0.589   3.893
  596SOL     OW 2686   1.279   5.357   3.377
  596SOL    HW1 2687   1.324   5.442   3.402
  596SOL    HW2 2688   1.346   5.294   3.337
  597SOL     OW 2689   2.737   0.255   0.197
  597SOL    HW1 2690   2.732   0.247   0.098
  597SOL    HW2 2691   2.737   0.164   0.238
  598SOL     OW 2692   4.003   4.105   5.307
  598SOL    HW1 2693   3.978   4.016   5.344
  598SOL    HW2 2694   3.922   4.164   5.303
  599SOL     OW 2695   2.378   6.133   1.634
  599SOL    HW1 2696   2.427   6.220   1.633
  599SOL    HW2 2697   2.350   6.110   1.541
  600SOL     OW 2698   6.963   1.316   6.688
  600SOL    HW1 2699   0.033   1.344   6.717
  600SOL    HW2 2700   6.968   1.223   6.651
  601SOL     OW 2701   1.431   0.417   4.684
  601SOL    HW1 2702   1.371   0.393   4.608
  601SOL    HW2 2703   1.526   0.403   4.657
  602SOL     OW 2704   1.690   1.691   6.690
  602SOL    HW1 2705   1.747   1.624   6.643
  602SOL    HW2 2706   1.748   1.762   6.729
  603SOL     OW 2707   2.761   2.486   5.201
  603SOL    HW1 2708   2.855   2.494   5.234
  603SOL    HW2 2709   2.750   2.397   5.155
  604SOL     OW 2710   1.234   2.292   2.133
  604SOL    HW1 2711   1.268   2.198   2.125
  604SOL    HW2 2712   1.164   2.307   2.064
  605SOL     OW 2713   6.643   6.146   0.517
  605SOL    HW1 2714   6.639   6.047   0.530
  605SOL    HW2 2715   6.721   6.168   0.458
  606SOL     OW 2716   4.898   6.523   6.825
  606SOL    HW1 2717   4.908   6.429   6.858
  606SOL    HW2 2718   4.927   6.528   6.729
  607SOL     OW 2719   6.304   5.963   5.624
  607SOL    HW1 2720   6.250   5.881   5.605
  607SOL    HW2 2721   6.316   5.973   5.723
  608SOL     OW 2722   4.017   6.142   0.091
  608SOL    HW1 2723   3.974   6.216   0.039
  608SOL    HW2 2724   3.997   6.153   0.188
  609SOL     OW 2725   3.767   3.119   2.803
  609SOL    HW1 2726   3.785   3.039   2.859
  609SOL    HW2 2727   3.825   3.116   2.721
  610SOL     OW 2728   5.679   3.925   1.985
  610SOL    HW1 2729   5.777   3.930   2.006
  610SOL    HW2 2730   5.658   3.836   1.946
  611SOL     OW 2731   4.104   0.098   1.079
  611SOL    HW1 2732   4.044   0.146   1.142
  611SOL    HW2 2733   4.086   0.128   0.985
  612SOL     OW 2734   4.120   6.494   5.093
  612SOL    HW1 2735   4.209   6.484   5.136
  612SOL    HW2 2736   4.132   6.507   4.994
  613SOL     OW 2737   4.111   6.319   5.449
  613SOL    HW1 2738   4.130   6.278   5.539
  613SOL    HW2 2739   4.171   6.399   5.436
  614SOL     OW 2740   5.562   5.400   0.671
  614SOL    HW1 2741   5.475   5.449   0.682
  614SOL    HW2 2742   5.626   5.431   0.741
  615SOL     OW 2743   6.368   2.397   1.530
  615SOL    HW1 2744   6.285   2.447   1.505
  615SOL    HW2 2745   6.432   2.396   1.454
  616SOL     OW 2746   0.025   2.906   3.597
  616SOL    HW1 2747   7.003   2.904   3.686
  616SOL    HW2 2748   6.990   2.858   3.530
  617SOL     OW 2749   6.259   4.724   5.756
  617SOL    HW1 2750   6.293   4.730   5.662
  617SOL    HW2 2751   6.307   4.651   5.804
  618SOL     OW 2752   6.921   2.154   6.743
  618SOL    HW1 2753   6.888   2.127   6.653
  618SOL    HW2 2754   6.910   2.252   6.755
  619SOL     OW 2755   4.250   1.294   0.084
  619SOL    HW1 2756   4.342   1.305   0.119
  619SOL    HW2 2757   4.244   1.210   0.029
  620SOL     OW 2758   4.585   3.065   1.373
  620SOL    HW1 2759   4.631   3.116   1.446
  620SOL    HW2 2760   4.488   3.054   1.397
  621SOL     OW 2761   2.717   6.962   0.060
  621SOL    HW1 2762   2.804   6.922   0.030
  621SOL    HW2 2763   2.660   6.982   7.002
  622SOL     OW 2764   1.475   0.256   5.879
  622SOL    HW1 2765   1.411   0.332   5.880
  622SOL    HW2 2766   1.472   0.211   5.790
  623SOL     OW 2767   0.904   5.629   5.118
  623SOL    HW1 2768   0.974   5.647   5.049
  623SOL    HW2 2769   0.940   5.652   5.209
  624SOL     OW 2770   6.838   2.776   0.940
  624SOL    HW1 2771   6.912   2.838   0.913
  624SOL    HW2 2772   6.869   2.681   0.930
  625SOL     OW 2773   2.077   1.789   2.114
  625SOL    HW1 2774   2.141   1.864   2.099
  625SOL    HW2 2775   2.097   1.715   2.050
  626SOL     OW 2776   1.992   5.882   3.502
  626SOL    HW1 2777   2.076   5.934   3.518
  626SOL    HW2 2778   1.933   5.888   3.583
  627SOL     OW 2779   6.005   6.147   0.694
  627SOL    HW1 2780   6.060   6.116   0.616
  627SOL    HW2 2781   5.958   6.232   0.669
  628SOL     OW 2782   6.241   6.095   6.346
  628SOL    HW1 2783   6.262   6.022   6.282
  628SOL    HW2 2784   6.148   6.082   6.382
  629SOL     OW 2785   6.770   7.001   6.812
  629SOL    HW1 2786   6.773   6.938   6.735
  629SOL    HW2 2787   6.815   6.960   6.891
  630SOL     OW 2788   0.257   1.602   1.391
  630SOL    HW1 2789   0.169   1.623   1.348
  630SOL    HW2 2790   0.249   1.518   1.444
  631SOL     OW 2791   3.783   6.906   5.144
  631SOL    HW1 2792   3.705   6.861   5.101
  631SOL    HW2 2793   3.751   6.975   5.208
  632SOL     OW 2794   2.699   1.134   0.726
  632SOL    HW1 2795   2.739   1.093   0.644
  632SOL    HW2 2796   2.765   1.129   0.801
  633SOL     OW 2797   3.391   4.020   0.051
  633SOL    HW1 2798   3.395   4.115   0.083
  633SOL    HW2 2799   3.483   3.989   0.027
  634SOL     OW 2800   4.073   4.085   1.161
  634SOL    HW1 2801   4.017   4.011   1.122
  634SOL    HW2 2802   4.159   4.046   1.195
  635SOL     OW 2803   4.287   5.070   1.628
  635SOL    HW1 2804   4.223   5.101   1.557
  635SOL    HW2 2805   4.293   4.971   1.626
  636SOL     OW 2806   3.517   5.446   0.144
  636SOL    HW1 2807   3.442   5.423   0.207
  636SOL    HW2 2808   3.574   5.518   0.185
  637SOL     OW 2809   6.835   3.396   3.320
  637SOL    HW1 2810   6.766   3.357   3.260
  637SOL    HW2 2811   6.848   3.493   3.298
  638SOL     OW 2812   5.259   2.456   3.772
  638SOL    HW1 2813   5.213   2.398   3.839
  638SOL    HW2 2814   5.204   2.460   3.688
  639SOL     OW 2815   5.308   3.306   2.897
  639SOL    HW1 2816   5.254   3.343   2.972
  639SOL    HW2 2817   5.305   3.206   2.898
  640SOL     OW 2818   0.141   5.424   3.795
  640SOL    HW1 2819   0.052   5.403   3.837
  640SOL    HW2 2820   0.168   5.347   3.737
  641SOL     OW 2821   6.438   5.345   4.975
  641SOL    HW1 2822   6.463   5.424   4.919
  641SOL    HW2 2823   6.393   5.276   4.918
  642SOL     OW 2824   6.744   3.136   5.249
  642SOL    HW1 2825   6.704   3.046   5.231
  642SOL    HW2 2826   6.698   3.204   5.192
  643SOL     OW 2827   5.928   6.087   5.245
  643SOL    HW1 2828   6.003   6.040   5.292
  643SOL    HW2 2829   5.885   6.024   5.180
  644SOL     OW 2830   1.239   5.889   4.498
  644SOL    HW1 2831   1.216   5.818   4.431
  644SOL    HW2 2832   1.335   5.915   4.487
  645SOL     OW 2833   4.114   0.891   3.517
  645SOL    HW1 2834   4.133   0.814   3.456
  645SOL    HW2 2835   4.117   0.861   3.612
  646SOL     OW 2836   2.910   1.134   4.861
  646SOL    HW1 2837   2.888   1.157   4.766
  646SOL    HW2 2838   2.826   1.132   4.915
  647SOL     OW 2839   5.040   1.950   4.753
  647SOL    HW1 2840   5.082   2.030   4.796
  647SOL    HW2 2841   4.985   1.979   4.675
  648SOL     OW 2842   0.369   3.495   4.163
  648SOL    HW1 2843   0.457   3.483   4.116
  648SOL    HW2 2844   0.372   3.578   4.218
  649SOL     OW 2845   2.711   4.005   0.902
  649SOL    HW1 2846   2.716   3.994   1.001
  649SOL    HW2 2847   2.630   3.959   0.867
  650SOL     OW 2848   6.111   4.857   1.057
  650SOL    HW1 2849   6.131   4.871   0.960
  650SOL    HW2 2850   6.164   4.780   1.091
  651SOL     OW 2851   6.560   5.889   6.189
  651SOL    HW1 2852   6.624   5.938   6.131
  651SOL    HW2 2853   6.566   5.924   6.282
  652SOL     OW 2854   4.943   6.394   4.154
  652SOL    HW1 2855   4.906   6.333   4.083
  652SOL    HW2 2856   5.041   6.377   4.164
  653SOL     OW 2857   1.991   5.950   5.316
  653SOL    HW1 2858   2.076   5.912   5.353
  653SOL    HW2 2859   2.008   6.044   5.285
  654SOL     OW 2860   0.539   4.154   5.981
  654SOL    HW1 2861   0.490   4.203   6.053
  654SOL    HW2 2862   0.490   4.070   5.958
  655SOL     OW 2863   0.590   5.861   2.218
  655SOL    HW1 2864   0.492   5.879   2.210
  655SOL    HW2 2865   0.612   5.774   2.175
  656SOL     OW 2866   1.592   5.190   1.331
  656SOL    HW1 2867   1.601   5.168   1.234
  656SOL    HW2 2868   1.562   5.285   1.342
  657SOL     OW 2869   1.955   2.767   1.652
  657SOL    HW1 2870   1.860   2.790   1.633
  657SOL    HW2 2871   1.959   2.689   1.714
  658SOL     OW 2872   3.020   4.169   6.545
  658SOL    HW1 2873   3.105   4.185   6.495
  658SOL    HW2 2874   2.957   4.245   6.530
  659SOL     OW 2875   2.549   6.005   5.389
  659SOL    HW1 2876   2.496   5.925   5.416
  659SOL    HW2 2877   2.558   6.007   5.289
  660SOL     OW 2878   5.421   4.841   2.455
  660SOL    HW1 2879   5.410   4.914   2.522
  660SOL    HW2 2880   5.487   4.870   2.385
  661SOL     OW 2881   4.506   5.313   3.082
  661SOL    HW1 2882   4.426   5.374   3.076
  661SOL    HW2 2883   4.528   5.297   3.178
  662SOL     OW 2884   4.495   0.513   5.403
  662SOL    HW1 2885   4.407   0.502   5.449
  662SOL    HW2 2886   4.566   0.464   5.454
  663SOL     OW 2887   2.554   3.925   6.801
  663SOL    HW1 2888   2.642   3.878   6.791
  663SOL    HW2 2889   2.490   3.865   6.849
  664SOL     OW 2890   0.221   5.079   6.567
  664SOL    HW1 2891   0.139   5.091   6.511
  664SOL    HW2 2892   0.194   5.065   6.662
  665SOL     OW 2893   5.084   4.612   1.038
  665SOL    HW1 2894   5.126   4.541   0.981
  665SOL    HW2 2895   5.140   4.626   1.120
  666SOL     OW 2896   4.731   2.161   2.175
  666SOL    HW1 2897   4.699   2.135   2.084
  666SOL    HW2 2898   4.822   2.202   2.168
  667SOL     OW 2899   0.262   4.535   3.721
  667SOL    HW1 2900   0.337   4.581   3.768
  667SOL    HW2 2901   0.244   4.447   3.765
  668SOL     OW 2902   5.786   6.722   6.450
  668SOL    HW1 2903   5.848   6.680   6.384
  668SOL    HW2 2904   5.822   6.811   6.478
  669SOL     OW 2905   4.196   0.265   3.596
  669SOL    HW1 2906   4.177   0.280   3.499
  669SOL    HW2 2907   4.245   0.178   3.607
  670SOL     OW 2908   3.203   2.900   0.907
  670SOL    HW1 2909   3.167   2.943   0.990
  670SOL    HW2 2910   3.245   2.812   0.931
  671SOL     OW 2911   1.708   6.534   0.347
  671SOL    HW1 2912   1.727   6.520   0.250
  671SOL    HW2 2913   1.684   6.446   0.389
  672SOL     OW 2914   1.051   5.140   2.048
  672SOL    HW1 2915   1.124   5.111   2.111
  672SOL    HW2 2916   1.092   5.179   1.966
  673SOL     OW 2917   6.965   0.041   1.990
  673SOL    HW1 2918   6.958   0.103   2.069
  673SOL    HW2 2919   7.003   0.091   1.912
  674SOL     OW 2920   0.094   2.001   5.281
  674SOL    HW1 2921   0.076   2.054   5.198
  674SOL    HW2 2922   0.144   2.057   5.346
  675SOL     OW 2923   0.822   1.213   3.114
  675SOL    HW1 2924   0.791   1.307   3.100
  675SOL    HW2 2925   0.761   1.151   3.064
  676SOL     OW 2926   3.363   5.736   3.077
  676SOL    HW1 2927   3.317   5.757   2.991
  676SOL    HW2 2928   3.324   5.654   3.117
  677SOL     OW 2929   6.398   1.772   0.588
  677SOL    HW1 2930   6.314   1.725   0.616
  677SOL    HW2 2931   6.419   1.845   0.652
  678SOL     OW 2932   2.214   1.341   5.838
  678SOL    HW1 2933   2.233   1.385   5.925
  678SOL    HW2 2934   2.298   1.301   5.801
  679SOL     OW 2935   4.772   2.066   3.898
  679SOL    HW1 2936   4.677   2.042   3.919
  679SOL    HW2 2937   4.800   2.024   3.812
  680SOL     OW 2938   5.679   6.189   5.399
  680SOL    HW1 2939   5.636   6.100   5.386
  680SOL    HW2 2940   5.761   6.194   5.342
  681SOL     OW 2941   5.235   5.071   1.721
  681SOL    HW1 2942   5.268   5.156   1.680
  681SOL    HW2 2943   5.300   5.041   1.792
  682SOL     OW 2944   0.638   1.551   0.236
  682SOL    HW1 2945   0.728   1.526   0.274
  682SOL    HW2 2946   0.621   1.496   0.155
  683SOL     OW 2947   4.200   3.529   0.562
  683SOL    HW1 2948   4.176   3.433   0.548
  683SOL    HW2 2949   4.289   3.535   0.607
  684SOL     OW 2950   0.364   0.981   6.972
  684SOL    HW1 2951   0.295   1.050   6.949
  684SOL    HW2 2952   0.321   0.907   0.002
  685SOL     OW 2953   4.164   1.094   3.373
  685SOL    HW1 2954   4.145   1.176   3.427
  685SOL    HW2 2955   4.140   1.013   3.427
  686SOL     OW 2956   4.948   2.957   3.639
  686SOL    HW1 2957   4.926   3.044   3.595
  686SOL    HW2 2958   4.997   2.974   3.725
  687SOL     OW 2959   0.427   2.183   4.616
  687SOL    HW1 2960   0.408   2.095   4.572
  687SOL    HW2 2961   0.522   2.209   4.600
  688SOL     OW 2962   1.110   2.122   0.647
  688SOL    HW1 2963   1.201   2.097   0.616
  688SOL    HW2 2964   1.048   2.045   0.633
  689SOL     OW 2965   6.744   4.147   6.739
  689SOL    HW1 2966   6.733   4.078   6.668
  689SOL    HW2 2967   6.773   4.234   6.698
  690SOL     OW 2968   0.229   4.331   2.833
  690SOL    HW1 2969   0.321   4.328   2.793
  690SOL    HW2 2970   0.162   4.346   2.760
  691SOL     OW 2971   1.995   6.602   0.409
  691SOL    HW1 2972   1.926   6.530   0.416
  691SOL    HW2 2973   1.987   6.647   0.320
  692SOL     OW 2974   3.202   6.721   3.443
  692SOL    HW1 2975   3.154   6.773   3.373
  692SOL    HW2 2976   3.201   6.624   3.420
  693SOL     OW 2977   5.977   1.006   3.711
  693SOL    HW1 2978   5.888   0.961   3.711
  693SOL    HW2 2979   5.998   1.037   3.618
  694SOL     OW 2980   4.009   5.969   3.197
  694SOL    HW1 2981   3.985   6.058   3.157
  694SOL    HW2 2982   4.064   5.984   3.280
  695SOL     OW 2983   4.096   6.389   3.973
  695SOL    HW1 2984   4.175   6.333   3.950
  695SOL    HW2 2985   4.022   6.372   3.908
  696SOL     OW 2986   4.276   4.719   2.437
  696SOL    HW1 2987   4.357   4.668   2.410
  696SOL    HW2 2988   4.254   4.787   2.367
  697SOL     OW 2989   1.873   3.745   3.979
  697SOL    HW1 2990   1.973   3.737   3.970
  697SOL    HW2 2991   1.833   3.654   3.988
  698SOL     OW 2992   5.510   6.796   0.390
  698SOL    HW1 2993   5.497   6.884   0.346
  698SOL    HW2 2994   5.431   6.776   0.449
  699SOL     OW 2995   1.990   2.882   6.189
  699SOL    HW1 2996   2.064   2.947   6.171
  699SOL    HW2 2997   2.001   2.843   6.280
  700SOL     OW 2998   2.829   0.415   2.186
  700SOL    HW1 2999   2.784   0.499   2.155
  700SOL    HW2 3000   2.800   0.339   2.128
  701SOL     OW 3001   6.560   3.442   5.815
  701SOL    HW1 3002   6.476   3.472   5.860
  701SOL    HW2 3003   6.594   3.514   5.755
  702SOL     OW 3004   1.192   5.691   4.946
  702SOL    HW1 3005   1.284   5.676   4.982
  702SOL    HW2 3006   1.155   5.776   4.983
  703SOL     OW 3007   3.666   4.218   6.170
  703SOL    HW1 3008   3.614   4.246   6.088
  703SOL    HW2 3009   3.732   4.148   6.145
  704SOL     OW 3010   1.344   2.054   0.514
  704SOL    HW1 3011   1.402   2.033   0.593
  704SOL    HW2 3012   1.378   2.006   0.434
  705SOL     OW 3013   5.483   5.834   2.840
  705SOL    HW1 3014   5.525   5.788   2.918
  705SOL    HW2 3015   5.548   5.897   2.799
  706SOL     OW 3016   4.433   2.323   4.948
  706SOL    HW1 3017   4.343   2.341   4.987
  706SOL    HW2 3018   4.423   2.283   4.857
  707SOL     OW 3019   4.731   5.359   2.721
  707SOL    HW1 3020   4.731   5.286   2.790
  707SOL    HW2 3021   4.717   5.447   2.767
  708SOL     OW 3022   4.392   6.704   1.669
  708SOL    HW1 3023   4.468   6.642   1.687
  708SOL    HW2 3024   4.368   6.752   1.753
  709SOL     OW 3025   0.363   6.334   1.489
  709SOL    HW1 3026   0.342   6.275   1.410
  709SOL    HW2 3027   0.354   6.281   1.573
  710SOL     OW 3028   3.799   2.802   1.652
  710SOL    HW1 3029   3.744   2.725   1.685
  710SOL    HW2 3030   3.894   2.773   1.640
  711SOL     OW 3031   6.877   3.474   5.538
  711SOL    HW1 3032   6.795   3.522   5.570
  711SOL    HW2 3033   6.895   3.499   5.443
  712SOL     OW 3034   4.874   2.876   1.545
  712SOL    HW1 3035   4.859   2.892   1.643
  712SOL    HW2 3036   4.957   2.921   1.515
  713SOL     OW 3037   4.444   2.514   5.752
  713SOL    HW1 3038   4.346   2.532   5.742
  713SOL    HW2 3039   4.472   2.443   5.687
  714SOL     OW 3040   6.893   4.327   3.514
  714SOL    HW1 3041   6.938   4.256   3.567
  714SOL    HW2 3042   6.961   4.391   3.478
  715SOL     OW 3043   5.239   6.151   0.278
  715SOL    HW1 3044   5.175   6.227   0.270
  715SOL    HW2 3045   5.191   6.065   0.267
  716SOL     OW 3046   0.579   0.722   1.866
  716SOL    HW1 3047   0.584   0.760   1.958
  716SOL    HW2 3048   0.573   0.622   1.871
  717SOL     OW 3049   6.268   4.252   5.336
  717SOL    HW1 3050   6.287   4.270   5.240
  717SOL    HW2 3051   6.185   4.197   5.344
  718SOL     OW 3052   4.990   2.390   6.012
  718SOL    HW1 3053   4.976   2.481   6.050
  718SOL    HW2 3054   5.079   2.355   6.041
  719SOL     OW 3055   5.876   0.562   2.337
  719SOL    HW1 3056   5.898   0.656   2.311
  719SOL    HW2 3057   5.858   0.557   2.435
  720SOL     OW 3058   2.704   0.278   5.896
  720SOL    HW1 3059   2.647   0.196   5.895
  720SOL    HW2 3060   2.678   0.335   5.973
  721SOL     OW 3061   2.667   1.981   3.050
  721SOL    HW1 3062   2.758   1.948   3.075
  721SOL    HW2 3063   2.601   1.952   3.119
  722SOL     OW 3064   3.620   0.568   5.789
  722SOL    HW1 3065   3.669   0.654   5.780
  722SOL    HW2 3066   3.581   0.561   5.881
  723SOL     OW 3067   1.728   4.902   3.388
  723SOL    HW1 3068   1.730   4.995   3.425
  723SOL    HW2 3069   1.765   4.903   3.295
  724SOL     OW 3070   0.956   3.081   4.862
  724SOL    HW1 3071   0.965   3.076   4.962
  724SOL    HW2 3072   0.862   3.061   4.836
  725SOL     OW 3073   2.356   5.778   1.168
  725SOL    HW1 3074   2.310   5.866   1.164
  725SOL    HW2 3075   2.413   5.774   1.250
  726SOL     OW 3076   3.713   4.756   1.417
  726SOL    HW1 3077   3.622   4.722   1.395
  726SOL    HW2 3078   3.719   4.776   1.515
  727SOL     OW 3079   5.812   5.260   5.607
  727SOL    HW1 3080   5.832   5.227   5.699
  727SOL    HW2 3081   5.731   5.215   5.572
  728SOL     OW 3082   6.762   2.733   4.757
  728SOL    HW1 3083   6.825   2.682   4.815
  728SOL    HW2 3084   6.814   2.798   4.701
  729SOL     OW 3085   0.931   2.174   1.394
  729SOL    HW1 3086   0.866   2.121   1.338
  729SOL    HW2 3087   1.024   2.158   1.361
  730SOL     OW 3088   5.480   0.403   4.920
  730SOL    HW1 3089   5.469   0.305   4.938
  730SOL    HW2 3090   5.563   0.436   4.965
  731SOL     OW 3091   5.411   4.298   6.249
  731SOL    HW1 3092   5.506   4.313   6.220
  731SOL    HW2 3093   5.394   4.348   6.333
  732SOL     OW 3094   6.898   3.089   1.633
  732SOL    HW1 3095   6.891   2.998   1.591
  732SOL    HW2 3096   6.895   3.159   1.562
  733SOL     OW 3097   5.121   6.420   5.309
  733SOL    HW1 3098   5.077   6.508   5.327
  733SOL    HW2 3099   5.051   6.348   5.308
  734SOL     OW 3100   6.639   4.965   2.678
  734SOL    HW1 3101   6.600   5.020   2.604
  734SOL    HW2 3102   6.579   4.887   2.697
  735SOL     OW 3103   4.418   1.552   0.075
  735SOL    HW1 3104   4.380   1.547   7.004
  735SOL    HW2 3105   4.412   1.646   0.108
  736SOL     OW 3106   6.845   1.754   3.530
  736SOL    HW1 3107   6.821   1.784   3.622
  736SOL    HW2 3108   6.763   1.747   3.474
  737SOL     OW 3109   5.050   1.482   4.599
  737SOL    HW1 3110   4.977   1.524   4.653
  737SOL    HW2 3111   5.019   1.394   4.564
  738SOL     OW 3112   2.363   3.866   1.505
  738SOL    HW1 3113   2.346   3.963   1.525
  738SOL    HW2 3114   2.400   3.822   1.587
  739SOL     OW 3115   5.052   0.593   4.060
  739SOL    HW1 3116   5.043   0.576   4.159
  739SOL    HW2 3117   5.140   0.557   4.029
  740SOL     OW 3118   6.180   0.853   1.580
  740SOL    HW1 3119   6.117   0.930   1.584
  740SOL    HW2 3120   6.252   0.865   1.648
  741SOL     OW 3121   2.077   6.702   3.468
  741SOL    HW1 3122   2.062   6.666   3.561
  741SOL    HW2 3123   2.088   6.626   3.404
  742SOL     OW 3124   2.836   6.505   2.333
  742SOL    HW1 3125   2.830   6.599   2.300
  742SOL    HW2 3126   2.927   6.468   2.312
  743SOL     OW 3127   6.926   4.594   2.988
  743SOL    HW1 3128   7.010   4.544   3.009
  743SOL    HW2 3129   6.854   4.565   3.052
  744SOL     OW 3130   5.651   0.697   0.232
  744SOL    HW1 3131   5.564   0.668   0.271
  744SOL    HW2 3132   5.708   0.738   0.303
  745SOL     OW 3133   1.787   5.108   4.811
  745SOL    HW1 3134   1.710   5.044   4.811
  745SOL    HW2 3135   1.835   5.102   4.898
  746SOL     OW 3136   6.894   3.672   6.632
  746SOL    HW1 3137   6.958   3.629   6.568
  746SOL    HW2 3138   6.801   3.650   6.605
  747SOL     OW 3139   3.731   6.866   4.442
  747SOL    HW1 3140   3.816   6.887   4.394
  747SOL    HW2 3141   3.741   6.781   4.493
  748SOL     OW 3142   4.191   4.927   2.274
  748SOL    HW1 3143   4.180   4.944   2.176
  748SOL    HW2 3144   4.267   4.982   2.309
  749SOL     OW 3145   6.021   3.550   4.918
  749SOL    HW1 3146   5.984   3.609   4.989
  749SOL    HW2 3147   6.005   3.591   4.828
  750SOL     OW 3148   1.905   2.253   1.348
  750SOL    HW1 3149   1.859   2.167   1.324
  750SOL    HW2 3150   1.860   2.294   1.427
  751SOL     OW 3151   3.951   2.241   7.010
  751SOL    HW1 3152   4.031   2.209   6.961
  751SOL    HW2 3153   3.969   2.332   0.026
  752SOL     OW 3154   3.721   1.155   1.847
  752SOL    HW1 3155   3.725   1.128   1.751
  752SOL    HW2 3156   3.769   1.242   1.859
  753SOL     OW 3157   2.152   3.220   6.000
  753SOL    HW1 3158   2.065   3.241   6.045
  753SOL    HW2 3159   2.136   3.154   5.927
  754SOL     OW 3160   4.807   2.418   5.375
  754SOL    HW1 3161   4.892   2.414   5.429
  754SOL    HW2 3162   4.827   2.454   5.284
  755SOL     OW 3163   1.578   4.251   5.808
  755SOL    HW1 3164   1.630   4.304   5.876
  755SOL    HW2 3165   1.630   4.246   5.723
  756SOL     OW 3166   2.969   6.489   6.522
  756SOL    HW1 3167   3.056   6.507   6.568
  756SOL    HW2 3168   2.921   6.416   6.571
  757SOL     OW 3169   0.095   0.439   4.340
  757SOL    HW1 3170   0.066   0.505   4.270
  757SOL    HW2 3171   0.020   0.425   4.405
  758SOL     OW 3172   3.698   6.837   2.729
  758SOL    HW1 3173   3.643   6.872   2.654
  758SOL    HW2 3174   3.726   6.913   2.788
  759SOL     OW 3175   6.997   1.622   2.130
  759SOL    HW1 3176   0.022   1.568   2.060
  759SOL    HW2 3177   0.002   1.589   2.221
  760SOL     OW 3178   5.884   0.016   4.660
  760SOL    HW1 3179   5.952   6.973   4.625
  760SOL    HW2 3180   5.920   0.109   4.655
  761SOL     OW 3181   5.007   3.870   6.267
  761SOL    HW1 3182   4.976   3.911   6.182
  761SOL    HW2 3183   5.079   3.927   6.308
  762SOL     OW 3184   1.564   0.064   4.136
  762SOL    HW1 3185   1.539   6.988   4.137
  762SOL    HW2 3186   1.638   0.078   4.070
  763SOL     OW 3187   4.205   5.118   6.146
  763SOL    HW1 3188   4.300   5.090   6.154
  763SOL    HW2 3189   4.167   5.134   6.237
  764SOL     OW 3190   5.209   0.949   5.033
  764SOL    HW1 3191   5.198   0.936   4.934
  764SOL    HW2 3192   5.176   0.867   5.080
  765SOL     OW 3193   1.904   5.735   1.557
  765SOL    HW1 3194   1.854   5.720   1.643
  765SOL    HW2 3195   1.974   5.664   1.546
  766SOL     OW 3196   2.679   2.703   5.975
  766SOL    HW1 3197   2.685   2.786   5.919
  766SOL    HW2 3198   2.662   2.727   6.070
  767SOL     OW 3199   6.465   5.707   2.220
  767SOL    HW1 3200   6.522   5.750   2.149
  767SOL    HW2 3201   6.369   5.712   2.193
  768SOL     OW 3202   2.644   6.249   2.517
  768SOL    HW1 3203   2.664   6.167   2.571
  768SOL    HW2 3204   2.640   6.225   2.420
  769SOL     OW 3205   2.359   0.719   5.247
  769SOL    HW1 3206   2.289   0.770   5.198
  769SOL    HW2 3207   2.447   0.732   5.203
  770SOL     OW 3208   1.837   4.472   3.193
  770SOL    HW1 3209   1.846   4.462   3.292
  770SOL    HW2 3210   1.754   4.523   3.172
  771SOL     OW 3211   1.209   5.079   2.683
  771SOL    HW1 3212   1.199   5.063   2.781
  771SOL    HW2 3213   1.119   5.079   2.639
  772SOL     OW 3214   5.330   5.915   7.002
  772SOL    HW1 3215   5.417   5.874   6.973
  772SOL    HW2 3216   5.254   5.863   6.963
  773SOL     OW 3217   0.054   3.786   3.903
  773SOL    HW1 3218   0.067   3.872   3.952
  773SOL    HW2 3219   0.053   3.805   3.804
  774SOL     OW 3220   2.180   1.371   2.016
  774SOL    HW1 3221   2.138   1.333   2.099
  774SOL    HW2 3222   2.251   1.437   2.041
  775SOL     OW 3223   1.793   2.785   3.523
  775SOL    HW1 3224   1.805   2.686   3.518
  775SOL    HW2 3225   1.723   2.807   3.591
  776SOL     OW 3226   1.559   0.086   6.309
  776SOL    HW1 3227   1.502   0.113   6.231
  776SOL    HW2 3228   1.654   0.106   6.289
  777SOL     OW 3229   2.033   4.503   1.950
  777SOL    HW1 3230   2.070   4.516   1.857
  777SOL    HW2 3231   1.942   4.463   1.944
  778SOL     OW 3232   2.587   1.391   1.948
  778SOL    HW1 3233   2.587   1.332   2.029
  778SOL    HW2 3234   2.578   1.487   1.976
  779SOL     OW 3235   6.305   2.420   2.118
  779SOL    HW1 3236   6.258   2.343   2.161
  779SOL    HW2 3237   6.248   2.502   2.123
  780SOL     OW 3238   0.503   3.418   3.705
  780SOL    HW1 3239   0.551   3.371   3.779
  780SOL    HW2 3240   0.417   3.455   3.740
  781SOL     OW 3241   6.475   6.936   0.013
  781SOL    HW1 3242   6.563   6.893   0.035
  781SOL    HW2 3243   6.401   6.883   0.052
  782SOL     OW 3244   1.196   3.516   6.380
  782SOL    HW1 3245   1.208   3.474   6.290
  782SOL    HW2 3246   1.205   3.615   6.373
  783SOL     OW 3247   4.784   4.743   2.178
  783SOL    HW1 3248   4.808   4.698   2.092
  783SOL    HW2 3249   4.827   4.695   2.254
  784SOL     OW 3250   4.688   4.826   0.764
  784SOL    HW1 3251   4.738   4.749   0.804
  784SOL    HW2 3252   4.598   4.833   0.806
  785SOL     OW 3253   0.242   2.444   3.530
  785SOL    HW1 3254   0.197   2.377   3.589
  785SOL    HW2 3255   0.180   2.468   3.455
  786SOL     OW 3256   1.422   0.908   2.909
  786SOL    HW1 3257   1.438   0.989   2.965
  786SOL    HW2 3258   1.371   0.934   2.827
  787SOL     OW 3259   1.820   0.302   0.000
  787SOL    HW1 3260   1.738   0.249   7.001
  787SOL    HW2 3261   1.797   0.400   0.003
  788SOL     OW 3262   3.653   1.872   6.925
  788SOL    HW1 3263   3.614   1.946   6.979
  788SOL    HW2 3264   3.598   1.857   6.844
  789SOL     OW 3265   4.877   3.982   0.996
  789SOL    HW1 3266   4.840   3.899   0.955
  789SOL    HW2 3267   4.824   4.005   1.078
  790SOL     OW 3268   1.931   1.124   3.307
  790SOL    HW1 3269   1.977   1.069   3.238
  790SOL    HW2 3270   1.976   1.213   3.314
  791SOL     OW 3271   1.689   5.738   4.124
  791SOL    HW1 3272   1.666   5.829   4.091
  791SOL    HW2 3273   1.718   5.680   4.047
  792SOL     OW 3274   0.648   0.750   1.265
  792SOL    HW1 3275   0.558   0.775   1.230
  792SOL    HW2 3276   0.718   0.772   1.197
  793SOL     OW 3277   4.848   5.013   3.406
  793SOL    HW1 3278   4.874   4.973   3.494
  793SOL    HW2 3279   4.930   5.038   3.355
  794SOL     OW 3280   3.072   4.248   5.592
  794SOL    HW1 3281   3.102   4.183   5.522
  794SOL    HW2 3282   3.064   4.201   5.680
  795SOL     OW 3283   2.897   6.790   4.189
  795SOL    HW1 3284   2.965   6.859   4.211
  795SOL    HW2 3285   2.941   6.711   4.147
  796SOL     OW 3286   0.138   2.111   6.433
  796SOL    HW1 3287   0.184   2.038   6.382
  796SOL    HW2 3288   0.055   2.075   6.475
  797SOL     OW 3289   5.761   2.328   0.819
  797SOL    HW1 3290   5.712   2.344   0.904
  797SOL    HW2 3291   5.794   2.233   0.817
  798SOL     OW 3292   3.644   6.043   2.341
  798SOL    HW1 3293   3.586   6.027   2.421
  798SOL    HW2 3294   3.650   5.960   2.287
  799SOL     OW 3295   0.167   6.697   5.819
  799SOL    HW1 3296   0.132   6.628   5.882
  799SOL    HW2 3297   0.231   6.757   5.867
  800SOL     OW 3298   5.511   1.645   3.141
  800SOL    HW1 3299   5.597   1.667   3.188
  800SOL    HW2 3300   5.443   1.715   3.162
  801SOL     OW 3301   1.874   3.918   4.814
  801SOL    HW1 3302   1.953   3.958   4.860
  801SOL    HW2 3303   1.837   3.982   4.747
  802SOL     OW 3304   2.972   2.004   0.802
  802SOL    HW1 3305   2.956   2.081   0.741
  802SOL    HW2 3306   3.022   2.036   0.883
  803SOL     OW 3307   0.886   0.054   5.549
  803SOL    HW1 3308   0.901   0.063   5.450
  803SOL    HW2 3309   0.819   0.122   5.579
  804SOL     OW 3310   5.620   5.896   7.000
  804SOL    HW1 3311   5.698   5.853   6.954
  804SOL    HW2 3312   5.654   5.952   0.055
  805SOL     OW 3313   3.191   0.398   3.968
  805SOL    HW1 3314   3.199   0.378   4.066
  805SOL    HW2 3315   3.274   0.366   3.921
  806SOL     OW 3316   4.810   1.406   4.360
  806SOL    HW1 3317   4.793   1.368   4.268
  806SOL    HW2 3318   4.887   1.470   4.356
  807SOL     OW 3319   1.462   1.119   5.296
  807SOL    HW1 3320   1.376   1.070   5.288
  807SOL    HW2 3321   1.460   1.178   5.376
  808SOL     OW 3322   4.045   3.578   6.333
  808SOL    HW1 3323   3.946   3.576   6.349
  808SOL    HW2 3324   4.087   3.646   6.392
  809SOL     OW 3325   0.330   4.765   1.484
  809SOL    HW1 3326   0.356   4.733   1.576
  809SOL    HW2 3327   0.398   4.733   1.418
  810SOL     OW 3328   3.672   3.740   0.990
  810SOL    HW1 3329   3.643   3.765   0.898
  810SOL    HW2 3330   3.611   3.670   1.027
  811SOL     OW 3331   4.618   5.592   5.589
  811SOL    HW1 3332   4.547   5.594   5.659
  811SOL    HW2 3333   4.581   5.626   5.502
  812SOL     OW 3334   0.193   0.838   2.524
  812SOL    HW1 3335   0.097   0.839   2.552
  812SOL    HW2 3336   0.221   0.745   2.503
  813SOL     OW 3337   4.159   6.893   4.133
  813SOL    HW1 3338   4.202   6.810   4.095
  813SOL    HW2 3339   4.189   6.972   4.080
  814SOL     OW 3340   6.010   6.376   2.624
  814SOL    HW1 3341   6.041   6.281   2.626
  814SOL    HW2 3342   5.926   6.382   2.571
  815SOL     OW 3343   0.481   3.973   3.607
  815SOL    HW1 3344   0.577   3.946   3.603
  815SOL    HW2 3345   0.460   4.006   3.699
  816SOL     OW 3346   6.310   6.077   0.573
  816SOL    HW1 3347   6.332   6.141   0.500
  816SOL    HW2 3348   6.249   6.006   0.539
  817SOL     OW 3349   1.653   5.181   1.068
  817SOL    HW1 3350   1.749   5.190   1.040
  817SOL    HW2 3351   1.601   5.260   1.035
  818SOL     OW 3352   6.206   2.563   2.901
  818SOL    HW1 3353   6.285   2.504   2.919
  818SOL    HW2 3354   6.129   2.532   2.957
  819SOL     OW 3355   5.852   2.861   2.425
  819SOL    HW1 3356   5.787   2.895   2.358
  819SOL    HW2 3357   5.945   2.875   2.391
  820SOL     OW 3358   3.739   1.985   4.794
  820SOL    HW1 3359   3.828   2.028   4.786
  820SOL    HW2 3360   3.721   1.964   4.891
  821SOL     OW 3361   0.470   4.183   0.895
  821SOL    HW1 3362   0.530   4.164   0.972
  821SOL    HW2 3363   0.375   4.170   0.923
  822SOL     OW 3364   1.030   3.819   3.966
  822SOL    HW1 3365   1.072   3.884   4.030
  822SOL    HW2 3366   1.088   3.739   3.956
  823SOL     OW 3367   4.965   4.232   6.141
  823SOL    HW1 3368   4.935   4.328   6.140
  823SOL    HW2 3369   4.891   4.176   6.179
  824SOL     OW 3370   4.560   1.545   6.776
  824SOL    HW1 3371   4.521   1.458   6.745
  824SOL    HW2 3372   4.643   1.565   6.723
  825SOL     OW 3373   6.359   4.583   1.375
  825SOL    HW1 3374   6.410   4.518   1.431
  825SOL    HW2 3375   6.420   4.658   1.347
  826SOL     OW 3376   3.746   3.039   5.745
  826SOL    HW1 3377   3.776   3.134   5.753
  826SOL    HW2 3378   3.668   3.024   5.807
  827SOL     OW 3379   2.685   4.305   5.676
  827SOL    HW1 3380   2.763   4.351   5.634
  827SOL    HW2 3381   2.600   4.351   5.648
  828SOL     OW 3382   5.853   6.447   0.307
  828SOL    HW1 3383   5.943   6.489   0.306
  828SOL    HW2 3384   5.858   6.354   0.270
  829SOL     OW 3385   3.849   3.787   2.522
  829SOL    HW1 3386   3.919   3.797   2.593
  829SOL    HW2 3387   3.802   3.875   2.510
  830SOL     OW 3388   5.524   4.929   6.536
  830SOL    HW1 3389   5.481   4.856   6.589
  830SOL    HW2 3390   5.487   5.017   6.563
  831SOL     OW 3391   6.466   0.476   0.204
  831SOL    HW1 3392   6.512   0.539   0.142
  831SOL    HW2 3393   6.398   0.424   0.154
  832SOL     OW 3394   4.005   0.898   2.334
  832SOL    HW1 3395   4.082   0.861   2.386
  832SOL    HW2 3396   3.996   0.996   2.352
  833SOL     OW 3397   0.931   3.869   6.287
  833SOL    HW1 3398   0.883   3.924   6.355
  833SOL    HW2 3399   0.913   3.906   6.196
  834SOL     OW 3400   4.179   3.836   0.818
  834SOL    HW1 3401   4.104   3.866   0.878
  834SOL    HW2 3402   4.143   3.817   0.727
  835SOL     OW 3403   3.676   0.160   5.693
  835SOL    HW1 3404   3.687   0.098   5.616
  835SOL    HW2 3405   3.720   0.122   5.774
  836SOL     OW 3406   4.299   5.945   5.695
  836SOL    HW1 3407   4.397   5.925   5.707
  836SOL    HW2 3408   4.286   6.044   5.692
  837SOL     OW 3409   5.506   0.722   1.154
  837SOL    HW1 3410   5.443   0.776   1.210
  837SOL    HW2 3411   5.475   0.627   1.150
  838SOL     OW 3412   2.452   0.808   4.593
  838SOL    HW1 3413   2.495   0.741   4.532
  838SOL    HW2 3414   2.357   0.780   4.610
  839SOL     OW 3415   1.445   1.766   2.443
  839SOL    HW1 3416   1.491   1.855   2.437
  839SOL    HW2 3417   1.441   1.725   2.352
  840SOL     OW 3418   6.776   5.551   0.078
  840SOL    HW1 3419   6.783   5.535   7.001
  840SOL    HW2 3420   6.867   5.554   0.118
  841SOL     OW 3421   3.835   5.058   0.015
  841SOL    HW1 3422   3.763   5.115   0.056
  841SOL    HW2 3423   3.812   4.961   0.027
  842SOL     OW 3424   3.785   0.460   4.124
  842SOL    HW1 3425   3.697   0.413   4.117
  842SOL    HW2 3426   3.782   0.545   4.073
  843SOL     OW 3427   0.553   1.125   1.297
  843SOL    HW1 3428   0.538   1.039   1.247
  843SOL    HW2 3429   0.473   1.184   1.288
  844SOL     OW 3430   5.624   0.850   0.495
  844SOL    HW1 3431   5.526   0.845   0.514
  844SOL    HW2 3432   5.653   0.946   0.496
  845SOL     OW 3433   4.854   4.559   4.574
  845SOL    HW1 3434   4.780   4.511   4.622
  845SOL    HW2 3435   4.865   4.519   4.483
  846SOL     OW 3436   1.843   1.952   6.479
  846SOL    HW1 3437   1.792   2.033   6.506
  846SOL    HW2 3438   1.917   1.978   6.417
  847SOL     OW 3439   1.094   2.822   1.642
  847SOL    HW1 3440   1.035   2.750   1.677
  847SOL    HW2 3441   1.041   2.905   1.627
  848SOL     OW 3442   6.680   0.427   6.408
  848SOL    HW1 3443   6.681   0.520   6.370
  848SOL    HW2 3444   6.748   0.421   6.481
  849SOL     OW 3445   6.816   3.722   5.816
  849SOL    HW1 3446   6.786   3.776   5.737
  849SOL    HW2 3447   6.757   3.741   5.894
  850SOL     OW 3448   5.023   0.976   3.449
  850SOL    HW1 3449   5.052   0.994   3.543
  850SOL    HW2 3450   5.084   0.909   3.407
  851SOL     OW 3451   6.841   1.835   2.545
  851SOL    HW1 3452   6.857   1.739   2.522
  851SOL    HW2 3453   6.778   1.841   2.623
  852SOL     OW 3454   0.810   3.655   0.058
  852SOL    HW1 3455   0.905   3.682   0.045
  852SOL    HW2 3456   0.805   3.566   0.102
  853SOL     OW 3457   1.160   4.432   0.832
  853SOL    HW1 3458   1.238   4.430   0.769
  853SOL    HW2 3459   1.194   4.433   0.926
  854SOL     OW 3460   5.359   4.782   0.559
  854SOL    HW1 3461   5.277   4.839   0.558
  854SOL    HW2 3462   5.333   4.686   0.555
  855SOL     OW 3463   6.516   6.857   1.956
  855SOL    HW1 3464   6.498   6.851   1.858
  855SOL    HW2 3465   6.525   6.953   1.982
  856SOL     OW 3466   1.444   2.515   5.612
  856SOL    HW1 3467   1.474   2.464   5.693
  856SOL    HW2 3468   1.521   2.528   5.550
  857SOL     OW 3469   5.890   4.621   2.280
  857SOL    HW1 3470   5.978   4.581   2.257
  857SOL    HW2 3471   5.868   4.600   2.375
  858SOL     OW 3472   2.377   3.474   1.079
  858SOL    HW1 3473   2.388   3.573   1.075
  858SOL    HW2 3474   2.288   3.452   1.119
  859SOL     OW 3475   5.840   6.377   5.135
  859SOL    HW1 3476   5.795   6.288   5.124
  859SOL    HW2 3477   5.816   6.415   5.225
  860SOL     OW 3478   5.988   3.193   0.541
  860SOL    HW1 3479   6.050   3.217   0.466
  860SOL    HW2 3480   5.995   3.095   0.561
  861SOL     OW 3481   2.633   5.779   3.299
  861SOL    HW1 3482   2.595   5.686   3.293
  861SOL    HW2 3483   2.559   5.843   3.319
  862SOL     OW 3484   1.768   3.635   4.690
  862SOL    HW1 3485   1.861   3.674   4.693
  862SOL    HW2 3486   1.701   3.708   4.708
  863SOL     OW 3487   6.166   1.666   0.648
  863SOL    HW1 3488   6.154   1.610   0.566
  863SOL    HW2 3489   6.105   1.633   0.720
  864SOL     OW 3490   4.285   5.214   3.783
  864SOL    HW1 3491   4.342   5.252   3.710
  864SOL    HW2 3492   4.317   5.247   3.871
  865SOL     OW 3493   1.472   6.312   5.754
  865SOL    HW1 3494   1.498   6.229   5.804
  865SOL    HW2 3495   1.410   6.367   5.811
  866SOL     OW 3496   2.466   1.800   2.224
  866SOL    HW1 3497   2.535   1.789   2.295
  866SOL    HW2 3498   2.501   1.863   2.153
  867SOL     OW 3499   4.487   3.549   0.650
  867SOL    HW1 3500   4.549   3.627   0.661
  867SOL    HW2 3501   4.492   3.490   0.731
  868SOL     OW 3502   5.544   1.235   0.463
  868SOL    HW1 3503   5.571   1.242   0.367
  868SOL    HW2 3504   5.451   1.199   0.468
  869SOL     OW 3505   0.164   4.109   2.973
  869SOL    HW1 3506   0.191   4.186   2.914
  869SOL    HW2 3507   0.077   4.072   2.942
  870SOL     OW 3508   4.545   2.849   0.343
  870SOL    HW1 3509   4.581   2.801   0.424
  870SOL    HW2 3510   4.605   2.831   0.265
  871SOL     OW 3511   4.393   2.375   2.309
  871SOL    HW1 3512   4.392   2.429   2.226
  871SOL    HW2 3513   4.370   2.280   2.287
  872SOL     OW 3514   5.654   2.969   3.962
  872SOL    HW1 3515   5.753   2.966   3.950
  872SOL    HW2 3516   5.613   2.889   3.919
  873SOL     OW 3517   5.756   6.777   4.375
  873SOL    HW1 3518   5.755   6.849   4.306
  873SOL    HW2 3519   5.720   6.813   4.461
  874SOL     OW 3520   0.896   4.263   5.833
  874SOL    HW1 3521   0.844   4.178   5.825
  874SOL    HW2 3522   0.975   4.260   5.772
  875SOL     OW 3523   4.520   3.934   0.405
  875SOL    HW1 3524   4.496   3.915   0.310
  875SOL    HW2 3525   4.437   3.944   0.459
  876SOL     OW 3526   0.677   4.567   2.363
  876SOL    HW1 3527   0.591   4.618   2.374
  876SOL    HW2 3528   0.722   4.596   2.278
  877SOL     OW 3529   3.898   4.607   6.010
  877SOL    HW1 3530   3.967   4.674   5.984
  877SOL    HW2 3531   3.891   4.537   5.938
  878SOL     OW 3532   3.683   6.378   5.186
  878SOL    HW1 3533   3.714   6.395   5.280
  878SOL    HW2 3534   3.762   6.359   5.128
  879SOL     OW 3535   3.434   2.133   0.883
  879SOL    HW1 3536   3.413   2.176   0.795
  879SOL    HW2 3537   3.525   2.159   0.913
  880SOL     OW 3538   2.981   3.822   4.420
  880SOL    HW1 3539   2.930   3.744   4.456
  880SOL    HW2 3540   3.078   3.812   4.442
  881SOL     OW 3541   5.057   3.909   5.397
  881SOL    HW1 3542   5.150   3.903   5.434
  881SOL    HW2 3543   5.020   4.000   5.412
  882SOL     OW 3544   1.038   2.344   4.564
  882SOL    HW1 3545   1.051   2.440   4.539
  882SOL    HW2 3546   0.942   2.328   4.587
  883SOL     OW 3547   4.628   0.062   0.148
  883SOL    HW1 3548   4.574   7.010   0.189
  883SOL    HW2 3549   4.724   0.052   0.175
  884SOL     OW 3550   7.006   4.138   0.194
  884SOL    HW1 3551   6.960   4.195   0.126
  884SOL    HW2 3552   6.979   4.168   0.285
  885SOL     OW 3553   4.844   6.202   5.971
  885SOL    HW1 3554   4.781   6.179   6.045
  885SOL    HW2 3555   4.936   6.171   5.994
  886SOL     OW 3556   4.159   0.746   1.027
  886SOL    HW1 3557   4.202   0.833   1.050
  886SOL    HW2 3558   4.143   0.741   0.928
  887SOL     OW 3559   4.026   5.325   3.814
  887SOL    HW1 3560   4.113   5.299   3.772
  887SOL    HW2 3561   4.032   5.419   3.846
  888SOL     OW 3562   6.856   5.937   3.015
  888SOL    HW1 3563   6.910   5.978   3.089
  888SOL    HW2 3564   6.915   5.924   2.935
  889SOL     OW 3565   0.473   0.373   6.027
  889SOL    HW1 3566   0.475   0.450   6.091
  889SOL    HW2 3567   0.378   0.351   6.005
  890SOL     OW 3568   2.011   5.110   2.212
  890SOL    HW1 3569   1.924   5.066   2.233
  890SOL    HW2 3570   2.063   5.124   2.297
  891SOL     OW 3571   6.341   3.938   0.532
  891SOL    HW1 3572   6.317   3.933   0.435
  891SOL    HW2 3573   6.334   3.847   0.573
  892SOL     OW 3574   3.777   4.265   5.328
  892SOL    HW1 3575   3.794   4.360   5.354
  892SOL    HW2 3576   3.723   4.262   5.244
  893SOL     OW 3577   1.917   0.150   2.793
  893SOL    HW1 3578   2.012   0.118   2.792
  893SOL    HW2 3579   1.870   0.120   2.710
  894SOL     OW 3580   1.038   2.825   3.054
  894SOL    HW1 3581   1.067   2.736   3.090
  894SOL    HW2 3582   0.941   2.822   3.032
  895SOL     OW 3583   1.333   5.773   3.616
  895SOL    HW1 3584   1.289   5.835   3.551
  895SOL    HW2 3585   1.332   5.815   3.707
  896SOL     OW 3586   5.656   6.140   1.620
  896SOL    HW1 3587   5.743   6.178   1.652
  896SOL    HW2 3588   5.631   6.182   1.533
  897SOL     OW 3589   4.728   0.637   6.790
  897SOL    HW1 3590   4.680   0.703   6.847
  897SOL    HW2 3591   4.673   0.616   6.709
  898SOL     OW 3592   3.511   6.108   3.056
  898SOL    HW1 3593   3.535   6.202   3.079
  898SOL    HW2 3594   3.585   6.066   3.005
  899SOL     OW 3595   0.407   5.738   0.748
  899SOL    HW1 3596   0.361   5.742   0.837
  899SOL    HW2 3597   0.339   5.730   0.675
  900SOL     OW 3598   4.449   6.168   6.724
  900SOL    HW1 3599   4.477   6.194   6.632
  900SOL    HW2 3600   4.372   6.104   6.718
  901SOL     OW 3601   1.291   0.828   5.024
  901SOL    HW1 3602   1.342   0.804   4.942
  901SOL    HW2 3603   1.198   0.793   5.018
  902SOL     OW 3604   0.702   2.786   1.101
  902SOL    HW1 3605   0.697   2.696   1.058
  902SOL    HW2 3606   0.796   2.819   1.098
  903SOL     OW 3607   0.393   2.901   6.730
  903SOL    HW1 3608   0.483   2.922   6.691
  903SOL    HW2 3609   0.334   2.863   6.659
  904SOL     OW 3610   2.521   2.464   2.617
  904SOL    HW1 3611   2.575   2.437   2.537
  904SOL    HW2 3612   2.450   2.528   2.588
  905SOL     OW 3613   5.426   3.927   6.016
  905SOL    HW1 3614   5.381   3.948   6.103
  905SOL    HW2 3615   5.407   4.000   5.950
  906SOL     OW 3616   0.620   2.946   6.583
  906SOL    HW1 3617   0.677   2.870   6.551
  906SOL    HW2 3618   0.678   3.027   6.596
  907SOL     OW 3619   4.984   2.718   2.220
  907SOL    HW1 3620   4.992   2.681   2.312
  907SOL    HW2 3621   4.923   2.797   2.220
  908SOL     OW 3622   2.557   4.969   2.825
  908SOL    HW1 3623   2.544   4.933   2.733
  908SOL    HW2 3624   2.488   5.039   2.844
  909SOL     OW 3625   3.109   6.067   2.021
  909SOL    HW1 3626   3.048   6.143   2.043
  909SOL    HW2 3627   3.165   6.045   2.101
  910SOL     OW 3628   2.915   0.810   0.431
  910SOL    HW1 3629   2.862   0.780   0.351
  910SOL    HW2 3630   2.948   0.730   0.481
  911SOL     OW 3631   0.661   5.578   6.957
  911SOL    HW1 3632   0.757   5.556   6.936
  911SOL    HW2 3633   0.655   5.672   6.988
  912SOL     OW 3634   4.854   0.635   3.869
  912SOL    HW1 3635   4.890   0.601   3.955
  912SOL    HW2 3636   4.926   0.635   3.799
  913SOL     OW 3637   2.614   0.842   3.815
  913SOL    HW1 3638   2.672   0.844   3.734
  913SOL    HW2 3639   2.648   0.773   3.878
  914SOL     OW 3640   2.478   5.956   5.134
  914SOL    HW1 3641   2.523   5.869   5.152
  914SOL    HW2 3642   2.407   5.944   5.065
  915SOL     OW 3643   1.055   3.313   0.659
  915SOL    HW1 3644   1.135   3.268   0.698
  915SOL    HW2 3645   1.001   3.355   0.732
  916SOL     OW 3646   2.041   2.986   2.354
  916SOL    HW1 3647   2.042   3.083   2.377
  916SOL    HW2 3648   2.037   2.975   2.255
  917SOL     OW 3649   5.999   1.085   2.491
  917SOL    HW1 3650   6.041   1.161   2.443
  917SOL    HW2 3651   5.902   1.078   2.465
  918SOL     OW 3652   3.167   0.054   1.095
  918SOL    HW1 3653   3.174   0.150   1.121
  918SOL    HW2 3654   3.095   0.044   1.026
  919SOL     OW 3655   6.407   6.026   3.341
  919SOL    HW1 3656   6.362   6.114   3.330
  919SOL    HW2 3657   6.506   6.039   3.343
  920SOL     OW 3658   1.929   4.674   2.885
  920SOL    HW1 3659   1.964   4.671   2.978
  920SOL    HW2 3660   1.867   4.596   2.870
  921SOL     OW 3661   4.487   4.635   3.168
  921SOL    HW1 3662   4.475   4.732   3.145
  921SOL    HW2 3663   4.561   4.626   3.235
  922SOL     OW 3664   3.542   3.745   5.452
  922SOL    HW1 3665   3.627   3.693   5.455
  922SOL    HW2 3666   3.467   3.685   5.424
  923SOL     OW 3667   3.036   4.420   6.109
  923SOL    HW1 3668   3.001   4.431   6.017
  923SOL    HW2 3669   2.965   4.381   6.168
  924SOL     OW 3670   6.022   2.448   3.072
  924SOL    HW1 3671   6.007   2.350   3.056
  924SOL    HW2 3672   5.938   2.499   3.053
  925SOL     OW 3673   0.645   1.604   6.529
  925SOL    HW1 3674   0.681   1.538   6.595
  925SOL    HW2 3675   0.716   1.628   6.463
  926SOL     OW 3676   6.286   1.239   0.884
  926SOL    HW1 3677   6.256   1.144   0.871
  926SOL    HW2 3678   6.375   1.252   0.840
  927SOL     OW 3679   5.664   3.975   3.535
  927SOL    HW1 3680   5.594   3.915   3.572
  927SOL    HW2 3681   5.747   3.968   3.591
  928SOL     OW 3682   0.883   6.319   0.481
  928SOL    HW1 3683   0.801   6.266   0.502
  928SOL    HW2 3684   0.958   6.257   0.460
  929SOL     OW 3685   0.405   0.871   1.176
  929SOL    HW1 3686   0.324   0.914   1.215
  929SOL    HW2 3687   0.405   0.886   1.077
  930SOL     OW 3688   5.454   6.318   3.880
  930SOL    HW1 3689   5.463   6.252   3.954
  930SOL    HW2 3690   5.483   6.408   3.912
  931SOL     OW 3691   5.802   2.162   3.813
  931SOL    HW1 3692   5.826   2.237   3.751
  931SOL    HW2 3693   5.802   2.076   3.762
  932SOL     OW 3694   2.640   6.426   3.283
  932SOL    HW1 3695   2.548   6.463   3.285
  932SOL    HW2 3696   2.690   6.453   3.365
  933SOL     OW 3697   1.533   5.917   3.431
  933SOL    HW1 3698   1.550   5.838   3.490
  933SOL    HW2 3699   1.448   5.962   3.458
  934SOL     OW 3700   1.826   0.153   6.236
  934SOL    HW1 3701   1.901   0.088   6.247
  934SOL    HW2 3702   1.861   0.240   6.203
  935SOL     OW 3703   4.370   5.042   4.539
  935SOL    HW1 3704   4.309   4.963   4.532
  935SOL    HW2 3705   4.465   5.011   4.532
  936SOL     OW 3706   1.052   0.153   6.317
  936SOL    HW1 3707   1.037   0.055   6.302
  936SOL    HW2 3708   1.125   0.185   6.257
  937SOL     OW 3709   4.989   1.345   5.051
  937SOL    HW1 3710   4.897   1.377   5.026
  937SOL    HW2 3711   4.984   1.293   5.136
  938SOL     OW 3712   6.704   5.286   6.061
  938SOL    HW1 3713   6.669   5.307   6.152
  938SOL    HW2 3714   6.629   5.294   5.994
  939SOL     OW 3715   6.481   6.902   5.325
  939SOL    HW1 3716   6.537   6.825   5.296
  939SOL    HW2 3717   6.529   6.987   5.303
  940SOL     OW 3718   0.483   3.263   2.173
  940SOL    HW1 3719   0.441   3.189   2.121
  940SOL    HW2 3720   0.438   3.349   2.151
  941SOL     OW 3721   5.251   1.275   5.963
  941SOL    HW1 3722   5.301   1.227   6.035
  941SOL    HW2 3723   5.217   1.362   5.998
  942SOL     OW 3724   4.855   0.107   3.216
  942SOL    HW1 3725   4.940   0.132   3.264
  942SOL    HW2 3726   4.875   0.034   3.150
  943SOL     OW 3727   2.121   3.380   4.017
  943SOL    HW1 3728   2.146   3.298   4.069
  943SOL    HW2 3729   2.023   3.380   4.000
  944SOL     OW 3730   0.430   4.775   5.942
  944SOL    HW1 3731   0.512   4.819   5.905
  944SOL    HW2 3732   0.408   4.814   6.031
  945SOL     OW 3733   6.226   5.045   5.177
  945SOL    HW1 3734   6.212   5.051   5.078
  945SOL    HW2 3735   6.321   5.022   5.196
  946SOL     OW 3736   5.343   2.548   6.048
  946SOL    HW1 3737   5.394   2.620   6.096
  946SOL    HW2 3738   5.273   2.511   6.108
  947SOL     OW 3739   3.714   3.006   3.831
  947SOL    HW1 3740   3.657   2.923   3.828
  947SOL    HW2 3741   3.761   3.010   3.918
  948SOL     OW 3742   3.710   7.007   1.827
  948SOL    HW1 3743   3.805   6.978   1.825
  948SOL    HW2 3744   3.703   0.073   1.875
  949SOL     OW 3745   1.310   6.498   6.442
  949SOL    HW1 3746   1.386   6.471   6.384
  949SOL    HW2 3747   1.281   6.419   6.497
  950SOL     OW 3748   4.649   5.291   2.103
  950SOL    HW1 3749   4.684   5.197   2.095
  950SOL    HW2 3750   4.552   5.287   2.128
  951SOL     OW 3751   2.287   1.179   4.027
  951SOL    HW1 3752   2.318   1.102   3.972
  951SOL    HW2 3753   2.339   1.261   4.002
  952SOL     OW 3754   5.047   1.706   3.082
  952SOL    HW1 3755   5.080   1.683   2.990
  952SOL    HW2 3756   5.124   1.706   3.146
  953SOL     OW 3757   5.397   4.772   4.028
  953SOL    HW1 3758   5.453   4.704   3.979
  953SOL    HW2 3759   5.441   4.862   4.020
  954SOL     OW 3760   3.830   4.807   1.191
  954SOL    HW1 3761   3.762   4.854   1.135
  954SOL    HW2 3762   3.803   4.810   1.287
  955SOL     OW 3763   6.890   3.682   3.385
  955SOL    HW1 3764   6.941   3.630   3.454
  955SOL    HW2 3765   6.954   3.733   3.328
  956SOL     OW 3766   6.468   1.427   2.650
  956SOL    HW1 3767   6.541   1.470   2.596
  956SOL    HW2 3768   6.399   1.496   2.672
  957SOL     OW 3769   6.108   3.875   4.866
  957SOL    HW1 3770   6.076   3.837   4.779
  957SOL    HW2 3771   6.065   3.825   4.941
  958SOL     OW 3772   4.399   1.881   1.378
  958SOL    HW1 3773   4.492   1.912   1.396
  958SOL    HW2 3774   4.337   1.960   1.377
  959SOL     OW 3775   4.304   5.976   2.496
  959SOL    HW1 3776   4.240   5.978   2.420
  959SOL    HW2 3777   4.275   5.907   2.562
  960SOL     OW 3778   1.134   6.202   1.427
  960SOL    HW1 3779   1.048   6.226   1.470
  960SOL    HW2 3780   1.207   6.260   1.464
  961SOL     OW 3781   4.699   0.001   3.758
  961SOL    HW1 3782   4.626   0.048   3.708
  961SOL    HW2 3783   4.721   0.052   3.841
  962SOL     OW 3784   0.503   1.211   5.604
  962SOL    HW1 3785   0.559   1.291   5.583
  962SOL    HW2 3786   0.416   1.216   5.554
  963SOL     OW 3787   6.689   1.927   6.699
  963SOL    HW1 3788   6.697   2.001   6.632
  963SOL    HW2 3789   6.652   1.964   6.784
  964SOL     OW 3790   5.584   4.211   0.316
  964SOL    HW1 3791   5.640   4.294   0.322
  964SOL    HW2 3792   5.617   4.144   0.382
  965SOL     OW 3793   4.869   2.444   1.277
  965SOL    HW1 3794   4.825   2.487   1.198
  965SOL    HW2 3795   4.939   2.505   1.314
  966SOL     OW 3796   5.257   2.342   1.579
  966SOL    HW1 3797   5.320   2.264   1.589
  966SOL    HW2 3798   5.177   2.327   1.637
  967SOL     OW 3799   2.564   4.357   1.334
  967SOL    HW1 3800   2.524   4.285   1.277
  967SOL    HW2 3801   2.508   4.439   1.328
  968SOL     OW 3802   3.627   0.654   1.411
  968SOL    HW1 3803   3.573   0.580   1.371
  968SOL    HW2 3804   3.716   0.619   1.439
  969SOL     OW 3805   3.428   6.080   6.280
  969SOL    HW1 3806   3.506   6.026   6.310
  969SOL    HW2 3807   3.459   6.152   6.217
  970SOL     OW 3808   5.019   0.869   6.066
  970SOL    HW1 3809   5.043   0.825   5.979
  970SOL    HW2 3810   4.946   0.817   6.111
  971SOL     OW 3811   6.775   1.973   3.125
  971SOL    HW1 3812   6.761   2.072   3.120
  971SOL    HW2 3813   6.870   1.954   3.149
  972SOL     OW 3814   5.301   3.185   2.564
  972SOL    HW1 3815   5.353   3.100   2.551
  972SOL    HW2 3816   5.266   3.188   2.657
  973SOL     OW 3817   0.339   4.684   6.970
  973SOL    HW1 3818   0.376   4.674   6.878
  973SOL    HW2 3819   0.264   4.750   6.969
  974SOL     OW 3820   5.085   6.326   2.072
  974SOL    HW1 3821   5.040   6.376   2.146
  974SOL    HW2 3822   5.173   6.292   2.103
  975SOL     OW 3823   1.228   0.131   6.649
  975SOL    HW1 3824   1.133   0.149   6.625
  975SOL    HW2 3825   1.231   0.065   6.724
  976SOL     OW 3826   6.672   4.051   3.174
  976SOL    HW1 3827   6.752   4.042   3.234
  976SOL    HW2 3828   6.615   4.127   3.206
  977SOL     OW 3829   1.316   0.999   2.673
  977SOL    HW1 3830   1.398   1.004   2.615
  977SOL    HW2 3831   1.246   1.059   2.635
  978SOL     OW 3832   4.876   3.352   6.114
  978SOL    HW1 3833   4.854   3.278   6.050
  978SOL    HW2 3834   4.932   3.421   6.067
  979SOL     OW 3835   6.987   1.971   1.164
  979SOL    HW1 3836   7.013   1.896   1.104
  979SOL    HW2 3837   0.016   2.054   1.138
  980SOL     OW 3838   4.455   2.344   3.790
  980SOL    HW1 3839   4.467   2.425   3.848
  980SOL    HW2 3840   4.544   2.314   3.757
  981SOL     OW 3841   0.258   1.607   4.784
  981SOL    HW1 3842   0.290   1.599   4.690
  981SOL    HW2 3843   0.270   1.701   4.816
  982SOL     OW 3844   2.599   2.131   4.658
  982SOL    HW1 3845   2.617   2.229   4.663
  982SOL    HW2 3846   2.585   2.105   4.562
  983SOL     OW 3847   6.243   2.866   4.958
  983SOL    HW1 3848   6.221   2.770   4.973
  983SOL    HW2 3849   6.340   2.874   4.932
  984SOL     OW 3850   2.499   1.991   4.866
  984SOL    HW1 3851   2.486   1.898   4.834
  984SOL    HW2 3852   2.515   2.052   4.788
  985SOL     OW 3853   5.578   4.203   5.095
  985SOL    HW1 3854   5.656   4.252   5.057
  985SOL    HW2 3855   5.536   4.147   5.025
  986SOL     OW 3856   5.883   4.981   1.422
  986SOL    HW1 3857   5.848   5.069   1.390
  986SOL    HW2 3858   5.865   4.972   1.520
  987SOL     OW 3859   4.655   6.891   1.857
  987SOL    HW1 3860   4.686   6.836   1.935
  987SOL    HW2 3861   4.706   6.865   1.775
  988SOL     OW 3862   3.566   3.237   2.476
  988SOL    HW1 3863   3.518   3.267   2.394
  988SOL    HW2 3864   3.509   3.256   2.557
  989SOL     OW 3865   6.220   1.313   6.101
  989SOL    HW1 3866   6.239   1.410   6.086
  989SOL    HW2 3867   6.129   1.303   6.141
  990SOL     OW 3868   4.526   1.409   2.055
  990SOL    HW1 3869   4.453   1.464   2.096
  990SOL    HW2 3870   4.487   1.345   1.989
  991SOL     OW 3871   0.734   3.312   5.385
  991SOL    HW1 3872   0.781   3.242   5.439
  991SOL    HW2 3873   0.659   3.351   5.438
  992SOL     OW 3874   0.013   2.879   2.432
  992SOL    HW1 3875   7.000   2.800   2.484
  992SOL    HW2 3876   0.080   2.929   2.486
  993SOL     OW 3877   0.730   4.450   0.820
  993SOL    HW1 3878   0.782   4.395   0.755
  993SOL    HW2 3879   0.773   4.540   0.828
  994SOL     OW 3880   4.398   4.414   1.106
  994SOL    HW1 3881   4.345   4.434   1.023
  994SOL    HW2 3882   4.447   4.327   1.093
  995SOL     OW 3883   3.938   3.082   5.071
  995SOL    HW1 3884   4.006   3.021   5.112
  995SOL    HW2 3885   3.947   3.174   5.110
  996SOL     OW 3886   3.314   5.186   4.921
  996SOL    HW1 3887   3.226   5.139   4.917
  996SOL    HW2 3888   3.317   5.245   5.002
  997SOL     OW 3889   1.141   0.371   3.115
  997SOL    HW1 3890   1.237   0.392   3.133
  997SOL    HW2 3891   1.082   0.432   3.169
  998SOL     OW 3892   4.973   0.437   4.584
  998SOL    HW1 3893   5.061   0.427   4.630
  998SOL    HW2 3894   4.903   0.387   4.635
  999SOL     OW 3895   4.864   4.101   2.279
  999SOL    HW1 3896   4.774   4.061   2.267
  999SOL    HW2 3897   4.902   4.072   2.367
 1000SOL     OW 3898   2.603   1.377   1.427
 1000SOL    HW1 3899   2.553   1.364   1.513
 1000SOL    HW2 3900   2.620   1.475   1.413
 1001SOL     OW 3901   4.728   5.821   0.585
 1001SOL    HW1 3902   4.809   5.763   0.600
 1001SOL    HW2 3903   4.714   5.879   0.665
 1002SOL     OW 3904   6.302   1.693   1.243
 1002SOL    HW1 3905   6.314   1.612   1.185
 1002SOL    HW2 3906   6.392   1.728   1.270
 1003SOL     OW 3907   2.143   6.500   2.577
 1003SOL    HW1 3908   2.223   6.496   2.517
 1003SOL    HW2 3909   2.161   6.565   2.651
 1004SOL     OW 3910   0.386   6.975   2.592
 1004SOL    HW1 3911   0.314   6.935   2.535
 1004SOL    HW2 3912   0.475   6.960   2.549
 1005SOL     OW 3913   2.241   2.869   4.100
 1005SOL    HW1 3914   2.142   2.881   4.107
 1005SOL    HW2 3915   2.265   2.840   4.008
 1006SOL     OW 3916   0.634   4.891   1.159
 1006SOL    HW1 3917   0.545   4.936   1.161
 1006SOL    HW2 3918   0.631   4.807   1.213
 1007SOL     OW 3919   4.411   0.251   5.316
 1007SOL    HW1 3920   4.433   0.313   5.241
 1007SOL    HW2 3921   4.317   0.217   5.306
 1008SOL     OW 3922   1.371   3.294   5.657
 1008SOL    HW1 3923   1.412   3.367   5.603
 1008SOL    HW2 3924   1.305   3.244   5.601
 1009SOL     OW 3925   0.461   5.647   4.932
 1009SOL    HW1 3926   0.419   5.557   4.929
 1009SOL    HW2 3927   0.431   5.696   5.013
 1010SOL     OW 3928   3.726   2.439   6.286
 1010SOL    HW1 3929   3.695   2.453   6.381
 1010SOL    HW2 3930   3.825   2.449   6.282
 1011SOL     OW 3931   2.169   4.536   2.664
 1011SOL    HW1 3932   2.199   4.618   2.712
 1011SOL    HW2 3933   2.186   4.455   2.721
 1012SOL     OW 3934   6.631   0.226   2.513
 1012SOL    HW1 3935   6.693   0.271   2.447
 1012SOL    HW2 3936   6.541   0.214   2.471
 1013SOL     OW 3937   0.896   1.236   5.787
 1013SOL    HW1 3938   0.947   1.311   5.744
 1013SOL    HW2 3939   0.845   1.186   5.716
 1014SOL     OW 3940   6.235   5.155   6.332
 1014SOL    HW1 3941   6.314   5.143   6.271
 1014SOL    HW2 3942   6.188   5.068   6.343
 1015SOL     OW 3943   2.570   6.754   5.857
 1015SOL    HW1 3944   2.664   6.758   5.823
 1015SOL    HW2 3945   2.541   6.659   5.865
 1016SOL     OW 3946   3.962   3.159   0.046
 1016SOL    HW1 3947   3.921   3.153   6.976
 1016SOL    HW2 3948   3.889   3.161   0.115
 1017SOL     OW 3949   4.028   3.037   1.164
 1017SOL    HW1 3950   4.025   3.049   1.263
 1017SOL    HW2 3951   4.123   3.021   1.136
 1018SOL     OW 3952   0.045   4.416   4.158
 1018SOL    HW1 3953   0.135   4.404   4.117
 1018SOL    HW2 3954   7.014   4.331   4.149
 1019SOL     OW 3955   6.740   6.589   0.887
 1019SOL    HW1 3956   6.802   6.607   0.963
 1019SOL    HW2 3957   6.646   6.605   0.917
 1020SOL     OW 3958   6.964   1.005   1.287
 1020SOL    HW1 3959   6.954   1.010   1.187
 1020SOL    HW2 3960   6.969   0.909   1.315
 1021SOL     OW 3961   5.470   0.230   1.639
 1021SOL    HW1 3962   5.407   0.242   1.715
 1021SOL    HW2 3963   5.420   0.193   1.560
 1022SOL     OW 3964   3.534   4.382   5.218
 1022SOL    HW1 3965   3.448   4.415   5.258
 1022SOL    HW2 3966   3.610   4.406   5.277
 1023SOL     OW 3967   0.477   6.809   2.798
 1023SOL    HW1 3968   0.528   6.881   2.846
 1023SOL    HW2 3969   0.420   6.850   2.727
 1024SOL     OW 3970   0.924   2.473   3.999
 1024SOL    HW1 3971   0.942   2.405   3.928
 1024SOL    HW2 3972   0.827   2.497   3.998
 1025SOL     OW 3973   3.558   3.313   1.274
 1025SOL    HW1 3974   3.548   3.365   1.359
 1025SOL    HW2 3975   3.564   3.216   1.294
 1026SOL     OW 3976   1.850   2.916   1.053
 1026SOL    HW1 3977   1.915   2.981   1.092
 1026SOL    HW2 3978   1.897   2.828   1.036
 1027SOL     OW 3979   3.398   6.355   1.710
 1027SOL    HW1 3980   3.453   6.420   1.761
 1027SOL    HW2 3981   3.349   6.296   1.774
 1028SOL     OW 3982   3.006   6.372   1.222
 1028SOL    HW1 3983   2.942   6.420   1.282
 1028SOL    HW2 3984   2.958   6.343   1.139
 1029SOL     OW 3985   1.712   0.106   6.682
 1029SOL    HW1 3986   1.714   0.190   6.628
 1029SOL    HW2 3987   1.641   0.045   6.646
 1030SOL     OW 3988   3.024   2.665   1.722
 1030SOL    HW1 3989   2.992   2.602   1.793
 1030SOL    HW2 3990   3.023   2.618   1.634
 1031SOL     OW 3991   5.405   4.218   1.358
 1031SOL    HW1 3992   5.452   4.132   1.378
 1031SOL    HW2 3993   5.471   4.284   1.323
 1032SOL     OW 3994   1.879   2.457   5.359
 1032SOL    HW1 3995   1.917   2.543   5.393
 1032SOL    HW2 3996   1.784   2.448   5.389
 1033SOL     OW 3997   1.293   6.606   1.417
 1033SOL    HW1 3998   1.204   6.565   1.439
 1033SOL    HW2 3999   1.278   6.698   1.381
 1034SOL     OW 4000   0.506   4.740   4.779
 1034SOL    HW1 4001   0.604   4.725   4.793
 1034SOL    HW2 4002   0.458   4.733   4.866
 1035SOL     OW 4003   6.960   1.035   4.855
 1035SOL    HW1 4004   6.873   1.039   4.905
 1035SOL    HW2 4005   0.010   1.076   4.911
 1036SOL     OW 4006   3.702   0.868   1.610
 1036SOL    HW1 4007   3.694   0.793   1.676
 1036SOL    HW2 4008   3.672   0.836   1.520
 1037SOL     OW 4009   1.687   1.112   1.813
 1037SOL    HW1 4010   1.644   1.022   1.803
 1037SOL    HW2 4011   1.776   1.111   1.767
 1038SOL     OW 4012   1.373   0.773   5.271
 1038SOL    HW1 4013   1.328   0.848   5.319
 1038SOL    HW2 4014   1.375   0.793   5.173
 1039SOL     OW 4015   3.583   3.760   4.979
 1039SOL    HW1 4016   3.676   3.743   4.946
 1039SOL    HW2 4017   3.586   3.800   5.071
 1040SOL     OW 4018   4.953   1.213   2.842
 1040SOL    HW1 4019   4.982   1.262   2.925
 1040SOL    HW2 4020   4.895   1.136   2.867
 1041SOL     OW 4021   6.868   6.774   3.820
 1041SOL    HW1 4022   6.835   6.793   3.728
 1041SOL    HW2 4023   6.961   6.810   3.830
 1042SOL     OW 4024   4.352   5.107   2.384
 1042SOL    HW1 4025   4.345   5.183   2.319
 1042SOL    HW2 4026   4.420   5.130   2.454
 1043SOL     OW 4027   3.245   1.872   4.421
 1043SOL    HW1 4028   3.267   1.969   4.421
 1043SOL    HW2 4029   3.328   1.818   4.434
 1044SOL     OW 4030   5.747   5.281   2.954
 1044SOL    HW1 4031   5.831   5.228   2.969
 1044SOL    HW2 4032   5.743   5.356   3.019
 1045SOL     OW 4033   4.294   0.141   2.289
 1045SOL    HW1 4034   4.363   0.201   2.250
 1045SOL    HW2 4035   4.337   0.056   2.319
 1046SOL     OW 4036   2.010   0.432   0.433
 1046SOL    HW1 4037   1.945   0.445   0.507
 1046SOL    HW2 4038   2.101   0.462   0.463
 1047SOL     OW 4039   1.730   1.071   3.492
 1047SOL    HW1 4040   1.810   1.085   3.435
 1047SOL    HW2 4041   1.746   1.111   3.583
 1048SOL     OW 4042   4.414   6.063   3.807
 1048SOL    HW1 4043   4.338   6.023   3.859
 1048SOL    HW2 4044   4.417   6.162   3.823
 1049SOL     OW 4045   6.590   6.060   3.758
 1049SOL    HW1 4046   6.640   5.980   3.791
 1049SOL    HW2 4047   6.492   6.048   3.775
 1050SOL     OW 4048   4.211   4.693   1.310
 1050SOL    HW1 4049   4.185   4.600   1.337
 1050SOL    HW2 4050   4.178   4.712   1.217
 1051SOL     OW 4051   1.726   6.281   0.547
 1051SOL    HW1 4052   1.699   6.200   0.599
 1051SOL    HW2 4053   1.817   6.265   0.507
 1052SOL     OW 4054   3.856   0.624   4.488
 1052SOL    HW1 4055   3.887   0.631   4.393
 1052SOL    HW2 4056   3.756   0.634   4.491
 1053SOL     OW 4057   6.034   5.228   2.994
 1053SOL    HW1 4058   6.039   5.150   2.932
 1053SOL    HW2 4059   6.106   5.294   2.971
 1054SOL     OW 4060   3.250   3.824   6.376
 1054SOL    HW1 4061   3.166   3.838   6.428
 1054SOL    HW2 4062   3.253   3.729   6.343
 1055SOL     OW 4063   3.503   6.527   4.399
 1055SOL    HW1 4064   3.580   6.468   4.423
 1055SOL    HW2 4065   3.454   6.553   4.482
 1056SOL     OW 4066   2.110   4.812   6.468
 1056SOL    HW1 4067   2.200   4.774   6.492
 1056SOL    HW2 4068   2.061   4.747   6.410
 1057SOL     OW 4069   2.708   2.951   1.740
 1057SOL    HW1 4070   2.707   3.046   1.771
 1057SOL    HW2 4071   2.802   2.918   1.736
 1058SOL     OW 4072   5.123   1.674   3.516
 1058SOL    HW1 4073   5.068   1.725   3.583
 1058SOL    HW2 4074   5.142   1.583   3.551
 1059SOL     OW 4075   3.184   0.761   1.465
 1059SOL    HW1 4076   3.236   0.840   1.435
 1059SOL    HW2 4077   3.101   0.752   1.410
 1060SOL     OW 4078   0.282   4.402   4.854
 1060SOL    HW1 4079   0.218   4.425   4.780
 1060SOL    HW2 4080   0.301   4.484   4.908
 1061SOL     OW 4081   6.249   2.956   0.471
 1061SOL    HW1 4082   6.185   2.972   0.546
 1061SOL    HW2 4083   6.201   2.963   0.384
 1062SOL     OW 4084   5.705   4.327   6.181
 1062SOL    HW1 4085   5.781   4.264   6.164
 1062SOL    HW2 4086   5.694   4.388   6.103
 1063SOL     OW 4087   1.151   4.857   1.502
 1063SOL    HW1 4088   1.223   4.840   1.569
 1063SOL    HW2 4089   1.192   4.881   1.414
 1064SOL     OW 4090   1.527   4.114   2.170
 1064SOL    HW1 4091   1.615   4.141   2.209
 1064SOL    HW2 4092   1.522   4.143   2.075
 1065SOL     OW 4093   3.617   0.145   3.503
 1065SOL    HW1 4094   3.652   0.223   3.555
 1065SOL    HW2 4095   3.629   0.062   3.556
 1066SOL     OW 4096   4.865   6.362   3.423
 1066SOL    HW1 4097   4.921   6.442   3.442
 1066SOL    HW2 4098   4.879   6.332   3.329
 1067SOL     OW 4099   0.447   3.718   0.944
 1067SOL    HW1 4100   0.489   3.801   0.907
 1067SOL    HW2 4101   0.468   3.641   0.885
 1068SOL     OW 4102   5.746   5.485   3.157
 1068SOL    HW1 4103   5.820   5.544   3.190
 1068SOL    HW2 4104   5.705   5.437   3.235
 1069SOL     OW 4105   4.301   5.191   1.190
 1069SOL    HW1 4106   4.385   5.140   1.209
 1069SOL    HW2 4107   4.222   5.136   1.220
 1070SOL     OW 4108   6.956   6.948   2.481
 1070SOL    HW1 4109   6.967   6.931   2.579
 1070SOL    HW2 4110   6.961   0.024   2.463
 1071SOL     OW 4111   1.140   0.309   3.906
 1071SOL    HW1 4112   1.168   0.375   3.838
 1071SOL    HW2 4113   1.219   0.254   3.935
 1072SOL     OW 4114   1.770   0.838   0.879
 1072SOL    HW1 4115   1.834   0.783   0.825
 1072SOL    HW2 4116   1.708   0.886   0.817
 1073SOL     OW 4117   5.305   6.878   2.260
 1073SOL    HW1 4118   5.380   6.905   2.319
 1073SOL    HW2 4119   5.304   6.778   2.250
 1074SOL     OW 4120   2.196   5.439   1.281
 1074SOL    HW1 4121   2.295   5.433   1.274
 1074SOL    HW2 4122   2.154   5.355   1.245
 1075SOL     OW 4123   5.049   6.867   4.026
 1075SOL    HW1 4124   5.035   6.875   4.124
 1075SOL    HW2 4125   5.004   6.785   3.992
 1076SOL     OW 4126   6.835   2.325   5.422
 1076SOL    HW1 4127   6.830   2.417   5.383
 1076SOL    HW2 4128   6.763   2.268   5.382
 1077SOL     OW 4129   5.560   0.591   1.411
 1077SOL    HW1 4130   5.558   0.495   1.384
 1077SOL    HW2 4131   5.589   0.647   1.334
 1078SOL     OW 4132   1.157   1.335   2.332
 1078SOL    HW1 4133   1.244   1.289   2.312
 1078SOL    HW2 4134   1.124   1.306   2.422
 1079SOL     OW 4135   2.221   6.524   2.095
 1079SOL    HW1 4136   2.170   6.485   2.018
 1079SOL    HW2 4137   2.157   6.571   2.156
 1080SOL     OW 4138   1.649   4.451   3.802
 1080SOL    HW1 4139   1.590   4.381   3.762
 1080SOL    HW2 4140   1.742   4.440   3.767
 1081SOL     OW 4141   0.523   5.735   5.691
 1081SOL    HW1 4142   0.581   5.700   5.616
 1081SOL    HW2 4143   0.448   5.671   5.708
 1082SOL     OW 4144   4.273   2.155   5.239
 1082SOL    HW1 4145   4.232   2.146   5.148
 1082SOL    HW2 4146   4.226   2.094   5.303
 1083SOL     OW 4147   4.292   3.890   0.217
 1083SOL    HW1 4148   4.217   3.867   0.156
 1083SOL    HW2 4149   4.375   3.843   0.187
 1084SOL     OW 4150   5.879   6.286   6.870
 1084SOL    HW1 4151   5.819   6.354   6.910
 1084SOL    HW2 4152   5.844   6.259   6.780
 1085SOL     OW 4153   1.533   3.239   4.144
 1085SOL    HW1 4154   1.471   3.293   4.200
 1085SOL    HW2 4155   1.500   3.239   4.049
 1086SOL     OW 4156   6.926   5.970   0.679
 1086SOL    HW1 4157   6.884   5.914   0.608
 1086SOL    HW2 4158   6.856   6.029   0.720
 1087SOL     OW 4159   5.662   1.535   4.536
 1087SOL    HW1 4160   5.641   1.449   4.490
 1087SOL    HW2 4161   5.723   1.518   4.613
 1088SOL     OW 4162   0.293   4.552   3.449
 1088SOL    HW1 4163   0.287   4.544   3.549
 1088SOL    HW2 4164   0.202   4.539   3.410
 1089SOL     OW 4165   1.099   6.443   4.231
 1089SOL    HW1 4166   1.070   6.489   4.315
 1089SOL    HW2 4167   1.198   6.433   4.231
 1090SOL     OW 4168   2.568   2.298   3.483
 1090SOL    HW1 4169   2.630   2.357   3.535
 1090SOL    HW2 4170   2.606   2.283   3.391
 1091SOL     OW 4171   3.286   2.074   4.845
 1091SOL    HW1 4172   3.346   2.060   4.924
 1091SOL    HW2 4173   3.216   2.142   4.867
 1092SOL     OW 4174   1.467   3.514   1.173
 1092SOL    HW1 4175   1.444   3.610   1.161
 1092SOL    HW2 4176   1.552   3.494   1.123
 1093SOL     OW 4177   2.103   0.999   2.006
 1093SOL    HW1 4178   2.048   1.043   2.077
 1093SOL    HW2 4179   2.169   1.065   1.970
 1094SOL     OW 4180   0.142   6.984   3.348
 1094SOL    HW1 4181   0.170   6.888   3.352
 1094SOL    HW2 4182   0.101   7.003   3.258
 1095SOL     OW 4183   0.797   2.788   6.462
 1095SOL    HW1 4184   0.755   2.820   6.377
 1095SOL    HW2 4185   0.870   2.723   6.441
 1096SOL     OW 4186   3.495   4.125   1.866
 1096SOL    HW1 4187   3.580   4.124   1.919
 1096SOL    HW2 4188   3.420   4.090   1.922
 1097SOL     OW 4189   2.213   4.543   4.222
 1097SOL    HW1 4190   2.207   4.487   4.139
 1097SOL    HW2 4191   2.228   4.484   4.301
 1098SOL     OW 4192   4.106   3.375   7.018
 1098SOL    HW1 4193   4.138   3.405   0.086
 1098SOL    HW2 4194   4.063   3.285   0.005
 1099SOL     OW 4195   4.210   1.468   5.314
 1099SOL    HW1 4196   4.177   1.561   5.330
 1099SOL    HW2 4197   4.212   1.418   5.400
 1100SOL     OW 4198   3.180   1.855   4.724
 1100SOL    HW1 4199   3.208   1.848   4.628
 1100SOL    HW2 4200   3.250   1.901   4.777
 1101SOL     OW 4201   5.963   2.476   6.630
 1101SOL    HW1 4202   5.962   2.405   6.560
 1101SOL    HW2 4203   6.057   2.502   6.650
 1102SOL     OW 4204   0.628   6.587   5.010
 1102SOL    HW1 4205   0.711   6.547   4.970
 1102SOL    HW2 4206   0.607   6.542   5.097
 1103SOL     OW 4207   3.879   1.564   6.985
 1103SOL    HW1 4208   3.931   1.483   7.011
 1103SOL    HW2 4209   3.783   1.553   7.011
 1104SOL     OW 4210   2.018   3.070   5.802
 1104SOL    HW1 4211   2.023   3.109   5.710
 1104SOL    HW2 4212   1.991   2.974   5.796
 1105SOL     OW 4213   6.617   3.645   5.198
 1105SOL    HW1 4214   6.618   3.546   5.185
 1105SOL    HW2 4215   6.525   3.674   5.225
 1106SOL     OW 4216   0.356   2.419   1.914
 1106SOL    HW1 4217   0.354   2.510   1.872
 1106SOL    HW2 4218   0.346   2.349   1.843
 1107SOL     OW 4219   0.498   0.794   6.799
 1107SOL    HW1 4220   0.448   0.862   6.852
 1107SOL    HW2 4221   0.476   0.702   6.834
 1108SOL     OW 4222   3.413   0.183   5.634
 1108SOL    HW1 4223   3.502   0.155   5.670
 1108SOL    HW2 4224   3.419   0.277   5.600
 1109SOL     OW 4225   5.118   1.264   4.274
 1109SOL    HW1 4226   5.184   1.327   4.233
 1109SOL    HW2 4227   5.103   1.288   4.369
 1110SOL     OW 4228   3.017   1.249   2.982
 1110SOL    HW1 4229   2.974   1.165   2.948
 1110SOL    HW2 4230   3.102   1.265   2.932
 1111SOL     OW 4231   4.535   5.378   6.139
 1111SOL    HW1 4232   4.452   5.324   6.150
 1111SOL    HW2 4233   4.601   5.327   6.084
 1112SOL     OW 4234   5.125   1.672   1.988
 1112SOL    HW1 4235   5.071   1.626   1.918
 1112SOL    HW2 4236   5.137   1.611   2.066
 1113SOL     OW 4237   6.160   3.865   2.169
 1113SOL    HW1 4238   6.128   3.931   2.236
 1113SOL    HW2 4239   6.260   3.863   2.168
 1114SOL     OW 4240   3.813   1.675   6.226
 1114SOL    HW1 4241   3.760   1.621   6.161
 1114SOL    HW2 4242   3.751   1.731   6.281
 1115SOL     OW 4243   4.352   3.204   6.128
 1115SOL    HW1 4244   4.296   3.279   6.162
 1115SOL    HW2 4245   4.397   3.231   6.043
 1116SOL     OW 4246   5.101   0.116   5.745
 1116SOL    HW1 4247   5.038   0.042   5.719
 1116SOL    HW2 4248   5.194   0.091   5.718
 1117SOL     OW 4249   2.526   2.060   2.562
 1117SOL    HW1 4250   2.530   2.081   2.659
 1117SOL    HW2 4251   2.465   2.124   2.516
 1118SOL     OW 4252   2.654   4.607   0.300
 1118SOL    HW1 4253   2.741   4.566   0.326
 1118SOL    HW2 4254   2.642   4.603   0.201
 1119SOL     OW 4255   4.473   4.646   1.260
 1119SOL    HW1 4256   4.460   4.555   1.220
 1119SOL    HW2 4257   4.398   4.665   1.324
 1120SOL     OW 4258   6.257   6.636   6.678
 1120SOL    HW1 4259   6.275   6.723   6.633
 1120SOL    HW2 4260   6.160   6.627   6.698
 1121SOL     OW 4261   5.545   4.960   3.588
 1121SOL    HW1 4262   5.572   4.986   3.495
 1121SOL    HW2 4263   5.503   4.869   3.587
 1122SOL     OW 4264   5.700   2.972   0.495
 1122SOL    HW1 4265   5.738   2.927   0.577
 1122SOL    HW2 4266   5.694   3.070   0.511
 1123SOL     OW 4267   5.133   1.184   2.658
 1123SOL    HW1 4268   5.217   1.201   2.709
 1123SOL    HW2 4269   5.055   1.183   2.720
 1124SOL     OW 4270   0.723   3.319   4.820
 1124SOL    HW1 4271   0.775   3.248   4.773
 1124SOL    HW2 4272   0.762   3.335   4.911
 1125SOL     OW 4273   3.053   2.217   4.043
 1125SOL    HW1 4274   3.013   2.240   4.132
 1125SOL    HW2 4275   3.138   2.165   4.057
 1126SOL     OW 4276   6.024   4.881   0.093
 1126SOL    HW1 4277   5.987   4.809   0.152
 1126SOL    HW2 4278   5.976   4.966   0.110
 1127SOL     OW 4279   5.081   5.580   4.875
 1127SOL    HW1 4280   4.988   5.549   4.859
 1127SOL    HW2 4281   5.118   5.534   4.956
 1128SOL     OW 4282   5.570   1.892   5.032
 1128SOL    HW1 4283   5.651   1.948   5.016
 1128SOL    HW2 4284   5.580   1.805   4.983
 1129SOL     OW 4285   1.559   0.118   0.295
 1129SOL    HW1 4286   1.654   0.102   0.270
 1129SOL    HW2 4287   1.544   0.087   0.389
 1130SOL     OW 4288   2.824   4.800   0.923
 1130SOL    HW1 4289   2.833   4.710   0.964
 1130SOL    HW2 4290   2.780   4.792   0.834
 1131SOL     OW 4291   0.998   5.342   5.518
 1131SOL    HW1 4292   0.922   5.355   5.454
 1131SOL    HW2 4293   1.046   5.257   5.496
 1132SOL     OW 4294   5.303   0.196   2.430
 1132SOL    HW1 4295   5.278   0.279   2.479
 1132SOL    HW2 4296   5.234   0.126   2.446
 1133SOL     OW 4297   1.170   0.562   1.190
 1133SOL    HW1 4298   1.076   0.561   1.226
 1133SOL    HW2 4299   1.234   0.536   1.262
 1134SOL     OW 4300   5.263   0.764   1.563
 1134SOL    HW1 4301   5.292   0.712   1.644
 1134SOL    HW2 4302   5.163   0.770   1.561
 1135SOL     OW 4303   2.750   0.049   2.529
 1135SOL    HW1 4304   2.751   0.115   2.454
 1135SOL    HW2 4305   2.751   0.097   2.616
 1136SOL     OW 4306   4.156   4.759   3.067
 1136SOL    HW1 4307   4.228   4.802   3.013
 1136SOL    HW2 4308   4.149   4.662   3.042
 1137SOL     OW 4309   0.898   0.740   6.757
 1137SOL    HW1 4310   0.870   0.648   6.784
 1137SOL    HW2 4311   0.985   0.763   6.802
 1138SOL     OW 4312   0.064   0.496   5.766
 1138SOL    HW1 4313   6.991   0.507   5.797
 1138SOL    HW2 4314   0.069   0.514   5.668
 1139SOL     OW 4315   3.079   4.908   2.022
 1139SOL    HW1 4316   3.067   4.865   1.932
 1139SOL    HW2 4317   3.176   4.908   2.046
 1140SOL     OW 4318   3.685   1.250   1.240
 1140SOL    HW1 4319   3.763   1.240   1.302
 1140SOL    HW2 4320   3.624   1.320   1.275
 1141SOL     OW 4321   7.013   6.434   6.419
 1141SOL    HW1 4322   6.966   6.372   6.356
 1141SOL    HW2 4323   6.998   6.403   6.513
 1142SOL     OW 4324   2.651   6.970   4.579
 1142SOL    HW1 4325   2.682   6.935   4.491
 1142SOL    HW2 4326   2.720   6.953   4.649
 1143SOL     OW 4327   1.889   3.365   3.151
 1143SOL    HW1 4328   1.988   3.355   3.156
 1143SOL    HW2 4329   1.855   3.407   3.235
 1144SOL     OW 4330   6.364   4.799   4.654
 1144SOL    HW1 4331   6.434   4.740   4.696
 1144SOL    HW2 4332   6.358   4.779   4.557
 1145SOL     OW 4333   6.558   3.511   2.664
 1145SOL    HW1 4334   6.479   3.472   2.617
 1145SOL    HW2 4335   6.545   3.503   2.763
 1146SOL     OW 4336   0.012   0.179   2.444
 1146SOL    HW1 4337   0.057   0.190   2.533
 1146SOL    HW2 4338   0.082   0.172   2.373
 1147SOL     OW 4339   2.455   4.965   1.647
 1147SOL    HW1 4340   2.492   5.058   1.647
 1147SOL    HW2 4341   2.503   4.909   1.715
 1148SOL     OW 4342   4.775   6.093   0.410
 1148SOL    HW1 4343   4.800   6.190   0.400
 1148SOL    HW2 4344   4.693   6.085   0.466
 1149SOL     OW 4345   6.819   4.036   3.394
 1149SOL    HW1 4346   6.848   4.081   3.479
 1149SOL    HW2 4347   6.895   3.980   3.360
 1150SOL     OW 4348   2.237   3.838   0.274
 1150SOL    HW1 4349   2.234   3.902   0.351
 1150SOL    HW2 4350   2.147   3.833   0.231
 1151SOL     OW 4351   5.178   4.509   6.849
 1151SOL    HW1 4352   5.088   4.466   6.852
 1151SOL    HW2 4353   5.244   4.453   6.899
 1152SOL     OW 4354   5.515   4.750   6.267
 1152SOL    HW1 4355   5.421   4.717   6.265
 1152SOL    HW2 4356   5.551   4.741   6.360
 1153SOL     OW 4357   1.319   0.414   1.639
 1153SOL    HW1 4358   1.324   0.464   1.552
 1153SOL    HW2 4359   1.366   0.467   1.710
 1154SOL     OW 4360   6.755   4.424   0.921
 1154SOL    HW1 4361   6.714   4.364   0.852
 1154SOL    HW2 4362   6.743   4.383   1.011
 1155SOL     OW 4363   2.777   5.316   6.223
 1155SOL    HW1 4364   2.721   5.387   6.266
 1155SOL    HW2 4365   2.785   5.334   6.125
 1156SOL     OW 4366   4.237   1.614   4.620
 1156SOL    HW1 4367   4.167   1.591   4.688
 1156SOL    HW2 4368   4.328   1.602   4.662
 1157SOL     OW 4369   5.774   1.928   5.787
 1157SOL    HW1 4370   5.868   1.909   5.818
 1157SOL    HW2 4371   5.749   2.021   5.813
 1158SOL     OW 4372   0.307   4.906   5.247
 1158SOL    HW1 4373   0.261   4.938   5.330
 1158SOL    HW2 4374   0.311   4.980   5.180
 1159SOL     OW 4375   6.404   0.002   4.053
 1159SOL    HW1 4376   6.477   0.020   4.119
 1159SOL    HW2 4377   6.440   6.970   3.977
 1160SOL     OW 4378   5.314   4.082   0.942
 1160SOL    HW1 4379   5.345   4.000   0.894
 1160SOL    HW2 4380   5.217   4.097   0.924
 1161SOL     OW 4381   6.005   0.131   5.921
 1161SOL    HW1 4382   6.074   0.120   5.850
 1161SOL    HW2 4383   5.950   0.212   5.901
 1162SOL     OW 4384   3.089   2.466   6.677
 1162SOL    HW1 4385   3.133   2.406   6.611
 1162SOL    HW2 4386   3.158   2.522   6.724
 1163SOL     OW 4387   6.830   3.720   2.089
 1163SOL    HW1 4388   6.800   3.714   2.184
 1163SOL    HW2 4389   6.779   3.793   2.043
 1164SOL     OW 4390   6.390   2.992   4.678
 1164SOL    HW1 4391   6.340   3.070   4.713
 1164SOL    HW2 4392   6.429   2.939   4.754
 1165SOL     OW 4393   3.144   4.897   3.587
 1165SOL    HW1 4394   3.086   4.816   3.598
 1165SOL    HW2 4395   3.089   4.979   3.602
 1166SOL     OW 4396   4.005   6.992   0.134
 1166SOL    HW1 4397   3.907   6.972   0.134
 1166SOL    HW2 4398   4.055   6.916   0.092
 1167SOL     OW 4399   4.613   6.475   6.863
 1167SOL    HW1 4400   4.557   6.392   6.854
 1167SOL    HW2 4401   4.705   6.450   6.892
 1168SOL     OW 4402   4.945   1.971   3.071
 1168SOL    HW1 4403   4.979   1.879   3.091
 1168SOL    HW2 4404   4.861   1.965   3.017
 1169SOL     OW 4405   5.106   2.180   6.315
 1169SOL    HW1 4406   5.012   2.204   6.336
 1169SOL    HW2 4407   5.114   2.157   6.218
 1170SOL     OW 4408   5.038   0.644   3.676
 1170SOL    HW1 4409   5.109   0.583   3.641
 1170SOL    HW2 4410   5.073   0.737   3.681
 1171SOL     OW 4411   2.762   5.933   6.877
 1171SOL    HW1 4412   2.764   5.854   6.939
 1171SOL    HW2 4413   2.667   5.951   6.850
 1172SOL     OW 4414   2.818   4.231   1.705
 1172SOL    HW1 4415   2.721   4.208   1.695
 1172SOL    HW2 4416   2.830   4.301   1.775
 1173SOL     OW 4417   2.476   0.589   6.569
 1173SOL    HW1 4418   2.516   0.676   6.596
 1173SOL    HW2 4419   2.437   0.597   6.477
 1174SOL     OW 4420   2.752   4.620   1.144
 1174SOL    HW1 4421   2.662   4.603   1.185
 1174SOL    HW2 4422   2.812   4.542   1.160
 1175SOL     OW 4423   3.888   3.680   6.673
 1175SOL    HW1 4424   3.971   3.709   6.625
 1175SOL    HW2 4425   3.831   3.626   6.610
 1176SOL     OW 4426   5.945   4.808   6.876
 1176SOL    HW1 4427   5.954   4.849   6.967
 1176SOL    HW2 4428   5.884   4.729   6.881
 1177SOL     OW 4429   6.928   2.418   4.625
 1177SOL    HW1 4430   6.966   2.330   4.597
 1177SOL    HW2 4431   7.003   2.484   4.637
 1178SOL     OW 4432   2.959   4.075   0.803
 1178SOL    HW1 4433   2.870   4.048   0.840
 1178SOL    HW2 4434   3.029   4.063   0.873
 1179SOL     OW 4435   2.984   5.843   0.610
 1179SOL    HW1 4436   2.995   5.748   0.638
 1179SOL    HW2 4437   2.894   5.857   0.571
 1180SOL     OW 4438   2.214   5.899   4.443
 1180SOL    HW1 4439   2.160   5.914   4.360
 1180SOL    HW2 4440   2.307   5.872   4.418
 1181SOL     OW 4441   0.073   3.685   5.867
 1181SOL    HW1 4442   0.131   3.745   5.811
 1181SOL    HW2 4443   6.999   3.697   5.840
 1182SOL     OW 4444   3.204   4.878   2.920
 1182SOL    HW1 4445   3.217   4.958   2.862
 1182SOL    HW2 4446   3.260   4.885   3.002
 1183SOL     OW 4447   3.139   5.092   1.579
 1183SOL    HW1 4448   3.078   5.022   1.542
 1183SOL    HW2 4449   3.195   5.130   1.505
 1184SOL     OW 4450   6.227   0.384   5.741
 1184SOL    HW1 4451   6.223   0.284   5.740
 1184SOL    HW2 4452   6.135   0.421   5.736
 1185SOL     OW 4453   0.853   0.685   0.386
 1185SOL    HW1 4454   0.877   0.743   0.308
 1185SOL    HW2 4455   0.935   0.666   0.440
 1186SOL     OW 4456   5.594   6.112   5.050
 1186SOL    HW1 4457   5.605   6.050   5.128
 1186SOL    HW2 4458   5.592   6.059   4.965
 1187SOL     OW 4459   5.195   6.797   5.567
 1187SOL    HW1 4460   5.278   6.767   5.614
 1187SOL    HW2 4461   5.220   6.855   5.489
 1188SOL     OW 4462   2.996   5.679   6.093
 1188SOL    HW1 4463   3.014   5.614   6.020
 1188SOL    HW2 4464   2.937   5.636   6.162
 1189SOL     OW 4465   6.336   0.638   1.434
 1189SOL    HW1 4466   6.278   0.706   1.479
 1189SOL    HW2 4467   6.306   0.546   1.460
 1190SOL     OW 4468   2.503   5.564   2.960
 1190SOL    HW1 4469   2.581   5.505   2.942
 1190SOL    HW2 4470   2.442   5.520   3.027
 1191SOL     OW 4471   2.748   6.026   4.032
 1191SOL    HW1 4472   2.800   5.952   4.074
 1191SOL    HW2 4473   2.791   6.052   3.946
 1192SOL     OW 4474   5.865   6.273   3.319
 1192SOL    HW1 4475   5.817   6.193   3.283
 1192SOL    HW2 4476   5.823   6.356   3.284
 1193SOL     OW 4477   0.055   1.048   5.405
 1193SOL    HW1 4478   0.081   1.142   5.385
 1193SOL    HW2 4479   0.092   0.987   5.335
 1194SOL     OW 4480   6.532   1.369   1.785
 1194SOL    HW1 4481   6.615   1.321   1.755
 1194SOL    HW2 4482   6.554   1.464   1.805
 1195SOL     OW 4483   0.411   3.545   0.386
 1195SOL    HW1 4484   0.377   3.486   0.459
 1195SOL    HW2 4485   0.373   3.637   0.398
 1196SOL     OW 4486   0.008   4.508   3.393
 1196SOL    HW1 4487   6.989   4.598   3.409
 1196SOL    HW2 4488   6.994   4.469   3.308
 1197SOL     OW 4489   4.490   5.949   4.160
 1197SOL    HW1 4490   4.479   5.853   4.135
 1197SOL    HW2 4491   4.553   5.993   4.097
 1198SOL     OW 4492   0.945   3.658   1.771
 1198SOL    HW1 4493   1.026   3.603   1.791
 1198SOL    HW2 4494   0.946   3.686   1.675
 1199SOL     OW 4495   3.178   4.017   2.934
 1199SOL    HW1 4496   3.150   3.938   2.879
 1199SOL    HW2 4497   3.116   4.027   3.012
 1200SOL     OW 4498   3.778   4.044   4.082
 1200SOL    HW1 4499   3.743   4.094   4.004
 1200SOL    HW2 4500   3.775   4.102   4.164
 1201SOL     OW 4501   6.701   1.087   4.913
 1201SOL    HW1 4502   6.630   1.117   4.977
 1201SOL    HW2 4503   6.701   1.146   4.833
 1202SOL     OW 4504   0.474   5.981   5.382
 1202SOL    HW1 4505   0.521   6.066   5.360
 1202SOL    HW2 4506   0.525   5.931   5.451
 1203SOL     OW 4507   0.510   6.224   0.269
 1203SOL    HW1 4508   0.584   6.257   0.212
 1203SOL    HW2 4509   0.548   6.191   0.356
 1204SOL     OW 4510   4.790   1.368   1.285
 1204SOL    HW1 4511   4.699   1.328   1.292
 1204SOL    HW2 4512   4.785   1.455   1.235
 1205SOL     OW 4513   3.481   3.496   0.416
 1205SOL    HW1 4514   3.398   3.551   0.409
 1205SOL    HW2 4515   3.553   3.537   0.360
 1206SOL     OW 4516   1.236   3.230   5.068
 1206SOL    HW1 4517   1.225   3.169   4.989
 1206SOL    HW2 4518   1.333   3.242   5.088
 1207SOL     OW 4519   0.227   0.136   1.004
 1207SOL    HW1 4520   0.227   0.044   0.965
 1207SOL    HW2 4521   0.289   0.194   0.952
 1208SOL     OW 4522   2.961   3.215   1.323
 1208SOL    HW1 4523   2.892   3.186   1.389
 1208SOL    HW2 4524   3.011   3.135   1.289
 1209SOL     OW 4525   5.310   0.579   4.460
 1209SOL    HW1 4526   5.392   0.548   4.508
 1209SOL    HW2 4527   5.334   0.606   4.367
 1210SOL     OW 4528   3.915   6.358   3.769
 1210SOL    HW1 4529   3.843   6.420   3.800
 1210SOL    HW2 4530   3.880   6.299   3.697
 1211SOL     OW 4531   0.782   2.773   3.040
 1211SOL    HW1 4532   0.779   2.749   3.137
 1211SOL    HW2 4533   0.695   2.814   3.013
 1212SOL     OW 4534   6.680   6.904   5.735
 1212SOL    HW1 4535   6.777   6.925   5.717
 1212SOL    HW2 4536   6.673   6.813   5.776
 1213SOL     OW 4537   6.094   2.592   2.174
 1213SOL    HW1 4538   6.082   2.677   2.225
 1213SOL    HW2 4539   6.005   2.557   2.145
 1214SOL     OW 4540   1.348   2.401   0.034
 1214SOL    HW1 4541   1.406   2.341   0.089
 1214SOL    HW2 4542   1.265   2.424   0.085
 1215SOL     OW 4543   0.985   4.685   3.347
 1215SOL    HW1 4544   1.037   4.683   3.432
 1215SOL    HW2 4545   1.043   4.655   3.272
 1216SOL     OW 4546   5.336   1.448   0.246
 1216SOL    HW1 4547   5.414   1.399   0.207
 1216SOL    HW2 4548   5.369   1.515   0.313
 1217SOL     OW 4549   2.712   4.866   0.344
 1217SOL    HW1 4550   2.636   4.921   0.377
 1217SOL    HW2 4551   2.685   4.769   0.341
 1218SOL     OW 4552   2.023   3.038   5.117
 1218SOL    HW1 4553   1.965   3.083   5.049
 1218SOL    HW2 4554   2.038   2.943   5.090
 1219SOL     OW 4555   5.818   5.762   1.781
 1219SOL    HW1 4556   5.914   5.788   1.782
 1219SOL    HW2 4557   5.773   5.800   1.862
 1220SOL     OW 4558   0.189   4.369   2.556
 1220SOL    HW1 4559   0.130   4.416   2.490
 1220SOL    HW2 4560   0.262   4.430   2.586
 1221SOL     OW 4561   4.750   3.209   6.610
 1221SOL    HW1 4562   4.689   3.268   6.663
 1221SOL    HW2 4563   4.714   3.197   6.518
 1222SOL     OW 4564   6.643   1.128   6.275
 1222SOL    HW1 4565   6.625   1.062   6.348
 1222SOL    HW2 4566   6.701   1.086   6.206
 1223SOL     OW 4567   3.991   1.323   0.047
 1223SOL    HW1 4568   4.088   1.319   0.073
 1223SOL    HW2 4569   3.935   1.306   0.128
 1224SOL     OW 4570   2.869   6.161   6.965
 1224SOL    HW1 4571   2.836   6.068   6.946
 1224SOL    HW2 4572   2.798   6.227   6.939
 1225SOL     OW 4573   3.363   2.807   6.589
 1225SOL    HW1 4574   3.281   2.790   6.534
 1225SOL    HW2 4575   3.356   2.897   6.633
 1226SOL     OW 4576   3.404   6.650   0.944
 1226SOL    HW1 4577   3.361   6.702   1.018
 1226SOL    HW2 4578   3.357   6.563   0.933
 1227SOL     OW 4579   5.296   4.956   6.023
 1227SOL    HW1 4580   5.233   5.008   5.966
 1227SOL    HW2 4581   5.385   5.001   6.026
 1228SOL     OW 4582   2.661   1.980   6.195
 1228SOL    HW1 4583   2.653   2.033   6.279
 1228SOL    HW2 4584   2.636   2.037   6.117
 1229SOL     OW 4585   2.875   5.249   6.911
 1229SOL    HW1 4586   2.917   5.282   6.996
 1229SOL    HW2 4587   2.945   5.210   6.852
 1230SOL     OW 4588   5.427   6.345   1.875
 1230SOL    HW1 4589   5.350   6.283   1.862
 1230SOL    HW2 4590   5.463   6.373   1.786
 1231SOL     OW 4591   2.061   2.159   5.532
 1231SOL    HW1 4592   2.076   2.231   5.464
 1231SOL    HW2 4593   1.984   2.102   5.504
 1232SOL     OW 4594   6.798   1.824   4.960
 1232SOL    HW1 4595   6.858   1.748   4.935
 1232SOL    HW2 4596   6.761   1.807   5.052
 1233SOL     OW 4597   0.708   5.527   4.923
 1233SOL    HW1 4598   0.770   5.564   4.992
 1233SOL    HW2 4599   0.624   5.581   4.922
 1234SOL     OW 4600   5.735   3.228   5.595
 1234SOL    HW1 4601   5.832   3.235   5.618
 1234SOL    HW2 4602   5.681   3.226   5.679
 1235SOL     OW 4603   5.969   5.837   2.427
 1235SOL    HW1 4604   6.001   5.907   2.363
 1235SOL    HW2 4605   6.044   5.809   2.487
 1236SOL     OW 4606   4.406   0.572   0.827
 1236SOL    HW1 4607   4.418   0.668   0.854
 1236SOL    HW2 4608   4.483   0.518   0.863
 1237SOL     OW 4609   1.999   4.331   5.937
 1237SOL    HW1 4610   1.976   4.234   5.935
 1237SOL    HW2 4611   2.064   4.349   6.011
 1238SOL     OW 4612   1.175   0.796   6.406
 1238SOL    HW1 4613   1.230   0.800   6.489
 1238SOL    HW2 4614   1.162   0.888   6.369
 1239SOL     OW 4615   6.913   6.778   6.948
 1239SOL    HW1 4616   6.997   6.749   6.993
 1239SOL    HW2 4617   6.886   6.710   6.879
 1240SOL     OW 4618   5.209   6.310   0.818
 1240SOL    HW1 4619   5.189   6.282   0.724
 1240SOL    HW2 4620   5.137   6.276   0.879
 1241SOL     OW 4621   5.605   4.525   4.872
 1241SOL    HW1 4622   5.701   4.551   4.883
 1241SOL    HW2 4623   5.556   4.541   4.957
 1242SOL     OW 4624   1.140   3.741   1.222
 1242SOL    HW1 4625   1.192   3.691   1.153
 1242SOL    HW2 4626   1.060   3.783   1.179
 1243SOL     OW 4627   0.671   0.573   5.133
 1243SOL    HW1 4628   0.660   0.475   5.153
 1243SOL    HW2 4629   0.762   0.589   5.095
 1244SOL     OW 4630   5.905   6.213   3.856
 1244SOL    HW1 4631   5.824   6.202   3.798
 1244SOL    HW2 4632   5.879   6.200   3.951
 1245SOL     OW 4633   6.129   4.278   0.390
 1245SOL    HW1 4634   6.146   4.241   0.298
 1245SOL    HW2 4635   6.106   4.203   0.452
 1246SOL     OW 4636   2.856   0.868   1.344
 1246SOL    HW1 4637   2.855   0.772   1.374
 1246SOL    HW2 4638   2.780   0.917   1.387
 1247SOL     OW 4639   0.191   6.497   6.021
 1247SOL    HW1 4640   0.267   6.546   6.065
 1247SOL    HW2 4641   0.204   6.399   6.034
 1248SOL     OW 4642   2.084   0.026   4.838
 1248SOL    HW1 4643   2.091   6.983   4.914
 1248SOL    HW2 4644   1.994   0.069   4.838
 1249SOL     OW 4645   6.709   1.856   2.302
 1249SOL    HW1 4646   6.770   1.874   2.378
 1249SOL    HW2 4647   6.699   1.939   2.246
 1250SOL     OW 4648   5.517   5.272   3.245
 1250SOL    HW1 4649   5.554   5.188   3.205
 1250SOL    HW2 4650   5.454   5.314   3.180
 1251SOL     OW 4651   2.798   0.705   3.301
 1251SOL    HW1 4652   2.745   0.624   3.327
 1251SOL    HW2 4653   2.849   0.686   3.218
 1252SOL     OW 4654   4.762   4.085   6.276
 1252SOL    HW1 4655   4.745   4.004   6.220
 1252SOL    HW2 4656   4.779   4.057   6.371
 1253SOL     OW 4657   3.230   6.402   2.011
 1253SOL    HW1 4658   3.227   6.353   1.924
 1253SOL    HW2 4659   3.223   6.500   1.994
 1254SOL     OW 4660   0.886   3.266   3.014
 1254SOL    HW1 4661   0.919   3.190   3.070
 1254SOL    HW2 4662   0.965   3.315   2.976
 1255SOL     OW 4663   5.922   1.460   6.659
 1255SOL    HW1 4664   5.844   1.521   6.647
 1255SOL    HW2 4665   5.976   1.491   6.737
 1256SOL     OW 4666   6.421   6.797   3.261
 1256SOL    HW1 4667   6.397   6.886   3.301
 1256SOL    HW2 4668   6.518   6.795   3.241
 1257SOL     OW 4669   6.558   5.468   4.751
 1257SOL    HW1 4670   6.607   5.547   4.714
 1257SOL    HW2 4671   6.610   5.384   4.731
 1258SOL     OW 4672   1.493   4.953   2.800
 1258SOL    HW1 4673   1.406   5.001   2.795
 1258SOL    HW2 4674   1.549   4.977   2.721
 1259SOL     OW 4675   3.250   0.309   4.212
 1259SOL    HW1 4676   3.324   0.360   4.256
 1259SOL    HW2 4677   3.286   0.222   4.178
 1260SOL     OW 4678   2.897   2.589   6.966
 1260SOL    HW1 4679   2.810   2.540   6.969
 1260SOL    HW2 4680   2.899   2.648   6.885
 1261SOL     OW 4681   0.398   5.566   6.913
 1261SOL    HW1 4682   0.358   5.620   6.839
 1261SOL    HW2 4683   0.497   5.565   6.904
 1262SOL     OW 4684   5.970   4.100   1.793
 1262SOL    HW1 4685   5.981   4.056   1.882
 1262SOL    HW2 4686   6.010   4.192   1.796
 1263SOL     OW 4687   7.018   2.395   1.595
 1263SOL    HW1 4688   0.080   2.389   1.650
 1263SOL    HW2 4689   6.958   2.318   1.617
 1264SOL     OW 4690   6.921   4.033   1.920
 1264SOL    HW1 4691   6.947   4.121   1.881
 1264SOL    HW2 4692   6.982   3.962   1.885
 1265SOL     OW 4693   4.766   5.483   3.764
 1265SOL    HW1 4694   4.860   5.496   3.732
 1265SOL    HW2 4695   4.714   5.568   3.752
 1266SOL     OW 4696   0.362   1.525   4.476
 1266SOL    HW1 4697   0.433   1.596   4.476
 1266SOL    HW2 4698   0.276   1.564   4.443
 1267SOL     OW 4699   4.823   6.658   1.007
 1267SOL    HW1 4700   4.802   6.740   0.953
 1267SOL    HW2 4701   4.898   6.608   0.964
 1268SOL     OW 4702   2.736   2.964   0.420
 1268SOL    HW1 4703   2.639   2.971   0.400
 1268SOL    HW2 4704   2.750   2.963   0.520
 1269SOL     OW 4705   5.994   5.673   5.210
 1269SOL    HW1 4706   6.051   5.647   5.133
 1269SOL    HW2 4707   5.986   5.773   5.213
 1270SOL     OW 4708   1.494   3.305   3.436
 1270SOL    HW1 4709   1.443   3.268   3.359
 1270SOL    HW2 4710   1.547   3.233   3.480
 1271SOL     OW 4711   2.678   2.317   3.913
 1271SOL    HW1 4712   2.756   2.291   3.856
 1271SOL    HW2 4713   2.601   2.343   3.854
 1272SOL     OW 4714   5.622   5.053   0.337
 1272SOL    HW1 4715   5.714   5.013   0.336
 1272SOL    HW2 4716   5.629   5.152   0.348
 1273SOL     OW 4717   0.609   3.057   0.201
 1273SOL    HW1 4718   0.578   3.143   0.241
 1273SOL    HW2 4719   0.539   2.987   0.214
 1274SOL     OW 4720   6.035   4.635   1.696
 1274SOL    HW1 4721   6.122   4.588   1.707
 1274SOL    HW2 4722   6.049   4.734   1.703
 1275SOL     OW 4723   4.039   1.839   4.596
 1275SOL    HW1 4724   4.138   1.846   4.581
 1275SOL    HW2 4725   4.001   1.767   4.538
 1276SOL     OW 4726   6.778   6.191   4.925
 1276SOL    HW1 4727   6.821   6.142   4.849
 1276SOL    HW2 4728   6.690   6.148   4.947
 1277SOL     OW 4729   1.414   5.672   6.090
 1277SOL    HW1 4730   1.443   5.685   5.995
 1277SOL    HW2 4731   1.487   5.626   6.141
 1278SOL     OW 4732   0.938   0.345   4.378
 1278SOL    HW1 4733   0.897   0.425   4.423
 1278SOL    HW2 4734   1.012   0.375   4.319
 1279SOL     OW 4735   2.454   5.498   0.847
 1279SOL    HW1 4736   2.490   5.591   0.841
 1279SOL    HW2 4737   2.441   5.462   0.754
 1280SOL     OW 4738   3.319   6.580   4.608
 1280SOL    HW1 4739   3.272   6.492   4.614
 1280SOL    HW2 4740   3.326   6.620   4.699
 1281SOL     OW 4741   2.477   5.993   3.348
 1281SOL    HW1 4742   2.520   6.023   3.263
 1281SOL    HW2 4743   2.384   6.030   3.353
 1282SOL     OW 4744   0.224   2.225   0.091
 1282SOL    HW1 4745   0.254   2.168   0.168
 1282SOL    HW2 4746   0.172   2.170   0.027
 1283SOL     OW 4747   0.535   3.335   5.906
 1283SOL    HW1 4748   0.456   3.316   5.848
 1283SOL    HW2 4749   0.603   3.386   5.854
 1284SOL     OW 4750   4.761   2.208   1.112
 1284SOL    HW1 4751   4.687   2.191   1.178
 1284SOL    HW2 4752   4.807   2.293   1.136
 1285SOL     OW 4753   4.373   2.375   6.371
 1285SOL    HW1 4754   4.279   2.350   6.394
 1285SOL    HW2 4755   4.422   2.402   6.454
 1286SOL     OW 4756   4.617   3.579   1.378
 1286SOL    HW1 4757   4.696   3.519   1.361
 1286SOL    HW2 4758   4.648   3.666   1.414
 1287SOL     OW 4759   5.769   5.723   5.350
 1287SOL    HW1 4760   5.737   5.658   5.418
 1287SOL    HW2 4761   5.845   5.682   5.298
 1288SOL     OW 4762   3.988   3.015   6.030
 1288SOL    HW1 4763   3.896   2.999   6.067
 1288SOL    HW2 4764   4.043   2.933   6.042
 1289SOL     OW 4765   6.969   6.880   1.231
 1289SOL    HW1 4766   6.915   6.926   1.301
 1289SOL    HW2 4767   0.043   6.877   1.259
 1290SOL     OW 4768   0.795   6.434   6.550
 1290SOL    HW1 4769   0.709   6.483   6.559
 1290SOL    HW2 4770   0.871   6.499   6.553
 1291SOL     OW 4771   6.984   3.974   4.762
 1291SOL    HW1 4772   6.971   3.884   4.802
 1291SOL    HW2 4773   0.000   3.964   4.670
 1292SOL     OW 4774   0.567   5.892   2.503
 1292SOL    HW1 4775   0.556   5.864   2.408
 1292SOL    HW2 4776   0.664   5.890   2.527
 1293SOL     OW 4777   0.638   1.747   6.783
 1293SOL    HW1 4778   0.701   1.712   6.714
 1293SOL    HW2 4779   0.559   1.789   6.739
 1294SOL     OW 4780   0.892   3.394   6.436
 1294SOL    HW1 4781   0.879   3.468   6.370
 1294SOL    HW2 4782   0.990   3.384   6.456
 1295SOL     OW 4783   0.311   3.584   1.643
 1295SOL    HW1 4784   0.369   3.542   1.713
 1295SOL    HW2 4785   0.369   3.628   1.575
 1296SOL     OW 4786   3.967   6.302   5.786
 1296SOL    HW1 4787   3.948   6.206   5.765
 1296SOL    HW2 4788   3.904   6.360   5.734
 1297SOL     OW 4789   7.000   0.717   1.343
 1297SOL    HW1 4790   6.994   0.694   1.246
 1297SOL    HW2 4791   0.054   0.668   1.385
 1298SOL     OW 4792   5.441   5.371   2.914
 1298SOL    HW1 4793   5.498   5.430   2.970
 1298SOL    HW2 4794   5.358   5.419   2.887
 1299SOL     OW 4795   1.938   3.585   3.456
 1299SOL    HW1 4796   1.866   3.548   3.398
 1299SOL    HW2 4797   1.916   3.680   3.481
 1300SOL     OW 4798   2.411   3.038   1.121
 1300SOL    HW1 4799   2.449   3.045   1.213
 1300SOL    HW2 4800   2.349   3.114   1.105
 1301SOL     OW 4801   0.040   0.196   1.238
 1301SOL    HW1 4802   6.969   0.211   1.204
 1301SOL    HW2 4803   0.105   0.205   1.163
 1302SOL     OW 4804   4.323   0.971   5.948
 1302SOL    HW1 4805   4.283   0.982   5.857
 1302SOL    HW2 4806   4.389   1.045   5.965
 1303SOL     OW 4807   3.861   2.026   0.960
 1303SOL    HW1 4808   3.930   2.088   0.922
 1303SOL    HW2 4809   3.887   2.001   1.054
 1304SOL     OW 4810   2.245   0.811   6.957
 1304SOL    HW1 4811   2.228   0.718   6.925
 1304SOL    HW2 4812   2.180   0.834   0.007
 1305SOL     OW 4813   5.807   3.830   0.770
 1305SOL    HW1 4814   5.724   3.809   0.718
 1305SOL    HW2 4815   5.876   3.760   0.752
 1306SOL     OW 4816   1.007   4.789   3.990
 1306SOL    HW1 4817   1.087   4.809   3.933
 1306SOL    HW2 4818   1.026   4.816   4.084
 1307SOL     OW 4819   1.457   4.280   3.732
 1307SOL    HW1 4820   1.385   4.322   3.787
 1307SOL    HW2 4821   1.420   4.201   3.683
 1308SOL     OW 4822   6.216   6.984   5.174
 1308SOL    HW1 4823   6.304   6.959   5.215
 1308SOL    HW2 4824   6.161   0.012   5.242
 1309SOL     OW 4825   5.506   4.496   5.150
 1309SOL    HW1 4826   5.580   4.480   5.215
 1309SOL    HW2 4827   5.491   4.413   5.096
 1310SOL     OW 4828   6.438   4.142   3.925
 1310SOL    HW1 4829   6.510   4.074   3.937
 1310SOL    HW2 4830   6.465   4.207   3.854
 1311SOL     OW 4831   0.827   6.229   5.131
 1311SOL    HW1 4832   0.832   6.281   5.045
 1311SOL    HW2 4833   0.772   6.281   5.197
 1312SOL     OW 4834   0.907   6.962   6.807
 1312SOL    HW1 4835   0.905   6.889   6.876
 1312SOL    HW2 4836   0.928   0.028   6.850
 1313SOL     OW 4837   0.606   4.658   2.771
 1313SOL    HW1 4838   0.635   4.687   2.862
 1313SOL    HW2 4839   0.686   4.636   2.716
 1314SOL     OW 4840   4.467   1.367   5.550
 1314SOL    HW1 4841   4.376   1.387   5.588
 1314SOL    HW2 4842   4.486   1.431   5.476
 1315SOL     OW 4843   0.859   1.246   2.211
 1315SOL    HW1 4844   0.927   1.210   2.147
 1315SOL    HW2 4845   0.803   1.316   2.165
 1316SOL     OW 4846   2.233   5.806   5.022
 1316SOL    HW1 4847   2.291   5.753   4.960
 1316SOL    HW2 4848   2.172   5.745   5.072
 1317SOL     OW 4849   2.440   4.402   6.336
 1317SOL    HW1 4850   2.366   4.346   6.297
 1317SOL    HW2 4851   2.507   4.342   6.379
 1318SOL     OW 4852   0.265   1.707   1.122
 1318SOL    HW1 4853   0.266   1.681   1.219
 1318SOL    HW2 4854   0.290   1.803   1.113
 1319SOL     OW 4855   6.715   6.827   0.116
 1319SOL    HW1 4856   6.773   6.799   0.040
 1319SOL    HW2 4857   6.773   6.848   0.196
 1320SOL     OW 4858   4.222   4.517   0.203
 1320SOL    HW1 4859   4.217   4.582   0.126
 1320SOL    HW2 4860   4.205   4.424   0.169
 1321SOL     OW 4861   5.597   1.881   6.937
 1321SOL    HW1 4862   5.506   1.924   6.938
 1321SOL    HW2 4863   5.666   1.949   6.915
 1322SOL     OW 4864   4.209   0.601   2.828
 1322SOL    HW1 4865   4.174   0.692   2.805
 1322SOL    HW2 4866   4.276   0.609   2.901
 1323SOL     OW 4867   4.137   0.310   5.699
 1323SOL    HW1 4868   4.193   0.371   5.644
 1323SOL    HW2 4869   4.058   0.280   5.646
 1324SOL     OW 4870   0.723   4.141   6.762
 1324SOL    HW1 4871   0.718   4.041   6.756
 1324SOL    HW2 4872   0.650   4.182   6.708
 1325SOL     OW 4873   2.505   0.182   3.383
 1325SOL    HW1 4874   2.604   0.193   3.375
 1325SOL    HW2 4875   2.484   0.126   3.463
 1326SOL     OW 4876   5.006   3.780   5.119
 1326SOL    HW1 4877   5.012   3.783   5.218
 1326SOL    HW2 4878   4.959   3.696   5.091
 1327SOL     OW 4879   0.793   6.097   1.355
 1327SOL    HW1 4880   0.811   6.049   1.269
 1327SOL    HW2 4881   0.759   6.189   1.334
 1328SOL     OW 4882   1.619   3.307   0.940
 1328SOL    HW1 4883   1.680   3.257   0.879
 1328SOL    HW2 4884   1.558   3.242   0.987
 1329SOL     OW 4885   0.043   2.044   1.867
 1329SOL    HW1 4886   0.127   2.092   1.893
 1329SOL    HW2 4887   0.018   1.979   1.939
 1330SOL     OW 4888   0.685   1.263   1.666
 1330SOL    HW1 4889   0.630   1.241   1.747
 1330SOL    HW2 4890   0.736   1.182   1.637
 1331SOL     OW 4891   4.894   3.152   2.714
 1331SOL    HW1 4892   4.843   3.067   2.699
 1331SOL    HW2 4893   4.866   3.220   2.647
 1332SOL     OW 4894   2.738   6.897   6.722
 1332SOL    HW1 4895   2.797   6.844   6.661
 1332SOL    HW2 4896   2.733   6.992   6.690
 1333SOL     OW 4897   3.087   3.368   4.412
 1333SOL    HW1 4898   3.170   3.421   4.426
 1333SOL    HW2 4899   3.007   3.424   4.433
 1334SOL     OW 4900   6.258   1.794   4.522
 1334SOL    HW1 4901   6.186   1.728   4.544
 1334SOL    HW2 4902   6.220   1.867   4.465
 1335SOL     OW 4903   2.456   1.836   2.832
 1335SOL    HW1 4904   2.417   1.919   2.793
 1335SOL    HW2 4905   2.536   1.808   2.779
 1336SOL     OW 4906   1.838   2.873   5.366
 1336SOL    HW1 4907   1.930   2.848   5.396
 1336SOL    HW2 4908   1.836   2.880   5.267
 1337SOL     OW 4909   1.804   2.192   4.397
 1337SOL    HW1 4910   1.790   2.093   4.404
 1337SOL    HW2 4911   1.780   2.236   4.484
 1338SOL     OW 4912   5.128   2.389   5.103
 1338SOL    HW1 4913   5.163   2.471   5.058
 1338SOL    HW2 4914   5.199   2.350   5.161
 1339SOL     OW 4915   6.981   1.896   6.542
 1339SOL    HW1 4916   6.907   1.843   6.583
 1339SOL    HW2 4917   0.043   1.883   6.597
 1340SOL     OW 4918   6.423   1.670   2.213
 1340SOL    HW1 4919   6.519   1.674   2.185
 1340SOL    HW2 4920   6.368   1.637   2.136
 1341SOL     OW 4921   5.213   6.708   6.184
 1341SOL    HW1 4922   5.217   6.712   6.283
 1341SOL    HW2 4923   5.126   6.668   6.156
 1342SOL     OW 4924   2.763   5.745   5.658
 1342SOL    HW1 4925   2.804   5.654   5.663
 1342SOL    HW2 4926   2.835   5.814   5.661
 1343SOL     OW 4927   4.806   5.733   2.387
 1343SOL    HW1 4928   4.848   5.741   2.477
 1343SOL    HW2 4929   4.711   5.764   2.390
 1344SOL     OW 4930   6.456   5.572   4.343
 1344SOL    HW1 4931   6.550   5.538   4.343
 1344SOL    HW2 4932   6.430   5.599   4.436
 1345SOL     OW 4933   1.840   0.349   2.973
 1345SOL    HW1 4934   1.879   0.272   2.922
 1345SOL    HW2 4935   1.740   0.346   2.967
 1346SOL     OW 4936   1.018   5.832   4.649
 1346SOL    HW1 4937   1.036   5.751   4.705
 1346SOL    HW2 4938   1.105   5.871   4.618
 1347SOL     OW 4939   6.910   6.948   4.937
 1347SOL    HW1 4940   6.833   6.923   4.996
 1347SOL    HW2 4941   6.890   0.013   4.892
 1348SOL     OW 4942   5.377   5.611   2.640
 1348SOL    HW1 4943   5.336   5.557   2.713
 1348SOL    HW2 4944   5.412   5.697   2.678
 1349SOL     OW 4945   4.577   2.586   6.014
 1349SOL    HW1 4946   4.536   2.581   6.105
 1349SOL    HW2 4947   4.510   2.555   5.946
 1350SOL     OW 4948   5.093   5.370   5.099
 1350SOL    HW1 4949   5.026   5.306   5.135
 1350SOL    HW2 4950   5.142   5.412   5.176
 1351SOL     OW 4951   5.944   1.537   3.364
 1351SOL    HW1 4952   5.944   1.496   3.272
 1351SOL    HW2 4953   6.036   1.570   3.386
 1352SOL     OW 4954   6.900   6.169   2.166
 1352SOL    HW1 4955   6.833   6.199   2.097
 1352SOL    HW2 4956   6.903   6.069   2.167
 1353SOL     OW 4957   0.712   2.564   0.428
 1353SOL    HW1 4958   0.731   2.489   0.492
 1353SOL    HW2 4959   0.624   2.548   0.384
 1354SOL     OW 4960   0.756   3.933   1.798
 1354SOL    HW1 4961   0.674   3.946   1.743
 1354SOL    HW2 4962   0.826   3.885   1.745
 1355SOL     OW 4963   6.519   2.680   4.444
 1355SOL    HW1 4964   6.454   2.659   4.516
 1355SOL    HW2 4965   6.611   2.653   4.473
 1356SOL     OW 4966   3.042   3.082   2.818
 1356SOL    HW1 4967   3.003   3.150   2.880
 1356SOL    HW2 4968   3.014   3.101   2.725
 1357SOL     OW 4969   0.853   3.088   5.788
 1357SOL    HW1 4970   0.911   3.128   5.717
 1357SOL    HW2 4971   0.910   3.036   5.852
 1358SOL     OW 4972   4.165   0.004   5.984
 1358SOL    HW1 4973   4.162   0.012   6.083
 1358SOL    HW2 4974   4.160   6.929   5.958
 1359SOL     OW 4975   5.587   4.928   2.242
 1359SOL    HW1 4976   5.555   4.903   2.151
 1359SOL    HW2 4977   5.687   4.927   2.244
 1360SOL     OW 4978   3.293   2.585   0.072
 1360SOL    HW1 4979   3.217   2.647   0.094
 1360SOL    HW2 4980   3.301   2.516   0.143
 1361SOL     OW 4981   6.947   5.493   5.449
 1361SOL    HW1 4982   6.900   5.435   5.382
 1361SOL    HW2 4983   6.881   5.528   5.515
 1362SOL     OW 4984   3.287   4.156   3.694
 1362SOL    HW1 4985   3.240   4.068   3.700
 1362SOL    HW2 4986   3.251   4.217   3.765
 1363SOL     OW 4987   0.192   5.605   2.806
 1363SOL    HW1 4988   0.161   5.557   2.724
 1363SOL    HW2 4989   0.271   5.559   2.845
 1364SOL     OW 4990   6.790   3.134   1.364
 1364SOL    HW1 4991   6.831   3.066   1.305
 1364SOL    HW2 4992   6.822   3.225   1.338
 1365SOL     OW 4993   0.811   3.128   6.660
 1365SOL    HW1 4994   0.893   3.174   6.627
 1365SOL    HW2 4995   0.755   3.193   6.712
 1366SOL     OW 4996   0.962   4.633   0.060
 1366SOL    HW1 4997   0.951   4.731   0.078
 1366SOL    HW2 4998   1.059   4.610   0.062
 1367SOL     OW 4999   2.339   0.147   2.942
 1367SOL    HW1 5000   2.386   0.095   3.014
 1367SOL    HW2 5001   2.349   0.245   2.960
 1368SOL     OW 5002   6.028   0.409   3.512
 1368SOL    HW1 5003   6.118   0.368   3.529
 1368SOL    HW2 5004   5.979   0.418   3.599
 1369SOL     OW 5005   2.597   6.977   1.682
 1369SOL    HW1 5006   2.561   6.910   1.618
 1369SOL    HW2 5007   2.654   0.021   1.633
 1370SOL     OW 5008   4.346   1.399   0.846
 1370SOL    HW1 5009   4.366   1.494   0.867
 1370SOL    HW2 5010   4.290   1.394   0.763
 1371SOL     OW 5011   6.041   1.365   4.804
 1371SOL    HW1 5012   5.948   1.398   4.788
 1371SOL    HW2 5013   6.104   1.443   4.804
 1372SOL     OW 5014   0.840   2.880   0.566
 1372SOL    HW1 5015   0.903   2.802   0.562
 1372SOL    HW2 5016   0.845   2.931   0.480
 1373SOL     OW 5017   5.137   2.952   0.321
 1373SOL    HW1 5018   5.124   2.886   0.395
 1373SOL    HW2 5019   5.049   2.995   0.299
 1374SOL     OW 5020   5.256   1.751   0.006
 1374SOL    HW1 5021   5.340   1.714   6.989
 1374SOL    HW2 5022   5.240   1.710   0.096
 1375SOL     OW 5023   0.501   4.211   6.346
 1375SOL    HW1 5024   0.588   4.240   6.306
 1375SOL    HW2 5025   0.447   4.164   6.277
 1376SOL     OW 5026   4.228   4.827   4.839
 1376SOL    HW1 5027   4.258   4.749   4.893
 1376SOL    HW2 5028   4.193   4.795   4.751
 1377SOL     OW 5029   0.654   3.796   5.853
 1377SOL    HW1 5030   0.620   3.806   5.759
 1377SOL    HW2 5031   0.677   3.701   5.870
 1378SOL     OW 5032   5.900   0.906   4.944
 1378SOL    HW1 5033   5.964   0.967   4.899
 1378SOL    HW2 5034   5.879   0.829   4.884
 1379SOL     OW 5035   3.996   6.874   2.874
 1379SOL    HW1 5036   3.996   6.783   2.833
 1379SOL    HW2 5037   4.084   6.919   2.855
 1380SOL     OW 5038   0.124   6.641   2.764
 1380SOL    HW1 5039   0.155   6.643   2.859
 1380SOL    HW2 5040   0.196   6.604   2.706
 1381SOL     OW 5041   6.032   2.482   0.028
 1381SOL    HW1 5042   6.015   2.456   0.123
 1381SOL    HW2 5043   6.018   2.402   6.990
 1382SOL     OW 5044   4.703   4.422   0.558
 1382SOL    HW1 5045   4.761   4.474   0.496
 1382SOL    HW2 5046   4.644   4.360   0.506
 1383SOL     OW 5047   1.037   0.494   1.485
 1383SOL    HW1 5048   0.939   0.487   1.504
 1383SOL    HW2 5049   1.088   0.481   1.570
 1384SOL     OW 5050   4.337   0.045   1.499
 1384SOL    HW1 5051   4.333   0.041   1.399
 1384SOL    HW2 5052   4.427   0.079   1.526
 1385SOL     OW 5053   1.414   3.665   3.948
 1385SOL    HW1 5054   1.457   3.587   3.994
 1385SOL    HW2 5055   1.315   3.656   3.952
 1386SOL     OW 5056   2.966   0.485   4.513
 1386SOL    HW1 5057   2.969   0.550   4.436
 1386SOL    HW2 5058   2.929   0.398   4.481
 1387SOL     OW 5059   4.095   5.737   2.739
 1387SOL    HW1 5060   4.089   5.652   2.687
 1387SOL    HW2 5061   4.046   5.727   2.825
 1388SOL     OW 5062   0.525   6.753   3.246
 1388SOL    HW1 5063   0.613   6.783   3.208
 1388SOL    HW2 5064   0.484   6.686   3.184
 1389SOL     OW 5065   0.090   0.857   3.348
 1389SOL    HW1 5066   0.127   0.946   3.375
 1389SOL    HW2 5067   0.164   0.789   3.348
 1390SOL     OW 5068   5.750   2.677   5.783
 1390SOL    HW1 5069   5.769   2.733   5.863
 1390SOL    HW2 5070   5.653   2.654   5.781
 1391SOL     OW 5071   6.410   0.266   5.461
 1391SOL    HW1 5072   6.445   0.187   5.511
 1391SOL    HW2 5073   6.475   0.292   5.390
 1392SOL     OW 5074   5.350   6.434   6.670
 1392SOL    HW1 5075   5.361   6.514   6.728
 1392SOL    HW2 5076   5.406   6.359   6.705
 1393SOL     OW 5077   6.107   3.832   5.790
 1393SOL    HW1 5078   6.013   3.840   5.756
 1393SOL    HW2 5079   6.157   3.765   5.735
 1394SOL     OW 5080   4.009   6.101   4.129
 1394SOL    HW1 5081   4.024   6.010   4.169
 1394SOL    HW2 5082   4.095   6.138   4.096
 1395SOL     OW 5083   1.242   4.419   4.331
 1395SOL    HW1 5084   1.319   4.360   4.306
 1395SOL    HW2 5085   1.186   4.437   4.250
 1396SOL     OW 5086   1.272   0.498   3.709
 1396SOL    HW1 5087   1.301   0.502   3.613
 1396SOL    HW2 5088   1.174   0.517   3.715
 1397SOL     OW 5089   0.645   6.126   4.571
 1397SOL    HW1 5090   0.699   6.061   4.624
 1397SOL    HW2 5091   0.613   6.199   4.631
 1398SOL     OW 5092   1.650   2.014   7.009
 1398SOL    HW1 5093   1.672   2.068   0.069
 1398SOL    HW2 5094   1.614   1.925   0.015
 1399SOL     OW 5095   4.151   0.357   6.825
 1399SOL    HW1 5096   4.201   0.392   6.746
 1399SOL    HW2 5097   4.125   0.262   6.808
 1400SOL     OW 5098   0.356   1.965   4.510
 1400SOL    HW1 5099   0.316   1.964   4.418
 1400SOL    HW2 5100   0.291   1.926   4.575
 1401SOL     OW 5101   6.081   6.906   4.246
 1401SOL    HW1 5102   6.007   6.887   4.181
 1401SOL    HW2 5103   6.154   6.955   4.199
 1402SOL     OW 5104   5.935   4.419   0.106
 1402SOL    HW1 5105   5.921   4.386   0.199
 1402SOL    HW2 5106   6.034   4.424   0.087
 1403SOL     OW 5107   1.702   2.333   1.544
 1403SOL    HW1 5108   1.691   2.416   1.598
 1403SOL    HW2 5109   1.657   2.344   1.455
 1404SOL     OW 5110   6.375   0.155   0.182
 1404SOL    HW1 5111   6.355   0.063   0.149
 1404SOL    HW2 5112   6.333   0.223   0.121
 1405SOL     OW 5113   2.580   3.911   0.596
 1405SOL    HW1 5114   2.655   3.873   0.649
 1405SOL    HW2 5115   2.564   3.854   0.515
 1406SOL     OW 5116   2.362   5.061   1.351
 1406SOL    HW1 5117   2.417   5.093   1.273
 1406SOL    HW2 5118   2.391   5.109   1.434
 1407SOL     OW 5119   1.480   4.280   3.454
 1407SOL    HW1 5120   1.511   4.315   3.543
 1407SOL    HW2 5121   1.558   4.247   3.402
 1408SOL     OW 5122   5.258   6.592   6.466
 1408SOL    HW1 5123   5.341   6.600   6.410
 1408SOL    HW2 5124   5.273   6.523   6.537
 1409SOL     OW 5125   6.787   0.348   5.084
 1409SOL    HW1 5126   6.744   0.362   4.995
 1409SOL    HW2 5127   6.717   0.322   5.151
 1410SOL     OW 5128   2.868   3.873   0.389
 1410SOL    HW1 5129   2.946   3.843   0.335
 1410SOL    HW2 5130   2.787   3.876   0.331
 1411SOL     OW 5131   3.439   5.552   6.703
 1411SOL    HW1 5132   3.472   5.515   6.616
 1411SOL    HW2 5133   3.340   5.560   6.701
 1412SOL     OW 5134   0.804   4.101   1.585
 1412SOL    HW1 5135   0.879   4.048   1.547
 1412SOL    HW2 5136   0.778   4.064   1.674
 1413SOL     OW 5137   1.974   1.181   4.520
 1413SOL    HW1 5138   2.060   1.132   4.530
 1413SOL    HW2 5139   1.992   1.280   4.517
 1414SOL     OW 5140   2.063   2.132   1.876
 1414SOL    HW1 5141   2.096   2.100   1.965
 1414SOL    HW2 5142   2.141   2.161   1.821
 1415SOL     OW 5143   3.225   1.492   4.514
 1415SOL    HW1 5144   3.314   1.536   4.501
 1415SOL    HW2 5145   3.230   1.397   4.486
 1416SOL     OW 5146   3.521   0.163   4.459
 1416SOL    HW1 5147   3.488   0.072   4.432
 1416SOL    HW2 5148   3.550   0.160   4.555
 1417SOL     OW 5149   3.134   2.990   6.405
 1417SOL    HW1 5150   3.041   3.021   6.424
 1417SOL    HW2 5151   3.143   2.894   6.431
 1418SOL     OW 5152   2.784   3.763   0.685
 1418SOL    HW1 5153   2.840   3.772   0.602
 1418SOL    HW2 5154   2.844   3.759   0.765
 1419SOL     OW 5155   2.763   5.577   3.669
 1419SOL    HW1 5156   2.747   5.662   3.719
 1419SOL    HW2 5157   2.751   5.594   3.571
 1420SOL     OW 5158   3.596   5.428   3.281
 1420SOL    HW1 5159   3.669   5.480   3.327
 1420SOL    HW2 5160   3.578   5.469   3.192
 1421SOL     OW 5161   1.079   4.200   4.070
 1421SOL    HW1 5162   1.100   4.254   3.989
 1421SOL    HW2 5163   0.982   4.208   4.091
 1422SOL     OW 5164   3.515   4.419   6.541
 1422SOL    HW1 5165   3.540   4.482   6.614
 1422SOL    HW2 5166   3.582   4.424   6.467
 1423SOL     OW 5167   3.128   0.835   4.700
 1423SOL    HW1 5168   3.109   0.898   4.624
 1423SOL    HW2 5169   3.181   0.883   4.770
 1424SOL     OW 5170   6.557   3.597   6.621
 1424SOL    HW1 5171   6.532   3.573   6.527
 1424SOL    HW2 5172   6.533   3.522   6.682
 1425SOL     OW 5173   2.295   5.504   5.239
 1425SOL    HW1 5174   2.320   5.427   5.182
 1425SOL    HW2 5175   2.214   5.549   5.202
 1426SOL     OW 5176   2.342   2.404   5.849
 1426SOL    HW1 5177   2.417   2.345   5.882
 1426SOL    HW2 5178   2.258   2.350   5.846
 1427SOL     OW 5179   0.267   0.009   3.917
 1427SOL    HW1 5180   0.254   0.095   3.967
 1427SOL    HW2 5181   0.291   0.029   3.822
 1428SOL     OW 5182   6.860   1.812   1.979
 1428SOL    HW1 5183   6.845   1.896   2.031
 1428SOL    HW2 5184   6.920   1.751   2.031
 1429SOL     OW 5185   6.399   1.678   7.002
 1429SOL    HW1 5186   6.493   1.687   0.011
 1429SOL    HW2 5187   6.337   1.709   0.053
 1430SOL     OW 5188   1.945   4.685   4.184
 1430SOL    HW1 5189   1.947   4.697   4.085
 1430SOL    HW2 5190   2.032   4.647   4.215
 1431SOL     OW 5191   2.724   2.427   6.006
 1431SOL    HW1 5192   2.685   2.512   5.972
 1431SOL    HW2 5193   2.707   2.420   6.105
 1432SOL     OW 5194   2.123   0.903   1.217
 1432SOL    HW1 5195   2.221   0.900   1.197
 1432SOL    HW2 5196   2.109   0.891   1.315
 1433SOL     OW 5197   4.409   6.987   4.381
 1433SOL    HW1 5198   4.461   6.966   4.463
 1433SOL    HW2 5199   4.440   0.053   4.343
 1434SOL     OW 5200   0.191   0.647   6.238
 1434SOL    HW1 5201   0.208   0.664   6.141
 1434SOL    HW2 5202   0.102   0.684   6.263
 1435SOL     OW 5203   6.726   7.013   3.549
 1435SOL    HW1 5204   6.751   6.948   3.477
 1435SOL    HW2 5205   6.731   0.085   3.514
 1436SOL     OW 5206   5.989   3.588   0.096
 1436SOL    HW1 5207   5.989   3.558   0.000
 1436SOL    HW2 5208   5.912   3.546   0.144
 1437SOL     OW 5209   3.157   0.478   5.880
 1437SOL    HW1 5210   3.114   0.462   5.791
 1437SOL    HW2 5211   3.193   0.571   5.884
 1438SOL     OW 5212   2.831   0.228   1.560
 1438SOL    HW1 5213   2.764   0.297   1.533
 1438SOL    HW2 5214   2.819   0.145   1.505
 1439SOL     OW 5215   0.913   4.965   0.939
 1439SOL    HW1 5216   0.814   4.961   0.930
 1439SOL    HW2 5217   0.951   5.027   0.869
 1440SOL     OW 5218   3.359   3.573   5.368
 1440SOL    HW1 5219   3.292   3.646   5.357
 1440SOL    HW2 5220   3.361   3.518   5.284
 1441SOL     OW 5221   6.371   3.749   4.740
 1441SOL    HW1 5222   6.363   3.669   4.681
 1441SOL    HW2 5223   6.292   3.809   4.725
 1442SOL     OW 5224   0.144   4.878   6.933
 1442SOL    HW1 5225   0.084   4.911   7.006
 1442SOL    HW2 5226   0.200   4.954   6.899
 1443SOL     OW 5227   0.945   2.450   4.978
 1443SOL    HW1 5228   0.889   2.379   4.934
 1443SOL    HW2 5229   0.930   2.537   4.932
 1444SOL     OW 5230   4.245   5.568   1.472
 1444SOL    HW1 5231   4.224   5.502   1.399
 1444SOL    HW2 5232   4.254   5.659   1.433
 1445SOL     OW 5233   0.325   2.604   2.407
 1445SOL    HW1 5234   0.310   2.670   2.482
 1445SOL    HW2 5235   0.265   2.627   2.330
 1446SOL     OW 5236   5.299   1.792   6.767
 1446SOL    HW1 5237   5.324   1.887   6.749
 1446SOL    HW2 5238   5.247   1.786   6.852
 1447SOL     OW 5239   6.610   6.617   5.192
 1447SOL    HW1 5240   6.540   6.581   5.253
 1447SOL    HW2 5241   6.698   6.573   5.211
 1448SOL     OW 5242   6.932   2.459   0.081
 1448SOL    HW1 5243   7.005   2.452   0.148
 1448SOL    HW2 5244   6.947   2.539   0.023
 1449SOL     OW 5245   5.806   1.253   7.017
 1449SOL    HW1 5246   5.773   1.248   6.923
 1449SOL    HW2 5247   5.787   1.166   0.042
 1450SOL     OW 5248   0.526   2.096   2.457
 1450SOL    HW1 5249   0.445   2.118   2.511
 1450SOL    HW2 5250   0.540   1.997   2.457
 1451SOL     OW 5251   3.357   1.019   1.709
 1451SOL    HW1 5252   3.399   0.931   1.734
 1451SOL    HW2 5253   3.407   1.059   1.632
 1452SOL     OW 5254   4.033   1.587   4.410
 1452SOL    HW1 5255   3.944   1.554   4.442
 1452SOL    HW2 5256   4.106   1.551   4.468
 1453SOL     OW 5257   0.347   3.684   5.506
 1453SOL    HW1 5258   0.298   3.685   5.419
 1453SOL    HW2 5259   0.297   3.628   5.572
 1454SOL     OW 5260   6.350   2.334   2.996
 1454SOL    HW1 5261   6.294   2.257   2.966
 1454SOL    HW2 5262   6.446   2.306   2.999
 1455SOL     OW 5263   1.779   6.987   1.879
 1455SOL    HW1 5264   1.773   6.888   1.863
 1455SOL    HW2 5265   1.809   0.011   1.795
 1456SOL     OW 5266   6.489   0.089   5.642
 1456SOL    HW1 5267   6.545   0.008   5.657
 1456SOL    HW2 5268   6.522   0.163   5.700
 1457SOL     OW 5269   1.340   0.113   0.858
 1457SOL    HW1 5270   1.320   0.195   0.910
 1457SOL    HW2 5271   1.260   0.088   0.803
 1458SOL     OW 5272   5.420   6.269   3.291
 1458SOL    HW1 5273   5.406   6.365   3.315
 1458SOL    HW2 5274   5.501   6.261   3.234
 1459SOL     OW 5275   3.063   4.727   5.594
 1459SOL    HW1 5276   3.009   4.669   5.533
 1459SOL    HW2 5277   3.154   4.740   5.556
 1460SOL     OW 5278   0.406   5.406   5.932
 1460SOL    HW1 5279   0.439   5.358   5.852
 1460SOL    HW2 5280   0.357   5.489   5.903
 1461SOL     OW 5281   0.657   5.158   3.340
 1461SOL    HW1 5282   0.737   5.209   3.309
 1461SOL    HW2 5283   0.642   5.175   3.437
 1462SOL     OW 5284   0.809   0.878   5.993
 1462SOL    HW1 5285   0.775   0.946   5.928
 1462SOL    HW2 5286   0.886   0.829   5.954
 1463SOL     OW 5287   0.414   5.895   6.440
 1463SOL    HW1 5288   0.488   5.848   6.488
 1463SOL    HW2 5289   0.356   5.828   6.394
 1464SOL     OW 5290   6.426   0.120   0.730
 1464SOL    HW1 5291   6.481   0.037   0.716
 1464SOL    HW2 5292   6.387   0.149   0.642
 1465SOL     OW 5293   1.921   1.593   3.566
 1465SOL    HW1 5294   2.004   1.576   3.618
 1465SOL    HW2 5295   1.841   1.579   3.625
 1466SOL     OW 5296   1.615   1.037   2.626
 1466SOL    HW1 5297   1.697   1.016   2.680
 1466SOL    HW2 5298   1.584   1.130   2.646
 1467SOL     OW 5299   2.440   1.452   2.422
 1467SOL    HW1 5300   2.364   1.495   2.471
 1467SOL    HW2 5301   2.459   1.363   2.461
 1468SOL     OW 5302   5.143   5.304   3.126
 1468SOL    HW1 5303   5.228   5.255   3.107
 1468SOL    HW2 5304   5.162   5.380   3.189
 1469SOL     OW 5305   1.234   0.751   2.089
 1469SOL    HW1 5306   1.147   0.766   2.041
 1469SOL    HW2 5307   1.220   0.683   2.161
 1470SOL     OW 5308   1.912   1.044   2.714
 1470SOL    HW1 5309   1.920   1.080   2.621
 1470SOL    HW2 5310   1.901   1.119   2.778
 1471SOL     OW 5311   0.652   0.448   0.552
 1471SOL    HW1 5312   0.619   0.354   0.558
 1471SOL    HW2 5313   0.600   0.497   0.481
 1472SOL     OW 5314   3.916   5.676   4.924
 1472SOL    HW1 5315   3.843   5.606   4.925
 1472SOL    HW2 5316   3.940   5.696   4.830
 1473SOL     OW 5317   5.681   5.689   3.489
 1473SOL    HW1 5318   5.663   5.596   3.456
 1473SOL    HW2 5319   5.687   5.688   3.589
 1474SOL     OW 5320   6.103   6.085   3.223
 1474SOL    HW1 5321   6.029   6.115   3.284
 1474SOL    HW2 5322   6.070   6.084   3.129
 1475SOL     OW 5323   6.527   0.410   1.507
 1475SOL    HW1 5324   6.568   0.324   1.475
 1475SOL    HW2 5325   6.432   0.415   1.476
 1476SOL     OW 5326   1.814   1.537   1.491
 1476SOL    HW1 5327   1.804   1.450   1.540
 1476SOL    HW2 5328   1.852   1.519   1.400
 1477SOL     OW 5329   2.632   0.260   6.951
 1477SOL    HW1 5330   2.600   0.349   6.918
 1477SOL    HW2 5331   2.554   0.200   6.964
 1478SOL     OW 5332   5.391   4.431   0.271
 1478SOL    HW1 5333   5.479   4.385   0.281
 1478SOL    HW2 5334   5.405   4.519   0.226
 1479SOL     OW 5335   1.408   3.467   6.960
 1479SOL    HW1 5336   1.437   3.534   0.006
 1479SOL    HW2 5337   1.366   3.513   6.883
 1480SOL     OW 5338   2.679   0.162   6.189
 1480SOL    HW1 5339   2.668   0.256   6.221
 1480SOL    HW2 5340   2.751   0.117   6.241
 1481SOL     OW 5341   6.845   2.013   5.345
 1481SOL    HW1 5342   6.931   2.034   5.298
 1481SOL    HW2 5343   6.863   1.990   5.440
 1482SOL     OW 5344   4.850   2.537   1.018
 1482SOL    HW1 5345   4.847   2.440   0.991
 1482SOL    HW2 5346   4.907   2.588   0.953
 1483SOL     OW 5347   6.052   2.331   6.353
 1483SOL    HW1 5348   6.116   2.269   6.307
 1483SOL    HW2 5349   6.023   2.402   6.289
 1484SOL     OW 5350   6.002   4.832   4.275
 1484SOL    HW1 5351   6.054   4.757   4.233
 1484SOL    HW2 5352   6.065   4.894   4.321
 1485SOL     OW 5353   4.135   2.198   2.416
 1485SOL    HW1 5354   4.200   2.261   2.459
 1485SOL    HW2 5355   4.134   2.214   2.317
 1486SOL     OW 5356   5.015   2.093   2.813
 1486SOL    HW1 5357   5.021   2.085   2.713
 1486SOL    HW2 5358   4.961   2.017   2.849
 1487SOL     OW 5359   6.683   2.586   6.675
 1487SOL    HW1 5360   6.680   2.686   6.670
 1487SOL    HW2 5361   6.591   2.550   6.689
 1488SOL     OW 5362   5.433   2.129   3.190
 1488SOL    HW1 5363   5.473   2.190   3.121
 1488SOL    HW2 5364   5.358   2.176   3.237
 1489SOL     OW 5365   4.299   4.962   3.564
 1489SOL    HW1 5366   4.202   4.940   3.556
 1489SOL    HW2 5367   4.311   5.033   3.634
 1490SOL     OW 5368   1.335   3.056   1.458
 1490SOL    HW1 5369   1.390   3.100   1.387
 1490SOL    HW2 5370   1.282   3.126   1.506
 1491SOL     OW 5371   5.932   3.561   4.346
 1491SOL    HW1 5372   5.835   3.579   4.363
 1491SOL    HW2 5373   5.954   3.582   4.251
 1492SOL     OW 5374   5.729   1.579   2.669
 1492SOL    HW1 5375   5.729   1.481   2.688
 1492SOL    HW2 5376   5.715   1.629   2.754
 1493SOL     OW 5377   4.979   6.930   3.706
 1493SOL    HW1 5378   4.893   6.943   3.755
 1493SOL    HW2 5379   4.990   6.833   3.683
 1494SOL     OW 5380   5.345   1.890   5.935
 1494SOL    HW1 5381   5.253   1.888   5.897
 1494SOL    HW2 5382   5.357   1.815   5.999
 1495SOL     OW 5383   6.780   2.593   4.244
 1495SOL    HW1 5384   6.741   2.503   4.221
 1495SOL    HW2 5385   6.800   2.597   4.341
 1496SOL     OW 5386   0.768   1.569   2.330
 1496SOL    HW1 5387   0.862   1.574   2.297
 1496SOL    HW2 5388   0.767   1.573   2.430
 1497SOL     OW 5389   6.935   2.766   3.371
 1497SOL    HW1 5390   6.926   2.673   3.405
 1497SOL    HW2 5391   6.876   2.778   3.290
 1498SOL     OW 5392   2.155   4.388   6.714
 1498SOL    HW1 5393   2.163   4.483   6.743
 1498SOL    HW2 5394   2.207   4.330   6.777
 1499SOL     OW 5395   1.284   3.782   5.926
 1499SOL    HW1 5396   1.210   3.764   5.861
 1499SOL    HW2 5397   1.258   3.857   5.987
 1500SOL     OW 5398   6.679   6.304   0.162
 1500SOL    HW1 5399   6.638   6.335   0.248
 1500SOL    HW2 5400   6.731   6.378   0.121
 1501SOL     OW 5401   5.195   1.298   6.300
 1501SOL    HW1 5402   5.119   1.246   6.261
 1501SOL    HW2 5403   5.170   1.331   6.391
 1502SOL     OW 5404   5.700   6.728   1.512
 1502SOL    HW1 5405   5.787   6.767   1.543
 1502SOL    HW2 5406   5.632   6.737   1.585
 1503SOL     OW 5407   2.701   1.544   2.399
 1503SOL    HW1 5408   2.602   1.558   2.401
 1503SOL    HW2 5409   2.727   1.499   2.314
 1504SOL     OW 5410   0.694   0.974   4.680
 1504SOL    HW1 5411   0.603   0.945   4.711
 1504SOL    HW2 5412   0.751   0.894   4.665
 1505SOL     OW 5413   6.251   0.624   6.259
 1505SOL    HW1 5414   6.251   0.694   6.330
 1505SOL    HW2 5415   6.158   0.592   6.244
 1506SOL     OW 5416   1.651   5.162   1.706
 1506SOL    HW1 5417   1.571   5.127   1.657
 1506SOL    HW2 5418   1.731   5.105   1.685
 1507SOL     OW 5419   0.694   2.153   5.349
 1507SOL    HW1 5420   0.757   2.114   5.416
 1507SOL    HW2 5421   0.708   2.252   5.344
 1508SOL     OW 5422   6.497   0.520   1.969
 1508SOL    HW1 5423   6.471   0.572   1.888
 1508SOL    HW2 5424   6.519   0.426   1.944
 1509SOL     OW 5425   4.617   2.334   6.259
 1509SOL    HW1 5426   4.667   2.416   6.231
 1509SOL    HW2 5427   4.524   2.359   6.286
 1510SOL     OW 5428   6.105   2.745   4.684
 1510SOL    HW1 5429   6.047   2.695   4.748
 1510SOL    HW2 5430   6.198   2.709   4.688
 1511SOL     OW 5431   3.209   2.277   1.220
 1511SOL    HW1 5432   3.250   2.259   1.310
 1511SOL    HW2 5433   3.112   2.298   1.231
 1512SOL     OW 5434   6.992   6.380   1.701
 1512SOL    HW1 5435   6.945   6.453   1.751
 1512SOL    HW2 5436   7.005   6.301   1.762
 1513SOL     OW 5437   3.982   0.261   3.782
 1513SOL    HW1 5438   4.067   0.271   3.730
 1513SOL    HW2 5439   3.916   0.208   3.729
 1514SOL     OW 5440   5.039   2.630   5.651
 1514SOL    HW1 5441   4.965   2.684   5.690
 1514SOL    HW2 5442   5.034   2.536   5.685
 1515SOL     OW 5443   6.457   2.973   5.465
 1515SOL    HW1 5444   6.381   2.947   5.406
 1515SOL    HW2 5445   6.483   3.068   5.446
 1516SOL     OW 5446   0.380   0.095   0.684
 1516SOL    HW1 5447   0.293   0.047   0.675
 1516SOL    HW2 5448   0.366   0.181   0.731
 1517SOL     OW 5449   3.838   5.586   3.341
 1517SOL    HW1 5450   3.869   5.586   3.436
 1517SOL    HW2 5451   3.806   5.678   3.316
 1518SOL     OW 5452   0.590   2.802   0.469
 1518SOL    HW1 5453   0.637   2.864   0.532
 1518SOL    HW2 5454   0.642   2.717   0.461
 1519SOL     OW 5455   6.509   4.967   1.855
 1519SOL    HW1 5456   6.568   4.962   1.775
 1519SOL    HW2 5457   6.532   5.049   1.909
 1520SOL     OW 5458   0.846   3.869   2.411
 1520SOL    HW1 5459   0.750   3.866   2.383
 1520SOL    HW2 5460   0.852   3.848   2.509
 1521SOL     OW 5461   2.986   3.789   0.131
 1521SOL    HW1 5462   2.939   3.862   0.081
 1521SOL    HW2 5463   3.068   3.826   0.174
 1522SOL     OW 5464   6.425   0.457   5.055
 1522SOL    HW1 5465   6.502   0.502   5.099
 1522SOL    HW2 5466   6.450   0.362   5.034
 1523SOL     OW 5467   4.851   3.701   0.375
 1523SOL    HW1 5468   4.814   3.776   0.320
 1523SOL    HW2 5469   4.949   3.694   0.361
 1524SOL     OW 5470   1.297   2.021   2.092
 1524SOL    HW1 5471   1.385   1.974   2.101
 1524SOL    HW2 5472   1.227   1.969   2.140
 1525SOL     OW 5473   6.725   2.253   0.063
 1525SOL    HW1 5474   6.788   2.329   0.048
 1525SOL    HW2 5475   6.726   2.227   0.159
 1526SOL     OW 5476   1.395   0.380   6.392
 1526SOL    HW1 5477   1.335   0.454   6.361
 1526SOL    HW2 5478   1.398   0.308   6.322
 1527SOL     OW 5479   3.691   1.351   5.638
 1527SOL    HW1 5480   3.760   1.399   5.691
 1527SOL    HW2 5481   3.703   1.371   5.541
 1528SOL     OW 5482   5.021   5.586   1.670
 1528SOL    HW1 5483   5.106   5.581   1.618
 1528SOL    HW2 5484   4.955   5.643   1.620
 1529SOL     OW 5485   3.580   0.139   0.220
 1529SOL    HW1 5486   3.576   0.214   0.154
 1529SOL    HW2 5487   3.494   0.133   0.270
 1530SOL     OW 5488   3.203   0.946   2.367
 1530SOL    HW1 5489   3.271   1.007   2.327
 1530SOL    HW2 5490   3.114   0.962   2.324
 1531SOL     OW 5491   5.685   0.904   4.663
 1531SOL    HW1 5492   5.602   0.944   4.626
 1531SOL    HW2 5493   5.748   0.977   4.692
 1532SOL     OW 5494   2.798   3.318   6.083
 1532SOL    HW1 5495   2.824   3.233   6.037
 1532SOL    HW2 5496   2.698   3.328   6.080
 1533SOL     OW 5497   0.305   3.127   0.196
 1533SOL    HW1 5498   0.387   3.175   0.167
 1533SOL    HW2 5499   0.268   3.169   0.278
 1534SOL     OW 5500   1.504   5.013   6.477
 1534SOL    HW1 5501   1.536   4.922   6.504
 1534SOL    HW2 5502   1.421   5.003   6.422
 1535SOL     OW 5503   5.144   6.057   4.408
 1535SOL    HW1 5504   5.083   6.007   4.346
 1535SOL    HW2 5505   5.093   6.134   4.448
 1536SOL     OW 5506   4.109   4.546   5.317
 1536SOL    HW1 5507   4.118   4.496   5.403
 1536SOL    HW2 5508   4.157   4.496   5.245
 1537SOL     OW 5509   3.591   6.362   3.092
 1537SOL    HW1 5510   3.679   6.408   3.075
 1537SOL    HW2 5511   3.535   6.366   3.009
 1538SOL     OW 5512   3.918   5.345   6.227
 1538SOL    HW1 5513   3.985   5.317   6.295
 1538SOL    HW2 5514   3.926   5.443   6.210
 1539SOL     OW 5515   4.350   4.216   1.518
 1539SOL    HW1 5516   4.327   4.222   1.615
 1539SOL    HW2 5517   4.411   4.292   1.494
 1540SOL     OW 5518   1.378   0.118   5.414
 1540SOL    HW1 5519   1.292   0.077   5.385
 1540SOL    HW2 5520   1.445   0.111   5.340
 1541SOL     OW 5521   3.311   2.860   1.973
 1541SOL    HW1 5522   3.388   2.908   2.016
 1541SOL    HW2 5523   3.227   2.913   1.987
 1542SOL     OW 5524   6.502   6.052   1.518
 1542SOL    HW1 5525   6.491   6.131   1.457
 1542SOL    HW2 5526   6.549   5.978   1.469
 1543SOL     OW 5527   3.003   3.816   4.098
 1543SOL    HW1 5528   3.092   3.781   4.128
 1543SOL    HW2 5529   2.954   3.852   4.177
 1544SOL     OW 5530   3.086   3.723   1.511
 1544SOL    HW1 5531   3.023   3.692   1.582
 1544SOL    HW2 5532   3.102   3.649   1.445
 1545SOL     OW 5533   5.304   1.181   4.766
 1545SOL    HW1 5534   5.326   1.272   4.731
 1545SOL    HW2 5535   5.378   1.150   4.826
 1546SOL     OW 5536   5.013   0.074   6.394
 1546SOL    HW1 5537   5.061   7.009   6.378
 1546SOL    HW2 5538   5.047   0.143   6.330
 1547SOL     OW 5539   2.222   4.041   2.746
 1547SOL    HW1 5540   2.226   4.056   2.845
 1547SOL    HW2 5541   2.171   4.115   2.703
 1548SOL     OW 5542   4.788   3.531   5.720
 1548SOL    HW1 5543   4.830   3.607   5.770
 1548SOL    HW2 5544   4.715   3.567   5.661
 1549SOL     OW 5545   4.737   1.781   2.226
 1549SOL    HW1 5546   4.791   1.717   2.281
 1549SOL    HW2 5547   4.752   1.762   2.129
 1550SOL     OW 5548   3.346   5.511   6.220
 1550SOL    HW1 5549   3.317   5.558   6.137
 1550SOL    HW2 5550   3.281   5.438   6.242
 1551SOL     OW 5551   2.315   3.504   0.437
 1551SOL    HW1 5552   2.238   3.511   0.374
 1551SOL    HW2 5553   2.358   3.415   0.428
 1552SOL     OW 5554   6.980   0.451   1.543
 1552SOL    HW1 5555   0.007   0.389   1.482
 1552SOL    HW2 5556   6.998   0.546   1.516
 1553SOL     OW 5557   6.265   1.000   5.604
 1553SOL    HW1 5558   6.202   0.952   5.543
 1553SOL    HW2 5559   6.214   1.065   5.660
 1554SOL     OW 5560   4.041   2.076   3.179
 1554SOL    HW1 5561   3.989   2.148   3.224
 1554SOL    HW2 5562   3.978   2.007   3.143
 1555SOL     OW 5563   4.947   1.792   6.124
 1555SOL    HW1 5564   4.947   1.703   6.170
 1555SOL    HW2 5565   4.855   1.830   6.124
 1556SOL     OW 5566   4.100   0.916   0.400
 1556SOL    HW1 5567   4.195   0.913   0.431
 1556SOL    HW2 5568   4.081   0.836   0.343
 1557SOL     OW 5569   2.107   1.487   6.838
 1557SOL    HW1 5570   2.141   1.413   6.779
 1557SOL    HW2 5571   2.072   1.448   6.924
 1558SOL     OW 5572   5.764   1.475   3.961
 1558SOL    HW1 5573   5.674   1.467   4.004
 1558SOL    HW2 5574   5.780   1.395   3.903
 1559SOL     OW 5575   0.330   2.387   0.643
 1559SOL    HW1 5576   0.277   2.399   0.559
 1559SOL    HW2 5577   0.365   2.476   0.673
 1560SOL     OW 5578   2.698   0.979   6.375
 1560SOL    HW1 5579   2.647   1.063   6.354
 1560SOL    HW2 5580   2.795   0.992   6.355
 1561SOL     OW 5581   5.892   6.656   2.963
 1561SOL    HW1 5582   5.960   6.672   2.892
 1561SOL    HW2 5583   5.917   6.706   3.046
 1562SOL     OW 5584   3.917   6.643   0.738
 1562SOL    HW1 5585   3.960   6.573   0.795
 1562SOL    HW2 5586   3.850   6.694   0.793
 1563SOL     OW 5587   2.286   1.649   6.044
 1563SOL    HW1 5588   2.309   1.705   6.124
 1563SOL    HW2 5589   2.254   1.708   5.970
 1564SOL     OW 5590   1.611   2.387   2.604
 1564SOL    HW1 5591   1.532   2.329   2.623
 1564SOL    HW2 5592   1.602   2.426   2.512
 1565SOL     OW 5593   3.868   5.348   4.045
 1565SOL    HW1 5594   3.782   5.389   4.017
 1565SOL    HW2 5595   3.906   5.295   3.970
 1566SOL     OW 5596   6.263   5.194   4.842
 1566SOL    HW1 5597   6.275   5.094   4.843
 1566SOL    HW2 5598   6.247   5.224   4.748
 1567SOL     OW 5599   6.269   5.930   0.223
 1567SOL    HW1 5600   6.294   6.003   0.160
 1567SOL    HW2 5601   6.252   5.846   0.171
 1568SOL     OW 5602   1.769   6.380   1.998
 1568SOL    HW1 5603   1.747   6.435   1.918
 1568SOL    HW2 5604   1.725   6.418   2.079
 1569SOL     OW 5605   3.444   6.806   3.473
 1569SOL    HW1 5606   3.486   6.783   3.385
 1569SOL    HW2 5607   3.351   6.771   3.476
 1570SOL     OW 5608   2.394   6.379   0.476
 1570SOL    HW1 5609   2.297   6.376   0.500
 1570SOL    HW2 5610   2.442   6.442   0.537
 1571SOL     OW 5611   6.200   1.931   3.330
 1571SOL    HW1 5612   6.152   1.888   3.406
 1571SOL    HW2 5613   6.174   2.028   3.324
 1572SOL     OW 5614   1.952   5.947   0.830
 1572SOL    HW1 5615   1.875   6.001   0.795
 1572SOL    HW2 5616   1.920   5.888   0.904
 1573SOL     OW 5617   6.509   4.374   1.468
 1573SOL    HW1 5618   6.491   4.400   1.563
 1573SOL    HW2 5619   6.472   4.283   1.450
 1574SOL     OW 5620   6.179   2.242   4.070
 1574SOL    HW1 5621   6.125   2.190   4.004
 1574SOL    HW2 5622   6.255   2.186   4.102
 1575SOL     OW 5623   2.321   1.880   1.563
 1575SOL    HW1 5624   2.246   1.922   1.512
 1575SOL    HW2 5625   2.311   1.781   1.562
 1576SOL     OW 5626   0.966   0.182   3.006
 1576SOL    HW1 5627   0.942   0.239   2.928
 1576SOL    HW2 5628   1.045   0.222   3.053
 1577SOL     OW 5629   2.746   0.449   5.673
 1577SOL    HW1 5630   2.660   0.470   5.627
 1577SOL    HW2 5631   2.729   0.386   5.749
 1578SOL     OW 5632   4.785   1.872   5.475
 1578SOL    HW1 5633   4.808   1.959   5.431
 1578SOL    HW2 5634   4.865   1.812   5.476
 1579SOL     OW 5635   0.022   1.429   2.322
 1579SOL    HW1 5636   7.020   1.359   2.255
 1579SOL    HW2 5637   0.109   1.405   2.365
 1580SOL     OW 5638   3.517   4.090   3.549
 1580SOL    HW1 5639   3.450   4.130   3.611
 1580SOL    HW2 5640   3.480   4.005   3.511
 1581SOL     OW 5641   6.333   5.425   5.246
 1581SOL    HW1 5642   6.239   5.393   5.260
 1581SOL    HW2 5643   6.356   5.415   5.149
 1582SOL     OW 5644   2.050   6.909   4.593
 1582SOL    HW1 5645   2.092   6.819   4.583
 1582SOL    HW2 5646   2.106   6.964   4.655
 1583SOL     OW 5647   0.491   5.852   3.553
 1583SOL    HW1 5648   0.534   5.794   3.622
 1583SOL    HW2 5649   0.562   5.902   3.503
 1584SOL     OW 5650   0.708   5.635   5.507
 1584SOL    HW1 5651   0.715   5.576   5.427
 1584SOL    HW2 5652   0.788   5.622   5.566
 1585SOL     OW 5653   4.694   2.274   3.110
 1585SOL    HW1 5654   4.666   2.180   3.128
 1585SOL    HW2 5655   4.624   2.320   3.054
 1586SOL     OW 5656   2.997   5.198   2.020
 1586SOL    HW1 5657   3.030   5.108   1.990
 1586SOL    HW2 5658   3.064   5.267   1.994
 1587SOL     OW 5659   2.508   5.673   5.662
 1587SOL    HW1 5660   2.500   5.630   5.571
 1587SOL    HW2 5661   2.604   5.689   5.682
 1588SOL     OW 5662   4.570   1.218   2.228
 1588SOL    HW1 5663   4.475   1.200   2.253
 1588SOL    HW2 5664   4.573   1.294   2.163
 1589SOL     OW 5665   6.928   3.258   2.693
 1589SOL    HW1 5666   6.960   3.168   2.664
 1589SOL    HW2 5667   7.002   3.305   2.743
 1590SOL     OW 5668   4.457   0.228   4.301
 1590SOL    HW1 5669   4.362   0.246   4.275
 1590SOL    HW2 5670   4.513   0.217   4.219
 1591SOL     OW 5671   6.745   5.561   1.127
 1591SOL    HW1 5672   6.788   5.606   1.205
 1591SOL    HW2 5673   6.739   5.625   1.051
 1592SOL     OW 5674   2.317   3.563   6.343
 1592SOL    HW1 5675   2.309   3.485   6.280
 1592SOL    HW2 5676   2.234   3.618   6.339
 1593SOL     OW 5677   1.334   6.979   4.781
 1593SOL    HW1 5678   1.361   6.979   4.685
 1593SOL    HW2 5679   1.258   6.916   4.795
 1594SOL     OW 5680   0.939   6.357   1.850
 1594SOL    HW1 5681   0.874   6.430   1.829
 1594SOL    HW2 5682   0.967   6.363   1.946
 1595SOL     OW 5683   0.998   5.276   0.548
 1595SOL    HW1 5684   0.995   5.270   0.648
 1595SOL    HW2 5685   0.998   5.373   0.521
 1596SOL     OW 5686   0.077   3.357   3.985
 1596SOL    HW1 5687   0.000   3.344   3.923
 1596SOL    HW2 5688   0.071   3.448   4.027
 1597SOL     OW 5689   1.252   5.920   0.661
 1597SOL    HW1 5690   1.318   5.981   0.705
 1597SOL    HW2 5691   1.224   5.849   0.726
 1598SOL     OW 5692   6.848   4.231   5.704
 1598SOL    HW1 5693   6.936   4.269   5.675
 1598SOL    HW2 5694   6.864   4.156   5.768
 1599SOL     OW 5695   5.107   5.375   4.657
 1599SOL    HW1 5696   5.138   5.470   4.665
 1599SOL    HW2 5697   5.186   5.315   4.656
 1600SOL     OW 5698   3.390   1.221   3.682
 1600SOL    HW1 5699   3.322   1.158   3.719
 1600SOL    HW2 5700   3.374   1.313   3.718
 1601SOL     OW 5701   6.664   6.288   4.098
 1601SOL    HW1 5702   6.668   6.258   4.194
 1601SOL    HW2 5703   6.713   6.375   4.089
 1602SOL     OW 5704   4.112   5.074   4.236
 1602SOL    HW1 5705   4.081   5.167   4.257
 1602SOL    HW2 5706   4.122   5.065   4.137
 1603SOL     OW 5707   1.532   6.385   3.005
 1603SOL    HW1 5708   1.471   6.456   2.970
 1603SOL    HW2 5709   1.575   6.416   3.089
 1604SOL     OW 5710   5.399   4.507   1.639
 1604SOL    HW1 5711   5.420   4.410   1.651
 1604SOL    HW2 5712   5.457   4.561   1.700
 1605SOL     OW 5713   6.546   5.220   1.938
 1605SOL    HW1 5714   6.473   5.237   1.872
 1605SOL    HW2 5715   6.532   5.277   2.019
 1606SOL     OW 5716   4.442   6.319   5.976
 1606SOL    HW1 5717   4.343   6.327   5.987
 1606SOL    HW2 5718   4.462   6.273   5.890
 1607SOL     OW 5719   3.776   0.070   0.768
 1607SOL    HW1 5720   3.791   0.090   0.671
 1607SOL    HW2 5721   3.802   0.149   0.823
 1608SOL     OW 5722   0.563   1.145   3.473
 1608SOL    HW1 5723   0.623   1.082   3.521
 1608SOL    HW2 5724   0.570   1.236   3.513
 1609SOL     OW 5725   4.291   0.060   0.412
 1609SOL    HW1 5726   4.382   0.071   0.451
 1609SOL    HW2 5727   4.298   0.041   0.314
 1610SOL     OW 5728   6.065   5.219   0.378
 1610SOL    HW1 5729   6.020   5.260   0.457
 1610SOL    HW2 5730   6.015   5.137   0.349
 1611SOL     OW 5731   2.463   3.751   0.393
 1611SOL    HW1 5732   2.400   3.771   0.319
 1611SOL    HW2 5733   2.433   3.668   0.441
 1612SOL     OW 5734   2.650   7.006   0.414
 1612SOL    HW1 5735   2.742   0.000   0.379
 1612SOL    HW2 5736   2.642   0.024   0.505
 1613SOL     OW 5737   1.449   5.565   2.115
 1613SOL    HW1 5738   1.544   5.577   2.143
 1613SOL    HW2 5739   1.420   5.645   2.061
 1614SOL     OW 5740   5.217   2.122   6.046
 1614SOL    HW1 5741   5.312   2.093   6.050
 1614SOL    HW2 5742   5.170   2.072   5.973
 1615SOL     OW 5743   6.437   5.684   0.590
 1615SOL    HW1 5744   6.524   5.635   0.587
 1615SOL    HW2 5745   6.446   5.764   0.649
 1616SOL     OW 5746   3.615   0.822   4.948
 1616SOL    HW1 5747   3.603   0.918   4.926
 1616SOL    HW2 5748   3.694   0.786   4.897
 1617SOL     OW 5749   5.509   6.671   3.088
 1617SOL    HW1 5750   5.550   6.618   3.014
 1617SOL    HW2 5751   5.559   6.656   3.173
 1618SOL     OW 5752   1.817   6.388   2.816
 1618SOL    HW1 5753   1.782   6.441   2.893
 1618SOL    HW2 5754   1.855   6.302   2.850
 1619SOL     OW 5755   0.669   4.380   1.322
 1619SOL    HW1 5756   0.644   4.290   1.358
 1619SOL    HW2 5757   0.657   4.381   1.223
 1620SOL     OW 5758   2.976   4.488   1.326
 1620SOL    HW1 5759   2.979   4.403   1.273
 1620SOL    HW2 5760   2.915   4.476   1.404
 1621SOL     OW 5761   6.157   0.865   0.322
 1621SOL    HW1 5762   6.126   0.773   0.299
 1621SOL    HW2 5763   6.213   0.863   0.405
 1622SOL     OW 5764   0.535   3.428   5.522
 1622SOL    HW1 5765   0.476   3.347   5.515
 1622SOL    HW2 5766   0.481   3.510   5.509
 1623SOL     OW 5767   1.386   2.848   5.276
 1623SOL    HW1 5768   1.288   2.866   5.288
 1623SOL    HW2 5769   1.433   2.934   5.258
 1624SOL     OW 5770   3.656   1.579   4.794
 1624SOL    HW1 5771   3.739   1.523   4.796
 1624SOL    HW2 5772   3.579   1.524   4.826
 1625SOL     OW 5773   1.357   4.763   0.256
 1625SOL    HW1 5774   1.447   4.722   0.268
 1625SOL    HW2 5775   1.360   4.828   0.180
 1626SOL     OW 5776   3.325   1.075   0.653
 1626SOL    HW1 5777   3.268   1.026   0.588
 1626SOL    HW2 5778   3.421   1.054   0.636
 1627SOL     OW 5779   6.052   3.268   3.971
 1627SOL    HW1 5780   6.006   3.264   4.060
 1627SOL    HW2 5781   6.046   3.362   3.936
 1628SOL     OW 5782   4.520   5.203   0.609
 1628SOL    HW1 5783   4.610   5.226   0.646
 1628SOL    HW2 5784   4.509   5.103   0.609
 1629SOL     OW 5785   2.758   1.062   3.966
 1629SOL    HW1 5786   2.816   1.093   3.891
 1629SOL    HW2 5787   2.699   0.987   3.934
 1630SOL     OW 5788   0.262   4.858   6.173
 1630SOL    HW1 5789   0.347   4.904   6.200
 1630SOL    HW2 5790   0.246   4.780   6.233
 1631SOL     OW 5791   1.127   2.652   1.204
 1631SOL    HW1 5792   1.167   2.628   1.115
 1631SOL    HW2 5793   1.138   2.751   1.220
 1632SOL     OW 5794   5.754   2.955   1.509
 1632SOL    HW1 5795   5.730   3.052   1.498
 1632SOL    HW2 5796   5.681   2.908   1.559
 1633SOL     OW 5797   5.008   4.149   4.508
 1633SOL    HW1 5798   4.922   4.106   4.480
 1633SOL    HW2 5799   5.083   4.084   4.499
 1634SOL     OW 5800   4.889   5.835   4.571
 1634SOL    HW1 5801   4.845   5.924   4.561
 1634SOL    HW2 5802   4.824   5.763   4.547
 1635SOL     OW 5803   0.578   4.970   6.734
 1635SOL    HW1 5804   0.652   5.031   6.706
 1635SOL    HW2 5805   0.516   4.955   6.656
 1636SOL     OW 5806   2.800   4.307   1.174
 1636SOL    HW1 5807   2.745   4.312   1.257
 1636SOL    HW2 5808   2.743   4.328   1.095
 1637SOL     OW 5809   6.656   0.239   3.461
 1637SOL    HW1 5810   6.666   0.275   3.368
 1637SOL    HW2 5811   6.676   0.312   3.527
 1638SOL     OW 5812   7.009   3.906   3.237
 1638SOL    HW1 5813   0.085   3.894   3.256
 1638SOL    HW2 5814   6.997   3.938   3.144
 1639SOL     OW 5815   5.618   5.517   1.471
 1639SOL    HW1 5816   5.613   5.521   1.571
 1639SOL    HW2 5817   5.525   5.512   1.434
 1640SOL     OW 5818   6.201   0.205   6.763
 1640SOL    HW1 5819   6.115   0.216   6.813
 1640SOL    HW2 5820   6.267   0.158   6.821
 1641SOL     OW 5821   4.406   1.734   2.456
 1641SOL    HW1 5822   4.361   1.660   2.506
 1641SOL    HW2 5823   4.505   1.729   2.471
 1642SOL     OW 5824   0.306   3.448   0.103
 1642SOL    HW1 5825   0.254   3.532   0.116
 1642SOL    HW2 5826   0.263   3.374   0.155
 1643SOL     OW 5827   2.565   5.152   4.306
 1643SOL    HW1 5828   2.612   5.197   4.382
 1643SOL    HW2 5829   2.627   5.087   4.263
 1644SOL     OW 5830   5.738   3.696   6.963
 1644SOL    HW1 5831   5.813   3.638   6.934
 1644SOL    HW2 5832   5.766   3.792   6.957
 1645SOL     OW 5833   3.148   5.339   6.344
 1645SOL    HW1 5834   3.212   5.314   6.417
 1645SOL    HW2 5835   3.100   5.258   6.312
 1646SOL     OW 5836   2.357   6.868   0.789
 1646SOL    HW1 5837   2.287   6.846   0.721
 1646SOL    HW2 5838   2.317   6.923   0.862
 1647SOL     OW 5839   6.089   3.322   4.736
 1647SOL    HW1 5840   6.068   3.403   4.791
 1647SOL    HW2 5841   6.019   3.253   4.750
 1648SOL     OW 5842   5.327   5.852   0.473
 1648SOL    HW1 5843   5.351   5.773   0.417
 1648SOL    HW2 5844   5.245   5.896   0.436
 1649SOL     OW 5845   3.593   1.313   3.932
 1649SOL    HW1 5846   3.511   1.357   3.969
 1649SOL    HW2 5847   3.566   1.248   3.861
 1650SOL     OW 5848   0.772   5.923   4.744
 1650SOL    HW1 5849   0.751   5.908   4.841
 1650SOL    HW2 5850   0.859   5.880   4.722
 1651SOL     OW 5851   6.869   2.193   1.714
 1651SOL    HW1 5852   6.928   2.129   1.763
 1651SOL    HW2 5853   6.795   2.142   1.670
 1652SOL     OW 5854   1.119   3.446   2.956
 1652SOL    HW1 5855   1.210   3.467   2.992
 1652SOL    HW2 5856   1.079   3.529   2.915
 1653SOL     OW 5857   0.951   6.743   6.969
 1653SOL    HW1 5858   0.912   6.732   0.039
 1653SOL    HW2 5859   1.031   6.684   6.960
 1654SOL     OW 5860   0.207   4.072   1.667
 1654SOL    HW1 5861   0.182   4.043   1.574
 1654SOL    HW2 5862   0.207   3.993   1.728
 1655SOL     OW 5863   0.104   1.973   4.851
 1655SOL    HW1 5864   0.129   2.061   4.809
 1655SOL    HW2 5865   0.074   1.989   4.945
 1656SOL     OW 5866   2.425   4.395   3.031
 1656SOL    HW1 5867   2.516   4.435   3.036
 1656SOL    HW2 5868   2.407   4.343   3.115
 1657SOL     OW 5869   6.341   1.187   4.778
 1657SOL    HW1 5870   6.425   1.146   4.742
 1657SOL    HW2 5871   6.364   1.273   4.824
 1658SOL     OW 5872   6.242   0.370   1.499
 1658SOL    HW1 5873   6.182   0.409   1.570
 1658SOL    HW2 5874   6.230   0.271   1.497
 1659SOL     OW 5875   3.432   0.182   6.749
 1659SOL    HW1 5876   3.437   0.282   6.753
 1659SOL    HW2 5877   3.444   0.152   6.655
 1660SOL     OW 5878   1.942   6.158   2.977
 1660SOL    HW1 5879   1.949   6.061   2.999
 1660SOL    HW2 5880   2.026   6.205   3.005
 1661SOL     OW 5881   2.229   6.176   1.369
 1661SOL    HW1 5882   2.316   6.165   1.320
 1661SOL    HW2 5883   2.224   6.268   1.407
 1662SOL     OW 5884   0.596   1.271   4.314
 1662SOL    HW1 5885   0.667   1.302   4.377
 1662SOL    HW2 5886   0.506   1.298   4.349
 1663SOL     OW 5887   4.130   6.061   3.434
 1663SOL    HW1 5888   4.124   6.110   3.521
 1663SOL    HW2 5889   4.226   6.052   3.408
 1664SOL     OW 5890   2.192   6.459   4.879
 1664SOL    HW1 5891   2.123   6.505   4.935
 1664SOL    HW2 5892   2.147   6.388   4.824
 1665SOL     OW 5893   6.750   2.592   2.387
 1665SOL    HW1 5894   6.703   2.680   2.387
 1665SOL    HW2 5895   6.685   2.519   2.364
 1666SOL     OW 5896   5.102   1.436   6.546
 1666SOL    HW1 5897   5.101   1.415   6.644
 1666SOL    HW2 5898   5.049   1.518   6.528
 1667SOL     OW 5899   0.433   6.787   1.176
 1667SOL    HW1 5900   0.492   6.837   1.113
 1667SOL    HW2 5901   0.488   6.728   1.235
 1668SOL     OW 5902   4.927   6.002   3.740
 1668SOL    HW1 5903   4.838   6.017   3.696
 1668SOL    HW2 5904   4.998   6.000   3.670
 1669SOL     OW 5905   6.432   4.713   6.249
 1669SOL    HW1 5906   6.473   4.694   6.339
 1669SOL    HW2 5907   6.365   4.787   6.259
 1670SOL     OW 5908   0.298   3.964   5.435
 1670SOL    HW1 5909   0.308   4.063   5.449
 1670SOL    HW2 5910   0.344   3.915   5.509
 1671SOL     OW 5911   5.288   2.051   2.883
 1671SOL    HW1 5912   5.308   1.953   2.890
 1671SOL    HW2 5913   5.194   2.064   2.852
 1672SOL     OW 5914   1.026   2.870   1.308
 1672SOL    HW1 5915   1.060   2.870   1.402
 1672SOL    HW2 5916   0.931   2.837   1.306
 1673SOL     OW 5917   0.333   1.419   4.951
 1673SOL    HW1 5918   0.278   1.470   4.885
 1673SOL    HW2 5919   0.408   1.476   4.983
 1674SOL     OW 5920   1.106   2.966   2.689
 1674SOL    HW1 5921   1.171   2.954   2.763
 1674SOL    HW2 5922   1.122   2.896   2.619
 1675SOL     OW 5923   5.665   0.340   0.230
 1675SOL    HW1 5924   5.600   0.276   0.270
 1675SOL    HW2 5925   5.657   0.429   0.276
 1676SOL     OW 5926   2.344   2.535   1.478
 1676SOL    HW1 5927   2.291   2.614   1.447
 1676SOL    HW2 5928   2.284   2.456   1.487
 1677SOL     OW 5929   3.096   3.190   3.977
 1677SOL    HW1 5930   3.141   3.279   3.979
 1677SOL    HW2 5931   3.037   3.180   4.056
 1678SOL     OW 5932   6.490   4.432   3.594
 1678SOL    HW1 5933   6.502   4.333   3.604
 1678SOL    HW2 5934   6.392   4.453   3.591
 1679SOL     OW 5935   2.444   2.546   4.835
 1679SOL    HW1 5936   2.387   2.465   4.851
 1679SOL    HW2 5937   2.407   2.623   4.888
 1680SOL     OW 5938   0.590   3.020   5.395
 1680SOL    HW1 5939   0.599   3.029   5.296
 1680SOL    HW2 5940   0.513   3.075   5.427
 1681SOL     OW 5941   0.385   5.188   0.141
 1681SOL    HW1 5942   0.303   5.246   0.138
 1681SOL    HW2 5943   0.463   5.239   0.104
 1682SOL     OW 5944   1.793   0.758   5.545
 1682SOL    HW1 5945   1.811   0.720   5.635
 1682SOL    HW2 5946   1.696   0.751   5.524
 1683SOL     OW 5947   5.367   5.285   2.430
 1683SOL    HW1 5948   5.397   5.258   2.338
 1683SOL    HW2 5949   5.328   5.377   2.426
 1684SOL     OW 5950   1.087   6.485   2.174
 1684SOL    HW1 5951   1.179   6.463   2.143
 1684SOL    HW2 5952   1.034   6.400   2.182
 1685SOL     OW 5953   2.037   0.910   5.350
 1685SOL    HW1 5954   2.068   0.916   5.255
 1685SOL    HW2 5955   2.094   0.844   5.399
 1686SOL     OW 5956   2.266   5.836   3.980
 1686SOL    HW1 5957   2.331   5.907   3.954
 1686SOL    HW2 5958   2.309   5.772   4.043
 1687SOL     OW 5959   2.082   3.001   1.920
 1687SOL    HW1 5960   2.147   2.963   1.854
 1687SOL    HW2 5961   2.120   3.085   1.959
 1688SOL     OW 5962   2.489   1.696   3.775
 1688SOL    HW1 5963   2.427   1.772   3.796
 1688SOL    HW2 5964   2.523   1.706   3.681
 1689SOL     OW 5965   6.205   0.677   2.950
 1689SOL    HW1 5966   6.252   0.749   2.898
 1689SOL    HW2 5967   6.232   0.683   3.046
 1690SOL     OW 5968   1.540   2.548   4.334
 1690SOL    HW1 5969   1.614   2.512   4.390
 1690SOL    HW2 5970   1.483   2.473   4.300
 1691SOL     OW 5971   5.157   3.117   3.367
 1691SOL    HW1 5972   5.157   3.169   3.453
 1691SOL    HW2 5973   5.227   3.046   3.371
 1692SOL     OW 5974   4.805   6.341   1.138
 1692SOL    HW1 5975   4.891   6.388   1.120
 1692SOL    HW2 5976   4.769   6.370   1.227
 1693SOL     OW 5977   5.945   1.764   2.606
 1693SOL    HW1 5978   5.892   1.695   2.655
 1693SOL    HW2 5979   6.005   1.720   2.540
 1694SOL     OW 5980   5.243   1.307   3.161
 1694SOL    HW1 5981   5.256   1.374   3.087
 1694SOL    HW2 5982   5.271   1.217   3.128
 1695SOL     OW 5983   4.026   0.792   6.309
 1695SOL    HW1 5984   4.060   0.826   6.397
 1695SOL    HW2 5985   3.926   0.798   6.306
 1696SOL     OW 5986   4.184   6.259   0.899
 1696SOL    HW1 5987   4.276   6.278   0.864
 1696SOL    HW2 5988   4.185   6.259   0.999
 1697SOL     OW 5989   6.355   1.107   0.550
 1697SOL    HW1 5990   6.306   1.069   0.629
 1697SOL    HW2 5991   6.446   1.137   0.579
 1698SOL     OW 5992   2.899   0.030   0.363
 1698SOL    HW1 5993   2.950   0.116   0.358
 1698SOL    HW2 5994   2.958   6.977   0.334
 1699SOL     OW 5995   2.313   1.031   6.807
 1699SOL    HW1 5996   2.253   0.954   6.829
 1699SOL    HW2 5997   2.324   1.089   6.888
 1700SOL     OW 5998   6.486   4.154   3.631
 1700SOL    HW1 5999   6.560   4.091   3.652
 1700SOL    HW2 6000   6.414   4.106   3.581
 1701SOL     OW 6001   5.799   4.797   5.678
 1701SOL    HW1 6002   5.870   4.813   5.747
 1701SOL    HW2 6003   5.741   4.878   5.670
 1702SOL     OW 6004   6.582   1.303   0.868
 1702SOL    HW1 6005   6.566   1.394   0.828
 1702SOL    HW2 6006   6.611   1.313   0.963
 1703SOL     OW 6007   3.400   1.818   0.373
 1703SOL    HW1 6008   3.466   1.851   0.439
 1703SOL    HW2 6009   3.307   1.828   0.410
 1704SOL     OW 6010   0.779   1.872   1.095
 1704SOL    HW1 6011   0.856   1.809   1.101
 1704SOL    HW2 6012   0.807   1.953   1.043
 1705SOL     OW 6013   3.212   2.073   2.687
 1705SOL    HW1 6014   3.115   2.095   2.702
 1705SOL    HW2 6015   3.231   2.076   2.589
 1706SOL     OW 6016   4.978   1.307   2.004
 1706SOL    HW1 6017   4.925   1.366   1.944
 1706SOL    HW2 6018   5.049   1.260   1.951
 1707SOL     OW 6019   4.578   2.338   1.556
 1707SOL    HW1 6020   4.650   2.271   1.575
 1707SOL    HW2 6021   4.558   2.390   1.639
 1708SOL     OW 6022   4.943   5.337   1.790
 1708SOL    HW1 6023   4.858   5.365   1.835
 1708SOL    HW2 6024   4.972   5.409   1.726
 1709SOL     OW 6025   3.320   6.251   2.379
 1709SOL    HW1 6026   3.356   6.330   2.329
 1709SOL    HW2 6027   3.272   6.283   2.461
 1710SOL     OW 6028   4.905   4.937   3.661
 1710SOL    HW1 6029   4.896   4.988   3.746
 1710SOL    HW2 6030   4.859   4.849   3.669
 1711SOL     OW 6031   1.600   4.949   4.584
 1711SOL    HW1 6032   1.565   5.016   4.518
 1711SOL    HW2 6033   1.532   4.934   4.655
 1712SOL     OW 6034   6.781   2.602   4.518
 1712SOL    HW1 6035   6.834   2.520   4.539
 1712SOL    HW2 6036   6.748   2.644   4.603
 1713SOL     OW 6037   4.622   2.477   1.792
 1713SOL    HW1 6038   4.549   2.453   1.856
 1713SOL    HW2 6039   4.702   2.508   1.843
 1714SOL     OW 6040   3.390   1.196   6.221
 1714SOL    HW1 6041   3.442   1.163   6.299
 1714SOL    HW2 6042   3.332   1.273   6.249
 1715SOL     OW 6043   1.758   5.461   2.865
 1715SOL    HW1 6044   1.852   5.491   2.881
 1715SOL    HW2 6045   1.733   5.393   2.933
 1716SOL     OW 6046   4.658   0.013   2.944
 1716SOL    HW1 6047   4.587   0.042   2.880
 1716SOL    HW2 6048   4.699   0.094   2.986
 1717SOL     OW 6049   2.883   6.053   5.228
 1717SOL    HW1 6050   2.897   6.149   5.250
 1717SOL    HW2 6051   2.835   6.044   5.141
 1718SOL     OW 6052   3.166   1.374   1.688
 1718SOL    HW1 6053   3.180   1.275   1.681
 1718SOL    HW2 6054   3.215   1.420   1.614
 1719SOL     OW 6055   2.152   3.358   1.192
 1719SOL    HW1 6056   2.083   3.430   1.180
 1719SOL    HW2 6057   2.107   3.269   1.188
 1720SOL     OW 6058   0.111   3.369   0.794
 1720SOL    HW1 6059   0.078   3.282   0.831
 1720SOL    HW2 6060   0.074   3.382   0.702
 1721SOL     OW 6061   2.026   6.662   1.670
 1721SOL    HW1 6062   2.063   6.693   1.758
 1721SOL    HW2 6063   2.063   6.719   1.597
 1722SOL     OW 6064   3.079   1.583   4.094
 1722SOL    HW1 6065   3.129   1.500   4.069
 1722SOL    HW2 6066   3.048   1.576   4.188
 1723SOL     OW 6067   6.077   2.635   0.563
 1723SOL    HW1 6068   6.084   2.582   0.648
 1723SOL    HW2 6069   6.163   2.629   0.513
 1724SOL     OW 6070   0.180   3.031   2.575
 1724SOL    HW1 6071   0.265   3.084   2.576
 1724SOL    HW2 6072   0.142   3.026   2.667
 1725SOL     OW 6073   2.189   4.596   6.087
 1725SOL    HW1 6074   2.214   4.532   6.015
 1725SOL    HW2 6075   2.090   4.605   6.091
 1726SOL     OW 6076   6.080   4.805   5.469
 1726SOL    HW1 6077   6.167   4.758   5.485
 1726SOL    HW2 6078   6.096   4.903   5.464
 1727SOL     OW 6079   3.515   2.847   3.707
 1727SOL    HW1 6080   3.510   2.748   3.690
 1727SOL    HW2 6081   3.463   2.895   3.636
 1728SOL     OW 6082   5.589   5.908   5.231
 1728SOL    HW1 6083   5.672   5.869   5.270
 1728SOL    HW2 6084   5.559   5.852   5.154
 1729SOL     OW 6085   2.242   4.154   3.465
 1729SOL    HW1 6086   2.245   4.132   3.563
 1729SOL    HW2 6087   2.221   4.072   3.413
 1730SOL     OW 6088   1.801   0.021   4.790
 1730SOL    HW1 6089   1.724   7.007   4.843
 1730SOL    HW2 6090   1.796   7.008   4.696
 1731SOL     OW 6091   0.593   4.191   4.191
 1731SOL    HW1 6092   0.596   4.091   4.190
 1731SOL    HW2 6093   0.683   4.227   4.164
 1732SOL     OW 6094   2.127   4.655   5.680
 1732SOL    HW1 6095   2.161   4.698   5.763
 1732SOL    HW2 6096   2.131   4.721   5.604
 1733SOL     OW 6097   1.617   4.481   1.981
 1733SOL    HW1 6098   1.606   4.560   1.920
 1733SOL    HW2 6099   1.610   4.512   2.076
 1734SOL     OW 6100   4.718   2.822   1.320
 1734SOL    HW1 6101   4.679   2.912   1.306
 1734SOL    HW2 6102   4.762   2.819   1.410
 1735SOL     OW 6103   4.623   5.151   6.832
 1735SOL    HW1 6104   4.536   5.129   6.788
 1735SOL    HW2 6105   4.669   5.223   6.780
 1736SOL     OW 6106   3.587   3.459   1.003
 1736SOL    HW1 6107   3.508   3.427   0.951
 1736SOL    HW2 6108   3.598   3.402   1.085
 1737SOL     OW 6109   4.238   1.239   4.623
 1737SOL    HW1 6110   4.177   1.318   4.616
 1737SOL    HW2 6111   4.184   1.155   4.626
 1738SOL     OW 6112   1.977   2.849   4.126
 1738SOL    HW1 6113   1.956   2.885   4.216
 1738SOL    HW2 6114   1.928   2.762   4.112
 1739SOL     OW 6115   6.935   1.541   5.215
 1739SOL    HW1 6116   6.845   1.575   5.189
 1739SOL    HW2 6117   7.004   1.612   5.196
 1740SOL     OW 6118   0.059   2.153   5.064
 1740SOL    HW1 6119   0.146   2.199   5.082
 1740SOL    HW2 6120   7.009   2.222   5.050
 1741SOL     OW 6121   2.537   0.494   4.092
 1741SOL    HW1 6122   2.502   0.411   4.050
 1741SOL    HW2 6123   2.514   0.494   4.190
 1742SOL     OW 6124   5.599   0.705   5.939
 1742SOL    HW1 6125   5.515   0.680   5.988
 1742SOL    HW2 6126   5.581   0.785   5.881
 1743SOL     OW 6127   0.705   2.411   2.620
 1743SOL    HW1 6128   0.655   2.461   2.549
 1743SOL    HW2 6129   0.640   2.359   2.675
 1744SOL     OW 6130   5.991   2.793   3.198
 1744SOL    HW1 6131   5.949   2.778   3.108
 1744SOL    HW2 6132   5.981   2.710   3.253
 1745SOL     OW 6133   5.128   5.782   2.339
 1745SOL    HW1 6134   5.156   5.859   2.396
 1745SOL    HW2 6135   5.094   5.815   2.251
 1746SOL     OW 6136   1.511   4.162   4.445
 1746SOL    HW1 6137   1.528   4.210   4.359
 1746SOL    HW2 6138   1.564   4.077   4.446
 1747SOL     OW 6139   4.775   1.703   3.078
 1747SOL    HW1 6140   4.730   1.615   3.062
 1747SOL    HW2 6141   4.874   1.689   3.082
 1748SOL     OW 6142   0.147   1.747   5.144
 1748SOL    HW1 6143   0.119   1.817   5.209
 1748SOL    HW2 6144   0.215   1.785   5.081
 1749SOL     OW 6145   2.061   6.864   5.045
 1749SOL    HW1 6146   2.153   6.858   5.083
 1749SOL    HW2 6147   1.995   6.871   5.119
 1750SOL     OW 6148   5.216   6.076   3.681
 1750SOL    HW1 6149   5.271   6.125   3.613
 1750SOL    HW2 6150   5.165   6.142   3.737
 1751SOL     OW 6151   4.135   0.523   3.667
 1751SOL    HW1 6152   4.188   0.439   3.660
 1751SOL    HW2 6153   4.161   0.572   3.750
 1752SOL     OW 6154   6.152   1.287   2.336
 1752SOL    HW1 6155   6.222   1.351   2.368
 1752SOL    HW2 6156   6.071   1.337   2.309
 1753SOL     OW 6157   6.823   0.790   1.540
 1753SOL    HW1 6158   6.800   0.713   1.600
 1753SOL    HW2 6159   6.874   0.757   1.461
 1754SOL     OW 6160   1.794   4.986   0.050
 1754SOL    HW1 6161   1.766   5.058   0.113
 1754SOL    HW2 6162   1.757   4.898   0.080
 1755SOL     OW 6163   0.286   6.165   1.285
 1755SOL    HW1 6164   0.335   6.078   1.280
 1755SOL    HW2 6165   0.261   6.195   1.193
 1756SOL     OW 6166   4.259   5.504   5.560
 1756SOL    HW1 6167   4.174   5.453   5.549
 1756SOL    HW2 6168   4.250   5.595   5.520
 1757SOL     OW 6169   2.494   5.343   4.623
 1757SOL    HW1 6170   2.437   5.271   4.584
 1757SOL    HW2 6171   2.590   5.312   4.623
 1758SOL     OW 6172   2.168   0.980   4.505
 1758SOL    HW1 6173   2.193   1.001   4.599
 1758SOL    HW2 6174   2.164   0.881   4.492
 1759SOL     OW 6175   2.323   6.165   5.458
 1759SOL    HW1 6176   2.389   6.125   5.395
 1759SOL    HW2 6177   2.309   6.262   5.436
 1760SOL     OW 6178   5.744   0.872   3.668
 1760SOL    HW1 6179   5.751   0.897   3.572
 1760SOL    HW2 6180   5.649   0.885   3.699
 1761SOL     OW 6181   6.846   0.420   1.902
 1761SOL    HW1 6182   6.771   0.376   1.951
 1761SOL    HW2 6183   6.810   0.465   1.821
 1762SOL     OW 6184   0.621   1.102   3.844
 1762SOL    HW1 6185   0.706   1.137   3.883
 1762SOL    HW2 6186   0.605   1.009   3.876
 1763SOL     OW 6187   0.510   4.360   4.439
 1763SOL    HW1 6188   0.543   4.320   4.353
 1763SOL    HW2 6189   0.545   4.454   4.448
 1764SOL     OW 6190   2.045   3.246   2.399
 1764SOL    HW1 6191   2.070   3.286   2.488
 1764SOL    HW2 6192   2.021   3.319   2.336
 1765SOL     OW 6193   4.021   0.864   1.661
 1765SOL    HW1 6194   4.013   0.888   1.758
 1765SOL    HW2 6195   3.947   0.802   1.636
 1766SOL     OW 6196   5.433   4.475   3.722
 1766SOL    HW1 6197   5.466   4.505   3.812
 1766SOL    HW2 6198   5.508   4.478   3.656
 1767SOL     OW 6199   1.054   4.212   2.813
 1767SOL    HW1 6200   1.104   4.131   2.784
 1767SOL    HW2 6201   1.045   4.211   2.913
 1768SOL     OW 6202   3.513   0.940   6.999
 1768SOL    HW1 6203   3.518   1.008   0.050
 1768SOL    HW2 6204   3.418   0.922   6.976
 1769SOL     OW 6205   4.685   1.531   0.011
 1769SOL    HW1 6206   4.723   1.457   6.976
 1769SOL    HW2 6207   4.588   1.514   0.026
 1770SOL     OW 6208   6.425   4.241   4.568
 1770SOL    HW1 6209   6.494   4.206   4.630
 1770SOL    HW2 6210   6.341   4.188   4.578
 1771SOL     OW 6211   1.500   5.360   0.854
 1771SOL    HW1 6212   1.419   5.330   0.803
 1771SOL    HW2 6213   1.575   5.379   0.790
 1772SOL     OW 6214   3.640   6.042   3.549
 1772SOL    HW1 6215   3.645   6.132   3.593
 1772SOL    HW2 6216   3.697   6.041   3.467
 1773SOL     OW 6217   3.136   3.048   6.128
 1773SOL    HW1 6218   3.138   3.019   6.224
 1773SOL    HW2 6219   3.198   3.126   6.116
 1774SOL     OW 6220   4.942   5.811   1.514
 1774SOL    HW1 6221   4.895   5.835   1.599
 1774SOL    HW2 6222   4.874   5.787   1.444
 1775SOL     OW 6223   2.124   4.892   5.504
 1775SOL    HW1 6224   2.080   4.979   5.483
 1775SOL    HW2 6225   2.184   4.866   5.428
 1776SOL     OW 6226   4.903   0.928   6.392
 1776SOL    HW1 6227   4.957   0.846   6.408
 1776SOL    HW2 6228   4.806   0.906   6.399
 1777SOL     OW 6229   3.311   6.552   6.294
 1777SOL    HW1 6230   3.228   6.517   6.250
 1777SOL    HW2 6231   3.312   6.524   6.390
 1778SOL     OW 6232   5.052   2.047   4.256
 1778SOL    HW1 6233   5.022   1.980   4.188
 1778SOL    HW2 6234   5.152   2.044   4.264
 1779SOL     OW 6235   4.638   1.029   4.998
 1779SOL    HW1 6236   4.735   1.055   4.993
 1779SOL    HW2 6237   4.629   0.932   4.974
 1780SOL     OW 6238   1.997   3.609   5.832
 1780SOL    HW1 6239   2.024   3.668   5.756
 1780SOL    HW2 6240   2.073   3.549   5.857
 1781SOL     OW 6241   6.023   5.801   4.189
 1781SOL    HW1 6242   6.068   5.783   4.277
 1781SOL    HW2 6243   5.929   5.830   4.205
 1782SOL     OW 6244   3.287   1.011   2.663
 1782SOL    HW1 6245   3.301   1.048   2.756
 1782SOL    HW2 6246   3.237   1.078   2.608
 1783SOL     OW 6247   2.634   2.959   6.247
 1783SOL    HW1 6248   2.607   3.033   6.186
 1783SOL    HW2 6249   2.632   2.991   6.342
 1784SOL     OW 6250   2.189   1.187   1.806
 1784SOL    HW1 6251   2.245   1.214   1.727
 1784SOL    HW2 6252   2.190   1.261   1.874
 1785SOL     OW 6253   6.015   6.304   3.568
 1785SOL    HW1 6254   5.988   6.281   3.475
 1785SOL    HW2 6255   6.077   6.234   3.603
 1786SOL     OW 6256   1.984   4.061   0.335
 1786SOL    HW1 6257   2.001   4.138   0.275
 1786SOL    HW2 6258   2.059   4.052   0.401
 1787SOL     OW 6259   2.564   1.917   5.514
 1787SOL    HW1 6260   2.610   1.958   5.592
 1787SOL    HW2 6261   2.493   1.855   5.546
 1788SOL     OW 6262   3.943   4.125   0.398
 1788SOL    HW1 6263   3.863   4.077   0.364
 1788SOL    HW2 6264   3.915   4.193   0.465
 1789SOL     OW 6265   5.663   2.925   2.213
 1789SOL    HW1 6266   5.712   2.934   2.126
 1789SOL    HW2 6267   5.606   2.843   2.212
 1790SOL     OW 6268   2.915   0.738   4.384
 1790SOL    HW1 6269   2.858   0.708   4.461
 1790SOL    HW2 6270   2.952   0.829   4.404
 1791SOL     OW 6271   6.716   1.782   4.019
 1791SOL    HW1 6272   6.719   1.814   3.925
 1791SOL    HW2 6273   6.623   1.792   4.055
 1792SOL     OW 6274   0.060   1.255   4.190
 1792SOL    HW1 6275   0.036   1.192   4.263
 1792SOL    HW2 6276   7.005   1.265   4.127
 1793SOL     OW 6277   6.577   1.223   4.215
 1793SOL    HW1 6278   6.579   1.251   4.119
 1793SOL    HW2 6279   6.642   1.149   4.230
 1794SOL     OW 6280   4.891   6.534   5.607
 1794SOL    HW1 6281   4.884   6.591   5.690
 1794SOL    HW2 6282   4.957   6.461   5.622
 1795SOL     OW 6283   6.602   5.476   2.199
 1795SOL    HW1 6284   6.536   5.405   2.178
 1795SOL    HW2 6285   6.556   5.555   2.239
 1796SOL     OW 6286   2.286   1.307   4.689
 1796SOL    HW1 6287   2.278   1.379   4.758
 1796SOL    HW2 6288   2.303   1.348   4.600
 1797SOL     OW 6289   2.087   6.908   5.516
 1797SOL    HW1 6290   2.093   6.918   5.417
 1797SOL    HW2 6291   2.047   6.990   5.557
 1798SOL     OW 6292   3.949   3.329   5.309
 1798SOL    HW1 6293   3.904   3.365   5.228
 1798SOL    HW2 6294   3.920   3.381   5.389
 1799SOL     OW 6295   6.009   2.966   6.269
 1799SOL    HW1 6296   6.096   3.000   6.305
 1799SOL    HW2 6297   5.983   3.019   6.189
 1800SOL     OW 6298   4.736   4.855   3.194
 1800SOL    HW1 6299   4.775   4.927   3.252
 1800SOL    HW2 6300   4.720   4.773   3.249
 1801SOL     OW 6301   1.399   1.527   2.699
 1801SOL    HW1 6302   1.308   1.560   2.676
 1801SOL    HW2 6303   1.468   1.583   2.654
 1802SOL     OW 6304   6.704   6.275   3.249
 1802SOL    HW1 6305   6.652   6.193   3.274
 1802SOL    HW2 6306   6.751   6.311   3.330
 1803SOL     OW 6307   6.849   6.807   2.266
 1803SOL    HW1 6308   6.901   6.872   2.320
 1803SOL    HW2 6309   6.852   6.835   2.169
 1804SOL     OW 6310   4.036   3.586   5.385
 1804SOL    HW1 6311   4.058   3.541   5.471
 1804SOL    HW2 6312   4.116   3.583   5.325
 1805SOL     OW 6313   1.082   4.965   5.658
 1805SOL    HW1 6314   1.167   4.926   5.693
 1805SOL    HW2 6315   1.007   4.943   5.720
 1806SOL     OW 6316   0.636   2.063   1.997
 1806SOL    HW1 6317   0.582   2.086   2.078
 1806SOL    HW2 6318   0.635   2.139   1.933
 1807SOL     OW 6319   6.513   2.187   6.378
 1807SOL    HW1 6320   6.454   2.108   6.395
 1807SOL    HW2 6321   6.560   2.175   6.291
 1808SOL     OW 6322   5.796   4.626   4.380
 1808SOL    HW1 6323   5.706   4.671   4.374
 1808SOL    HW2 6324   5.864   4.683   4.334
 1809SOL     OW 6325   2.806   2.187   4.994
 1809SOL    HW1 6326   2.846   2.229   4.913
 1809SOL    HW2 6327   2.879   2.147   5.050
 1810SOL     OW 6328   0.892   0.713   5.038
 1810SOL    HW1 6329   0.950   0.731   4.959
 1810SOL    HW2 6330   0.809   0.769   5.031
 1811SOL     OW 6331   5.271   4.698   2.661
 1811SOL    HW1 6332   5.358   4.707   2.710
 1811SOL    HW2 6333   5.281   4.736   2.569
 1812SOL     OW 6334   4.900   6.822   6.618
 1812SOL    HW1 6335   4.801   6.832   6.614
 1812SOL    HW2 6336   4.925   6.764   6.696
 1813SOL     OW 6337   4.983   4.811   1.939
 1813SOL    HW1 6338   5.027   4.814   2.029
 1813SOL    HW2 6339   4.969   4.904   1.906
 1814SOL     OW 6340   6.030   0.804   0.660
 1814SOL    HW1 6341   5.947   0.764   0.621
 1814SOL    HW2 6342   6.012   0.835   0.754
 1815SOL     OW 6343   6.268   0.370   3.199
 1815SOL    HW1 6344   6.277   0.273   3.224
 1815SOL    HW2 6345   6.278   0.381   3.100
 1816SOL     OW 6346   3.097   4.922   0.112
 1816SOL    HW1 6347   3.081   4.837   0.063
 1816SOL    HW2 6348   3.048   4.922   0.198
 1817SOL     OW 6349   4.389   0.460   2.465
 1817SOL    HW1 6350   4.311   0.397   2.462
 1817SOL    HW2 6351   4.371   0.537   2.403
 1818SOL     OW 6352   1.699   6.700   0.884
 1818SOL    HW1 6353   1.691   6.769   0.956
 1818SOL    HW2 6354   1.650   6.730   0.802
 1819SOL     OW 6355   1.347   5.963   1.868
 1819SOL    HW1 6356   1.438   5.940   1.833
 1819SOL    HW2 6357   1.317   6.049   1.828
 1820SOL     OW 6358   3.422   7.013   2.215
 1820SOL    HW1 6359   3.371   0.033   2.290
 1820SOL    HW2 6360   3.414   0.048   2.133
 1821SOL     OW 6361   2.853   1.040   1.636
 1821SOL    HW1 6362   2.832   1.099   1.714
 1821SOL    HW2 6363   2.946   1.059   1.604
 1822SOL     OW 6364   0.636   2.704   1.979
 1822SOL    HW1 6365   0.620   2.686   1.882
 1822SOL    HW2 6366   0.626   2.619   2.031
 1823SOL     OW 6367   3.264   6.047   3.173
 1823SOL    HW1 6368   3.352   6.047   3.124
 1823SOL    HW2 6369   3.280   6.059   3.271
 1824SOL     OW 6370   3.622   4.358   1.081
 1824SOL    HW1 6371   3.604   4.394   0.990
 1824SOL    HW2 6372   3.668   4.270   1.075
 1825SOL     OW 6373   0.733   2.461   4.628
 1825SOL    HW1 6374   0.728   2.367   4.593
 1825SOL    HW2 6375   0.643   2.486   4.666
 1826SOL     OW 6376   2.955   1.077   1.216
 1826SOL    HW1 6377   2.945   0.992   1.268
 1826SOL    HW2 6378   2.880   1.139   1.237
 1827SOL     OW 6379   5.970   5.391   1.254
 1827SOL    HW1 6380   5.999   5.302   1.221
 1827SOL    HW2 6381   6.033   5.423   1.325
 1828SOL     OW 6382   1.513   2.722   6.738
 1828SOL    HW1 6383   1.463   2.719   6.824
 1828SOL    HW2 6384   1.572   2.802   6.736
 1829SOL     OW 6385   3.833   0.363   2.745
 1829SOL    HW1 6386   3.875   0.396   2.830
 1829SOL    HW2 6387   3.816   0.441   2.684
 1830SOL     OW 6388   5.748   6.068   4.643
 1830SOL    HW1 6389   5.846   6.081   4.658
 1830SOL    HW2 6390   5.709   6.019   4.721
 1831SOL     OW 6391   5.968   6.809   2.738
 1831SOL    HW1 6392   6.040   6.780   2.676
 1831SOL    HW2 6393   5.879   6.799   2.694
 1832SOL     OW 6394   3.915   1.429   0.658
 1832SOL    HW1 6395   3.874   1.455   0.745
 1832SOL    HW2 6396   3.860   1.358   0.615
 1833SOL     OW 6397   5.752   0.921   1.997
 1833SOL    HW1 6398   5.681   0.909   1.927
 1833SOL    HW2 6399   5.841   0.935   1.952
 1834SOL     OW 6400   1.962   4.287   1.192
 1834SOL    HW1 6401   2.023   4.361   1.165
 1834SOL    HW2 6402   1.916   4.312   1.278
 1835SOL     OW 6403   0.405   4.966   1.833
 1835SOL    HW1 6404   0.453   4.884   1.803
 1835SOL    HW2 6405   0.312   4.942   1.863
 1836SOL     OW 6406   5.332   2.563   1.957
 1836SOL    HW1 6407   5.232   2.576   1.955
 1836SOL    HW2 6408   5.352   2.465   1.965
 1837SOL     OW 6409   1.442   6.820   5.680
 1837SOL    HW1 6410   1.449   6.920   5.688
 1837SOL    HW2 6411   1.349   6.791   5.701
 1838SOL     OW 6412   5.749   0.995   5.806
 1838SOL    HW1 6413   5.731   1.077   5.860
 1838SOL    HW2 6414   5.665   0.941   5.797
 1839SOL     OW 6415   6.830   1.196   5.517
 1839SOL    HW1 6416   6.753   1.216   5.577
 1839SOL    HW2 6417   6.903   1.261   5.533
 1840SOL     OW 6418   4.268   0.118   1.901
 1840SOL    HW1 6419   4.214   0.101   1.818
 1840SOL    HW2 6420   4.326   0.198   1.888
 1841SOL     OW 6421   2.384   0.456   3.040
 1841SOL    HW1 6422   2.364   0.439   3.136
 1841SOL    HW2 6423   2.363   0.551   3.017
 1842SOL     OW 6424   1.067   5.896   1.072
 1842SOL    HW1 6425   0.985   5.953   1.074
 1842SOL    HW2 6426   1.147   5.951   1.098
 1843SOL     OW 6427   5.417   0.617   4.768
 1843SOL    HW1 6428   5.463   0.703   4.791
 1843SOL    HW2 6429   5.435   0.549   4.839
 1844SOL     OW 6430   4.110   0.296   4.966
 1844SOL    HW1 6431   4.179   0.227   4.988
 1844SOL    HW2 6432   4.038   0.256   4.910
 1845SOL     OW 6433   2.832   6.566   3.825
 1845SOL    HW1 6434   2.773   6.626   3.880
 1845SOL    HW2 6435   2.775   6.503   3.772
 1846SOL     OW 6436   4.711   1.250   2.502
 1846SOL    HW1 6437   4.755   1.163   2.527
 1846SOL    HW2 6438   4.657   1.237   2.419
 1847SOL     OW 6439   1.651   6.854   5.927
 1847SOL    HW1 6440   1.700   6.771   5.901
 1847SOL    HW2 6441   1.567   6.830   5.976
 1848SOL     OW 6442   2.086   6.451   3.363
 1848SOL    HW1 6443   2.058   6.384   3.432
 1848SOL    HW2 6444   2.029   6.441   3.281
 1849SOL     OW 6445   4.206   2.599   1.342
 1849SOL    HW1 6446   4.240   2.689   1.315
 1849SOL    HW2 6447   4.260   2.528   1.297
 1850SOL     OW 6448   6.598   2.124   2.536
 1850SOL    HW1 6449   6.591   2.152   2.440
 1850SOL    HW2 6450   6.513   2.082   2.565
 1851SOL     OW 6451   0.947   3.285   0.223
 1851SOL    HW1 6452   0.909   3.264   0.133
 1851SOL    HW2 6453   1.041   3.250   0.229
 1852SOL     OW 6454   0.234   4.684   2.607
 1852SOL    HW1 6455   0.155   4.673   2.548
 1852SOL    HW2 6456   0.204   4.706   2.700
 1853SOL     OW 6457   6.798   2.359   3.310
 1853SOL    HW1 6458   6.745   2.444   3.309
 1853SOL    HW2 6459   6.748   2.289   3.362
 1854SOL     OW 6460   2.145   5.210   2.436
 1854SOL    HW1 6461   2.240   5.185   2.420
 1854SOL    HW2 6462   2.139   5.272   2.515
 1855SOL     OW 6463   5.617   3.639   5.255
 1855SOL    HW1 6464   5.535   3.633   5.198
 1855SOL    HW2 6465   5.625   3.557   5.311
 1856SOL     OW 6466   4.707   2.982   6.262
 1856SOL    HW1 6467   4.652   3.062   6.285
 1856SOL    HW2 6468   4.800   2.995   6.296
 1857SOL     OW 6469   4.218   1.500   0.295
 1857SOL    HW1 6470   4.161   1.561   0.241
 1857SOL    HW2 6471   4.212   1.407   0.258
 1858SOL     OW 6472   5.250   2.450   3.044
 1858SOL    HW1 6473   5.159   2.490   3.056
 1858SOL    HW2 6474   5.287   2.426   3.134
 1859SOL     OW 6475   4.226   1.868   3.799
 1859SOL    HW1 6476   4.151   1.910   3.747
 1859SOL    HW2 6477   4.250   1.781   3.757
 1860SOL     OW 6478   6.938   1.441   5.480
 1860SOL    HW1 6479   6.935   1.531   5.523
 1860SOL    HW2 6480   6.881   1.441   5.398
 1861SOL     OW 6481   4.855   0.664   2.736
 1861SOL    HW1 6482   4.777   0.710   2.693
 1861SOL    HW2 6483   4.823   0.591   2.796
 1862SOL     OW 6484   2.221   6.599   6.846
 1862SOL    HW1 6485   2.140   6.549   6.877
 1862SOL    HW2 6486   2.213   6.620   6.749
 1863SOL     OW 6487   7.016   2.657   2.918
 1863SOL    HW1 6488   6.978   2.684   2.829
 1863SOL    HW2 6489   6.985   2.721   2.988
 1864SOL     OW 6490   3.369   6.050   4.457
 1864SOL    HW1 6491   3.311   5.969   4.465
 1864SOL    HW2 6492   3.415   6.066   4.545
 1865SOL     OW 6493   3.331   0.481   0.574
 1865SOL    HW1 6494   3.342   0.570   0.617
 1865SOL    HW2 6495   3.263   0.488   0.501
 1866SOL     OW 6496   0.216   4.762   3.947
 1866SOL    HW1 6497   0.132   4.791   3.903
 1866SOL    HW2 6498   0.263   4.841   3.985
 1867SOL     OW 6499   2.044   4.233   1.547
 1867SOL    HW1 6500   2.118   4.166   1.540
 1867SOL    HW2 6501   1.960   4.187   1.575
 1868SOL     OW 6502   5.207   3.559   6.458
 1868SOL    HW1 6503   5.206   3.561   6.558
 1868SOL    HW2 6504   5.286   3.610   6.425
 1869SOL     OW 6505   6.319   3.258   4.839
 1869SOL    HW1 6506   6.353   3.343   4.881
 1869SOL    HW2 6507   6.232   3.276   4.793
 1870SOL     OW 6508   1.019   3.063   5.136
 1870SOL    HW1 6509   1.087   3.136   5.152
 1870SOL    HW2 6510   1.043   2.983   5.191
 1871SOL     OW 6511   6.920   6.982   0.983
 1871SOL    HW1 6512   6.824   7.010   0.980
 1871SOL    HW2 6513   6.945   6.957   1.076
 1872SOL     OW 6514   4.447   2.237   6.984
 1872SOL    HW1 6515   4.416   2.314   6.928
 1872SOL    HW2 6516   4.392   2.232   0.046
 1873SOL     OW 6517   6.574   0.538   5.716
 1873SOL    HW1 6518   6.486   0.586   5.709
 1873SOL    HW2 6519   6.560   0.448   5.756
 1874SOL     OW 6520   1.115   1.076   6.373
 1874SOL    HW1 6521   1.037   1.117   6.326
 1874SOL    HW2 6522   1.180   1.148   6.398
 1875SOL     OW 6523   6.709   0.263   0.720
 1875SOL    HW1 6524   6.637   0.216   0.669
 1875SOL    HW2 6525   6.724   0.217   0.807
 1876SOL     OW 6526   3.934   5.898   6.440
 1876SOL    HW1 6527   3.877   5.921   6.518
 1876SOL    HW2 6528   4.002   5.830   6.467
 1877SOL     OW 6529   1.099   2.015   3.500
 1877SOL    HW1 6530   1.076   2.101   3.456
 1877SOL    HW2 6531   1.186   1.981   3.464
 1878SOL     OW 6532   6.636   3.954   3.890
 1878SOL    HW1 6533   6.610   3.913   3.802
 1878SOL    HW2 6534   6.680   3.885   3.947
 1879SOL     OW 6535   2.554   6.219   4.032
 1879SOL    HW1 6536   2.561   6.296   4.096
 1879SOL    HW2 6537   2.639   6.167   4.034
 1880SOL     OW 6538   0.313   1.737   3.080
 1880SOL    HW1 6539   0.389   1.757   3.141
 1880SOL    HW2 6540   0.269   1.822   3.052
 1881SOL     OW 6541   1.858   1.962   3.923
 1881SOL    HW1 6542   1.912   2.010   3.992
 1881SOL    HW2 6543   1.906   1.964   3.835
 1882SOL     OW 6544   0.686   4.733   6.843
 1882SOL    HW1 6545   0.667   4.830   6.824
 1882SOL    HW2 6546   0.779   4.711   6.814
 1883SOL     OW 6547   1.152   3.355   4.247
 1883SOL    HW1 6548   1.079   3.346   4.315
 1883SOL    HW2 6549   1.241   3.357   4.293
 1884SOL     OW 6550   5.990   2.776   1.204
 1884SOL    HW1 6551   6.035   2.865   1.205
 1884SOL    HW2 6552   6.028   2.720   1.130
 1885SOL     OW 6553   0.005   2.130   0.861
 1885SOL    HW1 6554   0.022   2.201   0.792
 1885SOL    HW2 6555   0.090   2.081   0.881
 1886SOL     OW 6556   2.725   2.462   0.237
 1886SOL    HW1 6557   2.809   2.511   0.260
 1886SOL    HW2 6558   2.730   2.428   0.143
 1887SOL     OW 6559   0.645   4.538   5.672
 1887SOL    HW1 6560   0.626   4.465   5.607
 1887SOL    HW2 6561   0.613   4.511   5.763
 1888SOL     OW 6562   2.841   2.031   5.796
 1888SOL    HW1 6563   2.759   2.087   5.781
 1888SOL    HW2 6564   2.830   1.979   5.881
 1889SOL     OW 6565   5.283   2.845   6.435
 1889SOL    HW1 6566   5.285   2.940   6.467
 1889SOL    HW2 6567   5.300   2.784   6.513
 1890SOL     OW 6568   1.461   5.849   5.274
 1890SOL    HW1 6569   1.555   5.874   5.253
 1890SOL    HW2 6570   1.409   5.931   5.299
 1891SOL     OW 6571   5.445   3.039   4.253
 1891SOL    HW1 6572   5.502   3.120   4.270
 1891SOL    HW2 6573   5.377   3.061   4.183
 1892SOL     OW 6574   3.483   0.107   0.790
 1892SOL    HW1 6575   3.539   0.132   0.711
 1892SOL    HW2 6576   3.444   0.016   0.775
 1893SOL     OW 6577   2.947   1.645   5.476
 1893SOL    HW1 6578   2.950   1.700   5.392
 1893SOL    HW2 6579   2.853   1.619   5.497
 1894SOL     OW 6580   4.116   3.767   1.997
 1894SOL    HW1 6581   4.073   3.844   1.951
 1894SOL    HW2 6582   4.206   3.749   1.955
 1895SOL     OW 6583   5.695   0.652   2.615
 1895SOL    HW1 6584   5.784   0.697   2.619
 1895SOL    HW2 6585   5.622   0.720   2.620
 1896SOL     OW 6586   0.506   0.692   3.052
 1896SOL    HW1 6587   0.500   0.719   3.148
 1896SOL    HW2 6588   0.468   0.600   3.041
 1897SOL     OW 6589   0.078   5.206   2.821
 1897SOL    HW1 6590   0.056   5.267   2.897
 1897SOL    HW2 6591   0.151   5.143   2.848
 1898SOL     OW 6592   3.174   5.250   1.814
 1898SOL    HW1 6593   3.175   5.193   1.732
 1898SOL    HW2 6594   3.152   5.344   1.789
 1899SOL     OW 6595   1.005   2.659   2.720
 1899SOL    HW1 6596   1.029   2.680   2.625
 1899SOL    HW2 6597   0.925   2.713   2.747
 1900SOL     OW 6598   0.694   0.357   5.438
 1900SOL    HW1 6599   0.780   0.369   5.388
 1900SOL    HW2 6600   0.674   0.260   5.447
 1901SOL     OW 6601   2.259   1.352   1.471
 1901SOL    HW1 6602   2.274   1.362   1.373
 1901SOL    HW2 6603   2.267   1.441   1.515
 1902SOL     OW 6604   2.485   2.614   5.227
 1902SOL    HW1 6605   2.482   2.700   5.278
 1902SOL    HW2 6606   2.577   2.575   5.233
 1903SOL     OW 6607   0.046   3.849   3.643
 1903SOL    HW1 6608   0.138   3.850   3.603
 1903SOL    HW2 6609   7.012   3.781   3.596
 1904SOL     OW 6610   5.689   0.007   4.269
 1904SOL    HW1 6611   5.655   0.003   4.175
 1904SOL    HW2 6612   5.766   0.070   4.274
 1905SOL     OW 6613   1.119   1.721   4.304
 1905SOL    HW1 6614   1.150   1.814   4.325
 1905SOL    HW2 6615   1.170   1.655   4.360
 1906SOL     OW 6616   2.829   6.914   5.287
 1906SOL    HW1 6617   2.748   6.961   5.321
 1906SOL    HW2 6618   2.899   6.913   5.358
 1907SOL     OW 6619   3.264   6.510   3.006
 1907SOL    HW1 6620   3.259   6.609   2.991
 1907SOL    HW2 6621   3.174   6.469   2.991
 1908SOL     OW 6622   4.258   0.795   4.916
 1908SOL    HW1 6623   4.294   0.886   4.937
 1908SOL    HW2 6624   4.160   0.792   4.935
 1909SOL     OW 6625   1.511   3.623   3.175
 1909SOL    HW1 6626   1.440   3.626   3.246
 1909SOL    HW2 6627   1.502   3.704   3.117
 1910SOL     OW 6628   6.947   2.285   6.361
 1910SOL    HW1 6629   7.017   2.219   6.332
 1910SOL    HW2 6630   6.908   2.329   6.281
 1911SOL     OW 6631   6.018   2.260   5.468
 1911SOL    HW1 6632   5.981   2.284   5.557
 1911SOL    HW2 6633   5.986   2.168   5.443
 1912SOL     OW 6634   3.602   6.702   1.450
 1912SOL    HW1 6635   3.644   6.658   1.370
 1912SOL    HW2 6636   3.656   6.782   1.476
 1913SOL     OW 6637   1.870   6.215   5.500
 1913SOL    HW1 6638   1.842   6.310   5.512
 1913SOL    HW2 6639   1.921   6.205   5.414
 1914SOL     OW 6640   3.317   2.607   6.772
 1914SOL    HW1 6641   3.356   2.622   6.863
 1914SOL    HW2 6642   3.340   2.684   6.712
 1915SOL     OW 6643   4.294   1.549   5.064
 1915SOL    HW1 6644   4.285   1.509   5.155
 1915SOL    HW2 6645   4.278   1.478   4.995
 1916SOL     OW 6646   3.438   6.144   1.143
 1916SOL    HW1 6647   3.409   6.239   1.149
 1916SOL    HW2 6648   3.536   6.141   1.121
 1917SOL     OW 6649   3.621   3.105   4.592
 1917SOL    HW1 6650   3.670   3.084   4.677
 1917SOL    HW2 6651   3.542   3.043   4.584
 1918SOL     OW 6652   0.064   0.355   6.184
 1918SOL    HW1 6653   0.114   0.318   6.106
 1918SOL    HW2 6654   0.128   0.381   6.256
 1919SOL     OW 6655   2.213   6.429   1.480
 1919SOL    HW1 6656   2.264   6.448   1.565
 1919SOL    HW2 6657   2.115   6.429   1.500
 1920SOL     OW 6658   0.562   4.954   2.835
 1920SOL    HW1 6659   0.490   4.996   2.779
 1920SOL    HW2 6660   0.569   4.857   2.812
 1921SOL     OW 6661   1.569   4.529   6.965
 1921SOL    HW1 6662   1.478   4.553   6.932
 1921SOL    HW2 6663   1.604   4.602   0.002
 1922SOL     OW 6664   3.271   4.186   0.946
 1922SOL    HW1 6665   3.341   4.132   0.901
 1922SOL    HW2 6666   3.194   4.127   0.972
 1923SOL     OW 6667   3.206   1.120   6.036
 1923SOL    HW1 6668   3.255   1.167   6.109
 1923SOL    HW2 6669   3.227   1.164   5.949
 1924SOL     OW 6670   5.706   5.247   1.990
 1924SOL    HW1 6671   5.656   5.190   1.925
 1924SOL    HW2 6672   5.800   5.259   1.958
 1925SOL     OW 6673   2.806   3.262   1.806
 1925SOL    HW1 6674   2.884   3.285   1.864
 1925SOL    HW2 6675   2.750   3.344   1.792
 1926SOL     OW 6676   1.215   0.236   3.431
 1926SOL    HW1 6677   1.176   0.181   3.357
 1926SOL    HW2 6678   1.143   0.294   3.471
 1927SOL     OW 6679   3.373   5.025   6.151
 1927SOL    HW1 6680   3.460   4.977   6.162
 1927SOL    HW2 6681   3.389   5.110   6.100
 1928SOL     OW 6682   6.937   4.007   5.822
 1928SOL    HW1 6683   0.012   3.988   5.802
 1928SOL    HW2 6684   6.897   3.930   5.870
 1929SOL     OW 6685   0.643   6.383   1.466
 1929SOL    HW1 6686   0.547   6.356   1.463
 1929SOL    HW2 6687   0.691   6.326   1.533
 1930SOL     OW 6688   3.716   4.258   6.961
 1930SOL    HW1 6689   3.798   4.272   6.906
 1930SOL    HW2 6690   3.668   4.176   6.928
 1931SOL     OW 6691   0.152   2.350   2.916
 1931SOL    HW1 6692   0.113   2.306   2.835
 1931SOL    HW2 6693   0.126   2.446   2.918
 1932SOL     OW 6694   4.903   3.351   3.186
 1932SOL    HW1 6695   4.905   3.371   3.088
 1932SOL    HW2 6696   4.857   3.263   3.201
 1933SOL     OW 6697   2.571   4.805   0.781
 1933SOL    HW1 6698   2.491   4.823   0.839
 1933SOL    HW2 6699   2.556   4.721   0.729
 1934SOL     OW 6700   0.569   0.560   4.273
 1934SOL    HW1 6701   0.542   0.528   4.364
 1934SOL    HW2 6702   0.578   0.660   4.275
 1935SOL     OW 6703   3.769   0.338   4.716
 1935SOL    HW1 6704   3.860   0.323   4.676
 1935SOL    HW2 6705   3.722   0.250   4.726
 1936SOL     OW 6706   6.340   4.300   4.174
 1936SOL    HW1 6707   6.421   4.359   4.173
 1936SOL    HW2 6708   6.349   4.229   4.105
 1937SOL     OW 6709   5.370   0.484   1.062
 1937SOL    HW1 6710   5.381   0.536   0.977
 1937SOL    HW2 6711   5.274   0.482   1.087
 1938SOL     OW 6712   3.639   1.040   2.090
 1938SOL    HW1 6713   3.621   1.056   1.993
 1938SOL    HW2 6714   3.691   0.955   2.101
 1939SOL     OW 6715   0.924   0.110   4.001
 1939SOL    HW1 6716   0.964   0.187   3.953
 1939SOL    HW2 6717   0.990   0.034   4.003
 1940SOL     OW 6718   4.269   4.771   6.684
 1940SOL    HW1 6719   4.192   4.833   6.700
 1940SOL    HW2 6720   4.235   4.678   6.668
 1941SOL     OW 6721   0.270   3.973   3.283
 1941SOL    HW1 6722   0.366   3.999   3.275
 1941SOL    HW2 6723   0.213   4.054   3.269
 1942SOL     OW 6724   5.501   0.462   2.094
 1942SOL    HW1 6725   5.419   0.413   2.125
 1942SOL    HW2 6726   5.509   0.453   1.995
 1943SOL     OW 6727   2.522   6.072   2.281
 1943SOL    HW1 6728   2.557   6.164   2.261
 1943SOL    HW2 6729   2.540   6.012   2.202
 1944SOL     OW 6730   6.000   2.057   0.579
 1944SOL    HW1 6731   5.989   1.962   0.550
 1944SOL    HW2 6732   5.943   2.074   0.660
 1945SOL     OW 6733   3.634   5.760   2.252
 1945SOL    HW1 6734   3.728   5.741   2.279
 1945SOL    HW2 6735   3.572   5.701   2.303
 1946SOL     OW 6736   6.555   0.768   1.317
 1946SOL    HW1 6737   6.599   0.805   1.399
 1946SOL    HW2 6738   6.463   0.735   1.340
 1947SOL     OW 6739   4.607   6.423   4.239
 1947SOL    HW1 6740   4.660   6.395   4.159
 1947SOL    HW2 6741   4.621   6.520   4.256
 1948SOL     OW 6742   5.613   5.691   3.757
 1948SOL    HW1 6743   5.574   5.603   3.784
 1948SOL    HW2 6744   5.540   5.755   3.735
 1949SOL     OW 6745   3.984   4.457   6.446
 1949SOL    HW1 6746   3.889   4.485   6.432
 1949SOL    HW2 6747   3.986   4.376   6.505
 1950SOL     OW 6748   3.516   4.696   0.850
 1950SOL    HW1 6749   3.480   4.681   0.942
 1950SOL    HW2 6750   3.554   4.788   0.843
 1951SOL     OW 6751   5.884   4.011   0.044
 1951SOL    HW1 6752   5.796   4.052   0.067
 1951SOL    HW2 6753   5.891   4.000   6.966
 1952SOL     OW 6754   4.352   2.612   6.724
 1952SOL    HW1 6755   4.432   2.575   6.677
 1952SOL    HW2 6756   4.321   2.695   6.677
 1953SOL     OW 6757   5.825   2.876   6.916
 1953SOL    HW1 6758   5.876   2.819   6.981
 1953SOL    HW2 6759   5.854   2.855   6.823
 1954SOL     OW 6760   5.631   1.644   3.779
 1954SOL    HW1 6761   5.568   1.664   3.854
 1954SOL    HW2 6762   5.679   1.558   3.797
 1955SOL     OW 6763   1.894   1.235   2.506
 1955SOL    HW1 6764   1.797   1.219   2.488
 1955SOL    HW2 6765   1.912   1.333   2.508
 1956SOL     OW 6766   4.794   6.737   2.054
 1956SOL    HW1 6767   4.724   6.686   2.105
 1956SOL    HW2 6768   4.882   6.724   2.098
 1957SOL     OW 6769   6.374   5.632   4.619
 1957SOL    HW1 6770   6.431   5.594   4.693
 1957SOL    HW2 6771   6.289   5.667   4.657
 1958SOL     OW 6772   5.370   2.164   2.505
 1958SOL    HW1 6773   5.312   2.235   2.465
 1958SOL    HW2 6774   5.337   2.074   2.475
 1959SOL     OW 6775   0.151   1.201   4.975
 1959SOL    HW1 6776   0.218   1.274   4.986
 1959SOL    HW2 6777   0.195   1.112   4.989
 1960SOL     OW 6778   6.692   4.533   1.862
 1960SOL    HW1 6779   6.689   4.455   1.925
 1960SOL    HW2 6780   6.635   4.607   1.897
 1961SOL     OW 6781   5.764   4.949   4.187
 1961SOL    HW1 6782   5.857   4.921   4.213
 1961SOL    HW2 6783   5.762   5.048   4.173
 1962SOL     OW 6784   2.206   6.942   3.363
 1962SOL    HW1 6785   2.186   6.849   3.393
 1962SOL    HW2 6786   2.248   6.993   3.437
 1963SOL     OW 6787   1.017   1.223   1.753
 1963SOL    HW1 6788   1.109   1.182   1.755
 1963SOL    HW2 6789   0.963   1.188   1.829
 1964SOL     OW 6790   4.776   3.977   1.325
 1964SOL    HW1 6791   4.706   4.037   1.286
 1964SOL    HW2 6792   4.863   4.026   1.330
 1965SOL     OW 6793   0.875   3.434   4.491
 1965SOL    HW1 6794   0.811   3.468   4.559
 1965SOL    HW2 6795   0.920   3.352   4.526
 1966SOL     OW 6796   6.862   5.925   0.116
 1966SOL    HW1 6797   6.826   6.008   0.073
 1966SOL    HW2 6798   6.796   5.851   0.104
 1967SOL     OW 6799   4.779   2.374   4.541
 1967SOL    HW1 6800   4.876   2.375   4.564
 1967SOL    HW2 6801   4.730   2.440   4.599
 1968SOL     OW 6802   3.290   6.777   0.147
 1968SOL    HW1 6803   3.334   6.861   0.180
 1968SOL    HW2 6804   3.230   6.740   0.217
 1969SOL     OW 6805   0.856   1.659   1.815
 1969SOL    HW1 6806   0.902   1.597   1.752
 1969SOL    HW2 6807   0.761   1.629   1.828
 1970SOL     OW 6808   2.319   6.848   5.879
 1970SOL    HW1 6809   2.289   6.821   5.970
 1970SOL    HW2 6810   2.416   6.825   5.868
 1971SOL     OW 6811   0.448   6.931   5.557
 1971SOL    HW1 6812   0.536   6.885   5.572
 1971SOL    HW2 6813   0.392   6.922   5.639
 1972SOL     OW 6814   5.675   2.176   2.490
 1972SOL    HW1 6815   5.722   2.255   2.450
 1972SOL    HW2 6816   5.582   2.202   2.516
 1973SOL     OW 6817   2.487   2.965   0.334
 1973SOL    HW1 6818   2.442   3.050   0.307
 1973SOL    HW2 6819   2.418   2.896   0.356
 1974SOL     OW 6820   5.472   6.083   4.072
 1974SOL    HW1 6821   5.510   6.131   4.151
 1974SOL    HW2 6822   5.527   6.001   4.053
 1975SOL     OW 6823   2.177   1.577   3.732
 1975SOL    HW1 6824   2.276   1.591   3.738
 1975SOL    HW2 6825   2.158   1.485   3.697
 1976SOL     OW 6826   1.073   6.606   6.516
 1976SOL    HW1 6827   1.127   6.555   6.448
 1976SOL    HW2 6828   1.126   6.615   6.600
 1977SOL     OW 6829   0.639   3.515   4.125
 1977SOL    HW1 6830   0.703   3.591   4.139
 1977SOL    HW2 6831   0.643   3.454   4.204
 1978SOL     OW 6832   1.051   0.676   2.981
 1978SOL    HW1 6833   0.959   0.655   3.015
 1978SOL    HW2 6834   1.108   0.706   3.056
 1979SOL     OW 6835   6.093   4.486   5.652
 1979SOL    HW1 6836   6.041   4.571   5.636
 1979SOL    HW2 6837   6.159   4.473   5.579
 1980SOL     OW 6838   2.907   0.654   5.174
 1980SOL    HW1 6839   2.878   0.732   5.229
 1980SOL    HW2 6840   3.004   0.665   5.150
 1981SOL     OW 6841   6.336   2.056   2.607
 1981SOL    HW1 6842   6.321   2.018   2.699
 1981SOL    HW2 6843   6.268   2.128   2.589
 1982SOL     OW 6844   0.557   4.169   5.256
 1982SOL    HW1 6845   0.555   4.111   5.337
 1982SOL    HW2 6846   0.471   4.156   5.205
 1983SOL     OW 6847   0.765   1.639   2.605
 1983SOL    HW1 6848   0.681   1.652   2.657
 1983SOL    HW2 6849   0.842   1.678   2.656
 1984SOL     OW 6850   6.320   1.867   5.083
 1984SOL    HW1 6851   6.305   1.820   5.170
 1984SOL    HW2 6852   6.412   1.849   5.050
 1985SOL     OW 6853   1.408   6.494   2.347
 1985SOL    HW1 6854   1.437   6.418   2.405
 1985SOL    HW2 6855   1.314   6.520   2.371
 1986SOL     OW 6856   1.141   0.491   0.306
 1986SOL    HW1 6857   1.143   0.557   0.381
 1986SOL    HW2 6858   1.198   0.525   0.231
 1987SOL     OW 6859   2.209   2.408   2.098
 1987SOL    HW1 6860   2.127   2.416   2.041
 1987SOL    HW2 6861   2.185   2.369   2.187
 1988SOL     OW 6862   5.844   4.450   0.850
 1988SOL    HW1 6863   5.825   4.386   0.775
 1988SOL    HW2 6864   5.928   4.423   0.896
 1989SOL     OW 6865   2.433   6.564   4.212
 1989SOL    HW1 6866   2.465   6.595   4.302
 1989SOL    HW2 6867   2.333   6.572   4.208
 1990SOL     OW 6868   2.999   6.398   0.020
 1990SOL    HW1 6869   2.958   6.308   0.013
 1990SOL    HW2 6870   3.098   6.390   0.016
 1991SOL     OW 6871   4.432   4.559   6.157
 1991SOL    HW1 6872   4.422   4.584   6.254
 1991SOL    HW2 6873   4.486   4.628   6.110
 1992SOL     OW 6874   0.558   0.421   6.834
 1992SOL    HW1 6875   0.637   0.440   6.893
 1992SOL    HW2 6876   0.527   0.327   6.850
 1993SOL     OW 6877   3.951   3.112   4.742
 1993SOL    HW1 6878   3.918   3.046   4.809
 1993SOL    HW2 6879   3.921   3.085   4.650
 1994SOL     OW 6880   0.678   0.842   0.540
 1994SOL    HW1 6881   0.717   0.759   0.499
 1994SOL    HW2 6882   0.657   0.825   0.636
 1995SOL     OW 6883   5.879   2.201   3.044
 1995SOL    HW1 6884   5.834   2.141   2.978
 1995SOL    HW2 6885   5.873   2.160   3.136
 1996SOL     OW 6886   1.998   3.634   0.847
 1996SOL    HW1 6887   1.966   3.602   0.936
 1996SOL    HW2 6888   2.054   3.563   0.804
 1997SOL     OW 6889   3.986   1.128   4.819
 1997SOL    HW1 6890   4.025   1.142   4.910
 1997SOL    HW2 6891   4.016   1.040   4.784
 1998SOL     OW 6892   2.743   3.851   6.164
 1998SOL    HW1 6893   2.703   3.760   6.159
 1998SOL    HW2 6894   2.692   3.908   6.229
 1999SOL     OW 6895   3.148   6.588   1.356
 1999SOL    HW1 6896   3.142   6.499   1.312
 1999SOL    HW2 6897   3.225   6.587   1.420
 2000SOL     OW 6898   4.533   2.336   5.329
 2000SOL    HW1 6899   4.624   2.371   5.307
 2000SOL    HW2 6900   4.533   2.296   5.421
 2001SOL     OW 6901   2.930   1.518   1.557
 2001SOL    HW1 6902   2.884   1.467   1.630
 2001SOL    HW2 6903   3.029   1.505   1.565
 2002SOL     OW 6904   0.947   4.403   6.603
 2002SOL    HW1 6905   0.858   4.408   6.557
 2002SOL    HW2 6906   0.935   4.365   6.695
 2003SOL     OW 6907   6.108   6.124   2.634
 2003SOL    HW1 6908   6.168   6.138   2.555
 2003SOL    HW2 6909   6.134   6.041   2.682
 2004SOL     OW 6910   4.699   1.274   5.406
 2004SOL    HW1 6911   4.784   1.240   5.446
 2004SOL    HW2 6912   4.636   1.299   5.479
 2005SOL     OW 6913   1.098   5.168   0.058
 2005SOL    HW1 6914   1.195   5.192   0.061
 2005SOL    HW2 6915   1.073   5.142   6.986
 2006SOL     OW 6916   5.049   5.834   3.921
 2006SOL    HW1 6917   5.033   5.743   3.884
 2006SOL    HW2 6918   5.013   5.903   3.858
 2007SOL     OW 6919   4.375   4.793   0.826
 2007SOL    HW1 6920   4.331   4.883   0.830
 2007SOL    HW2 6921   4.318   4.727   0.875
 2008SOL     OW 6922   2.156   4.999   3.270
 2008SOL    HW1 6923   2.157   4.900   3.279
 2008SOL    HW2 6924   2.061   5.031   3.263
 2009SOL     OW 6925   5.821   0.290   2.177
 2009SOL    HW1 6926   5.809   0.382   2.215
 2009SOL    HW2 6927   5.758   0.227   2.223
 2010SOL     OW 6928   1.773   1.745   0.904
 2010SOL    HW1 6929   1.763   1.648   0.925
 2010SOL    HW2 6930   1.822   1.756   0.818
 2011SOL     OW 6931   6.598   0.821   4.905
 2011SOL    HW1 6932   6.692   0.788   4.913
 2011SOL    HW2 6933   6.598   0.921   4.898
 2012SOL     OW 6934   2.005   3.451   2.229
 2012SOL    HW1 6935   1.960   3.414   2.148
 2012SOL    HW2 6936   2.076   3.516   2.202
 2013SOL     OW 6937   6.460   1.962   3.414
 2013SOL    HW1 6938   6.485   1.869   3.441
 2013SOL    HW2 6939   6.380   1.960   3.355
 2014SOL     OW 6940   1.969   5.209   3.249
 2014SOL    HW1 6941   1.889   5.174   3.298
 2014SOL    HW2 6942   2.031   5.253   3.314
 2015SOL     OW 6943   1.446   1.210   0.444
 2015SOL    HW1 6944   1.442   1.308   0.460
 2015SOL    HW2 6945   1.534   1.174   0.477
 2016SOL     OW 6946   0.572   6.341   4.753
 2016SOL    HW1 6947   0.526   6.429   4.745
 2016SOL    HW2 6948   0.519   6.281   4.813
 2017SOL     OW 6949   2.896   0.284   4.125
 2017SOL    HW1 6950   2.890   0.218   4.200
 2017SOL    HW2 6951   2.989   0.283   4.088
 2018SOL     OW 6952   5.437   6.625   5.467
 2018SOL    HW1 6953   5.450   6.670   5.555
 2018SOL    HW2 6954   5.483   6.536   5.468
 2019SOL     OW 6955   5.488   2.721   0.896
 2019SOL    HW1 6956   5.579   2.705   0.934
 2019SOL    HW2 6957   5.420   2.724   0.969
 2020SOL     OW 6958   1.393   6.249   5.113
 2020SOL    HW1 6959   1.309   6.303   5.114
 2020SOL    HW2 6960   1.470   6.308   5.090
 2021SOL     OW 6961   1.714   5.683   3.533
 2021SOL    HW1 6962   1.780   5.667   3.459
 2021SOL    HW2 6963   1.748   5.756   3.593
 2022SOL     OW 6964   1.863   3.848   3.560
 2022SOL    HW1 6965   1.806   3.869   3.640
 2022SOL    HW2 6966   1.817   3.879   3.477
 2023SOL     OW 6967   6.597   0.911   6.452
 2023SOL    HW1 6968   6.546   0.861   6.381
 2023SOL    HW2 6969   6.635   0.846   6.517
 2024SOL     OW 6970   0.361   6.841   3.679
 2024SOL    HW1 6971   0.415   6.925   3.676
 2024SOL    HW2 6972   0.421   6.761   3.672
 2025SOL     OW 6973   2.574   2.090   2.818
 2025SOL    HW1 6974   2.598   2.037   2.899
 2025SOL    HW2 6975   2.584   2.187   2.837
 2026SOL     OW 6976   0.332   3.176   5.758
 2026SOL    HW1 6977   0.412   3.116   5.756
 2026SOL    HW2 6978   0.254   3.126   5.797
 2027SOL     OW 6979   0.422   0.672   0.401
 2027SOL    HW1 6980   0.462   0.754   0.360
 2027SOL    HW2 6981   0.343   0.643   0.347
 2028SOL     OW 6982   3.065   0.306   5.057
 2028SOL    HW1 6983   3.102   0.387   5.011
 2028SOL    HW2 6984   2.991   0.334   5.119
 2029SOL     OW 6985   6.399   0.915   0.912
 2029SOL    HW1 6986   6.449   0.943   0.995
 2029SOL    HW2 6987   6.444   0.836   0.871
 2030SOL     OW 6988   2.690   0.632   2.781
 2030SOL    HW1 6989   2.647   0.594   2.700
 2030SOL    HW2 6990   2.640   0.714   2.810
 2031SOL     OW 6991   6.412   5.805   1.686
 2031SOL    HW1 6992   6.392   5.713   1.655
 2031SOL    HW2 6993   6.491   5.841   1.635
 2032SOL     OW 6994   4.771   6.469   1.373
 2032SOL    HW1 6995   4.838   6.530   1.330
 2032SOL    HW2 6996   4.817   6.413   1.442
 2033SOL     OW 6997   3.669   3.946   7.020
 2033SOL    HW1 6998   3.723   3.951   6.935
 2033SOL    HW2 6999   3.652   3.851   0.021
 2034SOL     OW 7000   3.280   6.525   5.098
 2034SOL    HW1 7001   3.243   6.585   5.169
 2034SOL    HW2 7002   3.294   6.433   5.136
 2035SOL     OW 7003   0.190   0.555   2.550
 2035SOL    HW1 7004   0.263   0.494   2.521
 2035SOL    HW2 7005   0.101   0.510   2.538
 2036SOL     OW 7006   1.414   5.083   2.510
 2036SOL    HW1 7007   1.426   4.990   2.476
 2036SOL    HW2 7008   1.324   5.091   2.555
 2037SOL     OW 7009   6.568   3.251   5.506
 2037SOL    HW1 7010   6.598   3.242   5.601
 2037SOL    HW2 7011   6.645   3.233   5.445
 2038SOL     OW 7012   0.888   2.095   6.506
 2038SOL    HW1 7013   0.887   1.996   6.520
 2038SOL    HW2 7014   0.959   2.136   6.563
 2039SOL     OW 7015   1.037   5.608   3.424
 2039SOL    HW1 7016   1.107   5.664   3.380
 2039SOL    HW2 7017   1.059   5.598   3.522
 2040SOL     OW 7018   3.448   2.889   4.350
 2040SOL    HW1 7019   3.533   2.909   4.302
 2040SOL    HW2 7020   3.469   2.867   4.446
 2041SOL     OW 7021   0.600   6.260   5.393
 2041SOL    HW1 7022   0.607   6.348   5.346
 2041SOL    HW2 7023   0.692   6.225   5.411
 2042SOL     OW 7024   4.902   5.146   6.500
 2042SOL    HW1 7025   4.969   5.178   6.433
 2042SOL    HW2 7026   4.945   5.079   6.560
 2043SOL     OW 7027   6.577   3.605   3.578
 2043SOL    HW1 7028   6.627   3.566   3.500
 2043SOL    HW2 7029   6.635   3.602   3.659
 2044SOL     OW 7030   5.665   6.518   1.345
 2044SOL    HW1 7031   5.756   6.511   1.302
 2044SOL    HW2 7032   5.658   6.604   1.394
 2045SOL     OW 7033   3.056   5.027   4.064
 2045SOL    HW1 7034   3.136   4.974   4.091
 2045SOL    HW2 7035   3.060   5.047   3.966
 2046SOL     OW 7036   6.585   1.664   3.709
 2046SOL    HW1 7037   6.605   1.638   3.615
 2046SOL    HW2 7038   6.621   1.756   3.726
 2047SOL     OW 7039   6.012   2.259   6.895
 2047SOL    HW1 7040   6.031   2.164   6.923
 2047SOL    HW2 7041   5.983   2.260   6.800
 2048SOL     OW 7042   1.587   6.608   6.615
 2048SOL    HW1 7043   1.595   6.623   6.517
 2048SOL    HW2 7044   1.513   6.664   6.652
 2049SOL     OW 7045   5.735   1.533   5.921
 2049SOL    HW1 7046   5.682   1.590   5.858
 2049SOL    HW2 7047   5.831   1.536   5.896
 2050SOL     OW 7048   0.276   2.867   3.690
 2050SOL    HW1 7049   0.313   2.958   3.709
 2050SOL    HW2 7050   0.183   2.875   3.654
 2051SOL     OW 7051   1.074   6.075   0.508
 2051SOL    HW1 7052   1.079   5.992   0.563
 2051SOL    HW2 7053   1.167   6.109   0.491
 2052SOL     OW 7054   1.243   3.587   0.877
 2052SOL    HW1 7055   1.197   3.555   0.959
 2052SOL    HW2 7056   1.317   3.524   0.852
 2053SOL     OW 7057   5.791   6.844   5.118
 2053SOL    HW1 7058   5.857   6.919   5.115
 2053SOL    HW2 7059   5.767   6.825   5.213
 2054SOL     OW 7060   3.529   3.911   2.792
 2054SOL    HW1 7061   3.470   3.989   2.813
 2054SOL    HW2 7062   3.615   3.919   2.843
 2055SOL     OW 7063   6.099   3.478   3.399
 2055SOL    HW1 7064   6.196   3.456   3.408
 2055SOL    HW2 7065   6.089   3.559   3.341
 2056SOL     OW 7066   3.259   6.354   2.645
 2056SOL    HW1 7067   3.263   6.313   2.736
 2056SOL    HW2 7068   3.216   6.444   2.651
 2057SOL     OW 7069   5.695   3.816   5.061
 2057SOL    HW1 7070   5.610   3.852   5.021
 2057SOL    HW2 7071   5.672   3.758   5.140
 2058SOL     OW 7072   0.499   1.619   3.288
 2058SOL    HW1 7073   0.541   1.648   3.374
 2058SOL    HW2 7074   0.413   1.570   3.308
 2059SOL     OW 7075   1.963   5.953   6.456
 2059SOL    HW1 7076   2.014   5.868   6.446
 2059SOL    HW2 7077   1.955   5.999   6.368
 2060SOL     OW 7078   0.296   4.217   1.246
 2060SOL    HW1 7079   0.289   4.317   1.243
 2060SOL    HW2 7080   0.259   4.178   1.161
 2061SOL     OW 7081   0.032   1.546   3.493
 2061SOL    HW1 7082   0.105   1.548   3.560
 2061SOL    HW2 7083   6.976   1.600   3.526
 2062SOL     OW 7084   6.063   0.053   3.948
 2062SOL    HW1 7085   6.093   6.979   3.944
 2062SOL    HW2 7086   6.003   0.072   3.870
 2063SOL     OW 7087   2.240   6.807   6.143
 2063SOL    HW1 7088   2.140   6.816   6.141
 2063SOL    HW2 7089   2.276   6.856   6.222
 2064SOL     OW 7090   0.862   2.486   5.585
 2064SOL    HW1 7091   0.775   2.463   5.629
 2064SOL    HW2 7092   0.927   2.520   5.653
 2065SOL     OW 7093   6.987   2.683   5.004
 2065SOL    HW1 7094   6.968   2.758   5.067
 2065SOL    HW2 7095   0.055   2.696   4.962
 2066SOL     OW 7096   0.813   4.903   3.857
 2066SOL    HW1 7097   0.878   4.841   3.901
 2066SOL    HW2 7098   0.858   4.952   3.783
 2067SOL     OW 7099   6.163   5.252   1.410
 2067SOL    HW1 7100   6.143   5.159   1.439
 2067SOL    HW2 7101   6.258   5.258   1.379
 2068SOL     OW 7102   2.250   1.056   4.748
 2068SOL    HW1 7103   2.337   1.023   4.783
 2068SOL    HW2 7104   2.253   1.155   4.735
 2069SOL     OW 7105   0.436   2.737   3.878
 2069SOL    HW1 7106   0.371   2.766   3.808
 2069SOL    HW2 7107   0.529   2.743   3.841
 2070SOL     OW 7108   1.597   0.871   1.703
 2070SOL    HW1 7109   1.497   0.867   1.714
 2070SOL    HW2 7110   1.640   0.817   1.775
 2071SOL     OW 7111   6.725   6.040   6.005
 2071SOL    HW1 7112   6.728   6.132   5.966
 2071SOL    HW2 7113   6.791   5.981   5.959
 2072SOL     OW 7114   4.265   6.157   4.087
 2072SOL    HW1 7115   4.265   6.071   4.035
 2072SOL    HW2 7116   4.343   6.159   4.150
 2073SOL     OW 7117   3.957   6.958   4.299
 2073SOL    HW1 7118   3.984   0.030   4.318
 2073SOL    HW2 7119   4.031   6.910   4.251
 2074SOL     OW 7120   1.766   2.560   0.469
 2074SOL    HW1 7121   1.754   2.637   0.406
 2074SOL    HW2 7122   1.678   2.537   0.511
 2075SOL     OW 7123   5.645   3.433   2.110
 2075SOL    HW1 7124   5.577   3.424   2.038
 2075SOL    HW2 7125   5.627   3.516   2.162
 2076SOL     OW 7126   5.925   0.262   0.145
 2076SOL    HW1 7127   5.854   0.324   0.176
 2076SOL    HW2 7128   5.932   0.185   0.209
 2077SOL     OW 7129   5.409   2.496   2.809
 2077SOL    HW1 7130   5.437   2.403   2.788
 2077SOL    HW2 7131   5.348   2.495   2.889
 2078SOL     OW 7132   1.128   5.731   5.932
 2078SOL    HW1 7133   1.121   5.703   5.836
 2078SOL    HW2 7134   1.044   5.775   5.960
 2079SOL     OW 7135   5.298   2.082   3.543
 2079SOL    HW1 7136   5.236   2.072   3.620
 2079SOL    HW2 7137   5.386   2.119   3.576
 2080SOL     OW 7138   1.801   6.882   4.522
 2080SOL    HW1 7139   1.891   6.909   4.556
 2080SOL    HW2 7140   1.751   6.962   4.490
 2081SOL     OW 7141   1.469   5.405   4.360
 2081SOL    HW1 7142   1.565   5.405   4.388
 2081SOL    HW2 7143   1.446   5.494   4.321
 2082SOL     OW 7144   0.672   0.321   2.476
 2082SOL    HW1 7145   0.634   0.412   2.492
 2082SOL    HW2 7146   0.607   0.252   2.508
 2083SOL     OW 7147   6.201   4.825   6.257
 2083SOL    HW1 7148   6.182   4.742   6.309
 2083SOL    HW2 7149   6.119   4.881   6.253
 2084SOL     OW 7150   1.380   3.888   3.292
 2084SOL    HW1 7151   1.313   3.958   3.316
 2084SOL    HW2 7152   1.350   3.799   3.327
 2085SOL     OW 7153   4.567   0.584   6.546
 2085SOL    HW1 7154   4.545   0.488   6.555
 2085SOL    HW2 7155   4.503   0.628   6.483
 2086SOL     OW 7156   4.303   6.245   5.659
 2086SOL    HW1 7157   4.399   6.232   5.636
 2086SOL    HW2 7158   4.291   6.334   5.703
 2087SOL     OW 7159   5.136   0.553   0.907
 2087SOL    HW1 7160   5.195   0.625   0.869
 2087SOL    HW2 7161   5.150   0.468   0.855
 2088SOL     OW 7162   1.143   6.271   0.262
 2088SOL    HW1 7163   1.140   6.371   0.257
 2088SOL    HW2 7164   1.184   6.244   0.348
 2089SOL     OW 7165   5.487   1.674   6.580
 2089SOL    HW1 7166   5.439   1.633   6.502
 2089SOL    HW2 7167   5.420   1.697   6.651
 2090SOL     OW 7168   3.898   2.663   5.761
 2090SOL    HW1 7169   3.959   2.620   5.827
 2090SOL    HW2 7170   3.922   2.759   5.751
 2091SOL     OW 7171   0.453   5.469   0.245
 2091SOL    HW1 7172   0.485   5.564   0.243
 2091SOL    HW2 7173   0.396   5.452   0.165
 2092SOL     OW 7174   5.426   3.574   0.346
 2092SOL    HW1 7175   5.494   3.612   0.283
 2092SOL    HW2 7176   5.424   3.475   0.336
 2093SOL     OW 7177   2.615   2.325   1.350
 2093SOL    HW1 7178   2.595   2.381   1.431
 2093SOL    HW2 7179   2.587   2.374   1.268
 2094SOL     OW 7180   5.693   1.852   2.177
 2094SOL    HW1 7181   5.760   1.925   2.164
 2094SOL    HW2 7182   5.601   1.891   2.176
 2095SOL     OW 7183   5.882   0.180   5.449
 2095SOL    HW1 7184   5.900   0.158   5.353
 2095SOL    HW2 7185   5.968   0.207   5.493
 2096SOL     OW 7186   4.898   3.800   2.927
 2096SOL    HW1 7187   4.948   3.878   2.964
 2096SOL    HW2 7188   4.858   3.748   3.003
 2097SOL     OW 7189   3.028   3.634   6.531
 2097SOL    HW1 7190   2.940   3.600   6.563
 2097SOL    HW2 7191   3.028   3.636   6.431
 2098SOL     OW 7192   3.428   5.817   2.089
 2098SOL    HW1 7193   3.509   5.801   2.146
 2098SOL    HW2 7194   3.362   5.744   2.105
 2099SOL     OW 7195   3.414   2.897   6.194
 2099SOL    HW1 7196   3.435   2.953   6.274
 2099SOL    HW2 7197   3.485   2.828   6.182
 2100SOL     OW 7198   5.100   2.369   6.760
 2100SOL    HW1 7199   5.198   2.391   6.764
 2100SOL    HW2 7200   5.075   2.312   6.838
 2101SOL     OW 7201   1.123   6.578   1.732
 2101SOL    HW1 7202   1.198   6.524   1.771
 2101SOL    HW2 7203   1.120   6.667   1.777
 2102SOL     OW 7204   5.638   4.339   2.983
 2102SOL    HW1 7205   5.641   4.249   3.027
 2102SOL    HW2 7206   5.631   4.410   3.054
 2103SOL     OW 7207   3.961   4.169   6.019
 2103SOL    HW1 7208   3.889   4.177   5.950
 2103SOL    HW2 7209   3.966   4.075   6.052
 2104SOL     OW 7210   1.588   4.645   1.475
 2104SOL    HW1 7211   1.670   4.695   1.503
 2104SOL    HW2 7212   1.541   4.610   1.556
 2105SOL     OW 7213   5.481   5.777   5.003
 2105SOL    HW1 7214   5.388   5.761   5.034
 2105SOL    HW2 7215   5.480   5.823   4.914
 2106SOL     OW 7216   5.045   4.043   1.361
 2106SOL    HW1 7217   5.061   4.038   1.460
 2106SOL    HW2 7218   5.082   4.128   1.326
 2107SOL     OW 7219   4.954   2.930   5.489
 2107SOL    HW1 7220   5.028   2.893   5.434
 2107SOL    HW2 7221   4.905   3.001   5.437
 2108SOL     OW 7222   6.191   5.763   4.769
 2108SOL    HW1 7223   6.252   5.841   4.756
 2108SOL    HW2 7224   6.099   5.786   4.736
 2109SOL     OW 7225   4.009   5.977   2.218
 2109SOL    HW1 7226   4.000   6.077   2.216
 2109SOL    HW2 7227   3.978   5.943   2.307
 2110SOL     OW 7228   1.967   1.424   0.648
 2110SOL    HW1 7229   1.880   1.465   0.622
 2110SOL    HW2 7230   2.022   1.491   0.698
 2111SOL     OW 7231   1.658   2.986   6.680
 2111SOL    HW1 7232   1.662   3.085   6.663
 2111SOL    HW2 7233   1.653   2.938   6.593
 2112SOL     OW 7234   5.645   3.089   0.963
 2112SOL    HW1 7235   5.730   3.095   0.911
 2112SOL    HW2 7236   5.663   3.046   1.052
 2113SOL     OW 7237   2.548   2.235   5.016
 2113SOL    HW1 7238   2.642   2.209   4.993
 2113SOL    HW2 7239   2.485   2.164   4.983
 2114SOL     OW 7240   1.824   2.236   6.265
 2114SOL    HW1 7241   1.914   2.193   6.271
 2114SOL    HW2 7242   1.769   2.211   6.345
 2115SOL     OW 7243   1.836   3.942   3.064
 2115SOL    HW1 7244   1.747   3.955   3.023
 2115SOL    HW2 7245   1.835   3.861   3.122
 2116SOL     OW 7246   0.840   5.331   3.258
 2116SOL    HW1 7247   0.782   5.398   3.212
 2116SOL    HW2 7248   0.934   5.365   3.261
 2117SOL     OW 7249   6.988   4.928   1.300
 2117SOL    HW1 7250   6.982   4.867   1.221
 2117SOL    HW2 7251   0.061   4.933   1.332
 2118SOL     OW 7252   6.696   2.899   2.940
 2118SOL    HW1 7253   6.634   2.952   2.883
 2118SOL    HW2 7254   6.694   2.803   2.912
 2119SOL     OW 7255   0.984   0.105   1.136
 2119SOL    HW1 7256   0.992   0.040   1.061
 2119SOL    HW2 7257   1.003   0.059   1.223
 2120SOL     OW 7258   0.309   5.250   3.641
 2120SOL    HW1 7259   0.272   5.157   3.644
 2120SOL    HW2 7260   0.408   5.247   3.646
 2121SOL     OW 7261   1.418   4.275   6.206
 2121SOL    HW1 7262   1.426   4.221   6.290
 2121SOL    HW2 7263   1.493   4.342   6.203
 2122SOL     OW 7264   5.671   4.342   5.699
 2122SOL    HW1 7265   5.730   4.342   5.618
 2122SOL    HW2 7266   5.724   4.369   5.779
 2123SOL     OW 7267   0.261   5.813   2.579
 2123SOL    HW1 7268   0.189   5.759   2.623
 2123SOL    HW2 7269   0.295   5.882   2.643
 2124SOL     OW 7270   3.170   2.148   0.996
 2124SOL    HW1 7271   3.183   2.196   1.083
 2124SOL    HW2 7272   3.257   2.146   0.946
 2125SOL     OW 7273   2.018   0.642   2.457
 2125SOL    HW1 7274   1.938   0.653   2.398
 2125SOL    HW2 7275   2.038   0.729   2.503
 2126SOL     OW 7276   3.423   2.069   6.198
 2126SOL    HW1 7277   3.432   2.168   6.183
 2126SOL    HW2 7278   3.352   2.052   6.265
 2127SOL     OW 7279   1.114   2.868   5.575
 2127SOL    HW1 7280   1.125   2.774   5.605
 2127SOL    HW2 7281   1.019   2.883   5.547
 2128SOL     OW 7282   6.330   3.441   4.229
 2128SOL    HW1 7283   6.315   3.536   4.203
 2128SOL    HW2 7284   6.261   3.413   4.296
 2129SOL     OW 7285   4.208   3.356   5.266
 2129SOL    HW1 7286   4.249   3.275   5.306
 2129SOL    HW2 7287   4.109   3.356   5.282
 2130SOL     OW 7288   3.665   0.188   2.877
 2130SOL    HW1 7289   3.683   0.258   2.807
 2130SOL    HW2 7290   3.749   0.166   2.925
 2131SOL     OW 7291   4.914   1.155   0.344
 2131SOL    HW1 7292   4.832   1.099   0.352
 2131SOL    HW2 7293   4.891   1.243   0.303
 2132SOL     OW 7294   3.468   0.239   1.243
 2132SOL    HW1 7295   3.454   0.332   1.278
 2132SOL    HW2 7296   3.485   0.176   1.319
 2133SOL     OW 7297   3.230   2.656   0.394
 2133SOL    HW1 7298   3.289   2.693   0.465
 2133SOL    HW2 7299   3.149   2.715   0.384
 2134SOL     OW 7300   0.435   0.786   5.853
 2134SOL    HW1 7301   0.462   0.751   5.942
 2134SOL    HW2 7302   0.516   0.795   5.794
 2135SOL     OW 7303   1.483   3.516   5.286
 2135SOL    HW1 7304   1.455   3.528   5.381
 2135SOL    HW2 7305   1.515   3.603   5.250
 2136SOL     OW 7306   0.847   3.705   4.150
 2136SOL    HW1 7307   0.900   3.672   4.227
 2136SOL    HW2 7308   0.905   3.758   4.089
 2137SOL     OW 7309   2.259   5.446   4.442
 2137SOL    HW1 7310   2.291   5.526   4.391
 2137SOL    HW2 7311   2.335   5.404   4.491
 2138SOL     OW 7312   6.285   0.414   2.934
 2138SOL    HW1 7313   6.370   0.373   2.900
 2138SOL    HW2 7314   6.286   0.512   2.915
 2139SOL     OW 7315   3.347   0.514   3.077
 2139SOL    HW1 7316   3.319   0.557   2.992
 2139SOL    HW2 7317   3.415   0.443   3.058
 2140SOL     OW 7318   3.849   6.372   4.121
 2140SOL    HW1 7319   3.940   6.392   4.084
 2140SOL    HW2 7320   3.823   6.442   4.186
 2141SOL     OW 7321   6.396   3.822   2.878
 2141SOL    HW1 7322   6.478   3.878   2.868
 2141SOL    HW2 7323   6.422   3.726   2.884
 2142SOL     OW 7324   1.628   2.408   3.078
 2142SOL    HW1 7325   1.679   2.408   3.164
 2142SOL    HW2 7326   1.619   2.502   3.044
 2143SOL     OW 7327   2.448   4.589   1.278
 2143SOL    HW1 7328   2.474   4.667   1.335
 2143SOL    HW2 7329   2.428   4.620   1.185
 2144SOL     OW 7330   1.106   5.431   4.334
 2144SOL    HW1 7331   1.071   5.525   4.326
 2144SOL    HW2 7332   1.151   5.420   4.423
 2145SOL     OW 7333   4.106   6.346   4.334
 2145SOL    HW1 7334   4.144   6.279   4.398
 2145SOL    HW2 7335   4.027   6.307   4.287
 2146SOL     OW 7336   2.732   3.770   1.678
 2146SOL    HW1 7337   2.758   3.837   1.608
 2146SOL    HW2 7338   2.812   3.743   1.730
 2147SOL     OW 7339   6.495   1.609   5.710
 2147SOL    HW1 7340   6.557   1.611   5.788
 2147SOL    HW2 7341   6.464   1.702   5.689
 2148SOL     OW 7342   5.431   1.897   5.587
 2148SOL    HW1 7343   5.393   1.877   5.677
 2148SOL    HW2 7344   5.496   1.972   5.594
 2149SOL     OW 7345   3.542   2.532   1.372
 2149SOL    HW1 7346   3.592   2.450   1.401
 2149SOL    HW2 7347   3.457   2.539   1.424
 2150SOL     OW 7348   2.934   2.100   2.709
 2150SOL    HW1 7349   2.881   2.170   2.757
 2150SOL    HW2 7350   2.920   2.011   2.753
 2151SOL     OW 7351   1.451   0.437   5.054
 2151SOL    HW1 7352   1.440   0.342   5.022
 2151SOL    HW2 7353   1.384   0.456   5.126
 2152SOL     OW 7354   3.775   5.749   1.142
 2152SOL    HW1 7355   3.754   5.655   1.112
 2152SOL    HW2 7356   3.704   5.780   1.205
 2153SOL     OW 7357   3.740   0.607   2.924
 2153SOL    HW1 7358   3.715   0.606   2.828
 2153SOL    HW2 7359   3.812   0.674   2.940
 2154SOL     OW 7360   4.565   0.108   5.049
 2154SOL    HW1 7361   4.622   0.084   4.970
 2154SOL    HW2 7362   4.530   0.201   5.038
 2155SOL     OW 7363   2.328   5.942   0.265
 2155SOL    HW1 7364   2.235   5.952   0.230
 2155SOL    HW2 7365   2.342   6.004   0.343
 2156SOL     OW 7366   2.263   1.509   4.875
 2156SOL    HW1 7367   2.283   1.506   4.973
 2156SOL    HW2 7368   2.168   1.536   4.861
 2157SOL     OW 7369   6.068   0.782   3.527
 2157SOL    HW1 7370   5.998   0.772   3.598
 2157SOL    HW2 7371   6.059   0.706   3.462
 2158SOL     OW 7372   3.997   5.904   1.088
 2158SOL    HW1 7373   3.919   5.842   1.093
 2158SOL    HW2 7374   3.982   5.971   1.015
 2159SOL     OW 7375   1.770   6.434   5.164
 2159SOL    HW1 7376   1.731   6.347   5.133
 2159SOL    HW2 7377   1.765   6.439   5.263
 2160SOL     OW 7378   3.667   3.808   0.407
 2160SOL    HW1 7379   3.726   3.860   0.346
 2160SOL    HW2 7380   3.580   3.855   0.418
 2161SOL     OW 7381   5.371   5.118   3.076
 2161SOL    HW1 7382   5.404   5.185   3.010
 2161SOL    HW2 7383   5.345   5.034   3.028
 2162SOL     OW 7384   1.933   1.081   1.723
 2162SOL    HW1 7385   2.021   1.121   1.749
 2162SOL    HW2 7386   1.939   1.043   1.631
 2163SOL     OW 7387   0.941   4.416   6.043
 2163SOL    HW1 7388   1.030   4.440   6.082
 2163SOL    HW2 7389   0.956   4.369   5.955
 2164SOL     OW 7390   1.508   2.840   0.131
 2164SOL    HW1 7391   1.553   2.763   0.175
 2164SOL    HW2 7392   1.557   2.864   0.047
 2165SOL     OW 7393   0.429   2.219   2.780
 2165SOL    HW1 7394   0.369   2.194   2.703
 2165SOL    HW2 7395   0.378   2.276   2.844
 2166SOL     OW 7396   1.562   2.276   5.135
 2166SOL    HW1 7397   1.537   2.346   5.068
 2166SOL    HW2 7398   1.481   2.247   5.185
 2167SOL     OW 7399   1.937   1.367   3.842
 2167SOL    HW1 7400   2.005   1.398   3.908
 2167SOL    HW2 7401   1.876   1.443   3.820
 2168SOL     OW 7402   0.684   1.579   3.965
 2168SOL    HW1 7403   0.600   1.541   4.004
 2168SOL    HW2 7404   0.754   1.507   3.961
 2169SOL     OW 7405   5.494   1.344   6.293
 2169SOL    HW1 7406   5.493   1.385   6.201
 2169SOL    HW2 7407   5.586   1.348   6.330
 2170SOL     OW 7408   6.744   5.041   5.917
 2170SOL    HW1 7409   6.663   4.999   5.877
 2170SOL    HW2 7410   6.719   5.128   5.958
 2171SOL     OW 7411   0.196   4.341   1.738
 2171SOL    HW1 7412   0.200   4.243   1.720
 2171SOL    HW2 7413   0.270   4.366   1.800
 2172SOL     OW 7414   2.337   2.748   0.352
 2172SOL    HW1 7415   2.399   2.674   0.376
 2172SOL    HW2 7416   2.245   2.729   0.388
 2173SOL     OW 7417   3.996   0.626   5.466
 2173SOL    HW1 7418   4.036   0.540   5.499
 2173SOL    HW2 7419   4.006   0.631   5.367
 2174SOL     OW 7420   5.264   6.034   5.196
 2174SOL    HW1 7421   5.331   6.102   5.227
 2174SOL    HW2 7422   5.183   6.081   5.161
 2175SOL     OW 7423   2.416   2.697   4.362
 2175SOL    HW1 7424   2.452   2.611   4.399
 2175SOL    HW2 7425   2.362   2.678   4.280
 2176SOL     OW 7426   0.377   2.107   0.583
 2176SOL    HW1 7427   0.284   2.075   0.570
 2176SOL    HW2 7428   0.375   2.195   0.630
 2177SOL     OW 7429   5.714   1.661   3.315
 2177SOL    HW1 7430   5.654   1.680   3.393
 2177SOL    HW2 7431   5.794   1.610   3.346
 2178SOL     OW 7432   1.726   2.446   0.865
 2178SOL    HW1 7433   1.712   2.394   0.780
 2178SOL    HW2 7434   1.677   2.400   0.940
 2179SOL     OW 7435   2.114   5.225   5.022
 2179SOL    HW1 7436   2.040   5.261   5.079
 2179SOL    HW2 7437   2.199   5.273   5.044
 2180SOL     OW 7438   1.901   2.750   2.163
 2180SOL    HW1 7439   1.911   2.676   2.097
 2180SOL    HW2 7440   1.989   2.767   2.208
 2181SOL     OW 7441   4.227   5.103   4.797
 2181SOL    HW1 7442   4.290   5.096   4.719
 2181SOL    HW2 7443   4.203   5.012   4.829
 2182SOL     OW 7444   1.253   3.426   4.642
 2182SOL    HW1 7445   1.155   3.415   4.657
 2182SOL    HW2 7446   1.274   3.522   4.627
 2183SOL     OW 7447   3.029   4.098   6.233
 2183SOL    HW1 7448   3.031   4.043   6.317
 2183SOL    HW2 7449   3.119   4.136   6.215
 2184SOL     OW 7450   4.712   2.254   6.908
 2184SOL    HW1 7451   4.770   2.305   6.972
 2184SOL    HW2 7452   4.620   2.246   6.946
 2185SOL     OW 7453   1.416   2.148   0.984
 2185SOL    HW1 7454   1.339   2.212   0.979
 2185SOL    HW2 7455   1.501   2.199   1.000
 2186SOL     OW 7456   0.315   5.856   2.109
 2186SOL    HW1 7457   0.370   5.784   2.068
 2186SOL    HW2 7458   0.232   5.816   2.149
 2187SOL     OW 7459   6.486   0.728   2.804
 2187SOL    HW1 7460   6.508   0.699   2.711
 2187SOL    HW2 7461   6.493   0.828   2.810
 2188SOL     OW 7462   6.185   6.628   5.218
 2188SOL    HW1 7463   6.162   6.691   5.292
 2188SOL    HW2 7464   6.263   6.571   5.246
 2189SOL     OW 7465   1.640   0.231   0.643
 2189SOL    HW1 7466   1.722   0.235   0.585
 2189SOL    HW2 7467   1.639   0.144   0.693
 2190SOL     OW 7468   0.171   2.805   2.211
 2190SOL    HW1 7469   0.115   2.776   2.133
 2190SOL    HW2 7470   0.112   2.819   2.291
 2191SOL     OW 7471   2.877   2.296   6.737
 2191SOL    HW1 7472   2.890   2.197   6.736
 2191SOL    HW2 7473   2.966   2.341   6.726
 2192SOL     OW 7474   3.830   1.284   2.696
 2192SOL    HW1 7475   3.844   1.264   2.793
 2192SOL    HW2 7476   3.761   1.356   2.687
 2193SOL     OW 7477   6.440   5.636   6.255
 2193SOL    HW1 7478   6.473   5.717   6.208
 2193SOL    HW2 7479   6.380   5.663   6.331
 2194SOL     OW 7480   2.629   4.723   5.975
 2194SOL    HW1 7481   2.612   4.626   5.955
 2194SOL    HW2 7482   2.664   4.732   6.068
 2195SOL     OW 7483   0.253   0.258   4.041
 2195SOL    HW1 7484   0.238   0.232   4.137
 2195SOL    HW2 7485   0.166   0.285   4.000
 2196SOL     OW 7486   3.470   6.983   4.971
 2196SOL    HW1 7487   3.434   0.023   4.901
 2196SOL    HW2 7488   3.404   6.976   5.046
 2197SOL     OW 7489   3.213   3.502   1.015
 2197SOL    HW1 7490   3.147   3.459   0.953
 2197SOL    HW2 7491   3.224   3.446   1.097
 2198SOL     OW 7492   6.432   1.550   0.302
 2198SOL    HW1 7493   6.343   1.543   0.346
 2198SOL    HW2 7494   6.465   1.644   0.306
 2199SOL     OW 7495   5.221   1.242   3.432
 2199SOL    HW1 7496   5.236   1.273   3.338
 2199SOL    HW2 7497   5.129   1.204   3.440
 2200SOL     OW 7498   2.583   0.746   5.061
 2200SOL    HW1 7499   2.637   0.667   5.032
 2200SOL    HW2 7500   2.602   0.823   5.001
 2201SOL     OW 7501   6.489   2.719   3.697
 2201SOL    HW1 7502   6.584   2.744   3.715
 2201SOL    HW2 7503   6.429   2.784   3.742
 2202SOL     OW 7504   2.768   5.070   2.176
 2202SOL    HW1 7505   2.829   5.137   2.134
 2202SOL    HW2 7506   2.790   4.978   2.142
 2203SOL     OW 7507   1.925   2.682   1.309
 2203SOL    HW1 7508   1.899   2.686   1.406
 2203SOL    HW2 7509   2.008   2.736   1.294
 2204SOL     OW 7510   3.873   0.929   0.582
 2204SOL    HW1 7511   3.894   0.945   0.485
 2204SOL    HW2 7512   3.958   0.912   0.631
 2205SOL     OW 7513   1.076   0.293   5.988
 2205SOL    HW1 7514   1.160   0.342   5.967
 2205SOL    HW2 7515   1.033   0.263   5.903
 2206SOL     OW 7516   3.310   4.505   6.111
 2206SOL    HW1 7517   3.213   4.485   6.118
 2206SOL    HW2 7518   3.329   4.593   6.155
 2207SOL     OW 7519   3.176   4.351   6.865
 2207SOL    HW1 7520   3.273   4.331   6.853
 2207SOL    HW2 7521   3.123   4.269   6.844
 2208SOL     OW 7522   1.678   6.519   2.622
 2208SOL    HW1 7523   1.698   6.437   2.675
 2208SOL    HW2 7524   1.747   6.531   2.551
 2209SOL     OW 7525   1.432   6.114   5.349
 2209SOL    HW1 7526   1.426   6.133   5.251
 2209SOL    HW2 7527   1.404   6.195   5.401
 2210SOL     OW 7528   6.573   5.006   3.806
 2210SOL    HW1 7529   6.608   5.067   3.877
 2210SOL    HW2 7530   6.555   5.059   3.723
 2211SOL     OW 7531   5.302   1.160   0.595
 2211SOL    HW1 7532   5.242   1.132   0.520
 2211SOL    HW2 7533   5.357   1.082   0.625
 2212SOL     OW 7534   1.389   6.228   0.071
 2212SOL    HW1 7535   1.467   6.291   0.067
 2212SOL    HW2 7536   1.332   6.251   0.150
 2213SOL     OW 7537   3.724   2.972   5.222
 2213SOL    HW1 7538   3.753   3.007   5.311
 2213SOL    HW2 7539   3.771   3.023   5.149
 2214SOL     OW 7540   3.406   2.944   4.899
 2214SOL    HW1 7541   3.414   2.910   4.993
 2214SOL    HW2 7542   3.342   3.021   4.897
 2215SOL     OW 7543   6.782   1.831   0.281
 2215SOL    HW1 7544   6.806   1.848   0.186
 2215SOL    HW2 7545   6.690   1.867   0.299
 2216SOL     OW 7546   1.889   0.802   6.033
 2216SOL    HW1 7547   1.860   0.886   6.080
 2216SOL    HW2 7548   1.989   0.802   6.025
 2217SOL     OW 7549   4.158   6.649   1.339
 2217SOL    HW1 7550   4.235   6.612   1.287
 2217SOL    HW2 7551   4.104   6.573   1.376
 2218SOL     OW 7552   0.355   6.549   0.015
 2218SOL    HW1 7553   0.317   6.638   0.041
 2218SOL    HW2 7554   0.455   6.553   0.018
 2219SOL     OW 7555   5.563   1.619   1.691
 2219SOL    HW1 7556   5.617   1.675   1.753
 2219SOL    HW2 7557   5.466   1.641   1.701
 2220SOL     OW 7558   1.156   0.564   4.382
 2220SOL    HW1 7559   1.204   0.486   4.421
 2220SOL    HW2 7560   1.146   0.551   4.283
 2221SOL     OW 7561   5.809   0.743   5.160
 2221SOL    HW1 7562   5.802   0.806   5.083
 2221SOL    HW2 7563   5.817   0.796   5.245
 2222SOL     OW 7564   4.508   0.233   0.579
 2222SOL    HW1 7565   4.490   0.210   0.675
 2222SOL    HW2 7566   4.554   0.156   0.535
 2223SOL     OW 7567   6.116   1.127   4.934
 2223SOL    HW1 7568   6.093   1.214   4.890
 2223SOL    HW2 7569   6.208   1.099   4.906
 2224SOL     OW 7570   1.939   3.996   1.224
 2224SOL    HW1 7571   1.994   3.961   1.300
 2224SOL    HW2 7572   1.979   4.082   1.191
 2225SOL     OW 7573   6.323   6.276   3.268
 2225SOL    HW1 7574   6.339   6.375   3.257
 2225SOL    HW2 7575   6.228   6.255   3.248
 2226SOL     OW 7576   3.848   4.509   1.143
 2226SOL    HW1 7577   3.825   4.606   1.155
 2226SOL    HW2 7578   3.765   4.454   1.146
 2227SOL     OW 7579   5.673   3.522   0.562
 2227SOL    HW1 7580   5.746   3.573   0.517
 2227SOL    HW2 7581   5.591   3.524   0.504
 2228SOL     OW 7582   3.025   5.227   1.212
 2228SOL    HW1 7583   3.012   5.204   1.115
 2228SOL    HW2 7584   2.974   5.163   1.268
 2229SOL     OW 7585   4.320   1.728   4.222
 2229SOL    HW1 7586   4.357   1.654   4.279
 2229SOL    HW2 7587   4.232   1.700   4.184
 2230SOL     OW 7588   5.746   5.894   6.567
 2230SOL    HW1 7589   5.659   5.850   6.545
 2230SOL    HW2 7590   5.798   5.835   6.628
 2231SOL     OW 7591   0.389   0.420   2.398
 2231SOL    HW1 7592   0.396   0.509   2.354
 2231SOL    HW2 7593   0.411   0.348   2.332
 2232SOL     OW 7594   0.568   3.055   5.000
 2232SOL    HW1 7595   0.604   3.019   4.914
 2232SOL    HW2 7596   0.642   3.100   5.051
 2233SOL     OW 7597   2.420   4.209   0.917
 2233SOL    HW1 7598   2.515   4.230   0.891
 2233SOL    HW2 7599   2.375   4.161   0.842
 2234SOL     OW 7600   4.309   1.927   1.756
 2234SOL    HW1 7601   4.285   1.935   1.659
 2234SOL    HW2 7602   4.225   1.929   1.810
 2235SOL     OW 7603   2.699   0.259   1.810
 2235SOL    HW1 7604   2.720   0.204   1.891
 2235SOL    HW2 7605   2.769   0.246   1.741
 2236SOL     OW 7606   1.323   4.590   6.590
 2236SOL    HW1 7607   1.349   4.636   6.675
 2236SOL    HW2 7608   1.239   4.631   6.554
 2237SOL     OW 7609   5.896   4.838   3.786
 2237SOL    HW1 7610   5.902   4.938   3.792
 2237SOL    HW2 7611   5.849   4.804   3.868
 2238SOL     OW 7612   5.251   4.422   0.858
 2238SOL    HW1 7613   5.300   4.383   0.935
 2238SOL    HW2 7614   5.293   4.510   0.834
 2239SOL     OW 7615   3.327   4.925   3.167
 2239SOL    HW1 7616   3.423   4.897   3.171
 2239SOL    HW2 7617   3.318   5.016   3.208
 2240SOL     OW 7618   5.046   5.937   3.461
 2240SOL    HW1 7619   5.075   6.029   3.432
 2240SOL    HW2 7620   5.126   5.883   3.484
 2241SOL     OW 7621   0.231   6.631   3.032
 2241SOL    HW1 7622   0.226   6.569   3.111
 2241SOL    HW2 7623   0.311   6.609   2.977
 2242SOL     OW 7624   5.312   1.790   2.885
 2242SOL    HW1 7625   5.301   1.795   2.984
 2242SOL    HW2 7626   5.330   1.696   2.858
 2243SOL     OW 7627   2.813   6.284   5.759
 2243SOL    HW1 7628   2.912   6.296   5.767
 2243SOL    HW2 7629   2.794   6.210   5.694
 2244SOL     OW 7630   2.658   6.295   2.223
 2244SOL    HW1 7631   2.702   6.348   2.296
 2244SOL    HW2 7632   2.631   6.357   2.149
 2245SOL     OW 7633   0.410   1.815   1.694
 2245SOL    HW1 7634   0.389   1.844   1.788
 2245SOL    HW2 7635   0.421   1.895   1.636
 2246SOL     OW 7636   0.638   1.881   5.637
 2246SOL    HW1 7637   0.597   1.897   5.547
 2246SOL    HW2 7638   0.585   1.812   5.686
 2247SOL     OW 7639   3.362   3.515   4.755
 2247SOL    HW1 7640   3.408   3.449   4.814
 2247SOL    HW2 7641   3.337   3.596   4.809
 2248SOL     OW 7642   4.219   4.267   5.734
 2248SOL    HW1 7643   4.288   4.215   5.683
 2248SOL    HW2 7644   4.187   4.212   5.812
 2249SOL     OW 7645   6.440   6.360   2.762
 2249SOL    HW1 7646   6.527   6.401   2.735
 2249SOL    HW2 7647   6.455   6.266   2.793
 2250SOL     OW 7648   4.363   3.050   0.059
 2250SOL    HW1 7649   4.334   3.086   6.992
 2250SOL    HW2 7650   4.390   3.126   0.118
 2251SOL     OW 7651   5.284   0.797   0.070
 2251SOL    HW1 7652   5.374   0.840   0.061
 2251SOL    HW2 7653   5.239   0.796   7.002
 2252SOL     OW 7654   5.317   2.653   2.613
 2252SOL    HW1 7655   5.244   2.616   2.556
 2252SOL    HW2 7656   5.347   2.584   2.679
 2253SOL     OW 7657   1.029   3.296   6.724
 2253SOL    HW1 7658   0.994   3.389   6.714
 2253SOL    HW2 7659   1.120   3.289   6.683
 2254SOL     OW 7660   3.697   3.525   4.766
 2254SOL    HW1 7661   3.598   3.521   4.775
 2254SOL    HW2 7662   3.739   3.450   4.817
 2255SOL     OW 7663   4.948   2.417   6.541
 2255SOL    HW1 7664   4.878   2.474   6.582
 2255SOL    HW2 7665   5.012   2.386   6.612
 2256SOL     OW 7666   4.826   5.669   1.210
 2256SOL    HW1 7667   4.880   5.753   1.207
 2256SOL    HW2 7668   4.730   5.689   1.196
 2257SOL     OW 7669   0.379   2.217   3.873
 2257SOL    HW1 7670   0.464   2.167   3.855
 2257SOL    HW2 7671   0.392   2.313   3.850
 2258SOL     OW 7672   1.348   5.476   5.670
 2258SOL    HW1 7673   1.362   5.550   5.736
 2258SOL    HW2 7674   1.368   5.509   5.578
 2259SOL     OW 7675   5.272   3.538   6.735
 2259SOL    HW1 7676   5.219   3.457   6.757
 2259SOL    HW2 7677   5.368   3.523   6.757
 2260SOL     OW 7678   5.936   4.249   3.028
 2260SOL    HW1 7679   5.980   4.162   3.052
 2260SOL    HW2 7680   5.893   4.288   3.109
 2261SOL     OW 7681   6.820   5.597   6.785
 2261SOL    HW1 7682   6.865   5.685   6.800
 2261SOL    HW2 7683   6.852   5.557   6.699
 2262SOL     OW 7684   5.325   1.373   1.983
 2262SOL    HW1 7685   5.418   1.408   1.996
 2262SOL    HW2 7686   5.286   1.414   1.901
 2263SOL     OW 7687   2.745   5.706   0.043
 2263SOL    HW1 7688   2.819   5.684   0.107
 2263SOL    HW2 7689   2.731   5.630   7.002
 2264SOL     OW 7690   3.452   3.667   0.623
 2264SOL    HW1 7691   3.477   3.577   0.587
 2264SOL    HW2 7692   3.530   3.705   0.674
 2265SOL     OW 7693   0.609   0.828   4.406
 2265SOL    HW1 7694   0.682   0.807   4.470
 2265SOL    HW2 7695   0.520   0.807   4.447
 2266SOL     OW 7696   5.863   2.076   0.814
 2266SOL    HW1 7697   5.922   2.054   0.891
 2266SOL    HW2 7698   5.819   1.992   0.781
 2267SOL     OW 7699   4.882   2.711   4.897
 2267SOL    HW1 7700   4.883   2.750   4.989
 2267SOL    HW2 7701   4.790   2.718   4.858
 2268SOL     OW 7702   6.760   3.965   6.525
 2268SOL    HW1 7703   6.663   3.945   6.508
 2268SOL    HW2 7704   6.816   3.894   6.483
 2269SOL     OW 7705   6.370   5.958   4.715
 2269SOL    HW1 7706   6.399   5.987   4.624
 2269SOL    HW2 7707   6.380   6.034   4.779
 2270SOL     OW 7708   3.474   2.349   6.195
 2270SOL    HW1 7709   3.555   2.369   6.251
 2270SOL    HW2 7710   3.486   2.386   6.103
 2271SOL     OW 7711   5.952   4.502   0.425
 2271SOL    HW1 7712   5.942   4.565   0.502
 2271SOL    HW2 7713   6.031   4.443   0.440
 2272SOL     OW 7714   6.235   2.139   6.286
 2272SOL    HW1 7715   6.151   2.095   6.255
 2272SOL    HW2 7716   6.283   2.179   6.208
 2273SOL     OW 7717   1.894   0.233   2.371
 2273SOL    HW1 7718   1.888   0.198   2.277
 2273SOL    HW2 7719   1.882   0.157   2.435
 2274SOL     OW 7720   0.427   3.172   6.225
 2274SOL    HW1 7721   0.430   3.200   6.322
 2274SOL    HW2 7722   0.508   3.208   6.178
 2275SOL     OW 7723   6.283   0.587   3.701
 2275SOL    HW1 7724   6.208   0.533   3.739
 2275SOL    HW2 7725   6.270   0.597   3.602
 2276SOL     OW 7726   2.709   5.526   1.252
 2276SOL    HW1 7727   2.755   5.614   1.241
 2276SOL    HW2 7728   2.772   5.459   1.291
 2277SOL     OW 7729   3.882   3.724   5.002
 2277SOL    HW1 7730   3.940   3.780   5.061
 2277SOL    HW2 7731   3.940   3.675   4.937
 2278SOL     OW 7732   0.000   5.032   3.835
 2278SOL    HW1 7733   6.936   5.002   3.795
 2278SOL    HW2 7734   0.074   5.021   3.769
 2279SOL     OW 7735   4.817   5.770   4.819
 2279SOL    HW1 7736   4.827   5.790   4.722
 2279SOL    HW2 7737   4.889   5.817   4.871
 2280SOL     OW 7738   6.752   6.534   3.983
 2280SOL    HW1 7739   6.799   6.553   4.070
 2280SOL    HW2 7740   6.761   6.614   3.923
 2281SOL     OW 7741   3.227   1.540   1.480
 2281SOL    HW1 7742   3.233   1.637   1.503
 2281SOL    HW2 7743   3.274   1.523   1.393
 2282SOL     OW 7744   4.719   6.460   5.053
 2282SOL    HW1 7745   4.689   6.365   5.057
 2282SOL    HW2 7746   4.639   6.520   5.058
 2283SOL     OW 7747   7.018   4.789   1.790
 2283SOL    HW1 7748   6.973   4.860   1.844
 2283SOL    HW2 7749   6.949   4.729   1.749
 2284SOL     OW 7750   1.973   2.390   0.367
 2284SOL    HW1 7751   1.949   2.302   0.407
 2284SOL    HW2 7752   1.895   2.452   0.372
 2285SOL     OW 7753   1.960   2.215   0.979
 2285SOL    HW1 7754   1.938   2.298   1.031
 2285SOL    HW2 7755   2.021   2.157   1.033
 2286SOL     OW 7756   6.876   0.681   4.426
 2286SOL    HW1 7757   6.943   0.645   4.362
 2286SOL    HW2 7758   6.808   0.736   4.376
 2287SOL     OW 7759   1.617   1.326   3.483
 2287SOL    HW1 7760   1.634   1.229   3.464
 2287SOL    HW2 7761   1.656   1.381   3.409
 2288SOL     OW 7762   6.176   5.233   4.584
 2288SOL    HW1 7763   6.197   5.285   4.502
 2288SOL    HW2 7764   6.077   5.233   4.599
 2289SOL     OW 7765   6.902   4.388   2.591
 2289SOL    HW1 7766   6.814   4.429   2.617
 2289SOL    HW2 7767   6.896   4.353   2.497
 2290SOL     OW 7768   1.420   3.854   2.011
 2290SOL    HW1 7769   1.402   3.891   2.103
 2290SOL    HW2 7770   1.377   3.764   2.003
 2291SOL     OW 7771   2.246   2.459   6.606
 2291SOL    HW1 7772   2.301   2.386   6.648
 2291SOL    HW2 7773   2.228   2.530   6.674
 2292SOL     OW 7774   5.671   2.850   4.221
 2292SOL    HW1 7775   5.583   2.829   4.263
 2292SOL    HW2 7776   5.656   2.901   4.136
 2293SOL     OW 7777   5.440   6.668   0.890
 2293SOL    HW1 7778   5.461   6.585   0.838
 2293SOL    HW2 7779   5.457   6.651   0.987
 2294SOL     OW 7780   3.523   0.924   6.270
 2294SOL    HW1 7781   3.438   0.913   6.322
 2294SOL    HW2 7782   3.504   0.966   6.182
 2295SOL     OW 7783   0.455   1.286   2.699
 2295SOL    HW1 7784   0.410   1.197   2.689
 2295SOL    HW2 7785   0.551   1.278   2.670
 2296SOL     OW 7786   3.248   5.623   2.150
 2296SOL    HW1 7787   3.207   5.663   2.231
 2296SOL    HW2 7788   3.247   5.523   2.157
 2297SOL     OW 7789   4.400   4.195   5.549
 2297SOL    HW1 7790   4.413   4.289   5.580
 2297SOL    HW2 7791   4.342   4.194   5.468
 2298SOL     OW 7792   4.250   3.381   1.868
 2298SOL    HW1 7793   4.268   3.309   1.801
 2298SOL    HW2 7794   4.270   3.470   1.827
 2299SOL     OW 7795   4.774   4.894   5.039
 2299SOL    HW1 7796   4.764   4.959   4.963
 2299SOL    HW2 7797   4.684   4.861   5.067
 2300SOL     OW 7798   2.446   5.991   1.836
 2300SOL    HW1 7799   2.465   5.902   1.795
 2300SOL    HW2 7800   2.403   6.050   1.767
 2301SOL     OW 7801   3.382   2.874   3.135
 2301SOL    HW1 7802   3.332   2.890   3.050
 2301SOL    HW2 7803   3.466   2.927   3.135
 2302SOL     OW 7804   3.174   0.349   1.182
 2302SOL    HW1 7805   3.107   0.344   1.256
 2302SOL    HW2 7806   3.260   0.387   1.218
 2303SOL     OW 7807   2.209   3.314   6.706
 2303SOL    HW1 7808   2.267   3.233   6.712
 2303SOL    HW2 7809   2.262   3.391   6.670
 2304SOL     OW 7810   5.415   6.810   4.383
 2304SOL    HW1 7811   5.430   6.887   4.445
 2304SOL    HW2 7812   5.391   6.729   4.436
 2305SOL     OW 7813   2.997   6.701   2.596
 2305SOL    HW1 7814   2.999   6.684   2.695
 2305SOL    HW2 7815   2.903   6.691   2.563
 2306SOL     OW 7816   1.950   5.165   1.779
 2306SOL    HW1 7817   1.963   5.262   1.800
 2306SOL    HW2 7818   1.998   5.143   1.694
 2307SOL     OW 7819   6.756   3.288   4.142
 2307SOL    HW1 7820   6.677   3.270   4.201
 2307SOL    HW2 7821   6.728   3.282   4.046
 2308SOL     OW 7822   1.839   4.926   1.846
 2308SOL    HW1 7823   1.910   4.890   1.907
 2308SOL    HW2 7824   1.863   5.018   1.816
 2309SOL     OW 7825   1.566   0.635   5.912
 2309SOL    HW1 7826   1.651   0.628   5.860
 2309SOL    HW2 7827   1.586   0.643   6.009
 2310SOL     OW 7828   5.847   5.542   0.621
 2310SOL    HW1 7829   5.824   5.595   0.703
 2310SOL    HW2 7830   5.798   5.579   0.542
 2311SOL     OW 7831   2.452   0.228   1.754
 2311SOL    HW1 7832   2.548   0.231   1.782
 2311SOL    HW2 7833   2.401   0.299   1.803
 2312SOL     OW 7834   4.365   6.197   2.835
 2312SOL    HW1 7835   4.331   6.116   2.881
 2312SOL    HW2 7836   4.365   6.274   2.898
 2313SOL     OW 7837   6.059   5.645   1.569
 2313SOL    HW1 7838   5.978   5.636   1.511
 2313SOL    HW2 7839   6.041   5.713   1.641
 2314SOL     OW 7840   5.399   6.280   3.619
 2314SOL    HW1 7841   5.413   6.306   3.715
 2314SOL    HW2 7842   5.474   6.316   3.563
 2315SOL     OW 7843   5.550   3.299   6.083
 2315SOL    HW1 7844   5.595   3.382   6.115
 2315SOL    HW2 7845   5.535   3.305   5.984
 2316SOL     OW 7846   4.399   1.449   3.790
 2316SOL    HW1 7847   4.378   1.356   3.761
 2316SOL    HW2 7848   4.341   1.513   3.739
 2317SOL     OW 7849   0.780   6.722   2.869
 2317SOL    HW1 7850   0.851   6.656   2.844
 2317SOL    HW2 7851   0.721   6.739   2.790
 2318SOL     OW 7852   1.448   2.792   3.892
 2318SOL    HW1 7853   1.474   2.756   3.803
 2318SOL    HW2 7854   1.494   2.740   3.964
 2319SOL     OW 7855   1.553   4.918   4.129
 2319SOL    HW1 7856   1.594   4.833   4.095
 2319SOL    HW2 7857   1.625   4.979   4.161
 2320SOL     OW 7858   0.830   2.210   4.904
 2320SOL    HW1 7859   0.762   2.171   4.967
 2320SOL    HW2 7860   0.854   2.142   4.835
 2321SOL     OW 7861   2.769   0.173   6.599
 2321SOL    HW1 7862   2.817   0.255   6.630
 2321SOL    HW2 7863   2.675   0.196   6.574
 2322SOL     OW 7864   3.232   1.652   4.902
 2322SOL    HW1 7865   3.195   1.713   4.832
 2322SOL    HW2 7866   3.246   1.704   4.987
 2323SOL     OW 7867   2.567   4.813   1.823
 2323SOL    HW1 7868   2.584   4.883   1.893
 2323SOL    HW2 7869   2.485   4.762   1.847
 2324SOL     OW 7870   6.108   6.262   1.430
 2324SOL    HW1 7871   6.169   6.203   1.482
 2324SOL    HW2 7872   6.095   6.224   1.338
 2325SOL     OW 7873   1.034   4.451   2.257
 2325SOL    HW1 7874   1.103   4.379   2.246
 2325SOL    HW2 7875   1.032   4.507   2.174
 2326SOL     OW 7876   3.328   5.561   5.931
 2326SOL    HW1 7877   3.281   5.520   5.852
 2326SOL    HW2 7878   3.424   5.576   5.907
 2327SOL     OW 7879   6.278   3.228   5.273
 2327SOL    HW1 7880   6.243   3.206   5.182
 2327SOL    HW2 7881   6.214   3.194   5.342
 2328SOL     OW 7882   3.440   1.900   2.673
 2328SOL    HW1 7883   3.342   1.920   2.672
 2328SOL    HW2 7884   3.489   1.977   2.714
 2329SOL     OW 7885   1.725   3.516   4.960
 2329SOL    HW1 7886   1.644   3.481   4.913
 2329SOL    HW2 7887   1.767   3.442   5.013
 2330SOL     OW 7888   1.209   4.114   2.026
 2330SOL    HW1 7889   1.259   4.030   2.050
 2330SOL    HW2 7890   1.116   4.091   2.000
 2331SOL     OW 7891   6.061   4.417   1.110
 2331SOL    HW1 7892   6.136   4.480   1.089
 2331SOL    HW2 7893   6.009   4.452   1.188
 2332SOL     OW 7894   4.023   1.695   5.548
 2332SOL    HW1 7895   3.976   1.776   5.582
 2332SOL    HW2 7896   4.119   1.699   5.575
 2333SOL     OW 7897   0.593   6.116   3.043
 2333SOL    HW1 7898   0.652   6.049   3.088
 2333SOL    HW2 7899   0.606   6.110   2.944
 2334SOL     OW 7900   2.109   0.627   6.689
 2334SOL    HW1 7901   2.172   0.602   6.762
 2334SOL    HW2 7902   2.086   0.545   6.636
 2335SOL     OW 7903   5.988   1.074   2.968
 2335SOL    HW1 7904   6.034   1.070   3.057
 2335SOL    HW2 7905   6.057   1.088   2.896
 2336SOL     OW 7906   4.478   1.629   4.880
 2336SOL    HW1 7907   4.536   1.705   4.910
 2336SOL    HW2 7908   4.425   1.594   4.957
 2337SOL     OW 7909   4.357   0.985   3.212
 2337SOL    HW1 7910   4.449   1.023   3.223
 2337SOL    HW2 7911   4.295   1.028   3.278
 2338SOL     OW 7912   1.528   1.433   5.780
 2338SOL    HW1 7913   1.452   1.497   5.791
 2338SOL    HW2 7914   1.588   1.438   5.860
 2339SOL     OW 7915   3.637   4.197   4.801
 2339SOL    HW1 7916   3.711   4.258   4.772
 2339SOL    HW2 7917   3.625   4.125   4.733
 2340SOL     OW 7918   5.396   4.714   6.675
 2340SOL    HW1 7919   5.439   4.687   6.761
 2340SOL    HW2 7920   5.408   4.641   6.608
 2341SOL     OW 7921   5.816   4.354   1.486
 2341SOL    HW1 7922   5.755   4.414   1.538
 2341SOL    HW2 7923   5.890   4.408   1.446
 2342SOL     OW 7924   0.388   6.212   5.184
 2342SOL    HW1 7925   0.414   6.176   5.274
 2342SOL    HW2 7926   0.397   6.312   5.185
 2343SOL     OW 7927   1.477   6.139   2.172
 2343SOL    HW1 7928   1.508   6.122   2.078
 2343SOL    HW2 7929   1.531   6.083   2.235
 2344SOL     OW 7930   1.976   0.545   1.298
 2344SOL    HW1 7931   2.032   0.512   1.374
 2344SOL    HW2 7932   1.908   0.609   1.332
 2345SOL     OW 7933   2.704   5.222   5.453
 2345SOL    HW1 7934   2.722   5.313   5.417
 2345SOL    HW2 7935   2.720   5.221   5.552
 2346SOL     OW 7936   4.701   2.945   5.050
 2346SOL    HW1 7937   4.780   2.887   5.071
 2346SOL    HW2 7938   4.624   2.920   5.109
 2347SOL     OW 7939   2.202   3.565   1.676
 2347SOL    HW1 7940   2.266   3.533   1.746
 2347SOL    HW2 7941   2.108   3.546   1.706
 2348SOL     OW 7942   3.584   6.055   3.957
 2348SOL    HW1 7943   3.520   6.044   4.033
 2348SOL    HW2 7944   3.645   6.132   3.974
 2349SOL     OW 7945   0.706   5.108   6.241
 2349SOL    HW1 7946   0.661   5.175   6.182
 2349SOL    HW2 7947   0.781   5.065   6.192
 2350SOL     OW 7948   5.349   6.962   6.459
 2350SOL    HW1 7949   5.258   6.921   6.453
 2350SOL    HW2 7950   5.417   6.894   6.431
 2351SOL     OW 7951   4.036   5.265   1.974
 2351SOL    HW1 7952   4.107   5.275   2.044
 2351SOL    HW2 7953   3.948   5.247   2.018
 2352SOL     OW 7954   1.284   3.705   2.345
 2352SOL    HW1 7955   1.184   3.704   2.352
 2352SOL    HW2 7956   1.315   3.799   2.329
 2353SOL     OW 7957   3.031   4.822   5.221
 2353SOL    HW1 7958   2.978   4.887   5.275
 2353SOL    HW2 7959   2.969   4.756   5.178
 2354SOL     OW 7960   2.902   1.815   6.397
 2354SOL    HW1 7961   2.941   1.796   6.306
 2354SOL    HW2 7962   2.913   1.912   6.417
 2355SOL     OW 7963   1.090   5.414   6.545
 2355SOL    HW1 7964   1.075   5.378   6.454
 2355SOL    HW2 7965   1.091   5.340   6.612
 2356SOL     OW 7966   2.232   4.109   0.056
 2356SOL    HW1 7967   2.307   4.139   0.116
 2356SOL    HW2 7968   2.146   4.146   0.089
 2357SOL     OW 7969   4.097   5.280   3.363
 2357SOL    HW1 7970   4.112   5.222   3.283
 2357SOL    HW2 7971   3.999   5.297   3.375
 2358SOL     OW 7972   2.399   5.289   5.094
 2358SOL    HW1 7973   2.432   5.246   5.178
 2358SOL    HW2 7974   2.393   5.220   5.022
 2359SOL     OW 7975   6.983   0.925   5.674
 2359SOL    HW1 7976   0.061   0.916   5.681
 2359SOL    HW2 7977   6.960   1.000   5.612
 2360SOL     OW 7978   5.253   6.135   5.779
 2360SOL    HW1 7979   5.229   6.187   5.861
 2360SOL    HW2 7980   5.347   6.102   5.788
 2361SOL     OW 7981   2.880   6.897   4.734
 2361SOL    HW1 7982   2.942   6.849   4.796
 2361SOL    HW2 7983   2.926   6.978   4.696
 2362SOL     OW 7984   3.243   7.015   5.145
 2362SOL    HW1 7985   3.277   6.954   5.217
 2362SOL    HW2 7986   3.145   0.007   5.157
 2363SOL     OW 7987   4.189   2.573   5.690
 2363SOL    HW1 7988   4.179   2.662   5.645
 2363SOL    HW2 7989   4.139   2.573   5.776
 2364SOL     OW 7990   0.027   2.458   3.361
 2364SOL    HW1 7991   6.963   2.406   3.356
 2364SOL    HW2 7992   0.084   2.437   3.282
 2365SOL     OW 7993   6.295   2.353   6.100
 2365SOL    HW1 7994   6.372   2.413   6.123
 2365SOL    HW2 7995   6.317   2.302   6.016
 2366SOL     OW 7996   1.528   4.616   5.562
 2366SOL    HW1 7997   1.556   4.560   5.484
 2366SOL    HW2 7998   1.608   4.661   5.601
 2367SOL     OW 7999   3.412   3.666   7.007
 2367SOL    HW1 8000   3.397   3.743   6.946
 2367SOL    HW2 8001   3.508   3.664   0.014
 2368SOL     OW 8002   4.629   0.160   4.080
 2368SOL    HW1 8003   4.720   0.202   4.080
 2368SOL    HW2 8004   4.582   0.182   3.994
 2369SOL     OW 8005   2.161   2.423   4.936
 2369SOL    HW1 8006   2.242   2.446   4.990
 2369SOL    HW2 8007   2.082   2.412   4.996
 2370SOL     OW 8008   4.809   4.463   6.188
 2370SOL    HW1 8009   4.881   4.484   6.254
 2370SOL    HW2 8010   4.721   4.458   6.236
 2371SOL     OW 8011   1.240   6.241   1.847
 2371SOL    HW1 8012   1.300   6.321   1.841
 2371SOL    HW2 8013   1.147   6.267   1.820
 2372SOL     OW 8014   0.693   1.970   1.658
 2372SOL    HW1 8015   0.764   1.997   1.724
 2372SOL    HW2 8016   0.725   1.891   1.606
 2373SOL     OW 8017   6.294   0.355   0.017
 2373SOL    HW1 8018   6.290   0.322   6.944
 2373SOL    HW2 8019   6.232   0.433   0.028
 2374SOL     OW 8020   6.401   0.939   4.283
 2374SOL    HW1 8021   6.383   0.898   4.373
 2374SOL    HW2 8022   6.347   1.023   4.274
 2375SOL     OW 8023   1.417   6.722   4.411
 2375SOL    HW1 8024   1.324   6.708   4.446
 2375SOL    HW2 8025   1.483   6.691   4.479
 2376SOL     OW 8026   6.346   2.716   4.182
 2376SOL    HW1 8027   6.441   2.726   4.155
 2376SOL    HW2 8028   6.327   2.620   4.203
 2377SOL     OW 8029   3.368   3.872   3.467
 2377SOL    HW1 8030   3.288   3.902   3.519
 2377SOL    HW2 8031   3.410   3.795   3.514
 2378SOL     OW 8032   5.538   1.959   6.502
 2378SOL    HW1 8033   5.495   1.971   6.412
 2378SOL    HW2 8034   5.539   1.862   6.525
 2379SOL     OW 8035   6.939   1.582   6.370
 2379SOL    HW1 8036   6.893   1.502   6.332
 2379SOL    HW2 8037   6.893   1.611   6.454
 2380SOL     OW 8038   6.657   6.400   6.233
 2380SOL    HW1 8039   6.652   6.459   6.314
 2380SOL    HW2 8040   6.745   6.352   6.232
 2381SOL     OW 8041   2.330   4.401   4.001
 2381SOL    HW1 8042   2.267   4.324   4.007
 2381SOL    HW2 8043   2.375   4.401   3.912
 2382SOL     OW 8044   2.244   4.772   2.828
 2382SOL    HW1 8045   2.236   4.725   2.915
 2382SOL    HW2 8046   2.180   4.849   2.826
 2383SOL     OW 8047   5.195   5.903   6.632
 2383SOL    HW1 8048   5.141   5.882   6.550
 2383SOL    HW2 8049   5.146   5.970   6.687
 2384SOL     OW 8050   0.897   0.339   2.317
 2384SOL    HW1 8051   0.816   0.311   2.369
 2384SOL    HW2 8052   0.885   0.433   2.285
 2385SOL     OW 8053   6.017   0.158   1.104
 2385SOL    HW1 8054   5.929   0.127   1.069
 2385SOL    HW2 8055   6.010   0.255   1.129
 2386SOL     OW 8056   4.408   5.271   4.017
 2386SOL    HW1 8057   4.499   5.311   4.002
 2386SOL    HW2 8058   4.397   5.250   4.115
 2387SOL     OW 8059   0.296   1.812   3.735
 2387SOL    HW1 8060   0.247   1.860   3.662
 2387SOL    HW2 8061   0.373   1.868   3.765
 2388SOL     OW 8062   1.016   1.653   4.651
 2388SOL    HW1 8063   1.050   1.701   4.732
 2388SOL    HW2 8064   1.093   1.608   4.605
 2389SOL     OW 8065   5.151   4.093   3.689
 2389SOL    HW1 8066   5.159   4.107   3.591
 2389SOL    HW2 8067   5.188   4.003   3.714
 2390SOL     OW 8068   3.808   3.002   4.431
 2390SOL    HW1 8069   3.767   2.938   4.365
 2390SOL    HW2 8070   3.739   3.031   4.496
 2391SOL     OW 8071   4.633   4.359   5.778
 2391SOL    HW1 8072   4.695   4.435   5.798
 2391SOL    HW2 8073   4.551   4.369   5.834
 2392SOL     OW 8074   3.399   5.802   5.583
 2392SOL    HW1 8075   3.341   5.744   5.526
 2392SOL    HW2 8076   3.444   5.871   5.527
 2393SOL     OW 8077   3.779   5.216   0.442
 2393SOL    HW1 8078   3.821   5.140   0.491
 2393SOL    HW2 8079   3.680   5.215   0.457
 2394SOL     OW 8080   1.774   3.293   5.177
 2394SOL    HW1 8081   1.869   3.312   5.201
 2394SOL    HW2 8082   1.733   3.234   5.247
 2395SOL     OW 8083   6.486   2.378   6.727
 2395SOL    HW1 8084   6.551   2.312   6.691
 2395SOL    HW2 8085   6.393   2.342   6.718
 2396SOL     OW 8086   4.882   5.874   6.773
 2396SOL    HW1 8087   4.792   5.842   6.743
 2396SOL    HW2 8088   4.886   5.974   6.766
 2397SOL     OW 8089   0.241   4.266   0.192
 2397SOL    HW1 8090   0.141   4.261   0.182
 2397SOL    HW2 8091   0.284   4.194   0.139
 2398SOL     OW 8092   2.983   4.747   5.981
 2398SOL    HW1 8093   2.887   4.760   5.958
 2398SOL    HW2 8094   3.025   4.684   5.917
 2399SOL     OW 8095   4.497   1.778   2.118
 2399SOL    HW1 8096   4.466   1.683   2.125
 2399SOL    HW2 8097   4.578   1.791   2.175
 2400SOL     OW 8098   4.068   4.640   0.585
 2400SOL    HW1 8099   4.032   4.601   0.501
 2400SOL    HW2 8100   4.168   4.632   0.586
 2401SOL     OW 8101   4.005   0.734   5.799
 2401SOL    HW1 8102   3.919   0.783   5.816
 2401SOL    HW2 8103   4.065   0.742   5.879
 2402SOL     OW 8104   0.006   2.881   4.081
 2402SOL    HW1 8105   6.941   2.925   4.107
 2402SOL    HW2 8106   0.059   2.862   4.164
 2403SOL     OW 8107   3.066   2.741   0.092
 2403SOL    HW1 8108   2.997   2.693   0.037
 2403SOL    HW2 8109   3.106   2.814   0.037
 2404SOL     OW 8110   5.499   1.371   2.536
 2404SOL    HW1 8111   5.453   1.395   2.451
 2404SOL    HW2 8112   5.515   1.273   2.539
 2405SOL     OW 8113   3.269   3.788   4.473
 2405SOL    HW1 8114   3.276   3.690   4.455
 2405SOL    HW2 8115   3.341   3.836   4.423
 2406SOL     OW 8116   1.478   0.400   3.877
 2406SOL    HW1 8117   1.541   0.344   3.824
 2406SOL    HW2 8118   1.406   0.434   3.817
 2407SOL     OW 8119   5.029   2.627   2.954
 2407SOL    HW1 8120   5.008   2.539   2.911
 2407SOL    HW2 8121   4.943   2.676   2.972
 2408SOL     OW 8122   3.361   5.250   2.387
 2408SOL    HW1 8123   3.460   5.246   2.404
 2408SOL    HW2 8124   3.332   5.166   2.342
 2409SOL     OW 8125   1.823   3.025   2.109
 2409SOL    HW1 8126   1.903   3.071   2.069
 2409SOL    HW2 8127   1.843   2.928   2.122
 2410SOL     OW 8128   5.867   2.963   5.656
 2410SOL    HW1 8129   5.924   3.045   5.658
 2410SOL    HW2 8130   5.913   2.889   5.705
 2411SOL     OW 8131   4.354   4.986   5.480
 2411SOL    HW1 8132   4.365   5.082   5.504
 2411SOL    HW2 8133   4.358   4.931   5.564
 2412SOL     OW 8134   3.199   4.172   0.275
 2412SOL    HW1 8135   3.204   4.259   0.226
 2412SOL    HW2 8136   3.244   4.181   0.364
 2413SOL     OW 8137   6.965   3.003   6.811
 2413SOL    HW1 8138   6.996   3.086   6.765
 2413SOL    HW2 8139   6.901   2.953   6.752
 2414SOL     OW 8140   5.752   3.741   2.350
 2414SOL    HW1 8141   5.773   3.773   2.442
 2414SOL    HW2 8142   5.825   3.768   2.287
 2415SOL     OW 8143   0.516   0.156   1.128
 2415SOL    HW1 8144   0.430   0.151   1.178
 2415SOL    HW2 8145   0.548   0.063   1.107
 2416SOL     OW 8146   2.739   1.866   5.317
 2416SOL    HW1 8147   2.675   1.878   5.393
 2416SOL    HW2 8148   2.698   1.809   5.247
 2417SOL     OW 8149   4.164   2.614   0.559
 2417SOL    HW1 8150   4.163   2.714   0.559
 2417SOL    HW2 8151   4.090   2.580   0.502
 2418SOL     OW 8152   3.263   3.511   3.927
 2418SOL    HW1 8153   3.343   3.543   3.875
 2418SOL    HW2 8154   3.179   3.542   3.881
 2419SOL     OW 8155   0.529   6.195   3.946
 2419SOL    HW1 8156   0.507   6.133   4.021
 2419SOL    HW2 8157   0.450   6.253   3.926
 2420SOL     OW 8158   4.208   0.421   1.947
 2420SOL    HW1 8159   4.133   0.415   2.013
 2420SOL    HW2 8160   4.276   0.351   1.968
 2421SOL     OW 8161   2.817   0.809   4.837
 2421SOL    HW1 8162   2.813   0.737   4.768
 2421SOL    HW2 8163   2.912   0.832   4.855
 2422SOL     OW 8164   5.366   0.140   1.408
 2422SOL    HW1 8165   5.332   0.233   1.396
 2422SOL    HW2 8166   5.457   0.132   1.367
 2423SOL     OW 8167   1.352   6.511   3.247
 2423SOL    HW1 8168   1.333   6.502   3.149
 2423SOL    HW2 8169   1.283   6.461   3.299
 2424SOL     OW 8170   5.638   5.554   6.119
 2424SOL    HW1 8171   5.590   5.529   6.035
 2424SOL    HW2 8172   5.671   5.471   6.164
 2425SOL     OW 8173   6.044   0.518   4.314
 2425SOL    HW1 8174   6.101   0.436   4.324
 2425SOL    HW2 8175   6.050   0.551   4.219
 2426SOL     OW 8176   0.939   4.596   4.603
 2426SOL    HW1 8177   0.906   4.513   4.557
 2426SOL    HW2 8178   1.034   4.613   4.579
 2427SOL     OW 8179   6.285   5.357   7.011
 2427SOL    HW1 8180   6.188   5.356   0.013
 2427SOL    HW2 8181   6.299   5.306   6.926
 2428SOL     OW 8182   0.598   7.009   2.948
 2428SOL    HW1 8183   0.536   0.061   2.977
 2428SOL    HW2 8184   0.688   0.001   2.990
 2429SOL     OW 8185   6.458   5.707   3.771
 2429SOL    HW1 8186   6.519   5.640   3.729
 2429SOL    HW2 8187   6.481   5.718   3.868
 2430SOL     OW 8188   6.452   2.913   1.709
 2430SOL    HW1 8189   6.466   2.936   1.613
 2430SOL    HW2 8190   6.539   2.913   1.757
 2431SOL     OW 8191   4.143   0.135   1.655
 2431SOL    HW1 8192   4.075   0.071   1.691
 2431SOL    HW2 8193   4.213   0.084   1.603
 2432SOL     OW 8194   4.770   6.312   2.629
 2432SOL    HW1 8195   4.759   6.240   2.561
 2432SOL    HW2 8196   4.729   6.282   2.716
 2433SOL     OW 8197   3.092   6.850   0.839
 2433SOL    HW1 8198   3.045   6.932   0.871
 2433SOL    HW2 8199   3.112   6.791   0.918
 2434SOL     OW 8200   4.104   1.330   3.528
 2434SOL    HW1 8201   4.081   1.399   3.597
 2434SOL    HW2 8202   4.176   1.365   3.469
 2435SOL     OW 8203   4.733   5.588   6.066
 2435SOL    HW1 8204   4.723   5.612   6.163
 2435SOL    HW2 8205   4.675   5.510   6.044
 2436SOL     OW 8206   1.768   0.006   0.763
 2436SOL    HW1 8207   1.835   0.065   0.809
 2436SOL    HW2 8208   1.815   6.950   0.722
 2437SOL     OW 8209   5.004   5.509   0.264
 2437SOL    HW1 8210   5.039   5.415   0.264
 2437SOL    HW2 8211   4.951   5.525   0.181
 2438SOL     OW 8212   3.431   1.411   5.668
 2438SOL    HW1 8213   3.412   1.475   5.594
 2438SOL    HW2 8214   3.530   1.398   5.677
 2439SOL     OW 8215   1.216   4.383   0.318
 2439SOL    HW1 8216   1.248   4.299   0.361
 2439SOL    HW2 8217   1.269   4.460   0.353
 2440SOL     OW 8218   3.534   6.279   4.999
 2440SOL    HW1 8219   3.574   6.198   4.956
 2440SOL    HW2 8220   3.583   6.300   5.084
 2441SOL     OW 8221   6.172   1.337   6.771
 2441SOL    HW1 8222   6.263   1.352   6.809
 2441SOL    HW2 8223   6.176   1.348   6.671
 2442SOL     OW 8224   6.273   6.139   3.565
 2442SOL    HW1 8225   6.292   6.086   3.648
 2442SOL    HW2 8226   6.288   6.081   3.485
 2443SOL     OW 8227   3.293   0.167   6.329
 2443SOL    HW1 8228   3.216   0.184   6.267
 2443SOL    HW2 8229   3.301   0.069   6.347
 2444SOL     OW 8230   4.093   4.279   6.268
 2444SOL    HW1 8231   4.062   4.359   6.320
 2444SOL    HW2 8232   4.036   4.267   6.187
 2445SOL     OW 8233   6.676   0.924   2.495
 2445SOL    HW1 8234   6.636   0.910   2.586
 2445SOL    HW2 8235   6.605   0.913   2.425
 2446SOL     OW 8236   0.891   2.707   4.542
 2446SOL    HW1 8237   0.826   2.643   4.583
 2446SOL    HW2 8238   0.855   2.800   4.547
 2447SOL     OW 8239   2.447   1.053   0.813
 2447SOL    HW1 8240   2.522   1.087   0.757
 2447SOL    HW2 8241   2.411   0.968   0.772
 2448SOL     OW 8242   0.672   0.587   3.881
 2448SOL    HW1 8243   0.681   0.629   3.791
 2448SOL    HW2 8244   0.716   0.497   3.881
 2449SOL     OW 8245   6.793   4.249   2.866
 2449SOL    HW1 8246   6.841   4.290   2.788
 2449SOL    HW2 8247   6.700   4.224   2.839
 2450SOL     OW 8248   2.964   5.344   4.780
 2450SOL    HW1 8249   2.975   5.401   4.862
 2450SOL    HW2 8250   3.016   5.260   4.791
 2451SOL     OW 8251   0.839   0.172   3.640
 2451SOL    HW1 8252   0.934   0.179   3.609
 2451SOL    HW2 8253   0.795   0.093   3.597
 2452SOL     OW 8254   2.950   2.205   3.402
 2452SOL    HW1 8255   2.889   2.126   3.399
 2452SOL    HW2 8256   3.022   2.188   3.469
 2453SOL     OW 8257   6.708   3.402   0.506
 2453SOL    HW1 8258   6.684   3.345   0.427
 2453SOL    HW2 8259   6.636   3.395   0.575
 2454SOL     OW 8260   3.036   0.735   6.888
 2454SOL    HW1 8261   3.117   0.792   6.876
 2454SOL    HW2 8262   2.975   0.776   6.955
 2455SOL     OW 8263   4.995   1.006   1.219
 2455SOL    HW1 8264   5.044   1.071   1.161
 2455SOL    HW2 8265   5.025   0.913   1.197
 2456SOL     OW 8266   5.695   1.567   0.228
 2456SOL    HW1 8267   5.682   1.618   0.313
 2456SOL    HW2 8268   5.722   1.473   0.249
 2457SOL     OW 8269   6.566   6.040   6.408
 2457SOL    HW1 8270   6.603   6.002   6.493
 2457SOL    HW2 8271   6.533   6.133   6.424
 2458SOL     OW 8272   2.458   6.034   3.864
 2458SOL    HW1 8273   2.536   5.981   3.830
 2458SOL    HW2 8274   2.490   6.103   3.929
 2459SOL     OW 8275   2.416   6.280   6.378
 2459SOL    HW1 8276   2.430   6.181   6.383
 2459SOL    HW2 8277   2.503   6.324   6.356
 2460SOL     OW 8278   1.965   1.642   1.707
 2460SOL    HW1 8279   1.955   1.741   1.712
 2460SOL    HW2 8280   1.907   1.607   1.633
 2461SOL     OW 8281   4.659   6.786   3.098
 2461SOL    HW1 8282   4.602   6.760   3.020
 2461SOL    HW2 8283   4.724   6.856   3.070
 2462SOL     OW 8284   2.018   5.707   0.504
 2462SOL    HW1 8285   2.020   5.806   0.493
 2462SOL    HW2 8286   2.101   5.677   0.552
 2463SOL     OW 8287   6.491   2.554   4.948
 2463SOL    HW1 8288   6.468   2.573   5.043
 2463SOL    HW2 8289   6.583   2.589   4.928
 2464SOL     OW 8290   1.512   3.964   1.747
 2464SOL    HW1 8291   1.482   3.919   1.831
 2464SOL    HW2 8292   1.581   3.907   1.702
 2465SOL     OW 8293   1.057   0.732   1.822
 2465SOL    HW1 8294   1.051   0.806   1.890
 2465SOL    HW2 8295   1.042   0.644   1.868
 2466SOL     OW 8296   2.882   1.623   1.926
 2466SOL    HW1 8297   2.877   1.633   2.025
 2466SOL    HW2 8298   2.799   1.661   1.885
 2467SOL     OW 8299   5.427   1.682   4.676
 2467SOL    HW1 8300   5.345   1.696   4.731
 2467SOL    HW2 8301   5.451   1.766   4.629
 2468SOL     OW 8302   5.229   6.192   1.765
 2468SOL    HW1 8303   5.304   6.133   1.736
 2468SOL    HW2 8304   5.156   6.136   1.803
 2469SOL     OW 8305   4.237   4.221   5.341
 2469SOL    HW1 8306   4.157   4.167   5.314
 2469SOL    HW2 8307   4.260   4.286   5.267
 2470SOL     OW 8308   3.657   4.646   5.654
 2470SOL    HW1 8309   3.619   4.557   5.629
 2470SOL    HW2 8310   3.584   4.706   5.686
 2471SOL     OW 8311   2.691   5.930   0.785
 2471SOL    HW1 8312   2.716   5.904   0.691
 2471SOL    HW2 8313   2.601   5.893   0.807
 2472SOL     OW 8314   4.835   2.315   4.017
 2472SOL    HW1 8315   4.838   2.291   4.114
 2472SOL    HW2 8316   4.811   2.234   3.963
 2473SOL     OW 8317   2.058   4.073   5.087
 2473SOL    HW1 8318   2.020   3.994   5.136
 2473SOL    HW2 8319   2.151   4.050   5.055
 2474SOL     OW 8320   0.621   5.818   0.006
 2474SOL    HW1 8321   0.569   5.809   0.091
 2474SOL    HW2 8322   0.655   5.912   7.018
 2475SOL     OW 8323   5.360   1.039   1.308
 2475SOL    HW1 8324   5.296   1.101   1.261
 2475SOL    HW2 8325   5.317   0.949   1.319
 2476SOL     OW 8326   0.515   2.484   3.578
 2476SOL    HW1 8327   0.535   2.493   3.675
 2476SOL    HW2 8328   0.421   2.452   3.566
 2477SOL     OW 8329   4.865   1.598   2.361
 2477SOL    HW1 8330   4.856   1.556   2.451
 2477SOL    HW2 8331   4.944   1.559   2.314
 2478SOL     OW 8332   6.008   0.913   1.856
 2478SOL    HW1 8333   5.970   0.907   1.764
 2478SOL    HW2 8334   6.046   0.825   1.883
 2479SOL     OW 8335   1.211   3.939   1.389
 2479SOL    HW1 8336   1.185   3.876   1.316
 2479SOL    HW2 8337   1.311   3.946   1.393
 2480SOL     OW 8338   6.170   4.174   1.243
 2480SOL    HW1 8339   6.080   4.130   1.246
 2480SOL    HW2 8340   6.160   4.267   1.209
 2481SOL     OW 8341   2.887   0.856   0.083
 2481SOL    HW1 8342   2.839   0.944   0.077
 2481SOL    HW2 8343   2.830   0.790   0.132
 2482SOL     OW 8344   4.577   3.181   5.959
 2482SOL    HW1 8345   4.630   3.099   5.979
 2482SOL    HW2 8346   4.577   3.198   5.860
 2483SOL     OW 8347   2.109   2.023   7.013
 2483SOL    HW1 8348   2.035   1.966   6.979
 2483SOL    HW2 8349   2.092   2.119   6.988
 2484SOL     OW 8350   2.240   0.528   6.905
 2484SOL    HW1 8351   2.189   0.442   6.912
 2484SOL    HW2 8352   2.336   0.508   6.885
 2485SOL     OW 8353   5.353   3.911   1.959
 2485SOL    HW1 8354   5.325   3.904   2.054
 2485SOL    HW2 8355   5.452   3.926   1.954
 2486SOL     OW 8356   2.674   5.158   3.969
 2486SOL    HW1 8357   2.710   5.239   3.923
 2486SOL    HW2 8358   2.727   5.078   3.942
 2487SOL     OW 8359   3.717   6.009   0.191
 2487SOL    HW1 8360   3.716   6.048   0.099
 2487SOL    HW2 8361   3.642   5.944   0.201
 2488SOL     OW 8362   1.853   4.706   2.161
 2488SOL    HW1 8363   1.776   4.670   2.108
 2488SOL    HW2 8364   1.933   4.715   2.102
 2489SOL     OW 8365   1.914   5.963   3.245
 2489SOL    HW1 8366   1.961   5.928   3.326
 2489SOL    HW2 8367   1.819   5.933   3.245
 2490SOL     OW 8368   6.443   5.284   1.318
 2490SOL    HW1 8369   6.526   5.278   1.374
 2490SOL    HW2 8370   6.421   5.193   1.282
 2491SOL     OW 8371   2.781   5.712   0.962
 2491SOL    HW1 8372   2.792   5.613   0.956
 2491SOL    HW2 8373   2.843   5.749   1.031
 2492SOL     OW 8374   4.607   2.934   6.946
 2492SOL    HW1 8375   4.599   2.967   6.852
 2492SOL    HW2 8376   4.578   3.007   7.009
 2493SOL     OW 8377   6.069   0.606   2.732
 2493SOL    HW1 8378   6.094   0.515   2.698
 2493SOL    HW2 8379   6.105   0.619   2.824
 2494SOL     OW 8380   5.910   3.769   2.830
 2494SOL    HW1 8381   5.895   3.698   2.761
 2494SOL    HW2 8382   5.821   3.802   2.863
 2495SOL     OW 8383   5.177   0.407   5.126
 2495SOL    HW1 8384   5.211   0.496   5.096
 2495SOL    HW2 8385   5.191   0.340   5.054
 2496SOL     OW 8386   0.426   4.436   6.190
 2496SOL    HW1 8387   0.372   4.502   6.241
 2496SOL    HW2 8388   0.471   4.373   6.253
 2497SOL     OW 8389   0.020   1.358   1.450
 2497SOL    HW1 8390   0.078   1.281   1.475
 2497SOL    HW2 8391   6.975   1.330   1.381
 2498SOL     OW 8392   3.480   2.139   3.653
 2498SOL    HW1 8393   3.408   2.075   3.679
 2498SOL    HW2 8394   3.514   2.186   3.734
 2499SOL     OW 8395   4.849   2.232   4.299
 2499SOL    HW1 8396   4.775   2.221   4.366
 2499SOL    HW2 8397   4.910   2.153   4.305
 2500SOL     OW 8398   4.304   2.929   6.110
 2500SOL    HW1 8399   4.280   3.024   6.088
 2500SOL    HW2 8400   4.400   2.912   6.086
 2501SOL     OW 8401   6.544   6.003   6.900
 2501SOL    HW1 8402   6.478   6.070   6.935
 2501SOL    HW2 8403   6.571   5.941   6.975
 2502SOL     OW 8404   2.205   5.832   3.170
 2502SOL    HW1 8405   2.162   5.742   3.166
 2502SOL    HW2 8406   2.260   5.846   3.087
 2503SOL     OW 8407   3.624   5.255   5.262
 2503SOL    HW1 8408   3.585   5.343   5.235
 2503SOL    HW2 8409   3.556   5.183   5.247
 2504SOL     OW 8410   3.053   5.410   5.495
 2504SOL    HW1 8411   3.098   5.362   5.420
 2504SOL    HW2 8412   2.955   5.420   5.474
 2505SOL     OW 8413   1.749   6.199   4.320
 2505SOL    HW1 8414   1.723   6.275   4.260
 2505SOL    HW2 8415   1.690   6.199   4.401
 2506SOL     OW 8416   6.083   3.511   6.540
 2506SOL    HW1 8417   6.006   3.523   6.479
 2506SOL    HW2 8418   6.100   3.596   6.590
 2507SOL     OW 8419   0.652   4.099   0.445
 2507SOL    HW1 8420   0.730   4.159   0.463
 2507SOL    HW2 8421   0.577   4.121   0.508
 2508SOL     OW 8422   2.902   1.075   2.331
 2508SOL    HW1 8423   2.817   1.126   2.321
 2508SOL    HW2 8424   2.882   0.984   2.368
 2509SOL     OW 8425   5.922   2.406   2.676
 2509SOL    HW1 8426   5.863   2.335   2.715
 2509SOL    HW2 8427   5.914   2.489   2.731
 2510SOL     OW 8428   3.423   4.357   1.295
 2510SOL    HW1 8429   3.487   4.327   1.225
 2510SOL    HW2 8430   3.347   4.292   1.301
 2511SOL     OW 8431   2.314   1.730   4.321
 2511SOL    HW1 8432   2.233   1.700   4.270
 2511SOL    HW2 8433   2.352   1.652   4.371
 2512SOL     OW 8434   4.823   5.231   5.054
 2512SOL    HW1 8435   4.867   5.260   4.969
 2512SOL    HW2 8436   4.724   5.236   5.044
 2513SOL     OW 8437   1.180   3.168   5.402
 2513SOL    HW1 8438   1.276   3.139   5.405
 2513SOL    HW2 8439   1.176   3.268   5.397
 2514SOL     OW 8440   6.142   4.560   4.406
 2514SOL    HW1 8441   6.082   4.582   4.483
 2514SOL    HW2 8442   6.204   4.637   4.389
 2515SOL     OW 8443   1.225   6.927   0.391
 2515SOL    HW1 8444   1.171   6.987   0.331
 2515SOL    HW2 8445   1.163   6.866   0.440
 2516SOL     OW 8446   5.866   0.158   3.448
 2516SOL    HW1 8447   5.789   0.221   3.450
 2516SOL    HW2 8448   5.952   0.209   3.444
 2517SOL     OW 8449   1.838   5.829   5.539
 2517SOL    HW1 8450   1.763   5.895   5.535
 2517SOL    HW2 8451   1.920   5.870   5.499
 2518SOL     OW 8452   2.561   3.382   6.796
 2518SOL    HW1 8453   2.483   3.421   6.746
 2518SOL    HW2 8454   2.553   3.283   6.799
 2519SOL     OW 8455   4.611   5.679   4.043
 2519SOL    HW1 8456   4.594   5.669   3.945
 2519SOL    HW2 8457   4.585   5.595   4.090
 2520SOL     OW 8458   1.217   2.710   0.948
 2520SOL    HW1 8459   1.311   2.678   0.938
 2520SOL    HW2 8460   1.173   2.714   0.859
 2521SOL     OW 8461   1.088   6.477   5.613
 2521SOL    HW1 8462   1.050   6.402   5.668
 2521SOL    HW2 8463   1.180   6.453   5.584
 2522SOL     OW 8464   0.376   3.193   5.486
 2522SOL    HW1 8465   0.327   3.149   5.411
 2522SOL    HW2 8466   0.328   3.174   5.572
 2523SOL     OW 8467   0.173   3.187   1.533
 2523SOL    HW1 8468   0.162   3.253   1.458
 2523SOL    HW2 8469   0.140   3.228   1.618
 2524SOL     OW 8470   0.621   5.893   4.402
 2524SOL    HW1 8471   0.603   5.831   4.479
 2524SOL    HW2 8472   0.615   5.988   4.433
 2525SOL     OW 8473   1.253   2.340   4.773
 2525SOL    HW1 8474   1.181   2.330   4.705
 2525SOL    HW2 8475   1.232   2.284   4.853
 2526SOL     OW 8476   1.727   3.734   6.188
 2526SOL    HW1 8477   1.662   3.790   6.135
 2526SOL    HW2 8478   1.678   3.689   6.262
 2527SOL     OW 8479   4.929   6.819   5.160
 2527SOL    HW1 8480   4.945   6.773   5.248
 2527SOL    HW2 8481   4.972   6.909   5.162
 2528SOL     OW 8482   6.464   4.580   0.946
 2528SOL    HW1 8483   6.482   4.598   0.849
 2528SOL    HW2 8484   6.529   4.512   0.979
 2529SOL     OW 8485   6.558   5.387   6.262
 2529SOL    HW1 8486   6.601   5.380   6.352
 2529SOL    HW2 8487   6.498   5.468   6.261
 2530SOL     OW 8488   1.149   6.311   4.624
 2530SOL    HW1 8489   1.056   6.347   4.631
 2530SOL    HW2 8490   1.165   6.279   4.530
 2531SOL     OW 8491   5.584   5.825   4.034
 2531SOL    HW1 8492   5.614   5.781   3.950
 2531SOL    HW2 8493   5.489   5.800   4.053
 2532SOL     OW 8494   0.717   6.109   0.818
 2532SOL    HW1 8495   0.722   6.128   0.720
 2532SOL    HW2 8496   0.703   6.194   0.869
 2533SOL     OW 8497   4.800   6.451   3.732
 2533SOL    HW1 8498   4.766   6.533   3.686
 2533SOL    HW2 8499   4.871   6.408   3.677
 2534SOL     OW 8500   2.324   0.383   3.318
 2534SOL    HW1 8501   2.364   0.295   3.344
 2534SOL    HW2 8502   2.265   0.416   3.392
 2535SOL     OW 8503   2.559   2.736   6.553
 2535SOL    HW1 8504   2.506   2.664   6.509
 2535SOL    HW2 8505   2.573   2.712   6.650
 2536SOL     OW 8506   0.030   2.276   3.606
 2536SOL    HW1 8507   6.971   2.291   3.662
 2536SOL    HW2 8508   0.009   2.209   3.535
 2537SOL     OW 8509   5.541   6.769   6.330
 2537SOL    HW1 8510   5.565   6.749   6.234
 2537SOL    HW2 8511   5.625   6.775   6.384
 2538SOL     OW 8512   1.549   4.362   4.615
 2538SOL    HW1 8513   1.467   4.359   4.671
 2538SOL    HW2 8514   1.535   4.308   4.532
 2539SOL     OW 8515   4.473   0.290   5.594
 2539SOL    HW1 8516   4.529   0.212   5.622
 2539SOL    HW2 8517   4.434   0.273   5.504
 2540SOL     OW 8518   4.873   1.360   1.551
 2540SOL    HW1 8519   4.812   1.334   1.626
 2540SOL    HW2 8520   4.819   1.405   1.479
 2541SOL     OW 8521   1.741   0.275   5.484
 2541SOL    HW1 8522   1.734   0.305   5.388
 2541SOL    HW2 8523   1.657   0.298   5.532
 2542SOL     OW 8524   4.326   1.762   5.560
 2542SOL    HW1 8525   4.407   1.715   5.524
 2542SOL    HW2 8526   4.309   1.733   5.654
 2543SOL     OW 8527   1.852   0.932   3.028
 2543SOL    HW1 8528   1.834   0.966   2.935
 2543SOL    HW2 8529   1.796   0.982   3.093
 2544SOL     OW 8530   0.440   5.363   2.320
 2544SOL    HW1 8531   0.416   5.451   2.359
 2544SOL    HW2 8532   0.472   5.302   2.392
 2545SOL     OW 8533   1.840   0.440   1.106
 2545SOL    HW1 8534   1.913   0.461   1.171
 2545SOL    HW2 8535   1.782   0.367   1.143
 2546SOL     OW 8536   7.004   2.457   2.317
 2546SOL    HW1 8537   6.997   2.448   2.217
 2546SOL    HW2 8538   6.951   2.537   2.347
 2547SOL     OW 8539   5.788   5.535   0.148
 2547SOL    HW1 8540   5.693   5.529   0.116
 2547SOL    HW2 8541   5.841   5.589   0.084
 2548SOL     OW 8542   2.894   6.653   5.208
 2548SOL    HW1 8543   2.825   6.596   5.253
 2548SOL    HW2 8544   2.866   6.749   5.210
 2549SOL     OW 8545   2.034   1.942   1.505
 2549SOL    HW1 8546   1.971   1.892   1.446
 2549SOL    HW2 8547   1.986   1.973   1.587
 2550SOL     OW 8548   6.341   0.685   6.677
 2550SOL    HW1 8549   6.290   0.716   6.597
 2550SOL    HW2 8550   6.343   0.585   6.679
 2551SOL     OW 8551   2.806   5.230   0.224
 2551SOL    HW1 8552   2.806   5.208   0.322
 2551SOL    HW2 8553   2.863   5.310   0.207
 2552SOL     OW 8554   1.113   5.796   5.630
 2552SOL    HW1 8555   1.148   5.872   5.685
 2552SOL    HW2 8556   1.038   5.828   5.572
 2553SOL     OW 8557   2.836   3.586   0.263
 2553SOL    HW1 8558   2.904   3.632   0.206
 2553SOL    HW2 8559   2.771   3.537   0.204
 2554SOL     OW 8560   1.794   5.934   6.681
 2554SOL    HW1 8561   1.852   5.947   6.600
 2554SOL    HW2 8562   1.772   5.837   6.690
 2555SOL     OW 8563   6.367   6.029   5.887
 2555SOL    HW1 8564   6.295   6.097   5.875
 2555SOL    HW2 8565   6.403   6.034   5.980
 2556SOL     OW 8566   3.984   6.066   0.835
 2556SOL    HW1 8567   4.034   6.148   0.863
 2556SOL    HW2 8568   3.897   6.094   0.793
 2557SOL     OW 8569   2.017   2.188   6.691
 2557SOL    HW1 8570   2.031   2.223   6.784
 2557SOL    HW2 8571   2.102   2.148   6.657
 2558SOL     OW 8572   3.757   3.549   6.320
 2558SOL    HW1 8573   3.669   3.589   6.346
 2558SOL    HW2 8574   3.741   3.472   6.259
 2559SOL     OW 8575   6.490   2.965   4.413
 2559SOL    HW1 8576   6.528   2.873   4.411
 2559SOL    HW2 8577   6.451   2.983   4.504
 2560SOL     OW 8578   4.924   3.367   4.210
 2560SOL    HW1 8579   4.992   3.358   4.137
 2560SOL    HW2 8580   4.835   3.337   4.177
 2561SOL     OW 8581   3.991   0.257   3.320
 2561SOL    HW1 8582   3.933   0.331   3.287
 2561SOL    HW2 8583   3.949   0.169   3.299
 2562SOL     OW 8584   2.578   5.370   2.385
 2562SOL    HW1 8585   2.607   5.277   2.410
 2562SOL    HW2 8586   2.656   5.419   2.346
 2563SOL     OW 8587   3.924   1.914   6.773
 2563SOL    HW1 8588   3.979   1.844   6.819
 2563SOL    HW2 8589   3.828   1.904   6.798
 2564SOL     OW 8590   1.339   0.175   6.106
 2564SOL    HW1 8591   1.399   0.199   6.030
 2564SOL    HW2 8592   1.284   0.095   6.082
 2565SOL     OW 8593   0.006   0.686   0.794
 2565SOL    HW1 8594   0.101   0.685   0.760
 2565SOL    HW2 8595   6.979   0.763   0.752
 2566SOL     OW 8596   1.548   0.073   1.071
 2566SOL    HW1 8597   1.494   0.065   0.987
 2566SOL    HW2 8598   1.563   7.004   1.110
 2567SOL     OW 8599   1.159   1.628   2.526
 2567SOL    HW1 8600   1.223   1.662   2.457
 2567SOL    HW2 8601   1.091   1.569   2.483
 2568SOL     OW 8602   2.629   1.107   6.851
 2568SOL    HW1 8603   2.625   1.033   6.784
 2568SOL    HW2 8604   2.538   1.120   6.892
 2569SOL     OW 8605   2.617   1.240   2.219
 2569SOL    HW1 8606   2.600   1.230   2.317
 2569SOL    HW2 8607   2.584   1.158   2.171
 2570SOL     OW 8608   5.621   0.641   6.276
 2570SOL    HW1 8609   5.577   0.663   6.363
 2570SOL    HW2 8610   5.557   0.656   6.201
 2571SOL     OW 8611   2.924   3.576   5.100
 2571SOL    HW1 8612   3.019   3.600   5.083
 2571SOL    HW2 8613   2.913   3.477   5.090
 2572SOL     OW 8614   1.755   6.693   1.721
 2572SOL    HW1 8615   1.848   6.678   1.689
 2572SOL    HW2 8616   1.706   6.750   1.654
 2573SOL     OW 8617   6.242   1.434   2.827
 2573SOL    HW1 8618   6.247   1.529   2.796
 2573SOL    HW2 8619   6.157   1.393   2.794
 2574SOL     OW 8620   0.047   2.828   0.546
 2574SOL    HW1 8621   0.057   2.874   0.457
 2574SOL    HW2 8622   0.026   2.895   0.616
 2575SOL     OW 8623   5.379   3.891   0.304
 2575SOL    HW1 8624   5.349   3.928   0.215
 2575SOL    HW2 8625   5.421   3.802   0.291
 2576SOL     OW 8626   4.021   6.946   3.466
 2576SOL    HW1 8627   4.000   6.870   3.527
 2576SOL    HW2 8628   3.955   6.947   3.390
 2577SOL     OW 8629   4.982   6.434   2.750
 2577SOL    HW1 8630   4.930   6.373   2.690
 2577SOL    HW2 8631   5.027   6.504   2.695
 2578SOL     OW 8632   4.511   2.751   5.187
 2578SOL    HW1 8633   4.585   2.744   5.255
 2578SOL    HW2 8634   4.423   2.736   5.232
 2579SOL     OW 8635   1.224   1.114   3.679
 2579SOL    HW1 8636   1.236   1.031   3.733
 2579SOL    HW2 8637   1.148   1.101   3.615
 2580SOL     OW 8638   2.115   2.564   6.860
 2580SOL    HW1 8639   2.041   2.531   6.801
 2580SOL    HW2 8640   2.083   2.568   6.954
 2581SOL     OW 8641   6.125   4.557   2.051
 2581SOL    HW1 8642   6.160   4.465   2.036
 2581SOL    HW2 8643   6.107   4.600   1.962
 2582SOL     OW 8644   1.284   4.267   2.235
 2582SOL    HW1 8645   1.243   4.221   2.156
 2582SOL    HW2 8646   1.377   4.232   2.249
 2583SOL     OW 8647   0.664   1.628   0.991
 2583SOL    HW1 8648   0.691   1.713   1.038
 2583SOL    HW2 8649   0.571   1.637   0.957
 2584SOL     OW 8650   3.975   5.831   0.693
 2584SOL    HW1 8651   3.954   5.919   0.735
 2584SOL    HW2 8652   4.057   5.840   0.636
 2585SOL     OW 8653   3.853   0.793   0.219
 2585SOL    HW1 8654   3.922   0.751   0.277
 2585SOL    HW2 8655   3.855   0.751   0.128
 2586SOL     OW 8656   4.348   1.957   3.386
 2586SOL    HW1 8657   4.318   2.051   3.366
 2586SOL    HW2 8658   4.447   1.957   3.404
 2587SOL     OW 8659   6.623   0.770   3.904
 2587SOL    HW1 8660   6.562   0.796   3.830
 2587SOL    HW2 8661   6.615   0.835   3.979
 2588SOL     OW 8662   4.889   0.029   0.244
 2588SOL    HW1 8663   4.976   7.009   0.270
 2588SOL    HW2 8664   4.884   0.121   0.283
 2589SOL     OW 8665   0.411   5.790   5.170
 2589SOL    HW1 8666   0.332   5.826   5.120
 2589SOL    HW2 8667   0.434   5.853   5.244
 2590SOL     OW 8668   3.474   6.215   2.083
 2590SOL    HW1 8669   3.477   6.210   2.182
 2590SOL    HW2 8670   3.396   6.271   2.054
 2591SOL     OW 8671   6.458   5.939   2.357
 2591SOL    HW1 8672   6.501   5.954   2.446
 2591SOL    HW2 8673   6.493   5.855   2.316
 2592SOL     OW 8674   2.511   6.829   1.465
 2592SOL    HW1 8675   2.506   6.902   1.396
 2592SOL    HW2 8676   2.564   6.752   1.428
 2593SOL     OW 8677   2.778   6.349   1.432
 2593SOL    HW1 8678   2.712   6.378   1.502
 2593SOL    HW2 8679   2.852   6.298   1.476
 2594SOL     OW 8680   0.182   5.845   6.038
 2594SOL    HW1 8681   0.197   5.793   6.122
 2594SOL    HW2 8682   0.199   5.942   6.056
 2595SOL     OW 8683   6.147   1.230   5.215
 2595SOL    HW1 8684   6.147   1.157   5.146
 2595SOL    HW2 8685   6.163   1.318   5.170
 2596SOL     OW 8686   3.970   2.190   1.951
 2596SOL    HW1 8687   3.949   2.111   1.892
 2596SOL    HW2 8688   3.888   2.247   1.959
 2597SOL     OW 8689   1.819   3.797   6.694
 2597SOL    HW1 8690   1.810   3.833   6.787
 2597SOL    HW2 8691   1.822   3.873   6.629
 2598SOL     OW 8692   6.199   1.161   4.313
 2598SOL    HW1 8693   6.214   1.259   4.303
 2598SOL    HW2 8694   6.191   1.139   4.411
 2599SOL     OW 8695   2.914   0.032   0.639
 2599SOL    HW1 8696   2.909   6.954   0.650
 2599SOL    HW2 8697   2.878   0.058   0.549
 2600SOL     OW 8698   4.936   3.433   4.590
 2600SOL    HW1 8699   4.925   3.472   4.499
 2600SOL    HW2 8700   4.932   3.506   4.658
 2601SOL     OW 8701   2.502   1.617   6.448
 2601SOL    HW1 8702   2.412   1.648   6.418
 2601SOL    HW2 8703   2.497   1.520   6.473
 2602SOL     OW 8704   6.835   4.650   3.933
 2602SOL    HW1 8705   6.828   4.569   3.875
 2602SOL    HW2 8706   6.920   4.646   3.986
 2603SOL     OW 8707   2.301   1.890   2.453
 2603SOL    HW1 8708   2.309   1.989   2.446
 2603SOL    HW2 8709   2.331   1.848   2.368
 2604SOL     OW 8710   4.974   1.276   3.140
 2604SOL    HW1 8711   4.961   1.177   3.137
 2604SOL    HW2 8712   5.071   1.297   3.137
 2605SOL     OW 8713   2.762   4.752   2.946
 2605SOL    HW1 8714   2.704   4.824   2.907
 2605SOL    HW2 8715   2.826   4.792   3.011
 2606SOL     OW 8716   0.058   4.805   0.755
 2606SOL    HW1 8717   0.103   4.852   0.831
 2606SOL    HW2 8718   0.018   4.720   0.787
 2607SOL     OW 8719   0.664   1.028   5.729
 2607SOL    HW1 8720   0.646   0.938   5.689
 2607SOL    HW2 8721   0.597   1.093   5.694
 2608SOL     OW 8722   4.158   5.382   2.180
 2608SOL    HW1 8723   4.208   5.469   2.186
 2608SOL    HW2 8724   4.085   5.381   2.249
 2609SOL     OW 8725   0.359   1.969   1.944
 2609SOL    HW1 8726   0.298   2.048   1.955
 2609SOL    HW2 8727   0.454   2.001   1.941
 2610SOL     OW 8728   0.050   4.634   4.375
 2610SOL    HW1 8729   0.027   4.635   4.277
 2610SOL    HW2 8730   0.048   4.540   4.409
 2611SOL     OW 8731   4.650   5.981   1.254
 2611SOL    HW1 8732   4.729   5.988   1.193
 2611SOL    HW2 8733   4.592   6.062   1.243
 2612SOL     OW 8734   6.553   6.457   5.942
 2612SOL    HW1 8735   6.592   6.431   6.031
 2612SOL    HW2 8736   6.455   6.478   5.954
 2613SOL     OW 8737   2.903   6.268   0.982
 2613SOL    HW1 8738   2.893   6.170   0.971
 2613SOL    HW2 8739   2.843   6.315   0.918
 2614SOL     OW 8740   6.511   0.751   6.242
 2614SOL    HW1 8741   6.435   0.692   6.268
 2614SOL    HW2 8742   6.483   0.809   6.165
 2615SOL     OW 8743   6.418   3.794   3.496
 2615SOL    HW1 8744   6.411   3.809   3.397
 2615SOL    HW2 8745   6.457   3.703   3.513
 2616SOL     OW 8746   4.070   3.456   4.249
 2616SOL    HW1 8747   4.090   3.411   4.163
 2616SOL    HW2 8748   4.096   3.397   4.325
 2617SOL     OW 8749   3.723   6.835   0.845
 2617SOL    HW1 8750   3.674   6.830   0.932
 2617SOL    HW2 8751   3.727   6.931   0.814
 2618SOL     OW 8752   0.394   0.130   4.379
 2618SOL    HW1 8753   0.482   0.114   4.334
 2618SOL    HW2 8754   0.320   0.116   4.313
 2619SOL     OW 8755   3.855   1.249   2.968
 2619SOL    HW1 8756   3.950   1.216   2.970
 2619SOL    HW2 8757   3.841   1.316   3.041
 2620SOL     OW 8758   0.303   6.114   3.094
 2620SOL    HW1 8759   0.278   6.127   3.190
 2620SOL    HW2 8760   0.403   6.113   3.086
 2621SOL     OW 8761   1.493   5.683   2.398
 2621SOL    HW1 8762   1.570   5.744   2.377
 2621SOL    HW2 8763   1.497   5.602   2.339
 2622SOL     OW 8764   1.879   2.472   6.112
 2622SOL    HW1 8765   1.828   2.388   6.132
 2622SOL    HW2 8766   1.964   2.472   6.165
 2623SOL     OW 8767   2.683   1.569   5.534
 2623SOL    HW1 8768   2.605   1.628   5.556
 2623SOL    HW2 8769   2.666   1.477   5.571
 2624SOL     OW 8770   6.176   2.609   4.997
 2624SOL    HW1 8771   6.256   2.558   4.966
 2624SOL    HW2 8772   6.097   2.586   4.939
 2625SOL     OW 8773   2.754   1.769   5.931
 2625SOL    HW1 8774   2.732   1.772   6.028
 2625SOL    HW2 8775   2.671   1.755   5.877
 2626SOL     OW 8776   0.093   0.635   5.224
 2626SOL    HW1 8777   0.110   0.673   5.133
 2626SOL    HW2 8778   0.036   0.554   5.216
 2627SOL     OW 8779   1.037   1.108   5.215
 2627SOL    HW1 8780   1.010   1.204   5.229
 2627SOL    HW2 8781   0.955   1.051   5.213
 2628SOL     OW 8782   1.914   4.629   6.085
 2628SOL    HW1 8783   1.928   4.712   6.031
 2628SOL    HW2 8784   1.845   4.572   6.040
 2629SOL     OW 8785   3.040   4.030   1.768
 2629SOL    HW1 8786   2.956   4.079   1.746
 2629SOL    HW2 8787   3.023   3.967   1.844
 2630SOL     OW 8788   3.167   1.605   3.559
 2630SOL    HW1 8789   3.097   1.652   3.612
 2630SOL    HW2 8790   3.185   1.656   3.475
 2631SOL     OW 8791   5.233   0.368   4.668
 2631SOL    HW1 8792   5.289   0.439   4.626
 2631SOL    HW2 8793   5.259   0.279   4.632
 2632SOL     OW 8794   2.639   2.093   6.467
 2632SOL    HW1 8795   2.608   2.176   6.513
 2632SOL    HW2 8796   2.614   2.013   6.524
 2633SOL     OW 8797   6.704   1.505   4.904
 2633SOL    HW1 8798   6.618   1.498   4.955
 2633SOL    HW2 8799   6.775   1.455   4.954
 2634SOL     OW 8800   1.385   4.057   3.060
 2634SOL    HW1 8801   1.331   4.026   2.981
 2634SOL    HW2 8802   1.365   3.999   3.139
 2635SOL     OW 8803   6.406   5.985   5.280
 2635SOL    HW1 8804   6.466   5.910   5.251
 2635SOL    HW2 8805   6.462   6.063   5.310
 2636SOL     OW 8806   4.781   0.361   5.423
 2636SOL    HW1 8807   4.744   0.280   5.376
 2636SOL    HW2 8808   4.824   0.332   5.509
 2637SOL     OW 8809   5.575   1.743   3.531
 2637SOL    HW1 8810   5.593   1.685   3.611
 2637SOL    HW2 8811   5.477   1.765   3.528
 2638SOL     OW 8812   6.699   0.360   2.960
 2638SOL    HW1 8813   6.699   0.378   3.058
 2638SOL    HW2 8814   6.757   0.281   2.940
 2639SOL     OW 8815   0.692   0.460   1.811
 2639SOL    HW1 8816   0.605   0.432   1.770
 2639SOL    HW2 8817   0.742   0.518   1.747
 2640SOL     OW 8818   0.087   6.060   4.555
 2640SOL    HW1 8819   0.167   6.023   4.507
 2640SOL    HW2 8820   0.066   6.151   4.520
 2641SOL     OW 8821   4.883   2.971   2.208
 2641SOL    HW1 8822   4.813   2.986   2.139
 2641SOL    HW2 8823   4.927   3.058   2.232
 2642SOL     OW 8824   4.192   6.856   4.512
 2642SOL    HW1 8825   4.247   6.773   4.522
 2642SOL    HW2 8826   4.240   6.919   4.451
 2643SOL     OW 8827   0.235   3.626   2.723
 2643SOL    HW1 8828   0.277   3.693   2.784
 2643SOL    HW2 8829   0.295   3.610   2.644
 2644SOL     OW 8830   6.238   5.891   6.150
 2644SOL    HW1 8831   6.312   5.830   6.122
 2644SOL    HW2 8832   6.162   5.883   6.086
 2645SOL     OW 8833   4.424   5.718   4.457
 2645SOL    HW1 8834   4.388   5.792   4.401
 2645SOL    HW2 8835   4.364   5.703   4.536
 2646SOL     OW 8836   5.922   0.651   6.839
 2646SOL    HW1 8837   6.013   0.685   6.863
 2646SOL    HW2 8838   5.886   0.596   6.915
 2647SOL     OW 8839   6.009   1.042   2.097
 2647SOL    HW1 8840   6.099   1.083   2.114
 2647SOL    HW2 8841   6.011   0.995   2.008
 2648SOL     OW 8842   0.432   6.847   3.998
 2648SOL    HW1 8843   0.364   6.915   3.972
 2648SOL    HW2 8844   0.523   6.888   3.995
 2649SOL     OW 8845   5.852   3.329   6.396
 2649SOL    HW1 8846   5.899   3.395   6.338
 2649SOL    HW2 8847   5.843   3.242   6.348
 2650SOL     OW 8848   0.603   3.907   4.204
 2650SOL    HW1 8849   0.674   3.866   4.146
 2650SOL    HW2 8850   0.639   3.920   4.296
 2651SOL     OW 8851   0.726   1.826   0.187
 2651SOL    HW1 8852   0.666   1.890   0.139
 2651SOL    HW2 8853   0.682   1.737   0.194
 2652SOL     OW 8854   3.361   3.899   3.848
 2652SOL    HW1 8855   3.383   3.806   3.878
 2652SOL    HW2 8856   3.297   3.895   3.772
 2653SOL     OW 8857   5.290   7.001   5.408
 2653SOL    HW1 8858   5.328   0.006   5.497
 2653SOL    HW2 8859   5.349   0.013   5.335
 2654SOL     OW 8860   5.334   4.915   1.187
 2654SOL    HW1 8861   5.292   4.917   1.096
 2654SOL    HW2 8862   5.266   4.937   1.256
 2655SOL     OW 8863   4.716   5.297   4.223
 2655SOL    HW1 8864   4.708   5.308   4.123
 2655SOL    HW2 8865   4.702   5.201   4.247
 2656SOL     OW 8866   3.429   5.001   3.995
 2656SOL    HW1 8867   3.509   4.961   3.952
 2656SOL    HW2 8868   3.439   4.998   4.094
 2657SOL     OW 8869   1.664   4.084   6.503
 2657SOL    HW1 8870   1.725   4.020   6.457
 2657SOL    HW2 8871   1.574   4.082   6.460
 2658SOL     OW 8872   4.896   4.342   0.203
 2658SOL    HW1 8873   4.839   4.272   0.247
 2658SOL    HW2 8874   4.979   4.355   0.256
 2659SOL     OW 8875   6.181   3.115   5.018
 2659SOL    HW1 8876   6.197   3.024   4.980
 2659SOL    HW2 8877   6.236   3.182   4.967
 2660SOL     OW 8878   0.911   0.787   0.773
 2660SOL    HW1 8879   0.818   0.750   0.776
 2660SOL    HW2 8880   0.968   0.739   0.840
 2661SOL     OW 8881   2.445   6.561   0.726
 2661SOL    HW1 8882   2.499   6.624   0.781
 2661SOL    HW2 8883   2.498   6.478   0.709
 2662SOL     OW 8884   4.636   6.803   5.603
 2662SOL    HW1 8885   4.638   6.844   5.694
 2662SOL    HW2 8886   4.694   6.857   5.542
 2663SOL     OW 8887   2.717   4.301   0.905
 2663SOL    HW1 8888   2.763   4.218   0.936
 2663SOL    HW2 8889   2.785   4.375   0.897
 2664SOL     OW 8890   4.090   3.896   5.101
 2664SOL    HW1 8891   4.051   3.959   5.168
 2664SOL    HW2 8892   4.080   3.936   5.009
 2665SOL     OW 8893   2.436   2.834   5.379
 2665SOL    HW1 8894   2.443   2.915   5.322
 2665SOL    HW2 8895   2.340   2.807   5.387
 2666SOL     OW 8896   5.864   4.130   1.130
 2666SOL    HW1 8897   5.812   4.068   1.071
 2666SOL    HW2 8898   5.858   4.223   1.093
 2667SOL     OW 8899   1.494   6.230   3.998
 2667SOL    HW1 8900   1.567   6.292   3.970
 2667SOL    HW2 8901   1.438   6.274   4.068
 2668SOL     OW 8902   5.934   3.303   4.233
 2668SOL    HW1 8903   5.992   3.239   4.283
 2668SOL    HW2 8904   5.903   3.375   4.295
 2669SOL     OW 8905   2.884   4.608   5.429
 2669SOL    HW1 8906   2.802   4.664   5.430
 2669SOL    HW2 8907   2.895   4.566   5.339
 2670SOL     OW 8908   5.812   2.820   6.394
 2670SOL    HW1 8909   5.898   2.851   6.353
 2670SOL    HW2 8910   5.764   2.898   6.433
 2671SOL     OW 8911   4.067   5.025   6.508
 2671SOL    HW1 8912   4.059   4.985   6.599
 2671SOL    HW2 8913   4.072   4.951   6.440
 2672SOL     OW 8914   0.332   5.462   0.735
 2672SOL    HW1 8915   0.309   5.418   0.648
 2672SOL    HW2 8916   0.397   5.536   0.718
 2673SOL     OW 8917   6.278   1.454   4.403
 2673SOL    HW1 8918   6.339   1.393   4.455
 2673SOL    HW2 8919   6.186   1.450   4.443
 2674SOL     OW 8920   1.274   4.517   3.505
 2674SOL    HW1 8921   1.288   4.468   3.419
 2674SOL    HW2 8922   1.362   4.531   3.550
 2675SOL     OW 8923   6.426   5.382   3.898
 2675SOL    HW1 8924   6.355   5.405   3.832
 2675SOL    HW2 8925   6.467   5.466   3.934
 2676SOL     OW 8926   4.175   1.380   0.619
 2676SOL    HW1 8927   4.155   1.315   0.545
 2676SOL    HW2 8928   4.090   1.409   0.662
 2677SOL     OW 8929   3.087   3.724   0.660
 2677SOL    HW1 8930   3.105   3.819   0.635
 2677SOL    HW2 8931   3.064   3.720   0.757
 2678SOL     OW 8932   0.001   2.840   1.460
 2678SOL    HW1 8933   7.000   2.890   1.376
 2678SOL    HW2 8934   0.090   2.871   1.494
 2679SOL     OW 8935   3.559   4.911   1.139
 2679SOL    HW1 8936   3.558   4.917   1.239
 2679SOL    HW2 8937   3.465   4.907   1.105
 2680SOL     OW 8938   0.643   1.331   0.560
 2680SOL    HW1 8939   0.652   1.429   0.581
 2680SOL    HW2 8940   0.570   1.318   0.493
 2681SOL     OW 8941   1.245   2.646   4.721
 2681SOL    HW1 8942   1.197   2.723   4.765
 2681SOL    HW2 8943   1.253   2.571   4.786
 2682SOL     OW 8944   5.476   4.340   2.510
 2682SOL    HW1 8945   5.442   4.419   2.459
 2682SOL    HW2 8946   5.460   4.354   2.608
 2683SOL     OW 8947   2.651   4.389   0.660
 2683SOL    HW1 8948   2.739   4.415   0.618
 2683SOL    HW2 8949   2.668   4.353   0.751
 2684SOL     OW 8950   4.541   5.413   0.916
 2684SOL    HW1 8951   4.524   5.408   1.015
 2684SOL    HW2 8952   4.556   5.508   0.890
 2685SOL     OW 8953   6.184   6.144   6.784
 2685SOL    HW1 8954   6.142   6.134   6.874
 2685SOL    HW2 8955   6.170   6.238   6.751
 2686SOL     OW 8956   1.569   1.799   5.989
 2686SOL    HW1 8957   1.632   1.724   5.970
 2686SOL    HW2 8958   1.610   1.863   6.054
 2687SOL     OW 8959   4.776   4.156   1.930
 2687SOL    HW1 8960   4.842   4.231   1.939
 2687SOL    HW2 8961   4.683   4.192   1.940
 2688SOL     OW 8962   4.819   4.227   6.816
 2688SOL    HW1 8963   4.865   4.309   6.849
 2688SOL    HW2 8964   4.886   4.161   6.783
 2689SOL     OW 8965   1.666   3.377   3.776
 2689SOL    HW1 8966   1.614   3.291   3.783
 2689SOL    HW2 8967   1.743   3.363   3.713
 2690SOL     OW 8968   3.679   3.435   3.783
 2690SOL    HW1 8969   3.771   3.468   3.762
 2690SOL    HW2 8970   3.643   3.385   3.704
 2691SOL     OW 8971   1.705   5.720   2.194
 2691SOL    HW1 8972   1.724   5.796   2.132
 2691SOL    HW2 8973   1.763   5.642   2.171
 2692SOL     OW 8974   3.543   5.191   2.851
 2692SOL    HW1 8975   3.552   5.106   2.799
 2692SOL    HW2 8976   3.590   5.265   2.803
 2693SOL     OW 8977   1.207   4.410   2.610
 2693SOL    HW1 8978   1.118   4.366   2.595
 2693SOL    HW2 8979   1.193   4.507   2.632
 2694SOL     OW 8980   4.577   6.635   2.840
 2694SOL    HW1 8981   4.666   6.597   2.864
 2694SOL    HW2 8982   4.558   6.617   2.743
 2695SOL     OW 8983   4.923   0.210   2.787
 2695SOL    HW1 8984   4.999   0.146   2.797
 2695SOL    HW2 8985   4.950   0.300   2.823
 2696SOL     OW 8986   3.827   3.311   5.747
 2696SOL    HW1 8987   3.870   3.385   5.798
 2696SOL    HW2 8988   3.732   3.334   5.727
 2697SOL     OW 8989   3.597   2.118   2.800
 2697SOL    HW1 8990   3.528   2.190   2.809
 2697SOL    HW2 8991   3.688   2.159   2.794
 2698SOL     OW 8992   2.133   6.389   0.526
 2698SOL    HW1 8993   2.090   6.306   0.489
 2698SOL    HW2 8994   2.092   6.469   0.483
 2699SOL     OW 8995   3.204   6.663   0.422
 2699SOL    HW1 8996   3.168   6.572   0.403
 2699SOL    HW2 8997   3.302   6.657   0.440
 2700SOL     OW 8998   1.999   4.127   0.818
 2700SOL    HW1 8999   1.988   4.173   0.730
 2700SOL    HW2 9000   1.936   4.166   0.885
 2701SOL     OW 9001   4.599   0.814   6.962
 2701SOL    HW1 9002   4.550   0.881   6.906
 2701SOL    HW2 9003   4.675   0.859   7.009
 2702SOL     OW 9004   0.419   3.021   4.185
 2702SOL    HW1 9005   0.371   2.939   4.154
 2702SOL    HW2 9006   0.363   3.102   4.167
 2703SOL     OW 9007   1.920   0.429   2.038
 2703SOL    HW1 9008   1.872   0.344   2.063
 2703SOL    HW2 9009   1.897   0.500   2.105
 2704SOL     OW 9010   6.532   6.643   1.084
 2704SOL    HW1 9011   6.441   6.682   1.097
 2704SOL    HW2 9012   6.598   6.696   1.138
 2705SOL     OW 9013   0.555   5.523   4.477
 2705SOL    HW1 9014   0.580   5.575   4.558
 2705SOL    HW2 9015   0.489   5.452   4.501
 2706SOL     OW 9016   0.537   0.290   1.465
 2706SOL    HW1 9017   0.481   0.211   1.436
 2706SOL    HW2 9018   0.633   0.263   1.467
 2707SOL     OW 9019   3.162   0.562   4.712
 2707SOL    HW1 9020   3.108   0.518   4.641
 2707SOL    HW2 9021   3.158   0.661   4.701
 2708SOL     OW 9022   0.842   2.499   6.870
 2708SOL    HW1 9023   0.821   2.410   6.830
 2708SOL    HW2 9024   0.781   2.515   6.948
 2709SOL     OW 9025   6.193   6.338   0.473
 2709SOL    HW1 9026   6.279   6.373   0.436
 2709SOL    HW2 9027   6.176   6.380   0.562
 2710SOL     OW 9028   0.818   3.311   3.904
 2710SOL    HW1 9029   0.901   3.354   3.941
 2710SOL    HW2 9030   0.843   3.252   3.827
 2711SOL     OW 9031   2.605   1.502   4.250
 2711SOL    HW1 9032   2.612   1.447   4.167
 2711SOL    HW2 9033   2.601   1.599   4.225
 2712SOL     OW 9034   2.820   4.645   0.626
 2712SOL    HW1 9035   2.739   4.671   0.573
 2712SOL    HW2 9036   2.891   4.613   0.564
 2713SOL     OW 9037   2.365   2.414   5.105
 2713SOL    HW1 9038   2.396   2.490   5.162
 2713SOL    HW2 9039   2.443   2.353   5.086
 2714SOL     OW 9040   4.537   2.008   0.443
 2714SOL    HW1 9041   4.544   2.106   0.459
 2714SOL    HW2 9042   4.466   1.989   0.376
 2715SOL     OW 9043   4.906   1.670   0.639
 2715SOL    HW1 9044   4.899   1.667   0.739
 2715SOL    HW2 9045   4.821   1.708   0.601
 2716SOL     OW 9046   5.455   4.353   2.780
 2716SOL    HW1 9047   5.529   4.329   2.842
 2716SOL    HW2 9048   5.464   4.449   2.753
 2717SOL     OW 9049   1.756   5.277   2.122
 2717SOL    HW1 9050   1.851   5.250   2.138
 2717SOL    HW2 9051   1.701   5.253   2.202
 2718SOL     OW 9052   1.890   2.524   5.833
 2718SOL    HW1 9053   1.873   2.509   5.931
 2718SOL    HW2 9054   1.886   2.436   5.785
 2719SOL     OW 9055   6.635   5.935   1.190
 2719SOL    HW1 9056   6.724   5.966   1.158
 2719SOL    HW2 9057   6.579   5.905   1.113
 2720SOL     OW 9058   1.636   5.980   2.303
 2720SOL    HW1 9059   1.687   5.943   2.381
 2720SOL    HW2 9060   1.676   5.945   2.218
 2721SOL     OW 9061   2.974   0.633   3.693
 2721SOL    HW1 9062   2.889   0.683   3.676
 2721SOL    HW2 9063   2.978   0.605   3.789
 2722SOL     OW 9064   6.483   5.549   1.626
 2722SOL    HW1 9065   6.491   5.523   1.530
 2722SOL    HW2 9066   6.429   5.480   1.675
 2723SOL     OW 9067   1.084   0.054   5.714
 2723SOL    HW1 9068   1.016   0.057   5.641
 2723SOL    HW2 9069   1.064   6.999   5.775
 2724SOL     OW 9070   2.258   6.774   6.619
 2724SOL    HW1 9071   2.311   6.768   6.704
 2724SOL    HW2 9072   2.290   6.705   6.555
 2725SOL     OW 9073   5.499   5.016   4.007
 2725SOL    HW1 9074   5.580   5.061   4.045
 2725SOL    HW2 9075   5.425   5.082   3.996
 2726SOL     OW 9076   0.011   3.128   1.038
 2726SOL    HW1 9077   0.025   3.049   0.977
 2726SOL    HW2 9078   6.987   3.201   0.988
 2727SOL     OW 9079   0.390   4.946   4.012
 2727SOL    HW1 9080   0.402   4.995   4.098
 2727SOL    HW2 9081   0.471   4.889   3.994
 2728SOL     OW 9082   3.847   6.496   5.658
 2728SOL    HW1 9083   3.923   6.530   5.713
 2728SOL    HW2 9084   3.852   6.535   5.566
 2729SOL     OW 9085   6.502   5.818   1.387
 2729SOL    HW1 9086   6.519   5.721   1.370
 2729SOL    HW2 9087   6.559   5.873   1.325
 2730SOL     OW 9088   2.277   5.432   1.696
 2730SOL    HW1 9089   2.329   5.514   1.717
 2730SOL    HW2 9090   2.195   5.457   1.645
 2731SOL     OW 9091   4.109   3.430   2.118
 2731SOL    HW1 9092   4.152   3.414   2.029
 2731SOL    HW2 9093   4.165   3.388   2.189
 2732SOL     OW 9094   5.470   2.530   1.530
 2732SOL    HW1 9095   5.382   2.500   1.568
 2732SOL    HW2 9096   5.520   2.450   1.497
 2733SOL     OW 9097   0.912   0.085   4.386
 2733SOL    HW1 9098   0.818   0.075   4.353
 2733SOL    HW2 9099   0.929   0.181   4.408
 2734SOL     OW 9100   2.007   5.969   1.507
 2734SOL    HW1 9101   1.965   5.889   1.550
 2734SOL    HW2 9102   1.988   5.969   1.409
 2735SOL     OW 9103   0.855   3.886   2.704
 2735SOL    HW1 9104   0.808   3.843   2.782
 2735SOL    HW2 9105   0.802   3.963   2.671
 2736SOL     OW 9106   4.476   6.615   5.021
 2736SOL    HW1 9107   4.488   6.688   5.087
 2736SOL    HW2 9108   4.445   6.653   4.934
 2737SOL     OW 9109   3.578   3.425   5.786
 2737SOL    HW1 9110   3.564   3.510   5.837
 2737SOL    HW2 9111   3.507   3.416   5.717
 2738SOL     OW 9112   5.302   5.108   3.745
 2738SOL    HW1 9113   5.369   5.038   3.722
 2738SOL    HW2 9114   5.275   5.157   3.662
 2739SOL     OW 9115   0.315   4.450   1.046
 2739SOL    HW1 9116   0.273   4.526   1.096
 2739SOL    HW2 9117   0.296   4.459   0.949
 2740SOL     OW 9118   6.402   3.538   2.948
 2740SOL    HW1 9119   6.317   3.513   2.902
 2740SOL    HW2 9120   6.387   3.544   3.047
 2741SOL     OW 9121   5.994   0.688   5.726
 2741SOL    HW1 9122   5.957   0.692   5.633
 2741SOL    HW2 9123   6.094   0.688   5.722
 2742SOL     OW 9124   2.409   5.184   6.554
 2742SOL    HW1 9125   2.319   5.143   6.572
 2742SOL    HW2 9126   2.437   5.161   6.461
 2743SOL     OW 9127   6.915   5.165   2.110
 2743SOL    HW1 9128   6.888   5.229   2.183
 2743SOL    HW2 9129   6.875   5.194   2.024
 2744SOL     OW 9130   5.134   1.427   6.815
 2744SOL    HW1 9131   5.079   1.379   6.884
 2744SOL    HW2 9132   5.229   1.432   6.846
 2745SOL     OW 9133   0.881   6.557   6.009
 2745SOL    HW1 9134   0.802   6.554   6.071
 2745SOL    HW2 9135   0.964   6.531   6.059
 2746SOL     OW 9136   2.071   2.389   4.041
 2746SOL    HW1 9137   2.021   2.427   3.963
 2746SOL    HW2 9138   2.161   2.358   4.011
 2747SOL     OW 9139   5.965   3.542   5.716
 2747SOL    HW1 9140   5.891   3.554   5.650
 2747SOL    HW2 9141   6.052   3.572   5.676
 2748SOL     OW 9142   5.083   1.947   1.084
 2748SOL    HW1 9143   5.107   2.013   1.155
 2748SOL    HW2 9144   5.104   1.986   0.994
 2749SOL     OW 9145   6.468   4.732   3.729
 2749SOL    HW1 9146   6.517   4.789   3.662
 2749SOL    HW2 9147   6.396   4.681   3.683
 2750SOL     OW 9148   0.864   5.041   1.241
 2750SOL    HW1 9149   0.925   5.015   1.167
 2750SOL    HW2 9150   0.784   4.981   1.242
 2751SOL     OW 9151   0.019   6.406   1.290
 2751SOL    HW1 9152   0.104   6.398   1.238
 2751SOL    HW2 9153   0.035   6.466   1.369
 2752SOL     OW 9154   4.739   4.808   5.606
 2752SOL    HW1 9155   4.806   4.735   5.623
 2752SOL    HW2 9156   4.647   4.775   5.627
 2753SOL     OW 9157   0.527   0.109   5.378
 2753SOL    HW1 9158   0.507   0.015   5.407
 2753SOL    HW2 9159   0.500   0.121   5.283
 2754SOL     OW 9160   0.401   0.429   3.619
 2754SOL    HW1 9161   0.440   0.388   3.701
 2754SOL    HW2 9162   0.320   0.377   3.591
 2755SOL     OW 9163   1.876   0.287   3.663
 2755SOL    HW1 9164   1.901   0.191   3.660
 2755SOL    HW2 9165   1.914   0.333   3.583
 2756SOL     OW 9166   5.722   4.231   6.493
 2756SOL    HW1 9167   5.697   4.284   6.412
 2756SOL    HW2 9168   5.821   4.215   6.493
 2757SOL     OW 9169   2.316   1.379   6.121
 2757SOL    HW1 9170   2.249   1.352   6.190
 2757SOL    HW2 9171   2.301   1.474   6.095
 2758SOL     OW 9172   4.974   6.163   2.891
 2758SOL    HW1 9173   4.893   6.209   2.928
 2758SOL    HW2 9174   4.949   6.112   2.809
 2759SOL     OW 9175   4.766   5.361   5.563
 2759SOL    HW1 9176   4.754   5.309   5.479
 2759SOL    HW2 9177   4.698   5.435   5.566
 2760SOL     OW 9178   0.522   5.739   3.068
 2760SOL    HW1 9179   0.550   5.731   2.972
 2760SOL    HW2 9180   0.588   5.796   3.117
 2761SOL     OW 9181   1.832   4.380   4.923
 2761SOL    HW1 9182   1.926   4.346   4.919
 2761SOL    HW2 9183   1.774   4.312   4.969
 2762SOL     OW 9184   2.079   1.391   6.404
 2762SOL    HW1 9185   2.029   1.319   6.452
 2762SOL    HW2 9186   2.023   1.428   6.330
 2763SOL     OW 9187   4.863   2.465   5.103
 2763SOL    HW1 9188   4.955   2.425   5.099
 2763SOL    HW2 9189   4.866   2.560   5.073
 2764SOL     OW 9190   0.247   0.673   1.875
 2764SOL    HW1 9191   0.180   0.746   1.866
 2764SOL    HW2 9192   0.300   0.666   1.791
 2765SOL     OW 9193   6.198   7.020   0.978
 2765SOL    HW1 9194   6.232   0.057   0.904
 2765SOL    HW2 9195   6.121   0.043   1.024
 2766SOL     OW 9196   4.704   2.736   0.144
 2766SOL    HW1 9197   4.662   2.698   0.061
 2766SOL    HW2 9198   4.764   2.812   0.118
 2767SOL     OW 9199   6.999   5.585   0.253
 2767SOL    HW1 9200   6.951   5.668   0.281
 2767SOL    HW2 9201   7.019   5.530   0.333
 2768SOL     OW 9202   4.531   0.701   1.250
 2768SOL    HW1 9203   4.539   0.772   1.320
 2768SOL    HW2 9204   4.441   0.658   1.257
 2769SOL     OW 9205   2.310   4.618   6.503
 2769SOL    HW1 9206   2.232   4.556   6.499
 2769SOL    HW2 9207   2.385   4.580   6.448
 2770SOL     OW 9208   4.435   5.562   5.812
 2770SOL    HW1 9209   4.404   5.638   5.869
 2770SOL    HW2 9210   4.362   5.536   5.749
 2771SOL     OW 9211   5.725   1.182   4.921
 2771SOL    HW1 9212   5.775   1.109   4.968
 2771SOL    HW2 9213   5.732   1.267   4.974
 2772SOL     OW 9214   3.130   1.292   0.521
 2772SOL    HW1 9215   3.192   1.220   0.490
 2772SOL    HW2 9216   3.038   1.274   0.486
 2773SOL     OW 9217   6.392   2.359   4.369
 2773SOL    HW1 9218   6.320   2.421   4.337
 2773SOL    HW2 9219   6.376   2.336   4.465
 2774SOL     OW 9220   5.571   2.622   3.296
 2774SOL    HW1 9221   5.494   2.595   3.354
 2774SOL    HW2 9222   5.536   2.656   3.208
 2775SOL     OW 9223   6.887   3.909   5.388
 2775SOL    HW1 9224   6.947   3.976   5.345
 2775SOL    HW2 9225   6.939   3.857   5.456
 2776SOL     OW 9226   4.905   3.960   6.030
 2776SOL    HW1 9227   4.818   3.918   6.058
 2776SOL    HW2 9228   4.887   4.049   5.990
 2777SOL     OW 9229   2.604   2.061   1.442
 2777SOL    HW1 9230   2.629   2.149   1.403
 2777SOL    HW2 9231   2.653   2.047   1.528
 2778SOL     OW 9232   1.507   6.597   6.097
 2778SOL    HW1 9233   1.584   6.547   6.138
 2778SOL    HW2 9234   1.520   6.695   6.112
 2779SOL     OW 9235   5.350   6.796   1.930
 2779SOL    HW1 9236   5.424   6.833   1.987
 2779SOL    HW2 9237   5.309   6.870   1.877
 2780SOL     OW 9238   0.775   6.671   5.771
 2780SOL    HW1 9239   0.735   6.590   5.727
 2780SOL    HW2 9240   0.789   6.653   5.868
 2781SOL     OW 9241   6.073   0.655   2.005
 2781SOL    HW1 9242   6.116   0.622   2.089
 2781SOL    HW2 9243   5.975   0.633   2.007
 2782SOL     OW 9244   4.533   1.226   5.181
 2782SOL    HW1 9245   4.596   1.216   5.257
 2782SOL    HW2 9246   4.580   1.202   5.096
 2783SOL     OW 9247   5.925   4.076   2.464
 2783SOL    HW1 9248   5.960   4.126   2.543
 2783SOL    HW2 9249   5.851   4.015   2.494
 2784SOL     OW 9250   3.548   1.517   2.099
 2784SOL    HW1 9251   3.647   1.524   2.112
 2784SOL    HW2 9252   3.529   1.489   2.005
 2785SOL     OW 9253   5.091   2.139   0.879
 2785SOL    HW1 9254   5.089   2.237   0.855
 2785SOL    HW2 9255   5.019   2.091   0.829
 2786SOL     OW 9256   5.783   6.852   2.352
 2786SOL    HW1 9257   5.831   6.898   2.427
 2786SOL    HW2 9258   5.843   6.849   2.272
 2787SOL     OW 9259   5.955   6.566   5.748
 2787SOL    HW1 9260   5.902   6.648   5.727
 2787SOL    HW2 9261   5.895   6.497   5.786
 2788SOL     OW 9262   2.847   6.694   5.803
 2788SOL    HW1 9263   2.804   6.608   5.830
 2788SOL    HW2 9264   2.924   6.713   5.863
 2789SOL     OW 9265   2.328   1.910   3.912
 2789SOL    HW1 9266   2.294   1.968   3.837
 2789SOL    HW2 9267   2.399   1.959   3.962
 2790SOL     OW 9268   3.551   5.365   1.551
 2790SOL    HW1 9269   3.598   5.430   1.491
 2790SOL    HW2 9270   3.455   5.393   1.561
 2791SOL     OW 9271   0.398   2.759   2.622
 2791SOL    HW1 9272   0.492   2.727   2.639
 2791SOL    HW2 9273   0.367   2.814   2.700
 2792SOL     OW 9274   2.175   0.844   3.966
 2792SOL    HW1 9275   2.259   0.880   3.924
 2792SOL    HW2 9276   2.168   0.746   3.944
 2793SOL     OW 9277   5.082   3.579   1.105
 2793SOL    HW1 9278   4.994   3.550   1.069
 2793SOL    HW2 9279   5.087   3.679   1.105
 2794SOL     OW 9280   6.605   1.579   6.286
 2794SOL    HW1 9281   6.666   1.500   6.280
 2794SOL    HW2 9282   6.616   1.623   6.375
 2795SOL     OW 9283   0.980   2.915   1.038
 2795SOL    HW1 9284   1.044   2.897   0.963
 2795SOL    HW2 9285   1.022   2.887   1.125
 2796SOL     OW 9286   6.990   6.170   3.191
 2796SOL    HW1 9287   6.905   6.205   3.231
 2796SOL    HW2 9288   7.017   6.227   3.114
 2797SOL     OW 9289   4.966   5.524   5.427
 2797SOL    HW1 9290   4.970   5.595   5.497
 2797SOL    HW2 9291   4.929   5.440   5.466
 2798SOL     OW 9292   6.265   5.667   2.850
 2798SOL    HW1 9293   6.314   5.597   2.798
 2798SOL    HW2 9294   6.180   5.629   2.887
 2799SOL     OW 9295   5.925   5.604   5.982
 2799SOL    HW1 9296   5.834   5.572   5.957
 2799SOL    HW2 9297   5.924   5.640   6.075
 2800SOL     OW 9298   4.918   6.249   5.683
 2800SOL    HW1 9299   4.916   6.224   5.780
 2800SOL    HW2 9300   5.005   6.293   5.661
 2801SOL     OW 9301   0.664   5.375   5.653
 2801SOL    HW1 9302   0.730   5.448   5.670
 2801SOL    HW2 9303   0.571   5.413   5.657
 2802SOL     OW 9304   5.635   6.445   5.500
 2802SOL    HW1 9305   5.626   6.357   5.453
 2802SOL    HW2 9306   5.728   6.479   5.490
 2803SOL     OW 9307   4.186   4.798   5.793
 2803SOL    HW1 9308   4.197   4.756   5.883
 2803SOL    HW2 9309   4.153   4.892   5.805
 2804SOL     OW 9310   1.254   4.129   5.440
 2804SOL    HW1 9311   1.333   4.174   5.482
 2804SOL    HW2 9312   1.170   4.168   5.478
 2805SOL     OW 9313   5.771   3.176   3.016
 2805SOL    HW1 9314   5.672   3.173   3.010
 2805SOL    HW2 9315   5.810   3.117   2.945
 2806SOL     OW 9316   2.092   3.686   6.299
 2806SOL    HW1 9317   2.077   3.762   6.236
 2806SOL    HW2 9318   2.067   3.600   6.255
 2807SOL     OW 9319   4.060   6.618   3.694
 2807SOL    HW1 9320   4.103   6.636   3.606
 2807SOL    HW2 9321   4.032   6.522   3.698
 2808SOL     OW 9322   6.412   5.298   2.192
 2808SOL    HW1 9323   6.418   5.200   2.210
 2808SOL    HW2 9324   6.356   5.341   2.263
 2809SOL     OW 9325   5.147   2.993   1.453
 2809SOL    HW1 9326   5.199   3.076   1.433
 2809SOL    HW2 9327   5.183   2.950   1.536
 2810SOL     OW 9328   2.068   5.816   2.769
 2810SOL    HW1 9329   1.986   5.822   2.826
 2810SOL    HW2 9330   2.133   5.753   2.812
 2811SOL     OW 9331   1.647   1.791   3.841
 2811SOL    HW1 9332   1.577   1.862   3.832
 2811SOL    HW2 9333   1.732   1.832   3.871
 2812SOL     OW 9334   5.857   3.080   0.281
 2812SOL    HW1 9335   5.952   3.086   0.311
 2812SOL    HW2 9336   5.797   3.086   0.361
 2813SOL     OW 9337   0.831   1.383   0.034
 2813SOL    HW1 9338   0.920   1.369   7.011
 2813SOL    HW2 9339   0.829   1.333   0.120
 2814SOL     OW 9340   3.418   4.024   5.497
 2814SOL    HW1 9341   3.429   3.926   5.479
 2814SOL    HW2 9342   3.508   4.067   5.503
 2815SOL     OW 9343   6.821   5.051   6.604
 2815SOL    HW1 9344   6.874   5.055   6.519
 2815SOL    HW2 9345   6.734   5.005   6.586
 2816SOL     OW 9346   6.531   5.869   4.054
 2816SOL    HW1 9347   6.627   5.866   4.080
 2816SOL    HW2 9348   6.492   5.777   4.062
 2817SOL     OW 9349   3.282   0.093   2.450
 2817SOL    HW1 9350   3.210   0.022   2.452
 2817SOL    HW2 9351   3.254   0.170   2.507
 2818SOL     OW 9352   7.000   1.005   2.373
 2818SOL    HW1 9353   6.980   0.932   2.438
 2818SOL    HW2 9354   6.939   1.082   2.390
 2819SOL     OW 9355   2.326   6.998   1.904
 2819SOL    HW1 9356   2.281   0.036   1.971
 2819SOL    HW2 9357   2.351   0.029   1.823
 2820SOL     OW 9358   1.772   1.781   3.340
 2820SOL    HW1 9359   1.842   1.838   3.297
 2820SOL    HW2 9360   1.737   1.828   3.421
 2821SOL     OW 9361   3.926   4.761   5.607
 2821SOL    HW1 9362   3.987   4.743   5.531
 2821SOL    HW2 9363   3.840   4.711   5.593
 2822SOL     OW 9364   4.258   1.971   0.468
 2822SOL    HW1 9365   4.213   2.015   0.390
 2822SOL    HW2 9366   4.228   1.876   0.475
 2823SOL     OW 9367   5.159   1.073   0.380
 2823SOL    HW1 9368   5.200   1.078   0.289
 2823SOL    HW2 9369   5.070   1.119   0.379
 2824SOL     OW 9370   1.849   1.834   5.339
 2824SOL    HW1 9371   1.860   1.831   5.240
 2824SOL    HW2 9372   1.927   1.789   5.382
 2825SOL     OW 9373   4.890   0.194   6.057
 2825SOL    HW1 9374   4.967   0.206   5.995
 2825SOL    HW2 9375   4.851   0.103   6.044
 2826SOL     OW 9376   4.593   2.657   6.901
 2826SOL    HW1 9377   4.596   2.755   6.917
 2826SOL    HW2 9378   4.561   2.639   6.808
 2827SOL     OW 9379   0.259   1.025   6.641
 2827SOL    HW1 9380   0.214   1.081   6.711
 2827SOL    HW2 9381   0.296   1.084   6.570
 2828SOL     OW 9382   2.115   2.629   0.458
 2828SOL    HW1 9383   2.040   2.565   0.443
 2828SOL    HW2 9384   2.087   2.698   0.525
 2829SOL     OW 9385   3.592   3.259   3.566
 2829SOL    HW1 9386   3.505   3.291   3.605
 2829SOL    HW2 9387   3.617   3.171   3.608
 2830SOL     OW 9388   3.240   4.134   5.047
 2830SOL    HW1 9389   3.237   4.233   5.036
 2830SOL    HW2 9390   3.285   4.093   4.968
 2831SOL     OW 9391   1.064   3.633   3.291
 2831SOL    HW1 9392   1.032   3.633   3.386
 2831SOL    HW2 9393   1.004   3.576   3.236
 2832SOL     OW 9394   0.519   2.950   1.978
 2832SOL    HW1 9395   0.558   2.858   1.980
 2832SOL    HW2 9396   0.476   2.970   2.066
 2833SOL     OW 9397   3.243   1.225   2.465
 2833SOL    HW1 9398   3.256   1.141   2.413
 2833SOL    HW2 9399   3.187   1.289   2.412
 2834SOL     OW 9400   3.861   6.026   5.758
 2834SOL    HW1 9401   3.772   6.049   5.795
 2834SOL    HW2 9402   3.926   6.011   5.833
 2835SOL     OW 9403   0.570   6.990   1.585
 2835SOL    HW1 9404   0.635   0.037   1.616
 2835SOL    HW2 9405   0.584   6.971   1.488
 2836SOL     OW 9406   0.866   6.725   1.444
 2836SOL    HW1 9407   0.923   6.778   1.381
 2836SOL    HW2 9408   0.906   6.635   1.457
 2837SOL     OW 9409   5.393   4.591   2.391
 2837SOL    HW1 9410   5.307   4.613   2.346
 2837SOL    HW2 9411   5.435   4.674   2.427
 2838SOL     OW 9412   4.411   3.783   1.008
 2838SOL    HW1 9413   4.325   3.755   0.964
 2838SOL    HW2 9414   4.430   3.879   0.984
 2839SOL     OW 9415   0.004   2.282   2.675
 2839SOL    HW1 9416   6.928   2.298   2.661
 2839SOL    HW2 9417   0.056   2.346   2.618
 2840SOL     OW 9418   1.596   6.125   1.918
 2840SOL    HW1 9419   1.651   6.202   1.886
 2840SOL    HW2 9420   1.612   6.046   1.858
 2841SOL     OW 9421   5.977   2.051   6.468
 2841SOL    HW1 9422   6.017   2.141   6.449
 2841SOL    HW2 9423   6.049   1.987   6.492
 2842SOL     OW 9424   0.238   4.850   4.401
 2842SOL    HW1 9425   0.242   4.841   4.501
 2842SOL    HW2 9426   0.173   4.784   4.364
 2843SOL     OW 9427   2.873   1.860   2.796
 2843SOL    HW1 9428   2.830   1.823   2.878
 2843SOL    HW2 9429   2.806   1.863   2.722
 2844SOL     OW 9430   6.415   5.296   0.805
 2844SOL    HW1 9431   6.398   5.205   0.767
 2844SOL    HW2 9432   6.437   5.287   0.903
 2845SOL     OW 9433   5.264   2.879   2.281
 2845SOL    HW1 9434   5.250   2.974   2.253
 2845SOL    HW2 9435   5.326   2.834   2.218
 2846SOL     OW 9436   4.059   6.923   0.411
 2846SOL    HW1 9437   4.059   6.957   0.317
 2846SOL    HW2 9438   4.127   6.973   0.465
 2847SOL     OW 9439   5.331   3.758   3.406
 2847SOL    HW1 9440   5.316   3.675   3.353
 2847SOL    HW2 9441   5.409   3.745   3.467
 2848SOL     OW 9442   2.110   2.845   5.391
 2848SOL    HW1 9443   2.084   2.865   5.296
 2848SOL    HW2 9444   2.124   2.931   5.440
 2849SOL     OW 9445   3.112   0.375   0.738
 2849SOL    HW1 9446   3.164   0.366   0.653
 2849SOL    HW2 9447   3.167   0.342   0.814
 2850SOL     OW 9448   2.149   0.016   2.749
 2850SOL    HW1 9449   2.178   0.091   2.689
 2850SOL    HW2 9450   2.208   0.013   2.829
 2851SOL     OW 9451   5.568   2.420   6.488
 2851SOL    HW1 9452   5.623   2.339   6.506
 2851SOL    HW2 9453   5.609   2.473   6.414
 2852SOL     OW 9454   6.137   4.172   0.149
 2852SOL    HW1 9455   6.215   4.155   0.089
 2852SOL    HW2 9456   6.064   4.106   0.128
 2853SOL     OW 9457   1.756   2.268   6.678
 2853SOL    HW1 9458   1.740   2.341   6.744
 2853SOL    HW2 9459   1.850   2.234   6.687
 2854SOL     OW 9460   4.169   1.063   5.679
 2854SOL    HW1 9461   4.169   0.973   5.637
 2854SOL    HW2 9462   4.093   1.071   5.743
 2855SOL     OW 9463   1.328   1.891   5.452
 2855SOL    HW1 9464   1.385   1.887   5.534
 2855SOL    HW2 9465   1.384   1.869   5.372
 2856SOL     OW 9466   0.801   2.974   4.439
 2856SOL    HW1 9467   0.870   3.015   4.379
 2856SOL    HW2 9468   0.738   2.919   4.384
 2857SOL     OW 9469   0.553   2.399   1.504
 2857SOL    HW1 9470   0.473   2.446   1.468
 2857SOL    HW2 9471   0.546   2.301   1.486
 2858SOL     OW 9472   4.117   5.147   2.487
 2858SOL    HW1 9473   4.181   5.126   2.413
 2858SOL    HW2 9474   4.154   5.115   2.574
 2859SOL     OW 9475   6.420   0.059   6.804
 2859SOL    HW1 9476   6.451   0.016   6.888
 2859SOL    HW2 9477   6.497   0.068   6.741
 2860SOL     OW 9478   2.319   0.594   2.428
 2860SOL    HW1 9479   2.238   0.538   2.413
 2860SOL    HW2 9480   2.291   0.687   2.454
 2861SOL     OW 9481   3.114   5.614   5.183
 2861SOL    HW1 9482   3.116   5.676   5.105
 2861SOL    HW2 9483   3.034   5.555   5.176
 2862SOL     OW 9484   4.329   2.228   1.611
 2862SOL    HW1 9485   4.426   2.245   1.591
 2862SOL    HW2 9486   4.290   2.171   1.539
 2863SOL     OW 9487   4.752   1.345   6.569
 2863SOL    HW1 9488   4.706   1.374   6.485
 2863SOL    HW2 9489   4.808   1.265   6.551
 2864SOL     OW 9490   4.451   2.340   0.758
 2864SOL    HW1 9491   4.516   2.383   0.695
 2864SOL    HW2 9492   4.500   2.277   0.818
 2865SOL     OW 9493   4.469   6.183   4.309
 2865SOL    HW1 9494   4.496   6.093   4.274
 2865SOL    HW2 9495   4.544   6.248   4.295
 2866SOL     OW 9496   5.514   4.623   6.917
 2866SOL    HW1 9497   5.506   4.523   6.915
 2866SOL    HW2 9498   5.486   4.657   7.006
 2867SOL     OW 9499   5.819   6.171   2.945
 2867SOL    HW1 9500   5.862   6.249   2.899
 2867SOL    HW2 9501   5.887   6.098   2.955
 2868SOL     OW 9502   1.209   1.203   5.669
 2868SOL    HW1 9503   1.296   1.207   5.622
 2868SOL    HW2 9504   1.221   1.230   5.765
 2869SOL     OW 9505   6.514   0.693   3.083
 2869SOL    HW1 9506   6.485   0.658   2.994
 2869SOL    HW2 9507   6.435   0.702   3.142
 2870SOL     OW 9508   0.669   2.410   5.733
 2870SOL    HW1 9509   0.571   2.419   5.751
 2870SOL    HW2 9510   0.696   2.314   5.742
 2871SOL     OW 9511   5.786   1.120   0.521
 2871SOL    HW1 9512   5.722   1.196   0.527
 2871SOL    HW2 9513   5.786   1.069   0.607
 2872SOL     OW 9514   2.364   2.036   1.300
 2872SOL    HW1 9515   2.443   2.049   1.360
 2872SOL    HW2 9516   2.287   2.090   1.334
 2873SOL     OW 9517   6.676   6.558   2.261
 2873SOL    HW1 9518   6.754   6.621   2.268
 2873SOL    HW2 9519   6.679   6.492   2.336
 2874SOL     OW 9520   4.501   6.587   2.575
 2874SOL    HW1 9521   4.524   6.498   2.534
 2874SOL    HW2 9522   4.402   6.599   2.572
 2875SOL     OW 9523   5.164   6.993   1.169
 2875SOL    HW1 9524   5.138   6.899   1.145
 2875SOL    HW2 9525   5.140   7.011   1.264
 2876SOL     OW 9526   1.930   0.592   2.851
 2876SOL    HW1 9527   2.007   0.568   2.792
 2876SOL    HW2 9528   1.894   0.509   2.894
 2877SOL     OW 9529   2.532   0.957   5.901
 2877SOL    HW1 9530   2.512   0.948   5.804
 2877SOL    HW2 9531   2.528   0.867   5.945
 2878SOL     OW 9532   2.944   4.055   5.295
 2878SOL    HW1 9533   2.953   4.152   5.318
 2878SOL    HW2 9534   2.976   4.040   5.201
 2879SOL     OW 9535   5.434   5.549   5.819
 2879SOL    HW1 9536   5.344   5.543   5.776
 2879SOL    HW2 9537   5.482   5.630   5.784
 2880SOL     OW 9538   0.578   1.675   2.819
 2880SOL    HW1 9539   0.613   1.651   2.910
 2880SOL    HW2 9540   0.575   1.774   2.810
 2881SOL     OW 9541   4.149   5.920   0.476
 2881SOL    HW1 9542   4.246   5.930   0.454
 2881SOL    HW2 9543   4.104   6.010   0.470
 2882SOL     OW 9544   0.519   6.004   1.655
 2882SOL    HW1 9545   0.457   6.080   1.676
 2882SOL    HW2 9546   0.547   5.960   1.740
 2883SOL     OW 9547   5.760   0.074   3.983
 2883SOL    HW1 9548   5.797   0.080   3.890
 2883SOL    HW2 9549   5.771   0.163   4.029
 2884SOL     OW 9550   0.947   6.563   2.684
 2884SOL    HW1 9551   0.962   6.465   2.691
 2884SOL    HW2 9552   1.024   6.606   2.636
 2885SOL     OW 9553   1.627   3.005   4.317
 2885SOL    HW1 9554   1.720   2.988   4.350
 2885SOL    HW2 9555   1.599   3.097   4.343
 2886SOL     OW 9556   1.788   3.396   6.503
 2886SOL    HW1 9557   1.705   3.362   6.547
 2886SOL    HW2 9558   1.867   3.342   6.533
 2887SOL     OW 9559   0.867   0.146   5.293
 2887SOL    HW1 9560   0.960   0.130   5.261
 2887SOL    HW2 9561   0.815   0.196   5.223
 2888SOL     OW 9562   0.068   4.075   6.647
 2888SOL    HW1 9563   0.098   4.094   6.553
 2888SOL    HW2 9564   6.991   4.089   6.654
 2889SOL     OW 9565   2.976   6.024   2.579
 2889SOL    HW1 9566   2.950   6.064   2.491
 2889SOL    HW2 9567   2.896   6.024   2.640
 2890SOL     OW 9568   1.560   6.467   0.665
 2890SOL    HW1 9569   1.605   6.392   0.615
 2890SOL    HW2 9570   1.618   6.548   0.662
 2891SOL     OW 9571   0.693   3.828   3.373
 2891SOL    HW1 9572   0.791   3.843   3.357
 2891SOL    HW2 9573   0.677   3.810   3.470
 2892SOL     OW 9574   6.332   3.144   1.053
 2892SOL    HW1 9575   6.351   3.213   1.122
 2892SOL    HW2 9576   6.418   3.114   1.011
 2893SOL     OW 9577   0.723   5.254   4.478
 2893SOL    HW1 9578   0.792   5.208   4.422
 2893SOL    HW2 9579   0.758   5.343   4.508
 2894SOL     OW 9580   1.065   3.076   2.065
 2894SOL    HW1 9581   1.057   3.066   2.164
 2894SOL    HW2 9582   1.028   2.994   2.021
 2895SOL     OW 9583   5.013   1.160   5.246
 2895SOL    HW1 9584   4.966   1.098   5.309
 2895SOL    HW2 9585   5.103   1.182   5.282
 2896SOL     OW 9586   4.205   6.909   5.444
 2896SOL    HW1 9587   4.232   6.967   5.520
 2896SOL    HW2 9588   4.279   6.845   5.423
 2897SOL     OW 9589   3.853   5.167   2.435
 2897SOL    HW1 9590   3.801   5.082   2.445
 2897SOL    HW2 9591   3.950   5.150   2.453
 2898SOL     OW 9592   4.260   4.772   4.518
 2898SOL    HW1 9593   4.302   4.725   4.440
 2898SOL    HW2 9594   4.165   4.794   4.496
 2899SOL     OW 9595   0.221   1.710   0.759
 2899SOL    HW1 9596   0.151   1.638   0.758
 2899SOL    HW2 9597   0.307   1.673   0.723
 2900SOL     OW 9598   3.623   4.533   0.008
 2900SOL    HW1 9599   3.660   4.562   0.096
 2900SOL    HW2 9600   3.642   4.435   7.016
 2901SOL     OW 9601   2.599   4.608   3.091
 2901SOL    HW1 9602   2.546   4.683   3.130
 2901SOL    HW2 9603   2.664   4.645   3.024
 2902SOL     OW 9604   6.326   4.750   2.987
 2902SOL    HW1 9605   6.227   4.745   3.004
 2902SOL    HW2 9606   6.363   4.658   2.980
 2903SOL     OW 9607   4.105   6.573   0.391
 2903SOL    HW1 9608   4.041   6.649   0.396
 2903SOL    HW2 9609   4.099   6.519   0.475
 2904SOL     OW 9610   2.746   5.014   4.500
 2904SOL    HW1 9611   2.821   4.999   4.565
 2904SOL    HW2 9612   2.782   5.054   4.416
 2905SOL     OW 9613   1.489   3.902   4.073
 2905SOL    HW1 9614   1.521   3.879   4.164
 2905SOL    HW2 9615   1.495   3.821   4.014
 2906SOL     OW 9616   4.924   4.962   2.606
 2906SOL    HW1 9617   4.981   5.013   2.542
 2906SOL    HW2 9618   4.939   4.864   2.595
 2907SOL     OW 9619   0.838   1.693   3.657
 2907SOL    HW1 9620   0.841   1.645   3.745
 2907SOL    HW2 9621   0.877   1.785   3.667
 2908SOL     OW 9622   5.100   7.015   3.447
 2908SOL    HW1 9623   5.132   6.938   3.392
 2908SOL    HW2 9624   5.049   6.982   3.526
 2909SOL     OW 9625   1.934   6.114   4.062
 2909SOL    HW1 9626   1.924   6.186   4.131
 2909SOL    HW2 9627   1.961   6.155   3.975
 2910SOL     OW 9628   5.796   0.744   4.455
 2910SOL    HW1 9629   5.882   0.756   4.405
 2910SOL    HW2 9630   5.773   0.830   4.501
 2911SOL     OW 9631   2.232   5.966   3.655
 2911SOL    HW1 9632   2.305   6.033   3.670
 2911SOL    HW2 9633   2.209   5.922   3.742
 2912SOL     OW 9634   6.128   6.969   0.443
 2912SOL    HW1 9635   6.194   0.023   0.443
 2912SOL    HW2 9636   6.063   6.982   0.518
 2913SOL     OW 9637   3.773   4.814   1.707
 2913SOL    HW1 9638   3.781   4.887   1.774
 2913SOL    HW2 9639   3.700   4.751   1.735
 2914SOL     OW 9640   6.113   5.903   6.660
 2914SOL    HW1 9641   6.164   5.843   6.598
 2914SOL    HW2 9642   6.175   5.970   6.700
 2915SOL     OW 9643   3.353   2.098   3.402
 2915SOL    HW1 9644   3.434   2.104   3.460
 2915SOL    HW2 9645   3.272   2.119   3.456
 2916SOL     OW 9646   1.308   5.835   0.423
 2916SOL    HW1 9647   1.377   5.768   0.452
 2916SOL    HW2 9648   1.277   5.888   0.502
 2917SOL     OW 9649   2.432   0.082   3.616
 2917SOL    HW1 9650   2.358   0.149   3.613
 2917SOL    HW2 9651   2.511   0.120   3.664
 2918SOL     OW 9652   6.025   4.127   5.300
 2918SOL    HW1 9653   5.954   4.189   5.334
 2918SOL    HW2 9654   6.018   4.119   5.201
 2919SOL     OW 9655   5.826   0.193   1.889
 2919SOL    HW1 9656   5.847   0.241   1.974
 2919SOL    HW2 9657   5.745   0.136   1.902
 2920SOL     OW 9658   2.609   1.166   1.011
 2920SOL    HW1 9659   2.699   1.127   0.989
 2920SOL    HW2 9660   2.541   1.129   0.948
 2921SOL     OW 9661   0.907   6.908   4.613
 2921SOL    HW1 9662   0.897   6.981   4.545
 2921SOL    HW2 9663   0.880   6.821   4.573
 2922SOL     OW 9664   4.752   6.811   1.443
 2922SOL    HW1 9665   4.823   6.763   1.393
 2922SOL    HW2 9666   4.663   6.773   1.420
 2923SOL     OW 9667   6.175   5.794   3.197
 2923SOL    HW1 9668   6.197   5.891   3.191
 2923SOL    HW2 9669   6.189   5.763   3.292
 2924SOL     OW 9670   6.485   2.375   5.387
 2924SOL    HW1 9671   6.524   2.288   5.358
 2924SOL    HW2 9672   6.386   2.365   5.398
 2925SOL     OW 9673   5.985   2.316   0.528
 2925SOL    HW1 9674   6.017   2.221   0.527
 2925SOL    HW2 9675   6.010   2.358   0.615
 2926SOL     OW 9676   5.414   2.048   6.742
 2926SOL    HW1 9677   5.492   2.014   6.689
 2926SOL    HW2 9678   5.354   2.101   6.683
 2927SOL     OW 9679   1.447   3.790   1.123
 2927SOL    HW1 9680   1.383   3.863   1.099
 2927SOL    HW2 9681   1.539   3.827   1.132
 2928SOL     OW 9682   6.848   0.821   6.702
 2928SOL    HW1 9683   6.824   0.855   6.793
 2928SOL    HW2 9684   6.771   0.768   6.665
 2929SOL     OW 9685   1.453   2.841   6.182
 2929SOL    HW1 9686   1.389   2.807   6.113
 2929SOL    HW2 9687   1.544   2.805   6.163
 2930SOL     OW 9688   5.372   0.101   5.634
 2930SOL    HW1 9689   5.406   0.081   5.726
 2930SOL    HW2 9690   5.408   0.190   5.604
 2931SOL     OW 9691   5.174   5.224   0.247
 2931SOL    HW1 9692   5.148   5.211   0.343
 2931SOL    HW2 9693   5.167   5.136   0.199
 2932SOL     OW 9694   0.977   5.971   1.897
 2932SOL    HW1 9695   1.039   6.013   1.964
 2932SOL    HW2 9696   0.937   5.888   1.935
 2933SOL     OW 9697   1.862   6.226   2.377
 2933SOL    HW1 9698   1.851   6.189   2.284
 2933SOL    HW2 9699   1.783   6.201   2.432
 2934SOL     OW 9700   5.385   2.094   0.014
 2934SOL    HW1 9701   5.394   2.107   6.936
 2934SOL    HW2 9702   5.290   2.071   0.036
 2935SOL     OW 9703   6.501   2.943   6.356
 2935SOL    HW1 9704   6.521   3.041   6.347
 2935SOL    HW2 9705   6.403   2.928   6.346
 2936SOL     OW 9706   4.497   6.040   0.224
 2936SOL    HW1 9707   4.440   6.041   0.142
 2936SOL    HW2 9708   4.587   6.004   0.202
 2937SOL     OW 9709   5.233   4.901   1.498
 2937SOL    HW1 9710   5.332   4.889   1.498
 2937SOL    HW2 9711   5.208   4.976   1.560
 2938SOL     OW 9712   5.163   4.756   6.968
 2938SOL    HW1 9713   5.063   4.760   6.977
 2938SOL    HW2 9714   5.189   4.669   6.926
 2939SOL     OW 9715   2.383   0.800   1.854
 2939SOL    HW1 9716   2.306   0.831   1.911
 2939SOL    HW2 9717   2.349   0.734   1.787
 2940SOL     OW 9718   5.485   5.473   5.364
 2940SOL    HW1 9719   5.521   5.419   5.288
 2940SOL    HW2 9720   5.395   5.509   5.340
 2941SOL     OW 9721   1.927   1.888   4.266
 2941SOL    HW1 9722   1.977   1.898   4.180
 2941SOL    HW2 9723   1.958   1.957   4.331
 2942SOL     OW 9724   3.944   1.899   0.724
 2942SOL    HW1 9725   3.915   1.938   0.811
 2942SOL    HW2 9726   4.023   1.840   0.738
 2943SOL     OW 9727   6.154   3.878   4.114
 2943SOL    HW1 9728   6.180   3.895   4.019
 2943SOL    HW2 9729   6.091   3.801   4.118
 2944SOL     OW 9730   2.838   5.768   3.874
 2944SOL    HW1 9731   2.790   5.829   3.811
 2944SOL    HW2 9732   2.770   5.713   3.925
 2945SOL     OW 9733   3.853   3.278   1.964
 2945SOL    HW1 9734   3.928   3.266   2.028
 2945SOL    HW2 9735   3.889   3.300   1.873
 2946SOL     OW 9736   1.693   5.053   6.123
 2946SOL    HW1 9737   1.632   5.129   6.140
 2946SOL    HW2 9738   1.788   5.082   6.137
 2947SOL     OW 9739   0.429   5.610   1.724
 2947SOL    HW1 9740   0.358   5.653   1.669
 2947SOL    HW2 9741   0.512   5.599   1.669
 2948SOL     OW 9742   0.256   4.294   4.349
 2948SOL    HW1 9743   0.332   4.338   4.397
 2948SOL    HW2 9744   0.263   4.312   4.251
 2949SOL     OW 9745   1.162   5.498   1.175
 2949SOL    HW1 9746   1.154   5.409   1.220
 2949SOL    HW2 9747   1.108   5.565   1.225
 2950SOL     OW 9748   5.771   5.901   4.199
 2950SOL    HW1 9749   5.697   5.871   4.139
 2950SOL    HW2 9750   5.731   5.945   4.280
 2951SOL     OW 9751   5.284   1.722   2.329
 2951SOL    HW1 9752   5.339   1.774   2.395
 2951SOL    HW2 9753   5.193   1.762   2.322
 2952SOL     OW 9754   7.010   5.939   5.655
 2952SOL    HW1 9755   6.969   5.873   5.593
 2952SOL    HW2 9756   0.081   5.961   5.625
 2953SOL     OW 9757   6.132   3.942   2.849
 2953SOL    HW1 9758   6.206   3.876   2.862
 2953SOL    HW2 9759   6.049   3.894   2.821
 2954SOL     OW 9760   1.230   5.633   1.658
 2954SOL    HW1 9761   1.199   5.727   1.673
 2954SOL    HW2 9762   1.171   5.570   1.708
 2955SOL     OW 9763   0.840   4.405   1.544
 2955SOL    HW1 9764   0.896   4.324   1.562
 2955SOL    HW2 9765   0.800   4.398   1.453
 2956SOL     OW 9766   5.689   6.491   2.877
 2956SOL    HW1 9767   5.658   6.501   2.782
 2956SOL    HW2 9768   5.767   6.551   2.893
 2957SOL     OW 9769   5.402   4.239   1.635
 2957SOL    HW1 9770   5.412   4.233   1.536
 2957SOL    HW2 9771   5.427   4.151   1.676
 2958SOL     OW 9772   2.415   4.347   3.763
 2958SOL    HW1 9773   2.399   4.249   3.749
 2958SOL    HW2 9774   2.370   4.399   3.691
 2959SOL     OW 9775   5.047   3.478   1.577
 2959SOL    HW1 9776   5.043   3.578   1.577
 2959SOL    HW2 9777   5.071   3.446   1.668
 2960SOL     OW 9778   2.965   0.376   0.250
 2960SOL    HW1 9779   2.873   0.353   0.217
 2960SOL    HW2 9780   3.033   0.344   0.183
 2961SOL     OW 9781   5.995   4.523   3.435
 2961SOL    HW1 9782   5.928   4.586   3.476
 2961SOL    HW2 9783   5.957   4.484   3.352
 2962SOL     OW 9784   4.698   5.982   3.437
 2962SOL    HW1 9785   4.674   5.947   3.347
 2962SOL    HW2 9786   4.693   6.082   3.437
 2963SOL     OW 9787   1.397   1.086   6.854
 2963SOL    HW1 9788   1.315   1.046   6.814
 2963SOL    HW2 9789   1.474   1.023   6.842
 2964SOL     OW 9790   6.840   1.324   5.065
 2964SOL    HW1 9791   6.856   1.406   5.120
 2964SOL    HW2 9792   6.817   1.247   5.124
 2965SOL     OW 9793   0.526   0.350   4.554
 2965SOL    HW1 9794   0.517   0.263   4.506
 2965SOL    HW2 9795   0.437   0.395   4.559
 2966SOL     OW 9796   4.341   5.109   2.975
 2966SOL    HW1 9797   4.405   5.183   2.957
 2966SOL    HW2 9798   4.386   5.039   3.031
 2967SOL     OW 9799   5.614   0.944   5.502
 2967SOL    HW1 9800   5.571   0.940   5.593
 2967SOL    HW2 9801   5.649   1.036   5.486
 2968SOL     OW 9802   1.079   2.665   0.615
 2968SOL    HW1 9803   1.065   2.571   0.646
 2968SOL    HW2 9804   1.128   2.664   0.528
 2969SOL     OW 9805   4.573   2.217   4.444
 2969SOL    HW1 9806   4.543   2.138   4.498
 2969SOL    HW2 9807   4.638   2.271   4.498
 2970SOL     OW 9808   2.606   2.777   5.582
 2970SOL    HW1 9809   2.554   2.707   5.631
 2970SOL    HW2 9810   2.555   2.807   5.502
 2971SOL     OW 9811   4.963   3.992   0.478
 2971SOL    HW1 9812   5.005   3.908   0.514
 2971SOL    HW2 9813   4.922   3.973   0.389
 2972SOL     OW 9814   6.618   4.823   6.495
 2972SOL    HW1 9815   6.703   4.774   6.473
 2972SOL    HW2 9816   6.545   4.757   6.514
 2973SOL     OW 9817   5.435   6.010   1.738
 2973SOL    HW1 9818   5.411   5.928   1.687
 2973SOL    HW2 9819   5.512   6.056   1.695
 2974SOL     OW 9820   0.456   4.652   3.850
 2974SOL    HW1 9821   0.392   4.725   3.826
 2974SOL    HW2 9822   0.521   4.686   3.919
 2975SOL     OW 9823   4.780   3.957   4.309
 2975SOL    HW1 9824   4.729   3.996   4.386
 2975SOL    HW2 9825   4.776   4.021   4.232
 2976SOL     OW 9826   4.369   2.302   2.582
 2976SOL    HW1 9827   4.435   2.232   2.610
 2976SOL    HW2 9828   4.403   2.348   2.500
 2977SOL     OW 9829   1.365   0.687   2.524
 2977SOL    HW1 9830   1.319   0.675   2.612
 2977SOL    HW2 9831   1.329   0.769   2.479
 2978SOL     OW 9832   3.946   4.805   0.130
 2978SOL    HW1 9833   3.893   4.725   0.157
 2978SOL    HW2 9834   3.947   4.871   0.205
 2979SOL     OW 9835   3.575   0.993   3.829
 2979SOL    HW1 9836   3.549   0.899   3.849
 2979SOL    HW2 9837   3.597   1.001   3.732
 2980SOL     OW 9838   1.741   5.404   5.570
 2980SOL    HW1 9839   1.696   5.475   5.516
 2980SOL    HW2 9840   1.761   5.326   5.512
 2981SOL     OW 9841   3.057   0.923   6.148
 2981SOL    HW1 9842   3.098   0.997   6.093
 2981SOL    HW2 9843   2.968   0.899   6.110
 2982SOL     OW 9844   3.092   5.492   1.708
 2982SOL    HW1 9845   3.112   5.573   1.764
 2982SOL    HW2 9846   2.995   5.492   1.684
 2983SOL     OW 9847   6.337   2.438   2.602
 2983SOL    HW1 9848   6.247   2.403   2.577
 2983SOL    HW2 9849   6.401   2.422   2.526
 2984SOL     OW 9850   5.909   4.686   0.243
 2984SOL    HW1 9851   5.903   4.635   0.158
 2984SOL    HW2 9852   5.929   4.624   0.319
 2985SOL     OW 9853   2.019   2.630   4.415
 2985SOL    HW1 9854   1.982   2.544   4.379
 2985SOL    HW2 9855   2.059   2.613   4.505
 2986SOL     OW 9856   3.573   4.163   3.066
 2986SOL    HW1 9857   3.657   4.131   3.110
 2986SOL    HW2 9858   3.495   4.145   3.125
 2987SOL     OW 9859   1.366   1.881   4.011
 2987SOL    HW1 9860   1.305   1.954   4.041
 2987SOL    HW2 9861   1.330   1.793   4.041
 2988SOL     OW 9862   1.806   0.038   2.556
 2988SOL    HW1 9863   1.711   0.013   2.577
 2988SOL    HW2 9864   1.865   6.981   2.570
 2989SOL     OW 9865   5.236   5.403   5.656
 2989SOL    HW1 9866   5.215   5.494   5.621
 2989SOL    HW2 9867   5.151   5.353   5.673
 2990SOL     OW 9868   3.806   1.481   4.527
 2990SOL    HW1 9869   3.713   1.511   4.552
 2990SOL    HW2 9870   3.802   1.389   4.488
 2991SOL     OW 9871   6.209   3.640   5.599
 2991SOL    HW1 9872   6.253   3.718   5.554
 2991SOL    HW2 9873   6.267   3.559   5.590
 2992SOL     OW 9874   1.087   5.526   4.735
 2992SOL    HW1 9875   1.141   5.582   4.798
 2992SOL    HW2 9876   1.148   5.475   4.674
 2993SOL     OW 9877   0.388   5.031   1.161
 2993SOL    HW1 9878   0.343   5.016   1.249
 2993SOL    HW2 9879   0.405   5.129   1.149
 2994SOL     OW 9880   3.923   6.434   6.754
 2994SOL    HW1 9881   3.956   6.437   6.849
 2994SOL    HW2 9882   3.939   6.343   6.716
 2995SOL     OW 9883   3.488   1.125   6.490
 2995SOL    HW1 9884   3.469   1.064   6.567
 2995SOL    HW2 9885   3.587   1.133   6.478
 2996SOL     OW 9886   0.462   1.220   4.784
 2996SOL    HW1 9887   0.517   1.296   4.749
 2996SOL    HW2 9888   0.383   1.255   4.833
 2997SOL     OW 9889   4.666   0.305   3.086
 2997SOL    HW1 9890   4.741   0.274   3.144
 2997SOL    HW2 9891   4.592   0.341   3.143
 2998SOL     OW 9892   5.306   6.787   3.718
 2998SOL    HW1 9893   5.290   6.704   3.772
 2998SOL    HW2 9894   5.218   6.829   3.695
 2999SOL     OW 9895   2.472   5.173   5.343
 2999SOL    HW1 9896   2.562   5.204   5.372
 2999SOL    HW2 9897   2.463   5.075   5.359
 3000SOL     OW 9898   3.289   4.210   6.151
 3000SOL    HW1 9899   3.330   4.278   6.091
 3000SOL    HW2 9900   3.340   4.124   6.143
 3001SOL     OW 9901   6.969   1.059   6.636
 3001SOL    HW1 9902   6.913   0.976   6.641
 3001SOL    HW2 9903   7.010   1.067   6.545
 3002SOL     OW 9904   3.153   2.089   6.657
 3002SOL    HW1 9905   3.064   2.075   6.614
 3002SOL    HW2 9906   3.141   2.107   6.755
 3003SOL     OW 9907   0.612   6.955   1.014
 3003SOL    HW1 9908   0.592   6.952   0.917
 3003SOL    HW2 9909   0.680   6.885   1.037
 3004SOL     OW 9910   0.854   4.405   2.737
 3004SOL    HW1 9911   0.929   4.343   2.762
 3004SOL    HW2 9912   0.880   4.458   2.657
 3005SOL     OW 9913   1.639   2.632   0.230
 3005SOL    HW1 9914   1.724   2.635   0.177
 3005SOL    HW2 9915   1.622   2.539   0.261
 3006SOL     OW 9916   5.345   2.078   4.208
 3006SOL    HW1 9917   5.408   2.034   4.272
 3006SOL    HW2 9918   5.388   2.087   4.119
 3007SOL     OW 9919   5.853   4.093   0.666
 3007SOL    HW1 9920   5.869   4.005   0.710
 3007SOL    HW2 9921   5.936   4.148   0.669
 3008SOL     OW 9922   3.219   2.468   6.221
 3008SOL    HW1 9923   3.226   2.548   6.162
 3008SOL    HW2 9924   3.308   2.423   6.228
 3009SOL     OW 9925   6.603   2.250   2.977
 3009SOL    HW1 9926   6.575   2.157   3.001
 3009SOL    HW2 9927   6.703   2.256   2.977
 3010SOL     OW 9928   2.834   5.620   3.121
 3010SOL    HW1 9929   2.932   5.633   3.105
 3010SOL    HW2 9930   2.784   5.630   3.035
 3011SOL     OW 9931   5.656   1.027   2.778
 3011SOL    HW1 9932   5.647   0.942   2.726
 3011SOL    HW2 9933   5.606   1.019   2.864
 3012SOL     OW 9934   2.405   3.504   6.603
 3012SOL    HW1 9935   2.372   3.581   6.657
 3012SOL    HW2 9936   2.363   3.507   6.512
 3013SOL     OW 9937   5.302   5.541   3.921
 3013SOL    HW1 9938   5.370   5.509   3.987
 3013SOL    HW2 9939   5.282   5.637   3.939
 3014SOL     OW 9940   4.747   2.287   5.610
 3014SOL    HW1 9941   4.777   2.276   5.515
 3014SOL    HW2 9942   4.648   2.298   5.612
 3015SOL     OW 9943   1.943   1.710   0.340
 3015SOL    HW1 9944   2.020   1.662   0.383
 3015SOL    HW2 9945   1.958   1.716   0.242
 3016SOL     OW 9946   2.948   5.956   4.260
 3016SOL    HW1 9947   2.916   5.887   4.324
 3016SOL    HW2 9948   2.947   6.046   4.304
 3017SOL     OW 9949   6.220   5.747   2.121
 3017SOL    HW1 9950   6.159   5.675   2.154
 3017SOL    HW2 9951   6.166   5.830   2.105
 3018SOL     OW 9952   2.726   6.990   6.419
 3018SOL    HW1 9953   2.738   0.062   6.452
 3018SOL    HW2 9954   2.761   6.925   6.486
 3019SOL     OW 9955   0.542   6.833   6.251
 3019SOL    HW1 9956   0.549   6.748   6.304
 3019SOL    HW2 9957   0.448   6.843   6.218
 3020SOL     OW 9958   3.960   2.777   0.962
 3020SOL    HW1 9959   4.025   2.701   0.969
 3020SOL    HW2 9960   3.988   2.838   0.887
 3021SOL     OW 9961   3.338   0.296   5.161
 3021SOL    HW1 9962   3.249   0.291   5.116
 3021SOL    HW2 9963   3.360   0.207   5.202
 3022SOL     OW 9964   4.269   5.545   5.255
 3022SOL    HW1 9965   4.304   5.628   5.298
 3022SOL    HW2 9966   4.314   5.465   5.295
 3023SOL     OW 9967   4.361   6.434   2.993
 3023SOL    HW1 9968   4.412   6.492   2.930
 3023SOL    HW2 9969   4.424   6.388   3.056
 3024SOL     OW 9970   5.405   6.458   4.730
 3024SOL    HW1 9971   5.341   6.454   4.653
 3024SOL    HW2 9972   5.391   6.543   4.780
 3025SOL     OW 9973   4.081   6.167   1.194
 3025SOL    HW1 9974   4.168   6.118   1.191
 3025SOL    HW2 9975   4.006   6.103   1.177
 3026SOL     OW 9976   0.556   1.441   5.772
 3026SOL    HW1 9977   0.495   1.367   5.745
 3026SOL    HW2 9978   0.645   1.430   5.727
 3027SOL     OW 9979   4.462   1.468   2.888
 3027SOL    HW1 9980   4.370   1.452   2.921
 3027SOL    HW2 9981   4.526   1.469   2.965
 3028SOL     OW 9982   1.188   3.424   5.851
 3028SOL    HW1 9983   1.249   3.365   5.797
 3028SOL    HW2 9984   1.227   3.515   5.858
 3029SOL     OW 9985   0.756   3.154   5.165
 3029SOL    HW1 9986   0.753   3.219   5.241
 3029SOL    HW2 9987   0.852   3.138   5.139
 3030SOL     OW 9988   0.859   3.207   0.510
 3030SOL    HW1 9989   0.941   3.221   0.565
 3030SOL    HW2 9990   0.879   3.143   0.435
 3031SOL     OW 9991   6.938   4.706   1.103
 3031SOL    HW1 9992   6.991   4.651   1.168
 3031SOL    HW2 9993   6.964   4.681   1.009
 3032SOL     OW 9994   2.227   6.826   1.521
 3032SOL    HW1 9995   2.240   6.925   1.512
 3032SOL    HW2 9996   2.310   6.779   1.494
 3033SOL     OW 9997   5.232   1.171   1.628
 3033SOL    HW1 9998   5.162   1.135   1.566
 3033SOL    HW2 9999   5.234   1.271   1.620
 3034SOL     OW10000   1.341   0.348   2.670
 3034SOL    HW110001   1.420   0.409   2.664
 3034SOL    HW210002   1.298   0.357   2.760
 3035SOL     OW10003   0.520   2.784   5.866
 3035SOL    HW110004   0.602   2.781   5.923
 3035SOL    HW210005   0.523   2.865   5.807
 3036SOL     OW10006   1.645   1.705   5.527
 3036SOL    HW110007   1.574   1.770   5.555
 3036SOL    HW210008   1.716   1.754   5.476
 3037SOL     OW10009   6.257   5.396   6.438
 3037SOL    HW110010   6.250   5.316   6.379
 3037SOL    HW210011   6.331   5.382   6.504
 3038SOL     OW10012   5.122   5.835   5.871
 3038SOL    HW110013   5.200   5.871   5.923
 3038SOL    HW210014   5.081   5.760   5.922
 3039SOL     OW10015   0.731   3.017   1.463
 3039SOL    HW110016   0.684   3.054   1.543
 3039SOL    HW210017   0.757   2.922   1.481
 3040SOL     OW10018   3.395   4.087   5.777
 3040SOL    HW110019   3.412   4.080   5.678
 3040SOL    HW210020   3.313   4.035   5.801
 3041SOL     OW10021   2.031   3.710   5.544
 3041SOL    HW110022   2.028   3.616   5.509
 3041SOL    HW210023   2.041   3.774   5.468
 3042SOL     OW10024   6.141   6.234   2.894
 3042SOL    HW110025   6.132   6.333   2.885
 3042SOL    HW210026   6.105   6.190   2.812
 3043SOL     OW10027   2.775   3.976   1.523
 3043SOL    HW110028   2.839   4.052   1.536
 3043SOL    HW210029   2.715   3.996   1.446
 3044SOL     OW10030   3.498   5.289   6.025
 3044SOL    HW110031   3.498   5.388   6.038
 3044SOL    HW210032   3.584   5.251   6.060
 3045SOL     OW10033   5.034   6.677   3.661
 3045SOL    HW110034   5.037   6.609   3.735
 3045SOL    HW210035   5.040   6.630   3.573
 3046SOL     OW10036   3.268   1.244   5.786
 3046SOL    HW110037   3.328   1.314   5.747
 3046SOL    HW210038   3.187   1.234   5.729
 3047SOL     OW10039   6.084   0.568   1.643
 3047SOL    HW110040   6.067   0.663   1.615
 3047SOL    HW210041   6.104   0.566   1.741
 3048SOL     OW10042   3.975   2.243   1.461
 3048SOL    HW110043   3.992   2.302   1.540
 3048SOL    HW210044   3.906   2.285   1.402
 3049SOL     OW10045   1.580   0.060   3.121
 3049SOL    HW110046   1.608   0.001   3.197
 3049SOL    HW210047   1.553   0.150   3.156
 3050SOL     OW10048   2.602   1.675   1.871
 3050SOL    HW110049   2.541   1.753   1.885
 3050SOL    HW210050   2.611   1.657   1.773
 3051SOL     OW10051   2.146   6.399   6.353
 3051SOL    HW110052   2.239   6.403   6.388
 3051SOL    HW210053   2.081   6.404   6.430
 3052SOL     OW10054   4.994   5.054   1.849
 3052SOL    HW110055   5.076   5.060   1.792
 3052SOL    HW210056   4.975   5.143   1.890
 3053SOL     OW10057   0.126   2.768   1.107
 3053SOL    HW110058   0.122   2.674   1.075
 3053SOL    HW210059   0.170   2.825   1.038
 3054SOL     OW10060   5.970   2.389   1.453
 3054SOL    HW110061   5.969   2.339   1.540
 3054SOL    HW210062   6.013   2.479   1.467
 3055SOL     OW10063   5.000   0.105   5.148
 3055SOL    HW110064   4.939   0.179   5.118
 3055SOL    HW210065   5.074   0.095   5.082
 3056SOL     OW10066   5.988   1.031   5.669
 3056SOL    HW110067   5.922   0.985   5.730
 3056SOL    HW210068   5.993   0.982   5.582
 3057SOL     OW10069   4.284   5.457   3.461
 3057SOL    HW110070   4.218   5.399   3.412
 3057SOL    HW210071   4.344   5.399   3.516
 3058SOL     OW10072   0.380   4.771   0.822
 3058SOL    HW110073   0.318   4.834   0.869
 3058SOL    HW210074   0.470   4.813   0.812
 3059SOL     OW10075   2.834   1.976   4.075
 3059SOL    HW110076   2.839   1.956   4.173
 3059SOL    HW210077   2.875   2.065   4.056
 3060SOL     OW10078   1.595   5.424   0.249
 3060SOL    HW110079   1.504   5.400   0.217
 3060SOL    HW210080   1.621   5.513   0.210
 3061SOL     OW10081   6.558   5.807   5.675
 3061SOL    HW110082   6.464   5.824   5.647
 3061SOL    HW210083   6.561   5.792   5.774
 3062SOL     OW10084   2.374   0.157   1.110
 3062SOL    HW110085   2.305   0.094   1.075
 3062SOL    HW210086   2.340   0.199   1.194
 3063SOL     OW10087   1.801   4.803   1.579
 3063SOL    HW110088   1.824   4.891   1.538
 3063SOL    HW210089   1.796   4.812   1.678
 3064SOL     OW10090   5.470   3.488   0.794
 3064SOL    HW110091   5.508   3.541   0.870
 3064SOL    HW210092   5.543   3.464   0.730
 3065SOL     OW10093   1.653   2.149   6.458
 3065SOL    HW110094   1.686   2.185   6.545
 3065SOL    HW210095   1.573   2.090   6.475
 3066SOL     OW10096   5.121   4.350   0.338
 3066SOL    HW110097   5.203   4.405   0.322
 3066SOL    HW210098   5.149   4.259   0.372
 3067SOL     OW10099   4.048   1.272   6.258
 3067SOL    HW110100   4.067   1.233   6.348
 3067SOL    HW210101   3.965   1.231   6.221
 3068SOL     OW10102   6.896   6.593   1.137
 3068SOL    HW110103   6.957   6.671   1.148
 3068SOL    HW210104   6.935   6.513   1.181
 3069SOL     OW10105   6.674   6.313   2.077
 3069SOL    HW110106   6.660   6.412   2.066
 3069SOL    HW210107   6.613   6.280   2.150
 3070SOL     OW10108   2.758   1.384   7.002
 3070SOL    HW110109   2.780   1.378   6.905
 3070SOL    HW210110   2.783   1.298   0.026
 3071SOL     OW10111   6.613   6.350   3.809
 3071SOL    HW110112   6.612   6.250   3.809
 3071SOL    HW210113   6.653   6.384   3.894
 3072SOL     OW10114   2.699   5.547   6.349
 3072SOL    HW110115   2.648   5.620   6.396
 3072SOL    HW210116   2.796   5.556   6.369
 3073SOL     OW10117   0.113   3.610   4.105
 3073SOL    HW110118   0.209   3.585   4.116
 3073SOL    HW210119   0.103   3.667   4.023
 3074SOL     OW10120   6.972   4.261   1.155
 3074SOL    HW110121   6.901   4.224   1.215
 3074SOL    HW210122   7.008   4.187   1.097
 3075SOL     OW10123   2.447   5.714   2.068
 3075SOL    HW110124   2.516   5.785   2.059
 3075SOL    HW210125   2.487   5.625   2.047
 3076SOL     OW10126   6.200   1.022   3.472
 3076SOL    HW110127   6.145   0.940   3.488
 3076SOL    HW210128   6.284   1.017   3.527
 3077SOL     OW10129   5.642   4.403   1.898
 3077SOL    HW110130   5.636   4.459   1.981
 3077SOL    HW210131   5.586   4.321   1.910
 3078SOL     OW10132   0.283   3.464   3.070
 3078SOL    HW110133   0.312   3.538   3.132
 3078SOL    HW210134   0.331   3.473   2.983
 3079SOL     OW10135   3.061   2.194   3.123
 3079SOL    HW110136   3.056   2.232   3.216
 3079SOL    HW210137   2.986   2.231   3.068
 3080SOL     OW10138   6.049   5.257   2.513
 3080SOL    HW110139   5.984   5.280   2.585
 3080SOL    HW210140   6.000   5.240   2.427
 3081SOL     OW10141   0.861   3.594   6.280
 3081SOL    HW110142   0.828   3.570   6.189
 3081SOL    HW210143   0.894   3.688   6.280
 3082SOL     OW10144   2.106   5.649   4.249
 3082SOL    HW110145   2.023   5.624   4.298
 3082SOL    HW210146   2.090   5.733   4.197
 3083SOL     OW10147   3.083   5.750   3.465
 3083SOL    HW110148   3.001   5.799   3.493
 3083SOL    HW210149   3.139   5.730   3.545
 3084SOL     OW10150   6.797   3.778   4.012
 3084SOL    HW110151   6.807   3.797   4.109
 3084SOL    HW210152   6.887   3.781   3.968
 3085SOL     OW10153   6.559   4.006   0.694
 3085SOL    HW110154   6.495   4.029   0.621
 3085SOL    HW210155   6.620   3.933   0.663
 3086SOL     OW10156   5.042   1.541   0.893
 3086SOL    HW110157   4.986   1.595   0.956
 3086SOL    HW210158   5.105   1.601   0.844
 3087SOL     OW10159   2.103   6.566   3.726
 3087SOL    HW110160   2.195   6.564   3.687
 3087SOL    HW210161   2.086   6.481   3.776
 3088SOL     OW10162   2.345   4.790   4.433
 3088SOL    HW110163   2.386   4.706   4.398
 3088SOL    HW210164   2.415   4.848   4.474
 3089SOL     OW10165   3.471   1.693   4.448
 3089SOL    HW110166   3.511   1.634   4.378
 3089SOL    HW210167   3.544   1.732   4.504
 3090SOL     OW10168   2.195   1.668   1.873
 3090SOL    HW110169   2.114   1.697   1.822
 3090SOL    HW210170   2.215   1.573   1.850
 3091SOL     OW10171   1.382   1.082   0.963
 3091SOL    HW110172   1.365   0.986   0.986
 3091SOL    HW210173   1.331   1.107   0.881
 3092SOL     OW10174   5.570   0.787   0.870
 3092SOL    HW110175   5.547   0.809   0.964
 3092SOL    HW210176   5.490   0.751   0.823
 3093SOL     OW10177   5.520   6.303   6.840
 3093SOL    HW110178   5.580   6.236   6.796
 3093SOL    HW210179   5.489   6.267   6.929
 3094SOL     OW10180   1.897   0.431   3.923
 3094SOL    HW110181   1.904   0.361   3.851
 3094SOL    HW210182   1.855   0.513   3.885
 3095SOL     OW10183   2.602   3.870   5.709
 3095SOL    HW110184   2.519   3.864   5.654
 3095SOL    HW210185   2.670   3.925   5.660
 3096SOL     OW10186   0.770   5.423   5.358
 3096SOL    HW110187   0.773   5.370   5.273
 3096SOL    HW210188   0.717   5.373   5.426
 3097SOL     OW10189   5.537   3.355   6.785
 3097SOL    HW110190   5.464   3.287   6.784
 3097SOL    HW210191   5.565   3.375   6.692
 3098SOL     OW10192   1.658   3.130   1.173
 3098SOL    HW110193   1.706   3.140   1.260
 3098SOL    HW210194   1.710   3.068   1.113
 3099SOL     OW10195   1.233   6.410   3.858
 3099SOL    HW110196   1.291   6.472   3.911
 3099SOL    HW210197   1.291   6.342   3.811
 3100SOL     OW10198   6.989   6.482   3.785
 3100SOL    HW110199   7.015   6.437   3.870
 3100SOL    HW210200   6.894   6.511   3.790
 3101SOL     OW10201   6.263   5.722   0.055
 3101SOL    HW110202   6.305   5.649   0.109
 3101SOL    HW210203   6.278   5.704   6.979
 3102SOL     OW10204   6.412   6.752   1.697
 3102SOL    HW110205   6.461   6.667   1.678
 3102SOL    HW210206   6.313   6.737   1.686
 3103SOL     OW10207   4.438   1.191   1.905
 3103SOL    HW110208   4.447   1.150   1.814
 3103SOL    HW210209   4.412   1.120   1.971
 3104SOL     OW10210   4.296   0.327   6.239
 3104SOL    HW110211   4.285   0.365   6.147
 3104SOL    HW210212   4.242   0.380   6.304
 3105SOL     OW10213   5.923   4.017   1.381
 3105SOL    HW110214   5.848   4.037   1.443
 3105SOL    HW210215   5.896   4.041   1.288
 3106SOL     OW10216   4.558   0.281   4.564
 3106SOL    HW110217   4.523   0.212   4.501
 3106SOL    HW210218   4.548   0.372   4.524
 3107SOL     OW10219   4.005   0.840   5.012
 3107SOL    HW110220   3.946   0.803   4.941
 3107SOL    HW210221   3.999   0.940   5.011
 3108SOL     OW10222   2.487   5.836   4.427
 3108SOL    HW110223   2.526   5.910   4.373
 3108SOL    HW210224   2.486   5.862   4.524
 3109SOL     OW10225   5.615   6.427   3.499
 3109SOL    HW110226   5.606   6.494   3.424
 3109SOL    HW210227   5.710   6.424   3.529
 3110SOL     OW10228   1.331   3.616   3.392
 3110SOL    HW110229   1.358   3.603   3.487
 3110SOL    HW210230   1.232   3.601   3.384
 3111SOL     OW10231   6.462   4.951   3.158
 3111SOL    HW110232   6.417   4.869   3.121
 3111SOL    HW210233   6.492   5.009   3.082
 3112SOL     OW10234   3.536   2.736   0.122
 3112SOL    HW110235   3.567   2.787   0.042
 3112SOL    HW210236   3.453   2.685   0.098
 3113SOL     OW10237   3.578   4.987   3.308
 3113SOL    HW110238   3.589   5.050   3.231
 3113SOL    HW210239   3.496   5.011   3.359
 3114SOL     OW10240   3.409   1.768   0.106
 3114SOL    HW110241   3.371   1.845   0.054
 3114SOL    HW210242   3.424   1.795   0.201
 3115SOL     OW10243   4.532   4.722   5.944
 3115SOL    HW110244   4.533   4.732   5.844
 3115SOL    HW210245   4.622   4.746   5.980
 3116SOL     OW10246   0.083   2.618   6.933
 3116SOL    HW110247   0.031   2.551   6.880
 3116SOL    HW210248   0.180   2.613   6.908
 3117SOL     OW10249   4.702   4.081   5.244
 3117SOL    HW110250   4.668   4.175   5.247
 3117SOL    HW210251   4.662   4.029   5.319
 3118SOL     OW10252   0.810   5.281   2.014
 3118SOL    HW110253   0.732   5.218   2.010
 3118SOL    HW210254   0.893   5.230   2.037
 3119SOL     OW10255   1.867   3.123   6.965
 3119SOL    HW110256   1.880   3.215   6.928
 3119SOL    HW210257   1.832   3.129   0.037
 3120SOL     OW10258   3.089   0.186   6.146
 3120SOL    HW110259   3.078   0.281   6.119
 3120SOL    HW210260   3.052   0.126   6.075
 3121SOL     OW10261   6.874   1.273   4.011
 3121SOL    HW110262   6.872   1.253   3.914
 3121SOL    HW210263   6.812   1.349   4.031
 3122SOL     OW10264   4.241   5.456   6.523
 3122SOL    HW110265   4.277   5.489   6.610
 3122SOL    HW210266   4.314   5.457   6.454
 3123SOL     OW10267   2.667   1.850   2.429
 3123SOL    HW110268   2.636   1.930   2.479
 3123SOL    HW210269   2.748   1.874   2.375
 3124SOL     OW10270   4.864   6.786   4.799
 3124SOL    HW110271   4.846   6.723   4.874
 3124SOL    HW210272   4.959   6.815   4.801
 3125SOL     OW10273   1.015   3.437   5.020
 3125SOL    HW110274   1.046   3.511   4.960
 3125SOL    HW210275   1.091   3.373   5.035
 3126SOL     OW10276   5.816   4.245   5.477
 3126SOL    HW110277   5.746   4.174   5.473
 3126SOL    HW210278   5.886   4.219   5.544
 3127SOL     OW10279   1.848   2.523   6.755
 3127SOL    HW110280   1.820   2.535   6.660
 3127SOL    HW210281   1.812   2.599   6.810
 3128SOL     OW10282   3.073   0.538   6.315
 3128SOL    HW110283   3.007   0.499   6.252
 3128SOL    HW210284   3.117   0.465   6.367
 3129SOL     OW10285   6.175   3.375   6.843
 3129SOL    HW110286   6.200   3.322   6.924
 3129SOL    HW210287   6.236   3.352   6.767
 3130SOL     OW10288   2.045   4.495   2.280
 3130SOL    HW110289   2.063   4.502   2.181
 3130SOL    HW210290   1.950   4.469   2.294
 3131SOL     OW10291   0.770   3.407   1.625
 3131SOL    HW110292   0.708   3.453   1.689
 3131SOL    HW210293   0.719   3.381   1.543
 3132SOL     OW10294   4.996   5.596   6.394
 3132SOL    HW110295   5.037   5.686   6.375
 3132SOL    HW210296   4.896   5.606   6.399
 3133SOL     OW10297   3.328   1.072   2.940
 3133SOL    HW110298   3.416   1.106   2.974
 3133SOL    HW210299   3.317   0.976   2.966
 3134SOL     OW10300   4.363   4.009   1.304
 3134SOL    HW110301   4.352   3.917   1.342
 3134SOL    HW210302   4.343   4.077   1.375
 3135SOL     OW10303   4.363   0.547   5.975
 3135SOL    HW110304   4.405   0.538   5.884
 3135SOL    HW210305   4.274   0.501   5.975
 3136SOL     OW10306   5.266   0.226   2.790
 3136SOL    HW110307   5.226   0.201   2.878
 3136SOL    HW210308   5.366   0.227   2.797
 3137SOL     OW10309   6.140   0.324   2.691
 3137SOL    HW110310   6.160   0.326   2.789
 3137SOL    HW210311   6.208   0.377   2.641
 3138SOL     OW10312   6.737   5.753   3.413
 3138SOL    HW110313   6.732   5.719   3.319
 3138SOL    HW210314   6.790   5.838   3.415
 3139SOL     OW10315   4.132   5.332   0.342
 3139SOL    HW110316   4.044   5.378   0.354
 3139SOL    HW210317   4.198   5.371   0.406
 3140SOL     OW10318   6.946   5.824   6.857
 3140SOL    HW110319   7.007   5.902   6.844
 3140SOL    HW210320   6.899   5.834   6.944
 3141SOL     OW10321   1.045   0.568   6.548
 3141SOL    HW110322   1.108   0.634   6.506
 3141SOL    HW210323   0.952   0.585   6.514
 3142SOL     OW10324   3.050   6.936   2.516
 3142SOL    HW110325   3.005   6.993   2.585
 3142SOL    HW210326   3.049   6.841   2.545
 3143SOL     OW10327   6.839   1.911   0.544
 3143SOL    HW110328   6.787   1.997   0.543
 3143SOL    HW210329   6.836   1.869   0.453
 3144SOL     OW10330   3.942   3.871   1.010
 3144SOL    HW110331   4.004   3.809   1.058
 3144SOL    HW210332   3.850   3.833   1.011
 3145SOL     OW10333   2.247   6.027   2.369
 3145SOL    HW110334   2.216   6.114   2.408
 3145SOL    HW210335   2.340   6.008   2.401
 3146SOL     OW10336   0.531   1.710   4.485
 3146SOL    HW110337   0.612   1.717   4.543
 3146SOL    HW210338   0.537   1.776   4.411
 3147SOL     OW10339   3.212   5.055   0.822
 3147SOL    HW110340   3.206   4.994   0.743
 3147SOL    HW210341   3.274   5.131   0.800
 3148SOL     OW10342   6.507   0.025   3.364
 3148SOL    HW110343   6.554   0.068   3.441
 3148SOL    HW210344   6.550   0.053   3.278
 3149SOL     OW10345   3.369   0.702   5.683
 3149SOL    HW110346   3.445   0.708   5.748
 3149SOL    HW210347   3.363   0.787   5.631
 3150SOL     OW10348   6.591   5.766   5.281
 3150SOL    HW110349   6.654   5.812   5.344
 3150SOL    HW210350   6.633   5.682   5.249
 3151SOL     OW10351   0.538   0.728   4.756
 3151SOL    HW110352   0.597   0.658   4.717
 3151SOL    HW210353   0.486   0.690   4.832
 3152SOL     OW10354   0.560   5.423   1.051
 3152SOL    HW110355   0.518   5.354   0.993
 3152SOL    HW210356   0.610   5.379   1.126
 3153SOL     OW10357   6.309   5.555   0.822
 3153SOL    HW110358   6.382   5.489   0.805
 3153SOL    HW210359   6.261   5.574   0.736
 3154SOL     OW10360   0.242   1.911   6.279
 3154SOL    HW110361   0.333   1.946   6.301
 3154SOL    HW210362   0.251   1.828   6.223
 3155SOL     OW10363   6.598   4.445   0.513
 3155SOL    HW110364   6.635   4.394   0.591
 3155SOL    HW210365   6.498   4.443   0.517
 3156SOL     OW10366   3.567   2.855   2.625
 3156SOL    HW110367   3.613   2.907   2.553
 3156SOL    HW210368   3.596   2.759   2.621
 3157SOL     OW10369   2.412   1.770   5.270
 3157SOL    HW110370   2.498   1.788   5.222
 3157SOL    HW210371   2.351   1.848   5.259
 3158SOL     OW10372   3.417   1.784   3.670
 3158SOL    HW110373   3.409   1.740   3.760
 3158SOL    HW210374   3.465   1.722   3.607
 3159SOL     OW10375   5.734   1.042   0.142
 3159SOL    HW110376   5.651   0.993   0.117
 3159SOL    HW210377   5.774   1.000   0.224
 3160SOL     OW10378   0.521   5.967   5.826
 3160SOL    HW110379   0.503   5.869   5.815
 3160SOL    HW210380   0.613   5.987   5.793
 3161SOL     OW10381   2.208   2.821   2.833
 3161SOL    HW110382   2.180   2.885   2.905
 3161SOL    HW210383   2.259   2.870   2.763
 3162SOL     OW10384   1.298   5.700   1.380
 3162SOL    HW110385   1.206   5.729   1.352
 3162SOL    HW210386   1.298   5.680   1.478
 3163SOL     OW10387   4.577   3.342   6.807
 3163SOL    HW110388   4.500   3.295   6.850
 3163SOL    HW210389   4.543   3.402   6.734
 3164SOL     OW10390   3.984   5.469   1.066
 3164SOL    HW110391   3.894   5.470   1.109
 3164SOL    HW210392   3.989   5.393   1.000
 3165SOL     OW10393   1.010   6.612   1.203
 3165SOL    HW110394   1.084   6.619   1.137
 3165SOL    HW210395   0.979   6.517   1.208
 3166SOL     OW10396   3.918   1.411   3.895
 3166SOL    HW110397   3.996   1.359   3.927
 3166SOL    HW210398   3.834   1.357   3.907
 3167SOL     OW10399   6.534   4.661   0.676
 3167SOL    HW110400   6.588   4.606   0.612
 3167SOL    HW210401   6.542   4.758   0.651
 3168SOL     OW10402   4.844   3.144   0.401
 3168SOL    HW110403   4.745   3.142   0.411
 3168SOL    HW210404   4.883   3.059   0.436
 3169SOL     OW10405   2.096   3.992   4.489
 3169SOL    HW110406   2.069   4.038   4.574
 3169SOL    HW210407   2.145   3.908   4.511
 3170SOL     OW10408   3.971   5.922   1.570
 3170SOL    HW110409   3.897   5.881   1.622
 3170SOL    HW210410   4.031   5.974   1.631
 3171SOL     OW10411   6.816   1.168   2.477
 3171SOL    HW110412   6.756   1.088   2.472
 3171SOL    HW210413   6.770   1.247   2.435
 3172SOL     OW10414   0.102   5.986   0.238
 3172SOL    HW110415   0.031   6.049   0.205
 3172SOL    HW210416   0.134   5.928   0.163
 3173SOL     OW10417   3.179   2.068   0.260
 3173SOL    HW110418   3.199   2.054   0.357
 3173SOL    HW210419   3.105   2.135   0.251
 3174SOL     OW10420   3.024   2.288   0.255
 3174SOL    HW110421   2.937   2.303   0.302
 3174SOL    HW210422   3.024   2.338   0.169
 3175SOL     OW10423   5.846   0.840   1.584
 3175SOL    HW110424   5.806   0.929   1.563
 3175SOL    HW210425   5.872   0.794   1.499
 3176SOL     OW10426   1.935   4.063   5.914
 3176SOL    HW110427   1.968   4.010   5.835
 3176SOL    HW210428   1.835   4.063   5.915
 3177SOL     OW10429   4.790   3.994   3.671
 3177SOL    HW110430   4.812   3.923   3.738
 3177SOL    HW210431   4.778   3.952   3.581
 3178SOL     OW10432   6.725   2.162   0.567
 3178SOL    HW110433   6.647   2.181   0.507
 3178SOL    HW210434   6.700   2.183   0.662
 3179SOL     OW10435   0.786   2.758   2.351
 3179SOL    HW110436   0.858   2.709   2.399
 3179SOL    HW210437   0.821   2.794   2.265
 3180SOL     OW10438   5.724   0.826   6.473
 3180SOL    HW110439   5.638   0.779   6.491
 3180SOL    HW210440   5.778   0.772   6.407
 3181SOL     OW10441   0.265   2.004   3.072
 3181SOL    HW110442   0.225   2.080   3.022
 3181SOL    HW210443   0.346   2.036   3.122
 3182SOL     OW10444   2.556   0.324   6.491
 3182SOL    HW110445   2.540   0.419   6.518
 3182SOL    HW210446   2.469   0.282   6.466
 3183SOL     OW10447   5.112   4.009   1.866
 3183SOL    HW110448   5.187   3.961   1.913
 3183SOL    HW210449   5.025   3.980   1.903
 3184SOL     OW10450   0.679   3.133   2.904
 3184SOL    HW110451   0.763   3.167   2.948
 3184SOL    HW210452   0.604   3.136   2.970
 3185SOL     OW10453   5.175   5.726   6.881
 3185SOL    HW110454   5.165   5.632   6.849
 3185SOL    HW210455   5.151   5.789   6.807
 3186SOL     OW10456   3.012   2.120   1.409
 3186SOL    HW110457   3.030   2.032   1.365
 3186SOL    HW210458   3.090   2.146   1.465
 3187SOL     OW10459   4.430   4.422   0.426
 3187SOL    HW110460   4.368   4.345   0.435
 3187SOL    HW210461   4.401   4.496   0.487
 3188SOL     OW10462   1.184   0.126   4.291
 3188SOL    HW110463   1.193   0.115   4.192
 3188SOL    HW210464   1.100   0.081   4.322
 3189SOL     OW10465   1.279   1.681   1.289
 3189SOL    HW110466   1.349   1.667   1.359
 3189SOL    HW210467   1.294   1.619   1.213
 3190SOL     OW10468   0.922   5.472   6.855
 3190SOL    HW110469   0.962   5.387   6.819
 3190SOL    HW210470   0.945   5.547   6.793
 3191SOL     OW10471   4.863   5.812   0.915
 3191SOL    HW110472   4.826   5.903   0.899
 3191SOL    HW210473   4.934   5.817   0.986
 3192SOL     OW10474   0.375   3.032   1.466
 3192SOL    HW110475   0.304   3.088   1.508
 3192SOL    HW210476   0.381   3.052   1.369
 3193SOL     OW10477   4.138   1.449   6.675
 3193SOL    HW110478   4.083   1.383   6.727
 3193SOL    HW210479   4.092   1.470   6.589
 3194SOL     OW10480   1.383   1.835   6.813
 3194SOL    HW110481   1.286   1.827   6.834
 3194SOL    HW210482   1.411   1.758   6.755
 3195SOL     OW10483   2.814   1.382   3.425
 3195SOL    HW110484   2.840   1.303   3.482
 3195SOL    HW210485   2.893   1.408   3.369
 3196SOL     OW10486   0.257   0.413   6.375
 3196SOL    HW110487   0.238   0.505   6.341
 3196SOL    HW210488   0.349   0.412   6.415
 3197SOL     OW10489   2.959   6.798   3.717
 3197SOL    HW110490   2.942   6.843   3.629
 3197SOL    HW210491   2.880   6.741   3.741
 3198SOL     OW10492   6.174   2.798   4.400
 3198SOL    HW110493   6.255   2.748   4.372
 3198SOL    HW210494   6.168   2.798   4.500
 3199SOL     OW10495   5.025   3.939   2.730
 3199SOL    HW110496   4.966   3.878   2.782
 3199SOL    HW210497   5.109   3.956   2.782
 3200SOL     OW10498   6.405   3.326   2.533
 3200SOL    HW110499   6.312   3.354   2.509
 3200SOL    HW210500   6.401   3.244   2.589
 3201SOL     OW10501   6.177   5.034   4.337
 3201SOL    HW110502   6.144   5.125   4.360
 3201SOL    HW210503   6.217   5.036   4.245
 3202SOL     OW10504   0.465   4.700   1.712
 3202SOL    HW110505   0.480   4.659   1.801
 3202SOL    HW210506   0.548   4.694   1.657
 3203SOL     OW10507   6.878   2.278   0.362
 3203SOL    HW110508   6.975   2.254   0.358
 3203SOL    HW210509   6.836   2.234   0.440
 3204SOL     OW10510   4.295   6.447   3.586
 3204SOL    HW110511   4.297   6.518   3.656
 3204SOL    HW210512   4.270   6.488   3.498
 3205SOL     OW10513   6.003   2.835   5.883
 3205SOL    HW110514   5.943   2.822   5.961
 3205SOL    HW210515   6.045   2.748   5.858
 3206SOL     OW10516   1.943   5.019   6.860
 3206SOL    HW110517   1.893   5.004   6.945
 3206SOL    HW210518   1.905   4.962   6.788
 3207SOL     OW10519   0.709   1.504   5.972
 3207SOL    HW110520   0.766   1.425   5.995
 3207SOL    HW210521   0.637   1.476   5.909
 3208SOL     OW10522   5.090   6.140   6.014
 3208SOL    HW110523   5.065   6.044   6.010
 3208SOL    HW210524   5.166   6.152   6.078
 3209SOL     OW10525   4.343   5.706   3.313
 3209SOL    HW110526   4.313   5.611   3.323
 3209SOL    HW210527   4.310   5.760   3.390
 3210SOL     OW10528   0.843   4.547   1.102
 3210SOL    HW110529   0.853   4.587   1.194
 3210SOL    HW210530   0.746   4.544   1.078
 3211SOL     OW10531   2.127   3.870   0.781
 3211SOL    HW110532   2.080   3.796   0.828
 3211SOL    HW210533   2.070   3.952   0.783
 3212SOL     OW10534   3.044   6.957   1.327
 3212SOL    HW110535   3.071   6.996   1.238
 3212SOL    HW210536   3.106   6.990   1.398
 3213SOL     OW10537   0.864   6.961   0.722
 3213SOL    HW110538   0.817   0.022   0.754
 3213SOL    HW210539   0.799   6.886   0.715
 3214SOL     OW10540   4.358   5.742   0.363
 3214SOL    HW110541   4.365   5.645   0.342
 3214SOL    HW210542   4.437   5.770   0.418
 3215SOL     OW10543   6.957   2.956   1.218
 3215SOL    HW110544   6.968   3.014   1.137
 3215SOL    HW210545   7.018   2.877   1.211
 3216SOL     OW10546   6.647   5.122   0.204
 3216SOL    HW110547   6.660   5.205   0.259
 3216SOL    HW210548   6.673   5.043   0.259
 3217SOL     OW10549   6.796   5.309   2.334
 3217SOL    HW110550   6.871   5.363   2.373
 3217SOL    HW210551   6.726   5.371   2.299
 3218SOL     OW10552   4.348   1.678   3.611
 3218SOL    HW110553   4.447   1.683   3.602
 3218SOL    HW210554   4.308   1.642   3.527
 3219SOL     OW10555   0.362   2.078   3.530
 3219SOL    HW110556   0.406   1.991   3.506
 3219SOL    HW210557   0.384   2.146   3.461
 3220SOL     OW10558   0.007   5.395   6.942
 3220SOL    HW110559   6.998   5.317   6.886
 3220SOL    HW210560   0.026   5.473   6.882
 3221SOL     OW10561   4.284   0.626   1.239
 3221SOL    HW110562   4.224   0.673   1.175
 3221SOL    HW210563   4.252   0.641   1.332
 3222SOL     OW10564   3.592   1.342   2.371
 3222SOL    HW110565   3.557   1.436   2.366
 3222SOL    HW210566   3.641   1.320   2.286
 3223SOL     OW10567   2.000   6.534   6.167
 3223SOL    HW110568   2.065   6.490   6.228
 3223SOL    HW210569   2.038   6.621   6.135
 3224SOL     OW10570   4.155   3.749   5.633
 3224SOL    HW110571   4.199   3.765   5.544
 3224SOL    HW210572   4.144   3.836   5.680
 3225SOL     OW10573   5.452   2.769   6.233
 3225SOL    HW110574   5.468   2.850   6.177
 3225SOL    HW210575   5.398   2.795   6.314
 3226SOL     OW10576   2.291   1.449   2.989
 3226SOL    HW110577   2.390   1.435   2.996
 3226SOL    HW210578   2.272   1.512   2.915
 3227SOL     OW10579   3.491   2.326   0.156
 3227SOL    HW110580   3.407   2.346   0.205
 3227SOL    HW210581   3.563   2.302   0.221
 3228SOL     OW10582   0.299   4.003   2.374
 3228SOL    HW110583   0.279   4.066   2.299
 3228SOL    HW210584   0.214   3.983   2.424
 3229SOL     OW10585   4.147   0.471   4.764
 3229SOL    HW110586   4.107   0.466   4.855
 3229SOL    HW210587   4.229   0.413   4.760
 3230SOL     OW10588   2.455   3.847   5.455
 3230SOL    HW110589   2.467   3.936   5.411
 3230SOL    HW210590   2.511   3.779   5.409
 3231SOL     OW10591   3.047   0.624   1.238
 3231SOL    HW110592   2.972   0.690   1.237
 3231SOL    HW210593   3.028   0.552   1.171
 3232SOL     OW10594   4.957   5.932   4.975
 3232SOL    HW110595   4.992   6.017   4.935
 3232SOL    HW210596   4.970   5.934   5.074
 3233SOL     OW10597   0.741   2.431   1.791
 3233SOL    HW110598   0.693   2.432   1.879
 3233SOL    HW210599   0.704   2.502   1.732
 3234SOL     OW10600   0.321   1.945   0.046
 3234SOL    HW110601   0.233   1.911   0.013
 3234SOL    HW210602   0.310   1.983   0.137
 3235SOL     OW10603   5.596   0.374   2.547
 3235SOL    HW110604   5.639   0.463   2.563
 3235SOL    HW210605   5.497   0.384   2.549
 3236SOL     OW10606   1.521   3.338   0.524
 3236SOL    HW110607   1.517   3.238   0.523
 3236SOL    HW210608   1.462   3.374   0.452
 3237SOL     OW10609   5.237   1.229   3.883
 3237SOL    HW110610   5.263   1.250   3.977
 3237SOL    HW210611   5.316   1.243   3.823
 3238SOL     OW10612   6.986   5.842   0.915
 3238SOL    HW110613   6.993   5.907   0.838
 3238SOL    HW210614   6.890   5.819   0.930
 3239SOL     OW10615   6.602   1.613   2.504
 3239SOL    HW110616   6.597   1.710   2.525
 3239SOL    HW210617   6.685   1.594   2.452
 3240SOL     OW10618   0.097   6.826   6.543
 3240SOL    HW110619   0.142   6.915   6.535
 3240SOL    HW210620   0.095   6.782   6.453
 3241SOL     OW10621   4.295   1.354   4.883
 3241SOL    HW110622   4.279   1.268   4.933
 3241SOL    HW210623   4.323   1.332   4.789
 3242SOL     OW10624   4.067   3.791   0.078
 3242SOL    HW110625   4.080   3.875   0.024
 3242SOL    HW210626   3.991   3.739   0.041
 3243SOL     OW10627   4.384   4.162   0.638
 3243SOL    HW110628   4.334   4.246   0.618
 3243SOL    HW210629   4.400   4.111   0.554
 3244SOL     OW10630   4.621   5.559   6.986
 3244SOL    HW110631   4.658   5.596   6.900
 3244SOL    HW210632   4.570   5.630   0.012
 3245SOL     OW10633   5.271   3.232   5.427
 3245SOL    HW110634   5.230   3.315   5.392
 3245SOL    HW210635   5.245   3.155   5.369
 3246SOL     OW10636   5.695   0.179   2.398
 3246SOL    HW110637   5.671   0.237   2.476
 3246SOL    HW210638   5.748   0.100   2.430
 3247SOL     OW10639   6.026   4.790   2.703
 3247SOL    HW110640   6.047   4.745   2.790
 3247SOL    HW210641   5.939   4.755   2.667
 3248SOL     OW10642   6.491   3.629   1.250
 3248SOL    HW110643   6.471   3.596   1.343
 3248SOL    HW210644   6.564   3.697   1.254
 3249SOL     OW10645   3.995   3.119   4.267
 3249SOL    HW110646   3.927   3.083   4.331
 3249SOL    HW210647   4.074   3.154   4.318
 3250SOL     OW10648   5.528   0.143   1.930
 3250SOL    HW110649   5.453   0.204   1.903
 3250SOL    HW210650   5.532   0.138   2.030
 3251SOL     OW10651   3.364   0.794   3.492
 3251SOL    HW110652   3.361   0.887   3.457
 3251SOL    HW210653   3.385   0.731   3.417
 3252SOL     OW10654   2.412   1.106   2.895
 3252SOL    HW110655   2.427   1.173   2.968
 3252SOL    HW210656   2.314   1.093   2.881
 3253SOL     OW10657   4.990   4.321   1.895
 3253SOL    HW110658   5.087   4.298   1.884
 3253SOL    HW210659   4.963   4.387   1.825
 3254SOL     OW10660   4.765   5.690   5.801
 3254SOL    HW110661   4.759   5.638   5.886
 3254SOL    HW210662   4.749   5.628   5.723
 3255SOL     OW10663   5.633   6.342   0.110
 3255SOL    HW110664   5.629   6.441   0.126
 3255SOL    HW210665   5.540   6.308   0.094
 3256SOL     OW10666   3.147   0.945   0.467
 3256SOL    HW110667   3.059   0.900   0.453
 3256SOL    HW210668   3.177   0.987   0.381
 3257SOL     OW10669   1.528   1.864   2.049
 3257SOL    HW110670   1.526   1.870   1.949
 3257SOL    HW210671   1.618   1.830   2.078
 3258SOL     OW10672   4.511   4.862   2.266
 3258SOL    HW110673   4.551   4.827   2.351
 3258SOL    HW210674   4.473   4.953   2.282
 3259SOL     OW10675   5.098   5.231   4.180
 3259SOL    HW110676   5.081   5.314   4.233
 3259SOL    HW210677   5.173   5.248   4.115
 3260SOL     OW10678   1.032   1.771   1.231
 3260SOL    HW110679   0.971   1.745   1.306
 3260SOL    HW210680   1.125   1.737   1.250
 3261SOL     OW10681   5.783   0.711   1.107
 3261SOL    HW110682   5.689   0.742   1.115
 3261SOL    HW210683   5.785   0.612   1.090
 3262SOL     OW10684   3.127   1.706   2.787
 3262SOL    HW110685   3.127   1.648   2.705
 3262SOL    HW210686   3.051   1.771   2.782
 3263SOL     OW10687   2.414   0.672   3.511
 3263SOL    HW110688   2.339   0.694   3.449
 3263SOL    HW210689   2.376   0.636   3.597
 3264SOL     OW10690   1.068   3.977   0.643
 3264SOL    HW110691   1.104   3.928   0.723
 3264SOL    HW210692   1.016   4.056   0.673
 3265SOL     OW10693   5.869   0.698   6.265
 3265SOL    HW110694   5.777   0.670   6.237
 3265SOL    HW210695   5.903   0.769   6.204
 3266SOL     OW10696   1.811   3.892   0.502
 3266SOL    HW110697   1.861   3.964   0.454
 3266SOL    HW210698   1.758   3.932   0.577
 3267SOL     OW10699   3.353   6.856   0.772
 3267SOL    HW110700   3.391   6.785   0.831
 3267SOL    HW210701   3.260   6.876   0.800
 3268SOL     OW10702   1.190   3.536   1.444
 3268SOL    HW110703   1.190   3.458   1.382
 3268SOL    HW210704   1.168   3.619   1.393
 3269SOL     OW10705   4.937   5.657   2.071
 3269SOL    HW110706   4.909   5.591   2.140
 3269SOL    HW210707   4.860   5.716   2.048
 3270SOL     OW10708   1.179   4.427   6.222
 3270SOL    HW110709   1.118   4.348   6.232
 3270SOL    HW210710   1.270   4.396   6.195
 3271SOL     OW10711   5.658   3.766   2.920
 3271SOL    HW110712   5.646   3.667   2.912
 3271SOL    HW210713   5.617   3.798   3.005
 3272SOL     OW10714   3.674   4.655   6.151
 3272SOL    HW110715   3.754   4.614   6.108
 3272SOL    HW210716   3.691   4.751   6.170
 3273SOL     OW10717   0.263   6.528   0.875
 3273SOL    HW110718   0.361   6.519   0.890
 3273SOL    HW210719   0.239   6.495   0.784
 3274SOL     OW10720   5.147   0.837   0.772
 3274SOL    HW110721   5.106   0.921   0.736
 3274SOL    HW210722   5.164   0.847   0.870
 3275SOL     OW10723   6.455   1.887   6.546
 3275SOL    HW110724   6.549   1.875   6.579
 3275SOL    HW210725   6.445   1.844   6.457
 3276SOL     OW10726   2.742   5.601   0.427
 3276SOL    HW110727   2.686   5.562   0.354
 3276SOL    HW210728   2.751   5.534   0.501
 3277SOL     OW10729   3.813   0.176   6.590
 3277SOL    HW110730   3.726   0.141   6.553
 3277SOL    HW210731   3.794   0.251   6.653
 3278SOL     OW10732   0.804   1.163   5.487
 3278SOL    HW110733   0.749   1.091   5.530
 3278SOL    HW210734   0.804   1.149   5.387
 3279SOL     OW10735   5.370   0.501   0.046
 3279SOL    HW110736   5.382   0.401   0.041
 3279SOL    HW210737   5.430   0.544   7.000
 3280SOL     OW10738   3.858   5.048   4.568
 3280SOL    HW110739   3.773   5.031   4.519
 3280SOL    HW210740   3.847   5.126   4.629
 3281SOL     OW10741   2.086   5.444   1.937
 3281SOL    HW110742   2.161   5.465   1.874
 3281SOL    HW210743   2.124   5.423   2.027
 3282SOL     OW10744   0.256   4.726   5.665
 3282SOL    HW110745   0.310   4.751   5.746
 3282SOL    HW210746   0.161   4.753   5.679
 3283SOL     OW10747   3.576   0.582   0.865
 3283SOL    HW110748   3.651   0.584   0.931
 3283SOL    HW210749   3.601   0.524   0.787
 3284SOL     OW10750   0.179   5.387   0.127
 3284SOL    HW110751   0.125   5.437   0.195
 3284SOL    HW210752   0.128   5.382   0.041
 3285SOL     OW10753   4.599   2.630   3.468
 3285SOL    HW110754   4.666   2.702   3.453
 3285SOL    HW210755   4.553   2.609   3.382
 3286SOL     OW10756   3.618   3.324   2.730
 3286SOL    HW110757   3.691   3.272   2.775
 3286SOL    HW210758   3.659   3.390   2.666
 3287SOL     OW10759   0.441   0.608   6.986
 3287SOL    HW110760   0.472   0.540   6.919
 3287SOL    HW210761   0.460   0.575   0.057
 3288SOL     OW10762   0.855   5.762   5.888
 3288SOL    HW110763   0.811   5.761   5.978
 3288SOL    HW210764   0.848   5.853   5.848
 3289SOL     OW10765   2.765   0.130   5.638
 3289SOL    HW110766   2.735   0.213   5.590
 3289SOL    HW210767   2.838   0.086   5.586
 3290SOL     OW10768   0.195   6.941   2.050
 3290SOL    HW110769   0.232   6.939   1.957
 3290SOL    HW210770   0.097   6.964   2.046
 3291SOL     OW10771   1.483   6.929   0.811
 3291SOL    HW110772   1.416   7.002   0.824
 3291SOL    HW210773   1.562   6.965   0.761
 3292SOL     OW10774   0.398   1.298   0.377
 3292SOL    HW110775   0.315   1.325   0.329
 3292SOL    HW210776   0.405   1.198   0.378
 3293SOL     OW10777   0.148   3.510   2.288
 3293SOL    HW110778   0.058   3.468   2.295
 3293SOL    HW210779   0.206   3.477   2.362
 3294SOL     OW10780   6.011   1.786   6.790
 3294SOL    HW110781   6.031   1.705   6.846
 3294SOL    HW210782   5.933   1.766   6.731
 3295SOL     OW10783   1.560   3.058   2.192
 3295SOL    HW110784   1.654   3.043   2.162
 3295SOL    HW210785   1.515   2.969   2.205
 3296SOL     OW10786   1.498   0.178   2.436
 3296SOL    HW110787   1.525   0.091   2.478
 3296SOL    HW210788   1.503   0.251   2.504
 3297SOL     OW10789   2.786   0.614   4.643
 3297SOL    HW110790   2.706   0.556   4.657
 3297SOL    HW210791   2.857   0.561   4.595
 3298SOL     OW10792   5.886   2.026   5.054
 3298SOL    HW110793   5.950   2.031   4.977
 3298SOL    HW210794   5.832   2.110   5.058
 3299SOL     OW10795   2.841   5.787   2.866
 3299SOL    HW110796   2.742   5.786   2.880
 3299SOL    HW210797   2.885   5.830   2.945
 3300SOL     OW10798   6.369   0.568   5.521
 3300SOL    HW110799   6.455   0.593   5.476
 3300SOL    HW210800   6.361   0.468   5.526
 3301SOL     OW10801   1.951   3.028   3.449
 3301SOL    HW110802   1.893   3.109   3.459
 3301SOL    HW210803   1.908   2.951   3.496
 3302SOL     OW10804   0.141   4.985   5.448
 3302SOL    HW110805   0.098   4.997   5.538
 3302SOL    HW210806   0.163   5.075   5.410
 3303SOL     OW10807   3.515   3.434   1.507
 3303SOL    HW110808   3.458   3.400   1.582
 3303SOL    HW210809   3.543   3.528   1.527
 3304SOL     OW10810   0.817   5.837   3.880
 3304SOL    HW110811   0.723   5.839   3.845
 3304SOL    HW210812   0.824   5.898   3.959
 3305SOL     OW10813   2.360   1.121   2.291
 3305SOL    HW110814   2.278   1.140   2.345
 3305SOL    HW210815   2.407   1.207   2.270
 3306SOL     OW10816   2.053   5.662   5.197
 3306SOL    HW110817   1.968   5.686   5.151
 3306SOL    HW210818   2.045   5.685   5.294
 3307SOL     OW10819   0.456   5.309   6.804
 3307SOL    HW110820   0.415   5.381   6.861
 3307SOL    HW210821   0.523   5.350   6.743
 3308SOL     OW10822   2.934   5.957   0.894
 3308SOL    HW110823   3.009   5.924   0.838
 3308SOL    HW210824   2.847   5.922   0.857
 3309SOL     OW10825   0.348   6.013   2.744
 3309SOL    HW110826   0.319   6.057   2.829
 3309SOL    HW210827   0.408   5.936   2.765
 3310SOL     OW10828   6.896   3.297   6.360
 3310SOL    HW110829   6.987   3.327   6.388
 3310SOL    HW210830   6.862   3.229   6.425
 3311SOL     OW10831   2.326   4.140   1.521
 3311SOL    HW110832   2.287   4.203   1.454
 3311SOL    HW210833   2.403   4.184   1.567
 3312SOL     OW10834   4.093   4.453   5.583
 3312SOL    HW110835   4.135   4.393   5.652
 3312SOL    HW210836   4.035   4.521   5.629
 3313SOL     OW10837   1.154   5.261   3.626
 3313SOL    HW110838   1.206   5.286   3.545
 3313SOL    HW210839   1.217   5.238   3.700
 3314SOL     OW10840   2.624   1.214   3.194
 3314SOL    HW110841   2.707   1.242   3.242
 3314SOL    HW210842   2.639   1.126   3.150
 3315SOL     OW10843   6.608   3.862   4.670
 3315SOL    HW110844   6.529   3.822   4.717
 3315SOL    HW210845   6.652   3.793   4.613
 3316SOL     OW10846   5.109   1.533   6.014
 3316SOL    HW110847   5.057   1.533   5.928
 3316SOL    HW210848   5.046   1.545   6.091
 3317SOL     OW10849   4.440   3.193   1.624
 3317SOL    HW110850   4.350   3.152   1.641
 3317SOL    HW210851   4.506   3.156   1.689
 3318SOL     OW10852   2.031   1.127   1.070
 3318SOL    HW110853   2.066   1.043   1.112
 3318SOL    HW210854   2.080   1.143   0.984
 3319SOL     OW10855   7.010   0.984   3.859
 3319SOL    HW110856   0.036   1.067   3.887
 3319SOL    HW210857   7.018   0.973   3.760
 3320SOL     OW10858   6.002   0.014   4.983
 3320SOL    HW110859   6.086   6.998   5.022
 3320SOL    HW210860   6.024   0.070   4.902
 3321SOL     OW10861   4.690   1.777   0.188
 3321SOL    HW110862   4.728   1.722   0.113
 3321SOL    HW210863   4.591   1.782   0.179
 3322SOL     OW10864   6.124   3.159   0.890
 3322SOL    HW110865   6.148   3.254   0.871
 3322SOL    HW210866   6.177   3.125   0.967
 3323SOL     OW10867   2.686   3.154   0.779
 3323SOL    HW110868   2.703   3.057   0.767
 3323SOL    HW210869   2.641   3.190   0.697
 3324SOL     OW10870   3.227   5.597   0.039
 3324SOL    HW110871   3.272   5.614   0.126
 3324SOL    HW210872   3.281   5.637   6.986
 3325SOL     OW10873   0.849   3.000   0.331
 3325SOL    HW110874   0.766   3.018   0.279
 3325SOL    HW210875   0.924   2.981   0.268
 3326SOL     OW10876   4.834   2.232   1.543
 3326SOL    HW110877   4.835   2.328   1.569
 3326SOL    HW210878   4.852   2.223   1.445
 3327SOL     OW10879   2.901   6.222   2.073
 3327SOL    HW110880   2.935   6.313   2.051
 3327SOL    HW210881   2.812   6.208   2.030
 3328SOL     OW10882   4.060   2.071   0.311
 3328SOL    HW110883   3.990   2.053   0.243
 3328SOL    HW210884   4.020   2.117   0.390
 3329SOL     OW10885   4.787   0.287   4.685
 3329SOL    HW110886   4.692   0.262   4.669
 3329SOL    HW210887   4.847   0.212   4.656
 3330SOL     OW10888   6.219   4.817   1.452
 3330SOL    HW110889   6.176   4.860   1.372
 3330SOL    HW210890   6.252   4.726   1.427
 3331SOL     OW10891   1.745   3.142   1.428
 3331SOL    HW110892   1.688   3.109   1.503
 3331SOL    HW210893   1.838   3.107   1.439
 3332SOL     OW10894   6.381   4.784   0.204
 3332SOL    HW110895   6.378   4.880   0.175
 3332SOL    HW210896   6.296   4.761   0.251
 3333SOL     OW10897   3.981   4.187   6.715
 3333SOL    HW110898   3.956   4.278   6.749
 3333SOL    HW210899   4.072   4.191   6.674
 3334SOL     OW10900   2.860   3.453   1.244
 3334SOL    HW110901   2.789   3.482   1.307
 3334SOL    HW210902   2.865   3.353   1.244
 3335SOL     OW10903   5.014   6.665   5.391
 3335SOL    HW110904   4.966   6.640   5.475
 3335SOL    HW210905   5.106   6.698   5.414
 3336SOL     OW10906   1.865   6.503   4.711
 3336SOL    HW110907   1.867   6.578   4.777
 3336SOL    HW210908   1.802   6.432   4.744
 3337SOL     OW10909   3.052   4.034   2.214
 3337SOL    HW110910   2.995   4.117   2.210
 3337SOL    HW210911   3.017   3.974   2.286
 3338SOL     OW10912   5.444   3.423   2.443
 3338SOL    HW110913   5.520   3.383   2.392
 3338SOL    HW210914   5.396   3.351   2.493
 3339SOL     OW10915   6.942   0.534   6.910
 3339SOL    HW110916   6.980   0.576   6.828
 3339SOL    HW210917   6.897   0.448   6.886
 3340SOL     OW10918   3.939   1.665   2.742
 3340SOL    HW110919   3.858   1.686   2.796
 3340SOL    HW210920   4.020   1.664   2.800
 3341SOL     OW10921   1.494   5.552   3.435
 3341SOL    HW110922   1.559   5.598   3.496
 3341SOL    HW210923   1.425   5.617   3.405
 3342SOL     OW10924   1.987   6.715   4.065
 3342SOL    HW110925   2.012   6.793   4.123
 3342SOL    HW210926   1.983   6.745   3.970
 3343SOL     OW10927   5.716   3.240   0.484
 3343SOL    HW110928   5.649   3.286   0.426
 3343SOL    HW210929   5.797   3.298   0.493
 3344SOL     OW10930   5.703   3.219   4.090
 3344SOL    HW110931   5.789   3.242   4.136
 3344SOL    HW210932   5.709   3.128   4.051
 3345SOL     OW10933   1.659   3.106   5.818
 3345SOL    HW110934   1.667   3.045   5.739
 3345SOL    HW210935   1.685   3.199   5.791
 3346SOL     OW10936   1.838   0.603   0.726
 3346SOL    HW110937   1.815   0.652   0.641
 3346SOL    HW210938   1.754   0.577   0.773
 3347SOL     OW10939   0.814   4.005   5.781
 3347SOL    HW110940   0.741   3.959   5.831
 3347SOL    HW210941   0.848   3.945   5.708
 3348SOL     OW10942   3.719   3.800   4.281
 3348SOL    HW110943   3.740   3.881   4.227
 3348SOL    HW210944   3.655   3.742   4.231
 3349SOL     OW10945   1.040   5.587   2.983
 3349SOL    HW110946   1.103   5.552   2.914
 3349SOL    HW210947   1.049   5.535   3.068
 3350SOL     OW10948   0.746   2.804   6.027
 3350SOL    HW110949   0.789   2.729   6.077
 3350SOL    HW210950   0.758   2.890   6.078
 3351SOL     OW10951   4.779   1.485   2.023
 3351SOL    HW110952   4.686   1.460   2.046
 3351SOL    HW210953   4.842   1.444   2.089
 3352SOL     OW10954   0.202   2.437   0.412
 3352SOL    HW110955   0.172   2.508   0.349
 3352SOL    HW210956   0.185   2.347   0.371
 3353SOL     OW10957   2.412   5.656   1.695
 3353SOL    HW110958   2.498   5.696   1.727
 3353SOL    HW210959   2.351   5.729   1.667
 3354SOL     OW10960   4.867   2.758   5.168
 3354SOL    HW110961   4.959   2.753   5.206
 3354SOL    HW210962   4.800   2.748   5.241
 3355SOL     OW10963   2.231   2.050   6.627
 3355SOL    HW110964   2.234   1.954   6.654
 3355SOL    HW210965   2.246   2.058   6.529
 3356SOL     OW10966   0.524   5.027   5.412
 3356SOL    HW110967   0.466   5.025   5.331
 3356SOL    HW210968   0.521   4.937   5.458
 3357SOL     OW10969   2.199   4.298   2.007
 3357SOL    HW110970   2.148   4.384   1.996
 3357SOL    HW210971   2.271   4.293   1.939
 3358SOL     OW10972   4.454   1.138   0.679
 3358SOL    HW110973   4.439   1.208   0.609
 3358SOL    HW210974   4.423   1.172   0.768
 3359SOL     OW10975   0.315   6.872   3.099
 3359SOL    HW110976   0.399   6.849   3.148
 3359SOL    HW210977   0.265   6.788   3.077
 3360SOL     OW10978   1.415   1.558   6.950
 3360SOL    HW110979   1.513   1.556   6.969
 3360SOL    HW210980   1.373   1.636   6.997
 3361SOL     OW10981   0.940   4.963   4.407
 3361SOL    HW110982   0.931   4.895   4.334
 3361SOL    HW210983   0.930   5.055   4.369
 3362SOL     OW10984   3.733   0.997   2.844
 3362SOL    HW110985   3.662   0.996   2.774
 3362SOL    HW210986   3.757   1.092   2.865
 3363SOL     OW10987   6.233   0.116   1.588
 3363SOL    HW110988   6.156   0.102   1.649
 3363SOL    HW210989   6.316   0.077   1.629
 3364SOL     OW10990   1.079   4.827   3.660
 3364SOL    HW110991   1.008   4.897   3.648
 3364SOL    HW210992   1.121   4.839   3.750
 3365SOL     OW10993   6.630   2.164   5.272
 3365SOL    HW110994   6.689   2.090   5.304
 3365SOL    HW210995   6.564   2.129   5.205
 3366SOL     OW10996   5.775   6.386   4.859
 3366SOL    HW110997   5.813   6.380   4.951
 3366SOL    HW210998   5.696   6.324   4.852
 3367SOL     OW10999   3.551   2.869   2.270
 3367SOL    HW111000   3.585   2.785   2.229
 3367SOL    HW211001   3.620   2.906   2.333
 3368SOL     OW11002   0.898   5.571   5.690
 3368SOL    HW111003   0.983   5.529   5.721
 3368SOL    HW211004   0.873   5.645   5.753
 3369SOL     OW11005   4.232   2.628   7.007
 3369SOL    HW111006   4.270   2.678   0.063
 3369SOL    HW211007   4.306   2.592   6.951
 3370SOL     OW11008   0.310   5.872   6.878
 3370SOL    HW111009   0.245   5.815   6.929
 3370SOL    HW211010   0.333   5.953   6.933
 3371SOL     OW11011   2.308   2.872   1.847
 3371SOL    HW111012   2.358   2.786   1.838
 3371SOL    HW211013   2.329   2.931   1.769
 3372SOL     OW11014   0.783   1.964   1.335
 3372SOL    HW111015   0.805   1.886   1.394
 3372SOL    HW211016   0.746   1.931   1.249
 3373SOL     OW11017   0.030   1.309   3.105
 3373SOL    HW111018   0.100   1.379   3.093
 3373SOL    HW211019   6.973   1.348   3.154
 3374SOL     OW11020   1.136   6.291   4.978
 3374SOL    HW111021   1.092   6.262   4.893
 3374SOL    HW211022   1.200   6.221   5.008
 3375SOL     OW11023   0.129   4.648   6.607
 3375SOL    HW111024   0.200   4.657   6.676
 3375SOL    HW211025   0.051   4.706   6.631
 3376SOL     OW11026   4.134   3.718   3.709
 3376SOL    HW111027   4.152   3.736   3.805
 3376SOL    HW211028   4.156   3.623   3.688
 3377SOL     OW11029   6.637   5.686   6.509
 3377SOL    HW111030   6.617   5.717   6.416
 3377SOL    HW211031   6.676   5.761   6.562
 3378SOL     OW11032   0.531   1.286   0.115
 3378SOL    HW111033   0.623   1.247   0.106
 3378SOL    HW211034   0.502   1.281   0.210
 3379SOL     OW11035   6.509   6.771   6.521
 3379SOL    HW111036   6.418   6.807   6.538
 3379SOL    HW211037   6.576   6.844   6.530
 3380SOL     OW11038   5.704   6.731   4.877
 3380SOL    HW111039   5.760   6.765   4.953
 3380SOL    HW211040   5.742   6.645   4.843
 3381SOL     OW11041   0.576   2.625   1.722
 3381SOL    HW111042   0.591   2.721   1.697
 3381SOL    HW211043   0.499   2.588   1.670
 3382SOL     OW11044   0.584   2.143   1.135
 3382SOL    HW111045   0.569   2.116   1.230
 3382SOL    HW211046   0.624   2.235   1.132
 3383SOL     OW11047   4.528   5.720   1.250
 3383SOL    HW111048   4.574   5.803   1.282
 3383SOL    HW211049   4.480   5.739   1.165
 3384SOL     OW11050   2.864   3.346   6.341
 3384SOL    HW111051   2.835   3.335   6.246
 3384SOL    HW211052   2.813   3.421   6.383
 3385SOL     OW11053   6.491   2.987   4.139
 3385SOL    HW111054   6.440   3.070   4.114
 3385SOL    HW211055   6.445   2.941   4.215
 3386SOL     OW11056   5.790   4.619   6.969
 3386SOL    HW111057   5.803   4.531   7.017
 3386SOL    HW211058   5.693   4.631   6.947
 3387SOL     OW11059   3.119   0.400   3.224
 3387SOL    HW111060   3.177   0.462   3.170
 3387SOL    HW211061   3.122   0.428   3.320
 3388SOL     OW11062   5.488   3.465   1.443
 3388SOL    HW111063   5.577   3.425   1.420
 3388SOL    HW211064   5.446   3.412   1.516
 3389SOL     OW11065   5.586   5.308   6.450
 3389SOL    HW111066   5.504   5.266   6.490
 3389SOL    HW211067   5.664   5.293   6.511
 3390SOL     OW11068   5.121   6.287   6.448
 3390SOL    HW111069   5.109   6.385   6.458
 3390SOL    HW211070   5.182   6.268   6.370
 3391SOL     OW11071   5.213   3.210   5.026
 3391SOL    HW111072   5.173   3.287   4.976
 3391SOL    HW211073   5.152   3.183   5.100
 3392SOL     OW11074   2.859   0.329   3.428
 3392SOL    HW111075   2.780   0.342   3.368
 3392SOL    HW211076   2.891   0.235   3.421
 3393SOL     OW11077   0.343   6.230   6.777
 3393SOL    HW111078   0.265   6.272   6.821
 3393SOL    HW211079   0.320   6.206   6.683
 3394SOL     OW11080   5.293   3.744   1.687
 3394SOL    HW111081   5.209   3.752   1.633
 3394SOL    HW211082   5.270   3.720   1.781
 3395SOL     OW11083   4.863   3.087   3.284
 3395SOL    HW111084   4.865   3.062   3.187
 3395SOL    HW211085   4.947   3.056   3.328
 3396SOL     OW11086   4.663   1.988   3.052
 3396SOL    HW111087   4.667   1.896   3.092
 3396SOL    HW211088   4.584   1.994   2.991
 3397SOL     OW11089   2.866   0.357   5.238
 3397SOL    HW111090   2.780   0.335   5.284
 3397SOL    HW211091   2.867   0.453   5.213
 3398SOL     OW11092   0.770   6.940   4.893
 3398SOL    HW111093   0.797   6.976   4.804
 3398SOL    HW211094   0.851   6.933   4.952
 3399SOL     OW11095   5.607   4.039   3.829
 3399SOL    HW111096   5.531   4.052   3.893
 3399SOL    HW211097   5.679   4.106   3.849
 3400SOL     OW11098   4.263   3.097   5.734
 3400SOL    HW111099   4.285   3.094   5.636
 3400SOL    HW211100   4.299   3.015   5.778
 3401SOL     OW11101   0.306   2.698   1.328
 3401SOL    HW111102   0.393   2.679   1.281
 3401SOL    HW211103   0.240   2.733   1.263
 3402SOL     OW11104   4.016   5.939   6.913
 3402SOL    HW111105   4.001   6.000   6.991
 3402SOL    HW211106   4.039   5.848   6.947
 3403SOL     OW11107   3.332   5.946   4.804
 3403SOL    HW111108   3.384   5.870   4.842
 3403SOL    HW211109   3.241   5.914   4.776
 3404SOL     OW11110   4.901   1.114   6.862
 3404SOL    HW111111   4.909   1.107   6.763
 3404SOL    HW211112   4.870   1.028   6.900
 3405SOL     OW11113   6.815   3.797   5.130
 3405SOL    HW111114   6.735   3.742   5.155
 3405SOL    HW211115   6.860   3.830   5.213
 3406SOL     OW11116   1.122   4.397   1.886
 3406SOL    HW111117   1.041   4.451   1.863
 3406SOL    HW211118   1.096   4.303   1.904
 3407SOL     OW11119   1.606   4.796   6.228
 3407SOL    HW111120   1.631   4.886   6.193
 3407SOL    HW211121   1.587   4.735   6.151
 3408SOL     OW11122   4.946   3.892   4.890
 3408SOL    HW111123   4.930   3.823   4.818
 3408SOL    HW211124   4.981   3.847   4.972
 3409SOL     OW11125   3.179   6.800   6.561
 3409SOL    HW111126   3.158   6.708   6.593
 3409SOL    HW211127   3.276   6.820   6.579
 3410SOL     OW11128   6.325   6.807   1.113
 3410SOL    HW111129   6.287   6.868   1.044
 3410SOL    HW211130   6.292   6.834   1.204
 3411SOL     OW11131   0.611   3.221   1.912
 3411SOL    HW111132   0.700   3.264   1.928
 3411SOL    HW211133   0.624   3.124   1.890
 3412SOL     OW11134   4.576   2.727   0.587
 3412SOL    HW111135   4.613   2.638   0.612
 3412SOL    HW211136   4.640   2.799   0.615
 3413SOL     OW11137   6.083   1.342   0.707
 3413SOL    HW111138   6.118   1.327   0.615
 3413SOL    HW211139   6.150   1.309   0.774
 3414SOL     OW11140   3.984   1.153   5.380
 3414SOL    HW111141   3.951   1.059   5.366
 3414SOL    HW211142   4.083   1.152   5.391
 3415SOL     OW11143   2.015   3.632   4.884
 3415SOL    HW111144   1.918   3.619   4.905
 3415SOL    HW211145   2.028   3.722   4.842
 3416SOL     OW11146   6.653   5.482   0.749
 3416SOL    HW111147   6.609   5.392   0.755
 3416SOL    HW211148   6.729   5.486   0.814
 3417SOL     OW11149   0.479   6.563   2.940
 3417SOL    HW111150   0.516   6.639   2.887
 3417SOL    HW211151   0.553   6.513   2.984
 3418SOL     OW11152   3.238   6.677   3.721
 3418SOL    HW111153   3.151   6.721   3.698
 3418SOL    HW211154   3.282   6.645   3.638
 3419SOL     OW11155   2.866   6.336   5.237
 3419SOL    HW111156   2.902   6.355   5.145
 3419SOL    HW211157   2.786   6.393   5.254
 3420SOL     OW11158   5.799   3.038   4.391
 3420SOL    HW111159   5.726   3.101   4.416
 3420SOL    HW211160   5.763   2.966   4.331
 3421SOL     OW11161   4.897   1.059   5.003
 3421SOL    HW111162   4.972   1.015   4.953
 3421SOL    HW211163   4.933   1.102   5.086
 3422SOL     OW11164   2.262   0.373   0.785
 3422SOL    HW111165   2.168   0.382   0.818
 3422SOL    HW211166   2.325   0.391   0.860
 3423SOL     OW11167   0.533   4.627   6.397
 3423SOL    HW111168   0.564   4.648   6.304
 3423SOL    HW211169   0.465   4.695   6.425
 3424SOL     OW11170   2.907   6.706   1.395
 3424SOL    HW111171   2.992   6.653   1.393
 3424SOL    HW211172   2.925   6.799   1.365
 3425SOL     OW11173   5.599   5.228   2.709
 3425SOL    HW111174   5.607   5.297   2.637
 3425SOL    HW211175   5.591   5.273   2.798
 3426SOL     OW11176   3.676   2.622   0.513
 3426SOL    HW111177   3.612   2.678   0.461
 3426SOL    HW211178   3.715   2.677   0.587
 3427SOL     OW11179   6.615   0.918   0.149
 3427SOL    HW111180   6.610   0.913   0.249
 3427SOL    HW211181   6.634   1.012   0.121
 3428SOL     OW11182   2.256   5.744   6.944
 3428SOL    HW111183   2.270   5.664   6.884
 3428SOL    HW211184   2.307   5.731   0.007
 3429SOL     OW11185   0.994   1.647   0.609
 3429SOL    HW111186   0.913   1.599   0.642
 3429SOL    HW211187   1.007   1.626   0.512
 3430SOL     OW11188   1.668   6.946   5.210
 3430SOL    HW111189   1.608   7.020   5.240
 3430SOL    HW211190   1.654   6.929   5.112
 3431SOL     OW11191   1.076   6.913   0.995
 3431SOL    HW111192   1.127   6.957   0.921
 3431SOL    HW211193   1.083   6.813   0.985
 3432SOL     OW11194   1.677   2.937   6.944
 3432SOL    HW111195   1.754   3.000   6.954
 3432SOL    HW211196   1.651   2.930   6.848
 3433SOL     OW11197   1.368   0.049   5.705
 3433SOL    HW111198   1.389   0.077   5.611
 3433SOL    HW211199   1.282   0.091   5.734
 3434SOL     OW11200   4.194   1.481   1.236
 3434SOL    HW111201   4.241   1.417   1.298
 3434SOL    HW211202   4.185   1.438   1.146
 3435SOL     OW11203   0.475   1.444   0.756
 3435SOL    HW111204   0.567   1.407   0.767
 3435SOL    HW211205   0.410   1.389   0.808
 3436SOL     OW11206   4.391   6.266   6.978
 3436SOL    HW111207   4.401   6.238   6.883
 3436SOL    HW211208   4.345   6.194   0.008
 3437SOL     OW11209   2.191   0.293   5.652
 3437SOL    HW111210   2.225   0.313   5.561
 3437SOL    HW211211   2.243   0.216   5.690
 3438SOL     OW11212   1.253   2.693   0.387
 3438SOL    HW111213   1.255   2.792   0.405
 3438SOL    HW211214   1.227   2.678   0.291
 3439SOL     OW11215   2.140   6.274   4.675
 3439SOL    HW111216   2.055   6.241   4.635
 3439SOL    HW211217   2.211   6.278   4.604
 3440SOL     OW11218   3.119   3.504   1.350
 3440SOL    HW111219   3.040   3.456   1.312
 3440SOL    HW211220   3.203   3.464   1.312
 3441SOL     OW11221   5.363   6.331   5.286
 3441SOL    HW111222   5.389   6.358   5.193
 3441SOL    HW211223   5.271   6.364   5.306
 3442SOL     OW11224   2.279   4.819   2.234
 3442SOL    HW111225   2.365   4.868   2.222
 3442SOL    HW211226   2.215   4.876   2.287
 3443SOL     OW11227   4.436   6.189   1.332
 3443SOL    HW111228   4.403   6.282   1.347
 3443SOL    HW211229   4.389   6.126   1.394
 3444SOL     OW11230   5.021   5.188   0.499
 3444SOL    HW111231   5.003   5.284   0.522
 3444SOL    HW211232   4.948   5.131   0.535
 3445SOL     OW11233   6.622   5.379   3.337
 3445SOL    HW111234   6.714   5.345   3.357
 3445SOL    HW211235   6.582   5.326   3.262
 3446SOL     OW11236   6.523   1.014   2.739
 3446SOL    HW111237   6.490   1.077   2.669
 3446SOL    HW211238   6.471   1.026   2.823
 3447SOL     OW11239   5.957   5.330   0.940
 3447SOL    HW111240   5.921   5.238   0.928
 3447SOL    HW211241   6.054   5.325   0.964
 3448SOL     OW11242   3.309   0.138   0.295
 3448SOL    HW111243   3.235   0.138   0.362
 3448SOL    HW211244   3.287   0.203   0.222
 3449SOL     OW11245   5.838   6.151   4.106
 3449SOL    HW111246   5.808   6.059   4.080
 3449SOL    HW211247   5.839   6.159   4.206
 3450SOL     OW11248   6.729   2.536   6.419
 3450SOL    HW111249   6.750   2.529   6.517
 3450SOL    HW211250   6.630   2.530   6.406
 3451SOL     OW11251   2.037   6.029   1.214
 3451SOL    HW111252   2.118   6.069   1.257
 3451SOL    HW211253   2.052   6.022   1.115
 3452SOL     OW11254   6.376   0.854   6.010
 3452SOL    HW111255   6.359   0.791   5.934
 3452SOL    HW211256   6.294   0.910   6.025
 3453SOL     OW11257   0.119   5.622   6.745
 3453SOL    HW111258   0.063   5.668   6.815
 3453SOL    HW211259   0.064   5.553   6.698
 3454SOL     OW11260   1.024   2.373   5.417
 3454SOL    HW111261   0.952   2.407   5.478
 3454SOL    HW211262   1.082   2.308   5.466
 3455SOL     OW11263   2.922   2.311   4.775
 3455SOL    HW111264   2.960   2.245   4.709
 3455SOL    HW211265   2.995   2.345   4.834
 3456SOL     OW11266   5.765   5.871   2.033
 3456SOL    HW111267   5.860   5.901   2.023
 3456SOL    HW211268   5.759   5.803   2.105
 3457SOL     OW11269   2.760   5.075   3.311
 3457SOL    HW111270   2.855   5.048   3.328
 3457SOL    HW211271   2.699   5.001   3.337
 3458SOL     OW11272   5.046   0.416   2.088
 3458SOL    HW111273   4.991   0.440   2.168
 3458SOL    HW211274   5.034   0.484   2.016
 3459SOL     OW11275   5.620   3.111   3.363
 3459SOL    HW111276   5.632   3.096   3.461
 3459SOL    HW211277   5.709   3.125   3.320
 3460SOL     OW11278   2.298   3.181   0.037
 3460SOL    HW111279   2.317   3.127   6.977
 3460SOL    HW211280   2.261   3.270   0.010
 3461SOL     OW11281   5.089   5.020   4.863
 3461SOL    HW111282   5.123   4.976   4.780
 3461SOL    HW211283   5.027   5.095   4.838
 3462SOL     OW11284   0.089   4.218   3.243
 3462SOL    HW111285   7.015   4.221   3.213
 3462SOL    HW211286   0.148   4.253   3.170
 3463SOL     OW11287   1.315   3.963   2.243
 3463SOL    HW111288   1.271   4.008   2.321
 3463SOL    HW211289   1.393   4.017   2.213
 3464SOL     OW11290   6.531   3.883   6.372
 3464SOL    HW111291   6.524   3.916   6.277
 3464SOL    HW211292   6.459   3.816   6.390
 3465SOL     OW11293   1.726   2.031   2.319
 3465SOL    HW111294   1.660   2.023   2.394
 3465SOL    HW211295   1.722   2.124   2.281
 3466SOL     OW11296   0.092   4.686   0.258
 3466SOL    HW111297   0.112   4.755   0.328
 3466SOL    HW211298   0.175   4.637   0.234
 3467SOL     OW11299   1.942   2.769   0.186
 3467SOL    HW111300   2.004   2.840   0.156
 3467SOL    HW211301   1.886   2.804   0.262
 3468SOL     OW11302   5.072   6.683   2.929
 3468SOL    HW111303   4.980   6.650   2.951
 3468SOL    HW211304   5.091   6.670   2.832
 3469SOL     OW11305   5.318   0.428   2.622
 3469SOL    HW111306   5.262   0.512   2.623
 3469SOL    HW211307   5.293   0.371   2.700
 3470SOL     OW11308   6.131   3.812   0.955
 3470SOL    HW111309   6.072   3.892   0.951
 3470SOL    HW211310   6.079   3.730   0.930
 3471SOL     OW11311   4.028   5.335   4.283
 3471SOL    HW111312   3.973   5.380   4.212
 3471SOL    HW211313   4.010   5.379   4.371
 3472SOL     OW11314   2.588   0.526   2.509
 3472SOL    HW111315   2.498   0.523   2.466
 3472SOL    HW211316   2.628   0.617   2.495
 3473SOL     OW11317   7.017   2.161   1.353
 3473SOL    HW111318   0.025   2.129   1.443
 3473SOL    HW211319   7.021   2.085   1.288
 3474SOL     OW11320   1.393   4.761   1.685
 3474SOL    HW111321   1.388   4.664   1.710
 3474SOL    HW211322   1.425   4.813   1.765
 3475SOL     OW11323   0.598   5.024   4.283
 3475SOL    HW111324   0.664   5.077   4.336
 3475SOL    HW211325   0.638   4.936   4.259
 3476SOL     OW11326   3.193   1.236   3.343
 3476SOL    HW111327   3.265   1.303   3.363
 3476SOL    HW211328   3.117   1.281   3.298
 3477SOL     OW11329   2.899   5.458   0.932
 3477SOL    HW111330   2.967   5.511   0.984
 3477SOL    HW211331   2.908   5.361   0.954
 3478SOL     OW11332   2.712   5.633   4.962
 3478SOL    HW111333   2.650   5.560   4.932
 3478SOL    HW211334   2.681   5.720   4.925
 3479SOL     OW11335   1.649   0.745   2.819
 3479SOL    HW111336   1.711   0.709   2.889
 3479SOL    HW211337   1.575   0.796   2.863
 3480SOL     OW11338   0.293   6.839   5.007
 3480SOL    HW111339   0.392   6.832   5.017
 3480SOL    HW211340   0.248   6.765   5.057
 3481SOL     OW11341   4.601   0.450   0.473
 3481SOL    HW111342   4.689   0.460   0.520
 3481SOL    HW211343   4.558   0.364   0.500
 3482SOL     OW11344   5.500   1.289   1.368
 3482SOL    HW111345   5.520   1.321   1.461
 3482SOL    HW211346   5.450   1.202   1.374
 3483SOL     OW11347   4.730   1.698   1.372
 3483SOL    HW111348   4.653   1.664   1.426
 3483SOL    HW211349   4.730   1.798   1.374
 3484SOL     OW11350   1.284   3.712   0.412
 3484SOL    HW111351   1.283   3.776   0.488
 3484SOL    HW211352   1.200   3.658   0.413
 3485SOL     OW11353   2.011   1.610   4.856
 3485SOL    HW111354   1.971   1.699   4.880
 3485SOL    HW211355   1.946   1.559   4.801
 3486SOL     OW11356   2.972   0.855   2.772
 3486SOL    HW111357   2.996   0.857   2.869
 3486SOL    HW211358   2.922   0.771   2.751
 3487SOL     OW11359   5.373   2.827   5.525
 3487SOL    HW111360   5.356   2.874   5.612
 3487SOL    HW211361   5.462   2.782   5.528
 3488SOL     OW11362   6.061   1.611   4.563
 3488SOL    HW111363   6.005   1.682   4.605
 3488SOL    HW211364   6.001   1.546   4.515
 3489SOL     OW11365   3.469   0.028   1.428
 3489SOL    HW111366   3.384   7.012   1.464
 3489SOL    HW211367   3.544   0.009   1.491
 3490SOL     OW11368   4.642   4.183   0.102
 3490SOL    HW111369   4.550   4.168   0.065
 3490SOL    HW211370   4.709   4.172   0.030
 3491SOL     OW11371   5.163   2.636   4.948
 3491SOL    HW111372   5.074   2.671   4.918
 3491SOL    HW211373   5.203   2.701   5.012
 3492SOL     OW11374   0.227   5.273   1.095
 3492SOL    HW111375   0.256   5.245   1.004
 3492SOL    HW211376   0.141   5.227   1.119
 3493SOL     OW11377   5.772   4.314   6.793
 3493SOL    HW111378   5.872   4.315   6.800
 3493SOL    HW211379   5.745   4.248   6.724
 3494SOL     OW11380   3.864   0.599   1.085
 3494SOL    HW111381   3.953   0.553   1.077
 3494SOL    HW211382   3.869   0.690   1.044
 3495SOL     OW11383   5.251   5.594   2.866
 3495SOL    HW111384   5.163   5.547   2.877
 3495SOL    HW211385   5.234   5.690   2.845
 3496SOL     OW11386   6.668   4.282   0.713
 3496SOL    HW111387   6.612   4.224   0.773
 3496SOL    HW211388   6.724   4.224   0.654
 3497SOL     OW11389   3.568   0.661   3.638
 3497SOL    HW111390   3.663   0.644   3.613
 3497SOL    HW211391   3.527   0.724   3.572
 3498SOL     OW11392   2.515   2.073   1.068
 3498SOL    HW111393   2.466   2.046   1.151
 3498SOL    HW211394   2.572   1.997   1.037
 3499SOL     OW11395   5.086   3.225   4.433
 3499SOL    HW111396   5.058   3.306   4.383
 3499SOL    HW211397   5.043   3.225   4.523
 3500SOL     OW11398   1.822   3.357   4.688
 3500SOL    HW111399   1.781   3.448   4.693
 3500SOL    HW211400   1.922   3.366   4.683
 3501SOL     OW11401   1.897   5.715   4.769
 3501SOL    HW111402   1.884   5.790   4.704
 3501SOL    HW211403   1.960   5.648   4.731
 3502SOL     OW11404   6.248   2.725   2.550
 3502SOL    HW111405   6.282   2.644   2.599
 3502SOL    HW211406   6.322   2.791   2.539
 3503SOL     OW11407   6.643   6.404   4.429
 3503SOL    HW111408   6.608   6.366   4.514
 3503SOL    HW211409   6.589   6.484   4.403
 3504SOL     OW11410   1.718   2.037   1.277
 3504SOL    HW111411   1.665   1.981   1.213
 3504SOL    HW211412   1.723   1.990   1.366
 3505SOL     OW11413   5.573   4.908   5.068
 3505SOL    HW111414   5.477   4.892   5.090
 3505SOL    HW211415   5.619   4.948   5.147
 3506SOL     OW11416   5.248   5.554   6.113
 3506SOL    HW111417   5.318   5.541   6.184
 3506SOL    HW211418   5.281   5.620   6.045
 3507SOL     OW11419   1.672   0.915   0.104
 3507SOL    HW111420   1.590   0.958   0.143
 3507SOL    HW211421   1.701   0.965   0.023
 3508SOL     OW11422   3.212   2.723   6.130
 3508SOL    HW111423   3.156   2.728   6.047
 3508SOL    HW211424   3.235   2.816   6.160
 3509SOL     OW11425   6.215   0.093   5.728
 3509SOL    HW111426   6.177   0.005   5.756
 3509SOL    HW211427   6.310   0.080   5.700
 3510SOL     OW11428   1.611   2.730   2.001
 3510SOL    HW111429   1.554   2.701   2.078
 3510SOL    HW211430   1.552   2.761   1.926
 3511SOL     OW11431   2.802   5.171   0.498
 3511SOL    HW111432   2.763   5.128   0.579
 3511SOL    HW211433   2.899   5.147   0.491
 3512SOL     OW11434   0.667   5.148   0.742
 3512SOL    HW111435   0.678   5.101   0.655
 3512SOL    HW211436   0.679   5.246   0.729
 3513SOL     OW11437   6.584   3.395   0.798
 3513SOL    HW111438   6.492   3.414   0.765
 3513SOL    HW211439   6.584   3.397   0.898
 3514SOL     OW11440   1.141   1.624   1.956
 3514SOL    HW111441   1.194   1.640   1.873
 3514SOL    HW211442   1.050   1.666   1.947
 3515SOL     OW11443   4.958   6.264   3.178
 3515SOL    HW111444   5.016   6.337   3.142
 3515SOL    HW211445   4.992   6.176   3.146
 3516SOL     OW11446   4.914   6.933   0.673
 3516SOL    HW111447   5.013   6.945   0.665
 3516SOL    HW211448   4.881   6.880   0.594
 3517SOL     OW11449   0.967   2.198   1.072
 3517SOL    HW111450   0.923   2.133   1.009
 3517SOL    HW211451   1.046   2.155   1.114
 3518SOL     OW11452   5.833   3.461   4.633
 3518SOL    HW111453   5.893   3.389   4.599
 3518SOL    HW211454   5.863   3.549   4.597
 3519SOL     OW11455   1.077   1.029   6.013
 3519SOL    HW111456   1.133   1.015   6.094
 3519SOL    HW211457   0.980   1.022   6.037
 3520SOL     OW11458   3.017   4.946   6.488
 3520SOL    HW111459   3.063   4.956   6.400
 3520SOL    HW211460   2.956   5.023   6.502
 3521SOL     OW11461   5.358   3.123   6.762
 3521SOL    HW111462   5.337   3.042   6.816
 3521SOL    HW211463   5.325   3.110   6.668
 3522SOL     OW11464   6.415   4.202   2.074
 3522SOL    HW111465   6.452   4.166   2.159
 3522SOL    HW211466   6.315   4.204   2.079
 3523SOL     OW11467   3.232   4.876   5.973
 3523SOL    HW111468   3.143   4.831   5.983
 3523SOL    HW211469   3.269   4.895   6.064
 3524SOL     OW11470   3.431   0.868   1.130
 3524SOL    HW111471   3.392   0.931   1.063
 3524SOL    HW211472   3.385   0.780   1.125
 3525SOL     OW11473   1.188   4.125   2.444
 3525SOL    HW111474   1.229   4.208   2.406
 3525SOL    HW211475   1.094   4.145   2.473
 3526SOL     OW11476   2.611   6.070   4.315
 3526SOL    HW111477   2.606   6.166   4.345
 3526SOL    HW211478   2.638   6.066   4.219
 3527SOL     OW11479   6.384   3.166   6.090
 3527SOL    HW111480   6.481   3.140   6.098
 3527SOL    HW211481   6.332   3.087   6.057
 3528SOL     OW11482   0.616   4.795   4.000
 3528SOL    HW111483   0.651   4.758   4.086
 3528SOL    HW211484   0.686   4.854   3.959
 3529SOL     OW11485   4.630   0.052   6.813
 3529SOL    HW111486   4.556   0.118   6.803
 3529SOL    HW211487   4.671   0.062   6.903
 3530SOL     OW11488   1.728   5.006   3.855
 3530SOL    HW111489   1.762   4.916   3.829
 3530SOL    HW211490   1.727   5.013   3.955
 3531SOL     OW11491   4.853   3.550   0.959
 3531SOL    HW111492   4.798   3.624   0.920
 3531SOL    HW211493   4.799   3.466   0.961
 3532SOL     OW11494   2.643   1.067   1.467
 3532SOL    HW111495   2.728   1.065   1.520
 3532SOL    HW211496   2.634   1.157   1.423
 3533SOL     OW11497   1.877   1.503   2.453
 3533SOL    HW111498   1.962   1.556   2.455
 3533SOL    HW211499   1.835   1.512   2.363
 3534SOL     OW11500   5.329   1.096   5.236
 3534SOL    HW111501   5.425   1.068   5.235
 3534SOL    HW211502   5.279   1.044   5.166
 3535SOL     OW11503   0.701   5.861   0.322
 3535SOL    HW111504   0.773   5.930   0.316
 3535SOL    HW211505   0.741   5.770   0.308
 3536SOL     OW11506   2.514   2.083   4.032
 3536SOL    HW111507   2.600   2.134   4.033
 3536SOL    HW211508   2.509   2.023   4.111
 3537SOL     OW11509   2.725   5.049   0.782
 3537SOL    HW111510   2.672   4.964   0.786
 3537SOL    HW211511   2.679   5.119   0.837
 3538SOL     OW11512   1.018   0.566   5.689
 3538SOL    HW111513   1.046   0.470   5.699
 3538SOL    HW211514   1.025   0.613   5.777
 3539SOL     OW11515   5.823   3.811   6.234
 3539SOL    HW111516   5.810   3.864   6.149
 3539SOL    HW211517   5.838   3.874   6.310
 3540SOL     OW11518   1.656   2.643   6.206
 3540SOL    HW111519   1.617   2.551   6.215
 3540SOL    HW211520   1.726   2.643   6.134
 3541SOL     OW11521   2.212   2.859   6.745
 3541SOL    HW111522   2.173   2.809   6.822
 3541SOL    HW211523   2.193   2.810   6.660
 3542SOL     OW11524   0.739   4.509   2.001
 3542SOL    HW111525   0.725   4.425   2.054
 3542SOL    HW211526   0.751   4.586   2.064
 3543SOL     OW11527   0.931   3.910   5.562
 3543SOL    HW111528   0.875   3.837   5.524
 3543SOL    HW211529   0.940   3.984   5.495
 3544SOL     OW11530   2.689   5.000   6.448
 3544SOL    HW111531   2.756   5.072   6.464
 3544SOL    HW211532   2.612   5.036   6.396
 3545SOL     OW11533   4.054   5.083   0.219
 3545SOL    HW111534   4.090   5.167   0.260
 3545SOL    HW211535   3.973   5.104   0.165
 3546SOL     OW11536   0.284   4.793   3.181
 3546SOL    HW111537   0.363   4.734   3.166
 3546SOL    HW211538   0.292   4.837   3.270
 3547SOL     OW11539   5.826   5.193   5.136
 3547SOL    HW111540   5.875   5.159   5.056
 3547SOL    HW211541   5.816   5.120   5.203
 3548SOL     OW11542   4.778   0.532   5.878
 3548SOL    HW111543   4.752   0.628   5.883
 3548SOL    HW211544   4.813   0.511   5.787
 3549SOL     OW11545   6.973   5.262   5.827
 3549SOL    HW111546   7.016   5.279   5.916
 3549SOL    HW211547   6.914   5.182   5.834
 3550SOL     OW11548   5.977   2.748   3.893
 3550SOL    HW111549   6.001   2.710   3.803
 3550SOL    HW211550   5.928   2.679   3.946
 3551SOL     OW11551   3.480   2.061   3.152
 3551SOL    HW111552   3.438   2.101   3.233
 3551SOL    HW211553   3.417   2.066   3.075
 3552SOL     OW11554   6.141   6.746   1.610
 3552SOL    HW111555   6.057   6.793   1.584
 3552SOL    HW211556   6.121   6.650   1.630
 3553SOL     OW11557   4.329   5.396   0.562
 3553SOL    HW111558   4.403   5.333   0.587
 3553SOL    HW211559   4.337   5.480   0.616
 3554SOL     OW11560   4.669   1.463   0.944
 3554SOL    HW111561   4.693   1.366   0.944
 3554SOL    HW211562   4.573   1.474   0.918
 3555SOL     OW11563   0.271   4.026   4.403
 3555SOL    HW111564   0.242   4.121   4.398
 3555SOL    HW211565   0.298   3.994   4.312
 3556SOL     OW11566   4.196   0.987   4.373
 3556SOL    HW111567   4.213   1.052   4.299
 3556SOL    HW211568   4.109   0.941   4.357
 3557SOL     OW11569   0.535   0.859   3.932
 3557SOL    HW111570   0.585   0.779   3.897
 3557SOL    HW211571   0.438   0.835   3.942
 3558SOL     OW11572   1.381   6.312   2.547
 3558SOL    HW111573   1.300   6.254   2.542
 3558SOL    HW211574   1.425   6.300   2.635
 3559SOL     OW11575   0.728   6.492   5.291
 3559SOL    HW111576   0.690   6.582   5.311
 3559SOL    HW211577   0.819   6.502   5.251
 3560SOL     OW11578   2.150   5.442   2.599
 3560SOL    HW111579   2.215   5.513   2.573
 3560SOL    HW211580   2.150   5.431   2.698
 3561SOL     OW11581   4.539   4.323   5.218
 3561SOL    HW111582   4.449   4.347   5.181
 3561SOL    HW211583   4.587   4.406   5.246
 3562SOL     OW11584   3.585   1.174   3.027
 3562SOL    HW111585   3.682   1.201   3.029
 3562SOL    HW211586   3.529   1.252   3.056
 3563SOL     OW11587   6.543   2.252   0.394
 3563SOL    HW111588   6.565   2.337   0.347
 3563SOL    HW211589   6.444   2.244   0.405
 3564SOL     OW11590   1.473   4.645   2.937
 3564SOL    HW111591   1.406   4.577   2.908
 3564SOL    HW211592   1.474   4.721   2.871
 3565SOL     OW11593   2.884   6.381   4.673
 3565SOL    HW111594   2.818   6.434   4.725
 3565SOL    HW211595   2.885   6.412   4.578
 3566SOL     OW11596   6.722   3.616   6.081
 3566SOL    HW111597   6.749   3.712   6.087
 3566SOL    HW211598   6.804   3.559   6.071
 3567SOL     OW11599   0.467   2.021   5.861
 3567SOL    HW111600   0.473   2.088   5.935
 3567SOL    HW211601   0.485   1.930   5.897
 3568SOL     OW11602   4.757   4.155   4.091
 3568SOL    HW111603   4.696   4.232   4.106
 3568SOL    HW211604   4.848   4.189   4.065
 3569SOL     OW11605   2.398   1.815   6.238
 3569SOL    HW111606   2.449   1.872   6.174
 3569SOL    HW211607   2.460   1.750   6.282
 3570SOL     OW11608   5.313   0.703   5.662
 3570SOL    HW111609   5.284   0.654   5.579
 3570SOL    HW211610   5.233   0.719   5.720
 3571SOL     OW11611   0.724   5.287   5.099
 3571SOL    HW111612   0.819   5.262   5.113
 3571SOL    HW211613   0.719   5.371   5.044
 3572SOL     OW11614   5.996   3.576   2.993
 3572SOL    HW111615   5.914   3.546   3.041
 3572SOL    HW211616   5.975   3.655   2.936
 3573SOL     OW11617   0.211   5.665   3.678
 3573SOL    HW111618   0.163   5.581   3.705
 3573SOL    HW211619   0.294   5.640   3.628
 3574SOL     OW11620   0.608   3.830   0.561
 3574SOL    HW111621   0.606   3.869   0.653
 3574SOL    HW211622   0.666   3.886   0.502
 3575SOL     OW11623   5.011   5.159   2.765
 3575SOL    HW111624   4.949   5.161   2.843
 3575SOL    HW211625   4.997   5.074   2.714
 3576SOL     OW11626   7.021   1.991   5.749
 3576SOL    HW111627   0.028   1.987   5.844
 3576SOL    HW211628   0.060   1.933   5.694
 3577SOL     OW11629   1.656   2.001   6.195
 3577SOL    HW111630   1.722   2.063   6.237
 3577SOL    HW211631   1.570   2.049   6.178
 3578SOL     OW11632   3.679   2.230   0.375
 3578SOL    HW111633   3.766   2.277   0.389
 3578SOL    HW211634   3.693   2.131   0.380
 3579SOL     OW11635   6.636   2.697   4.027
 3579SOL    HW111636   6.694   2.675   4.106
 3579SOL    HW211637   6.694   2.707   3.946
 3580SOL     OW11638   5.540   3.182   1.556
 3580SOL    HW111639   5.535   3.155   1.652
 3580SOL    HW211640   5.451   3.217   1.526
 3581SOL     OW11641   1.317   6.032   3.489
 3581SOL    HW111642   1.329   6.106   3.555
 3581SOL    HW211643   1.221   6.003   3.488
 3582SOL     OW11644   0.725   3.191   6.008
 3582SOL    HW111645   0.658   3.255   5.972
 3582SOL    HW211646   0.792   3.169   5.937
 3583SOL     OW11647   0.948   4.139   6.522
 3583SOL    HW111648   0.942   4.239   6.529
 3583SOL    HW211649   0.856   4.101   6.511
 3584SOL     OW11650   5.440   5.518   6.856
 3584SOL    HW111651   5.536   5.491   6.848
 3584SOL    HW211652   5.434   5.610   6.894
 3585SOL     OW11653   3.476   0.450   4.723
 3585SOL    HW111654   3.568   0.410   4.727
 3585SOL    HW211655   3.410   0.378   4.704
 3586SOL     OW11656   6.537   1.908   4.904
 3586SOL    HW111657   6.622   1.872   4.943
 3586SOL    HW211658   6.558   1.986   4.845
 3587SOL     OW11659   2.670   4.834   6.240
 3587SOL    HW111660   2.572   4.822   6.221
 3587SOL    HW211661   2.681   4.881   6.327
 3588SOL     OW11662   1.310   2.417   5.925
 3588SOL    HW111663   1.367   2.471   5.864
 3588SOL    HW211664   1.261   2.478   5.988
 3589SOL     OW11665   4.401   1.460   4.356
 3589SOL    HW111666   4.400   1.468   4.456
 3589SOL    HW211667   4.485   1.501   4.320
 3590SOL     OW11668   0.844   2.286   0.124
 3590SOL    HW111669   0.925   2.231   0.142
 3590SOL    HW211670   0.850   2.373   0.172
 3591SOL     OW11671   5.372   3.931   6.815
 3591SOL    HW111672   5.413   3.977   6.737
 3591SOL    HW211673   5.419   3.843   6.831
 3592SOL     OW11674   0.137   5.066   2.135
 3592SOL    HW111675   0.205   5.137   2.149
 3592SOL    HW211676   0.046   5.108   2.126
 3593SOL     OW11677   0.613   5.680   4.688
 3593SOL    HW111678   0.548   5.700   4.761
 3593SOL    HW211679   0.685   5.749   4.687
 3594SOL     OW11680   4.211   6.661   3.129
 3594SOL    HW111681   4.112   6.660   3.146
 3594SOL    HW211682   4.239   6.573   3.091
 3595SOL     OW11683   3.462   5.730   6.909
 3595SOL    HW111684   3.420   5.818   6.885
 3595SOL    HW211685   3.476   5.677   6.825
 3596SOL     OW11686   6.125   3.111   3.328
 3596SOL    HW111687   6.158   3.092   3.420
 3596SOL    HW211688   6.055   3.045   3.303
 3597SOL     OW11689   1.628   2.230   5.419
 3597SOL    HW111690   1.633   2.188   5.328
 3597SOL    HW211691   1.534   2.260   5.436
 3598SOL     OW11692   1.319   5.381   6.060
 3598SOL    HW111693   1.339   5.348   5.968
 3598SOL    HW211694   1.394   5.439   6.092
 3599SOL     OW11695   0.027   2.439   6.551
 3599SOL    HW111696   7.011   2.379   6.481
 3599SOL    HW211697   0.113   2.400   6.585
 3600SOL     OW11698   0.549   2.949   1.695
 3600SOL    HW111699   0.499   2.964   1.780
 3600SOL    HW211700   0.489   2.972   1.618
 3601SOL     OW11701   5.337   3.989   6.454
 3601SOL    HW111702   5.367   3.905   6.409
 3601SOL    HW211703   5.279   4.041   6.391
 3602SOL     OW11704   1.931   3.153   0.403
 3602SOL    HW111705   2.027   3.138   0.427
 3602SOL    HW211706   1.902   3.243   0.435
 3603SOL     OW11707   3.857   0.619   3.660
 3603SOL    HW111708   3.951   0.586   3.666
 3603SOL    HW211709   3.854   0.705   3.609
 3604SOL     OW11710   6.331   5.135   3.592
 3604SOL    HW111711   6.279   5.207   3.546
 3604SOL    HW211712   6.426   5.138   3.563
 3605SOL     OW11713   6.539   3.289   5.172
 3605SOL    HW111714   6.460   3.242   5.211
 3605SOL    HW211715   6.511   3.342   5.092
 3606SOL     OW11716   0.289   0.461   4.562
 3606SOL    HW111717   0.221   0.412   4.507
 3606SOL    HW211718   0.244   0.512   4.634
 3607SOL     OW11719   5.991   5.061   2.046
 3607SOL    HW111720   6.070   5.008   2.014
 3607SOL    HW211721   5.974   5.136   1.981
 3608SOL     OW11722   5.965   2.460   3.949
 3608SOL    HW111723   5.880   2.473   4.000
 3608SOL    HW211724   6.015   2.381   3.986
 3609SOL     OW11725   1.381   6.709   3.569
 3609SOL    HW111726   1.298   6.725   3.622
 3609SOL    HW211727   1.396   6.610   3.560
 3610SOL     OW11728   1.836   0.040   5.875
 3610SOL    HW111729   1.802   0.129   5.906
 3610SOL    HW211730   1.765   6.992   5.888
 3611SOL     OW11731   4.104   5.218   5.230
 3611SOL    HW111732   4.037   5.270   5.283
 3611SOL    HW211733   4.195   5.256   5.244
 3612SOL     OW11734   6.664   0.147   0.134
 3612SOL    HW111735   6.595   0.209   0.172
 3612SOL    HW211736   6.628   0.054   0.133
 3613SOL     OW11737   4.610   4.508   2.011
 3613SOL    HW111738   4.676   4.555   1.952
 3613SOL    HW211739   4.569   4.432   1.960
 3614SOL     OW11740   3.792   3.240   1.509
 3614SOL    HW111741   3.799   3.316   1.444
 3614SOL    HW211742   3.699   3.203   1.507
 3615SOL     OW11743   5.101   5.275   6.358
 3615SOL    HW111744   5.159   5.260   6.278
 3615SOL    HW211745   5.081   5.372   6.368
 3616SOL     OW11746   0.579   1.989   0.016
 3616SOL    HW111747   0.481   1.995   0.032
 3616SOL    HW211748   0.596   1.975   6.939
 3617SOL     OW11749   3.552   1.028   6.744
 3617SOL    HW111750   3.529   1.000   6.837
 3617SOL    HW211751   3.590   1.121   6.745
 3618SOL     OW11752   2.258   3.121   5.273
 3618SOL    HW111753   2.189   3.086   5.210
 3618SOL    HW211754   2.349   3.099   5.237
 3619SOL     OW11755   5.697   2.380   4.520
 3619SOL    HW111756   5.605   2.407   4.546
 3619SOL    HW211757   5.706   2.386   4.420
 3620SOL     OW11758   6.329   6.906   6.206
 3620SOL    HW111759   6.383   6.890   6.289
 3620SOL    HW211760   6.388   6.941   6.134
 3621SOL     OW11761   3.454   2.878   5.181
 3621SOL    HW111762   3.429   2.788   5.217
 3621SOL    HW211763   3.524   2.919   5.240
 3622SOL     OW11764   1.191   1.513   5.131
 3622SOL    HW111765   1.144   1.519   5.219
 3622SOL    HW211766   1.272   1.455   5.140
 3623SOL     OW11767   6.648   5.737   4.680
 3623SOL    HW111768   6.705   5.707   4.603
 3623SOL    HW211769   6.592   5.815   4.652
 3624SOL     OW11770   1.327   0.060   2.011
 3624SOL    HW111771   1.345   6.996   2.058
 3624SOL    HW211772   1.365   0.136   2.064
 3625SOL     OW11773   6.866   2.883   6.572
 3625SOL    HW111774   6.775   2.843   6.570
 3625SOL    HW211775   6.930   2.822   6.524
 3626SOL     OW11776   1.470   1.868   5.688
 3626SOL    HW111777   1.481   1.791   5.751
 3626SOL    HW211778   1.451   1.951   5.739
 3627SOL     OW11779   3.070   3.488   2.547
 3627SOL    HW111780   3.139   3.513   2.616
 3627SOL    HW211781   3.116   3.451   2.466
 3628SOL     OW11782   1.846   1.023   2.099
 3628SOL    HW111783   1.824   0.938   2.147
 3628SOL    HW211784   1.823   1.013   2.002
 3629SOL     OW11785   6.520   0.952   5.551
 3629SOL    HW111786   6.421   0.971   5.547
 3629SOL    HW211787   6.547   0.936   5.646
 3630SOL     OW11788   5.132   2.703   4.128
 3630SOL    HW111789   5.055   2.660   4.080
 3630SOL    HW211790   5.184   2.632   4.175
 3631SOL     OW11791   2.526   0.861   3.283
 3631SOL    HW111792   2.573   0.802   3.218
 3631SOL    HW211793   2.492   0.807   3.360
 3632SOL     OW11794   4.904   4.841   1.568
 3632SOL    HW111795   4.957   4.818   1.650
 3632SOL    HW211796   4.904   4.940   1.555
 3633SOL     OW11797   4.070   2.121   5.842
 3633SOL    HW111798   3.977   2.084   5.836
 3633SOL    HW211799   4.095   2.160   5.753
 3634SOL     OW11800   1.644   4.618   4.807
 3634SOL    HW111801   1.553   4.579   4.810
 3634SOL    HW211802   1.646   4.704   4.859
 3635SOL     OW11803   3.207   0.045   0.562
 3635SOL    HW111804   3.230   0.103   0.640
 3635SOL    HW211805   3.113   0.012   0.570
 3636SOL     OW11806   0.210   5.742   0.955
 3636SOL    HW111807   0.126   5.790   0.928
 3636SOL    HW211808   0.192   5.643   0.956
 3637SOL     OW11809   6.979   2.141   2.295
 3637SOL    HW111810   6.991   2.239   2.310
 3637SOL    HW211811   7.014   2.090   2.374
 3638SOL     OW11812   0.550   4.371   3.092
 3638SOL    HW111813   0.584   4.311   3.165
 3638SOL    HW211814   0.535   4.463   3.129
 3639SOL     OW11815   3.952   5.104   0.674
 3639SOL    HW111816   3.976   5.018   0.719
 3639SOL    HW211817   4.033   5.162   0.668
 3640SOL     OW11818   4.449   0.264   0.037
 3640SOL    HW111819   4.417   0.233   6.969
 3640SOL    HW211820   4.515   0.199   0.074
 3641SOL     OW11821   5.230   3.862   2.224
 3641SOL    HW111822   5.311   3.808   2.246
 3641SOL    HW211823   5.212   3.926   2.298
 3642SOL     OW11824   5.600   1.696   0.465
 3642SOL    HW111825   5.609   1.795   0.453
 3642SOL    HW211826   5.509   1.667   0.435
 3643SOL     OW11827   3.269   5.666   4.168
 3643SOL    HW111828   3.333   5.735   4.203
 3643SOL    HW211829   3.234   5.612   4.244
 3644SOL     OW11830   0.338   0.993   1.837
 3644SOL    HW111831   0.253   0.942   1.833
 3644SOL    HW211832   0.372   1.010   1.744
 3645SOL     OW11833   0.966   2.736   3.979
 3645SOL    HW111834   0.975   2.764   3.884
 3645SOL    HW211835   0.967   2.637   3.986
 3646SOL     OW11836   1.570   4.225   6.745
 3646SOL    HW111837   1.556   4.159   6.819
 3646SOL    HW211838   1.611   4.178   6.667
 3647SOL     OW11839   2.501   6.018   6.396
 3647SOL    HW111840   2.579   5.956   6.406
 3647SOL    HW211841   2.471   6.018   6.300
 3648SOL     OW11842   4.178   5.004   2.018
 3648SOL    HW111843   4.095   5.057   2.003
 3648SOL    HW211844   4.238   5.013   1.938
 3649SOL     OW11845   6.130   3.029   1.276
 3649SOL    HW111846   6.210   3.047   1.218
 3649SOL    HW211847   6.063   3.102   1.263
 3650SOL     OW11848   6.847   5.883   1.693
 3650SOL    HW111849   6.851   5.965   1.750
 3650SOL    HW211850   6.894   5.900   1.606
 3651SOL     OW11851   0.492   7.000   4.634
 3651SOL    HW111852   0.494   6.901   4.653
 3651SOL    HW211853   0.400   0.005   4.607
 3652SOL     OW11854   6.270   6.733   3.709
 3652SOL    HW111855   6.214   6.670   3.654
 3652SOL    HW211856   6.276   6.699   3.803
 3653SOL     OW11857   0.981   1.934   3.724
 3653SOL    HW111858   0.990   2.005   3.794
 3653SOL    HW211859   1.049   1.949   3.652
 3654SOL     OW11860   3.396   4.331   0.709
 3654SOL    HW111861   3.480   4.382   0.730
 3654SOL    HW211862   3.332   4.338   0.785
 3655SOL     OW11863   3.086   6.501   3.892
 3655SOL    HW111864   2.995   6.530   3.862
 3655SOL    HW211865   3.150   6.505   3.815
 3656SOL     OW11866   0.573   4.477   1.045
 3656SOL    HW111867   0.476   4.458   1.056
 3656SOL    HW211868   0.600   4.461   0.950
 3657SOL     OW11869   5.748   5.900   5.650
 3657SOL    HW111870   5.794   5.876   5.565
 3657SOL    HW211871   5.762   5.998   5.669
 3658SOL     OW11872   1.984   4.584   6.366
 3658SOL    HW111873   1.956   4.581   6.270
 3658SOL    HW211874   2.013   4.492   6.394
 3659SOL     OW11875   2.532   3.391   6.036
 3659SOL    HW111876   2.505   3.428   5.947
 3659SOL    HW211877   2.567   3.465   6.093
 3660SOL     OW11878   5.269   5.689   3.554
 3660SOL    HW111879   5.320   5.738   3.625
 3660SOL    HW211880   5.279   5.737   3.467
 3661SOL     OW11881   5.946   0.659   5.449
 3661SOL    HW111882   6.014   0.618   5.389
 3661SOL    HW211883   5.871   0.595   5.464
 3662SOL     OW11884   3.766   0.654   3.933
 3662SOL    HW111885   3.799   0.633   3.840
 3662SOL    HW211886   3.669   0.677   3.930
 3663SOL     OW11887   1.862   2.111   0.482
 3663SOL    HW111888   1.891   2.154   0.567
 3663SOL    HW211889   1.941   2.067   0.439
 3664SOL     OW11890   4.495   2.447   1.317
 3664SOL    HW111891   4.534   2.525   1.267
 3664SOL    HW211892   4.552   2.427   1.397
 3665SOL     OW11893   1.143   6.544   5.091
 3665SOL    HW111894   1.115   6.463   5.040
 3665SOL    HW211895   1.098   6.543   5.181
 3666SOL     OW11896   0.583   3.251   3.262
 3666SOL    HW111897   0.528   3.233   3.344
 3666SOL    HW211898   0.546   3.199   3.185
 3667SOL     OW11899   0.944   1.645   3.410
 3667SOL    HW111900   1.028   1.694   3.388
 3667SOL    HW211901   0.915   1.669   3.503
 3668SOL     OW11902   1.193   1.132   0.747
 3668SOL    HW111903   1.126   1.169   0.811
 3668SOL    HW211904   1.147   1.071   0.683
 3669SOL     OW11905   5.211   1.443   3.641
 3669SOL    HW111906   5.154   1.367   3.610
 3669SOL    HW211907   5.165   1.493   3.714
 3670SOL     OW11908   1.848   6.281   0.190
 3670SOL    HW111909   1.763   6.317   0.153
 3670SOL    HW211910   1.925   6.309   0.132
 3671SOL     OW11911   0.259   1.512   3.724
 3671SOL    HW111912   0.289   1.607   3.717
 3671SOL    HW211913   0.298   1.471   3.806
 3672SOL     OW11914   4.975   2.008   1.661
 3672SOL    HW111915   4.956   2.090   1.606
 3672SOL    HW211916   4.890   1.959   1.679
 3673SOL     OW11917   4.055   6.268   0.354
 3673SOL    HW111918   3.997   6.345   0.329
 3673SOL    HW211919   4.147   6.301   0.376
 3674SOL     OW11920   1.299   5.683   5.445
 3674SOL    HW111921   1.376   5.742   5.418
 3674SOL    HW211922   1.239   5.734   5.507
 3675SOL     OW11923   2.335   2.832   3.850
 3675SOL    HW111924   2.325   2.884   3.765
 3675SOL    HW211925   2.422   2.856   3.894
 3676SOL     OW11926   6.184   4.435   3.012
 3676SOL    HW111927   6.220   4.467   3.099
 3676SOL    HW211928   6.114   4.366   3.028
 3677SOL     OW11929   2.627   6.354   4.259
 3677SOL    HW111930   2.711   6.377   4.307
 3677SOL    HW211931   2.569   6.435   4.252
 3678SOL     OW11932   0.438   1.293   3.804
 3678SOL    HW111933   0.511   1.225   3.818
 3678SOL    HW211934   0.459   1.348   3.724
 3679SOL     OW11935   0.747   0.448   3.525
 3679SOL    HW111936   0.695   0.444   3.440
 3679SOL    HW211937   0.788   0.359   3.544
 3680SOL     OW11938   4.935   3.034   4.094
 3680SOL    HW111939   4.908   2.961   4.030
 3680SOL    HW211940   4.894   3.017   4.183
 3681SOL     OW11941   0.164   0.670   5.968
 3681SOL    HW111942   0.138   0.591   5.912
 3681SOL    HW211943   0.222   0.732   5.913
 3682SOL     OW11944   5.026   2.697   6.726
 3682SOL    HW111945   5.011   2.614   6.781
 3682SOL    HW211946   5.124   2.714   6.720
 3683SOL     OW11947   6.904   1.520   3.757
 3683SOL    HW111948   6.962   1.439   3.748
 3683SOL    HW211949   6.847   1.529   3.676
 3684SOL     OW11950   1.295   4.938   6.827
 3684SOL    HW111951   1.323   5.019   6.776
 3684SOL    HW211952   1.205   4.909   6.797
 3685SOL     OW11953   1.682   6.306   6.608
 3685SOL    HW111954   1.635   6.380   6.657
 3685SOL    HW211955   1.779   6.329   6.598
 3686SOL     OW11956   5.832   5.503   4.551
 3686SOL    HW111957   5.798   5.417   4.589
 3686SOL    HW211958   5.844   5.493   4.453
 3687SOL     OW11959   3.809   6.197   4.326
 3687SOL    HW111960   3.852   6.111   4.300
 3687SOL    HW211961   3.810   6.260   4.248
 3688SOL     OW11962   0.616   3.158   6.935
 3688SOL    HW111963   0.606   3.236   6.996
 3688SOL    HW211964   0.563   3.081   6.970
 3689SOL     OW11965   2.287   0.069   5.776
 3689SOL    HW111966   2.387   0.079   5.781
 3689SOL    HW211967   2.262   7.000   5.811
 3690SOL     OW11968   4.273   6.046   0.069
 3690SOL    HW111969   4.255   5.950   0.088
 3690SOL    HW211970   4.190   6.099   0.081
 3691SOL     OW11971   2.217   1.645   6.416
 3691SOL    HW111972   2.160   1.679   6.342
 3691SOL    HW211973   2.199   1.547   6.430
 3692SOL     OW11974   6.372   5.607   5.463
 3692SOL    HW111975   6.393   5.696   5.422
 3692SOL    HW211976   6.367   5.538   5.390
 3693SOL     OW11977   2.142   3.561   2.907
 3693SOL    HW111978   2.161   3.631   2.839
 3693SOL    HW211979   2.048   3.527   2.894
 3694SOL     OW11980   0.648   6.519   1.992
 3694SOL    HW111981   0.697   6.526   1.905
 3694SOL    HW211982   0.694   6.575   2.061
 3695SOL     OW11983   5.471   3.311   1.876
 3695SOL    HW111984   5.488   3.214   1.894
 3695SOL    HW211985   5.395   3.342   1.933
 3696SOL     OW11986   3.870   6.755   4.090
 3696SOL    HW111987   3.952   6.723   4.137
 3696SOL    HW211988   3.885   6.848   4.056
 3697SOL     OW11989   0.101   6.271   2.943
 3697SOL    HW111990   0.180   6.237   2.995
 3697SOL    HW211991   0.127   6.284   2.848
 3698SOL     OW11992   2.890   1.161   4.315
 3698SOL    HW111993   2.798   1.131   4.288
 3698SOL    HW211994   2.891   1.261   4.324
 3699SOL     OW11995   1.400   2.318   4.308
 3699SOL    HW111996   1.421   2.221   4.294
 3699SOL    HW211997   1.303   2.335   4.293
 3700SOL     OW11998   0.912   5.883   4.390
 3700SOL    HW111999   0.939   5.877   4.486
 3700SOL    HW212000   0.817   5.916   4.384
 3701SOL     OW12001   1.469   1.323   4.276
 3701SOL    HW112002   1.456   1.225   4.262
 3701SOL    HW212003   1.389   1.372   4.243
 3702SOL     OW12004   5.701   6.901   3.074
 3702SOL    HW112005   5.781   6.848   3.101
 3702SOL    HW212006   5.619   6.844   3.080
 3703SOL     OW12007   5.971   0.458   6.165
 3703SOL    HW112008   5.964   0.465   6.066
 3703SOL    HW212009   5.922   0.534   6.207
 3704SOL     OW12010   3.386   1.351   0.966
 3704SOL    HW112011   3.305   1.292   0.969
 3704SOL    HW212012   3.413   1.366   0.871
 3705SOL     OW12013   5.233   4.349   4.969
 3705SOL    HW112014   5.203   4.430   4.918
 3705SOL    HW212015   5.202   4.267   4.922
 3706SOL     OW12016   1.573   4.413   0.211
 3706SOL    HW112017   1.538   4.327   0.248
 3706SOL    HW212018   1.568   4.410   0.111
 3707SOL     OW12019   5.177   4.736   4.189
 3707SOL    HW112020   5.248   4.742   4.118
 3707SOL    HW212021   5.155   4.828   4.221
 3708SOL     OW12022   6.293   1.079   0.086
 3708SOL    HW112023   6.353   1.040   0.017
 3708SOL    HW212024   6.198   1.052   0.069
 3709SOL     OW12025   3.352   1.031   0.941
 3709SOL    HW112026   3.355   1.049   0.843
 3709SOL    HW212027   3.272   1.075   0.981
 3710SOL     OW12028   6.145   5.731   5.552
 3710SOL    HW112029   6.224   5.678   5.521
 3710SOL    HW212030   6.112   5.693   5.638
 3711SOL     OW12031   0.888   6.411   4.634
 3711SOL    HW112032   0.818   6.343   4.654
 3711SOL    HW212033   0.859   6.467   4.556
 3712SOL     OW12034   0.990   5.193   6.069
 3712SOL    HW112035   0.925   5.185   5.993
 3712SOL    HW212036   1.083   5.182   6.034
 3713SOL     OW12037   0.647   6.734   5.325
 3713SOL    HW112038   0.656   6.782   5.412
 3713SOL    HW212039   0.616   6.799   5.255
 3714SOL     OW12040   5.888   5.945   6.164
 3714SOL    HW112041   5.852   6.002   6.237
 3714SOL    HW212042   5.872   5.849   6.184
 3715SOL     OW12043   0.703   4.100   2.655
 3715SOL    HW112044   0.640   4.151   2.596
 3715SOL    HW212045   0.702   4.139   2.747
 3716SOL     OW12046   5.875   6.550   4.090
 3716SOL    HW112047   5.955   6.523   4.038
 3716SOL    HW212048   5.886   6.523   4.186
 3717SOL     OW12049   6.514   6.475   6.695
 3717SOL    HW112050   6.421   6.512   6.692
 3717SOL    HW212051   6.509   6.375   6.696
 3718SOL     OW12052   0.691   0.830   6.566
 3718SOL    HW112053   0.780   0.787   6.580
 3718SOL    HW212054   0.642   0.835   6.653
 3719SOL     OW12055   5.539   3.990   1.535
 3719SOL    HW112056   5.539   3.890   1.538
 3719SOL    HW212057   5.628   4.024   1.562
 3720SOL     OW12058   5.656   3.044   6.741
 3720SOL    HW112059   5.691   2.983   6.812
 3720SOL    HW212060   5.576   3.093   6.776
 3721SOL     OW12061   6.302   4.647   1.767
 3721SOL    HW112062   6.377   4.661   1.832
 3721SOL    HW212063   6.273   4.735   1.729
 3722SOL     OW12064   5.609   6.015   0.916
 3722SOL    HW112065   5.536   5.987   0.978
 3722SOL    HW212066   5.569   6.060   0.836
 3723SOL     OW12067   5.718   5.035   1.183
 3723SOL    HW112068   5.662   4.970   1.234
 3723SOL    HW212069   5.737   4.999   1.092
 3724SOL     OW12070   1.956   4.628   4.891
 3724SOL    HW112071   1.922   4.663   4.804
 3724SOL    HW212072   1.906   4.545   4.916
 3725SOL     OW12073   7.013   4.952   0.173
 3725SOL    HW112074   7.014   4.858   0.207
 3725SOL    HW212075   7.006   5.015   0.250
 3726SOL     OW12076   6.421   3.116   0.032
 3726SOL    HW112077   6.424   3.050   0.107
 3726SOL    HW212078   6.339   3.101   6.998
 3727SOL     OW12079   6.423   1.535   5.456
 3727SOL    HW112080   6.336   1.486   5.451
 3727SOL    HW212081   6.442   1.559   5.551
 3728SOL     OW12082   1.450   3.483   6.164
 3728SOL    HW112083   1.510   3.437   6.098
 3728SOL    HW212084   1.501   3.503   6.248
 3729SOL     OW12085   1.801   1.811   4.580
 3729SOL    HW112086   1.803   1.812   4.480
 3729SOL    HW212087   1.879   1.863   4.615
 3730SOL     OW12088   3.165   5.666   5.451
 3730SOL    HW112089   3.143   5.661   5.354
 3730SOL    HW212090   3.135   5.582   5.496
 3731SOL     OW12091   6.971   1.468   0.904
 3731SOL    HW112092   6.916   1.459   0.821
 3731SOL    HW212093   6.911   1.483   0.983
 3732SOL     OW12094   2.569   1.890   6.919
 3732SOL    HW112095   2.593   1.814   6.978
 3732SOL    HW212096   2.546   1.856   6.827
 3733SOL     OW12097   1.696   3.457   3.323
 3733SOL    HW112098   1.640   3.390   3.372
 3733SOL    HW212099   1.639   3.504   3.255
 3734SOL     OW12100   5.143   0.162   0.926
 3734SOL    HW112101   5.071   0.228   0.946
 3734SOL    HW212102   5.146   0.092   0.997
 3735SOL     OW12103   2.732   1.001   3.015
 3735SOL    HW112104   2.807   1.036   2.960
 3735SOL    HW212105   2.677   0.937   2.960
 3736SOL     OW12106   6.774   2.271   1.297
 3736SOL    HW112107   6.850   2.237   1.352
 3736SOL    HW212108   6.717   2.195   1.267
 3737SOL     OW12109   5.494   1.177   4.206
 3737SOL    HW112110   5.575   1.178   4.147
 3737SOL    HW212111   5.489   1.089   4.254
 3738SOL     OW12112   6.649   0.282   2.039
 3738SOL    HW112113   6.631   0.285   2.137
 3738SOL    HW212114   6.587   0.217   1.995
 3739SOL     OW12115   2.482   5.417   0.596
 3739SOL    HW112116   2.445   5.325   0.583
 3739SOL    HW212117   2.581   5.411   0.610
 3740SOL     OW12118   6.751   0.539   0.867
 3740SOL    HW112119   6.746   0.488   0.781
 3740SOL    HW212120   6.832   0.598   0.866
 3741SOL     OW12121   5.568   3.245   5.817
 3741SOL    HW112122   5.506   3.285   5.750
 3741SOL    HW212123   5.553   3.147   5.822
 3742SOL     OW12124   2.615   1.844   6.589
 3742SOL    HW112125   2.564   1.766   6.551
 3742SOL    HW212126   2.704   1.813   6.622
 3743SOL     OW12127   6.119   3.206   0.289
 3743SOL    HW112128   6.163   3.280   0.237
 3743SOL    HW212129   6.108   3.126   0.230
 3744SOL     OW12130   1.709   6.060   1.376
 3744SOL    HW112131   1.629   6.026   1.328
 3744SOL    HW212132   1.773   5.984   1.392
 3745SOL     OW12133   4.664   4.756   2.513
 3745SOL    HW112134   4.751   4.708   2.504
 3745SOL    HW212135   4.674   4.830   2.581
 3746SOL     OW12136   5.981   0.881   3.973
 3746SOL    HW112137   5.977   0.927   3.884
 3746SOL    HW212138   5.972   0.948   4.046
 3747SOL     OW12139   3.020   6.476   5.014
 3747SOL    HW112140   2.981   6.536   5.083
 3747SOL    HW212141   3.117   6.498   5.002
 3748SOL     OW12142   5.536   0.856   1.843
 3748SOL    HW112143   5.499   0.893   1.757
 3748SOL    HW212144   5.548   0.757   1.834
 3749SOL     OW12145   1.434   5.303   3.122
 3749SOL    HW112146   1.406   5.207   3.110
 3749SOL    HW212147   1.365   5.362   3.081
 3750SOL     OW12148   6.737   5.077   1.315
 3750SOL    HW112149   6.694   5.087   1.405
 3750SOL    HW212150   6.812   5.012   1.321
 3751SOL     OW12151   6.775   3.642   1.483
 3751SOL    HW112152   6.767   3.703   1.562
 3751SOL    HW212153   6.822   3.689   1.409
 3752SOL     OW12154   6.240   6.488   0.928
 3752SOL    HW112155   6.285   6.460   1.012
 3752SOL    HW212156   6.142   6.501   0.944
 3753SOL     OW12157   6.832   0.585   3.960
 3753SOL    HW112158   6.849   0.535   3.875
 3753SOL    HW212159   6.766   0.658   3.943
 3754SOL     OW12160   4.185   6.699   1.046
 3754SOL    HW112161   4.122   6.756   1.098
 3754SOL    HW212162   4.133   6.632   0.993
 3755SOL     OW12163   5.357   5.874   4.300
 3755SOL    HW112164   5.293   5.948   4.322
 3755SOL    HW212165   5.358   5.807   4.374
 3756SOL     OW12166   2.030   5.721   6.676
 3756SOL    HW112167   1.962   5.680   6.738
 3756SOL    HW212168   2.067   5.804   6.718
 3757SOL     OW12169   4.630   6.438   6.136
 3757SOL    HW112170   4.697   6.483   6.077
 3757SOL    HW212171   4.567   6.384   6.080
 3758SOL     OW12172   2.249   1.901   5.897
 3758SOL    HW112173   2.333   1.903   5.842
 3758SOL    HW212174   2.191   1.978   5.872
 3759SOL     OW12175   4.292   5.532   6.780
 3759SOL    HW112176   4.275   5.623   6.816
 3759SOL    HW212177   4.319   5.471   6.855
 3760SOL     OW12178   1.730   1.416   5.137
 3760SOL    HW112179   1.755   1.325   5.171
 3760SOL    HW212180   1.801   1.481   5.160
 3761SOL     OW12181   1.007   0.984   4.502
 3761SOL    HW112182   0.948   0.931   4.442
 3761SOL    HW212183   1.088   0.931   4.526
 3762SOL     OW12184   1.101   3.475   0.439
 3762SOL    HW112185   1.059   3.401   0.387
 3762SOL    HW212186   1.096   3.453   0.537
 3763SOL     OW12187   6.834   4.027   1.609
 3763SOL    HW112188   6.789   3.946   1.648
 3763SOL    HW212189   6.809   4.108   1.663
 3764SOL     OW12190   1.724   6.757   3.098
 3764SOL    HW112191   1.631   6.766   3.134
 3764SOL    HW212192   1.749   6.841   3.049
 3765SOL     OW12193   4.705   1.092   0.734
 3765SOL    HW112194   4.737   1.121   0.824
 3765SOL    HW212195   4.605   1.094   0.732
 3766SOL     OW12196   1.451   0.821   3.564
 3766SOL    HW112197   1.450   0.828   3.663
 3766SOL    HW212198   1.361   0.792   3.531
 3767SOL     OW12199   2.127   4.822   0.352
 3767SOL    HW112200   2.178   4.782   0.276
 3767SOL    HW212201   2.111   4.919   0.334
 3768SOL     OW12202   1.442   6.564   4.734
 3768SOL    HW112203   1.515   6.599   4.675
 3768SOL    HW212204   1.421   6.470   4.708
 3769SOL     OW12205   6.723   6.360   5.581
 3769SOL    HW112206   6.694   6.440   5.634
 3769SOL    HW212207   6.663   6.283   5.602
 3770SOL     OW12208   1.892   1.251   6.763
 3770SOL    HW112209   1.902   1.305   6.847
 3770SOL    HW212210   1.797   1.254   6.733
 3771SOL     OW12211   6.025   3.230   6.607
 3771SOL    HW112212   5.974   3.258   6.525
 3771SOL    HW212213   6.053   3.311   6.658
 3772SOL     OW12214   0.086   0.822   6.789
 3772SOL    HW112215   7.008   0.825   6.777
 3772SOL    HW212216   0.126   0.910   6.762
 3773SOL     OW12217   6.347   2.726   6.068
 3773SOL    HW112218   6.384   2.676   5.990
 3773SOL    HW212219   6.310   2.813   6.036
 3774SOL     OW12220   0.134   5.934   0.536
 3774SOL    HW112221   0.094   5.948   0.446
 3774SOL    HW212222   0.064   5.950   0.606
 3775SOL     OW12223   4.731   5.034   2.129
 3775SOL    HW112224   4.734   4.941   2.164
 3775SOL    HW212225   4.720   5.033   2.030
 3776SOL     OW12226   4.395   1.003   0.292
 3776SOL    HW112227   4.314   1.061   0.303
 3776SOL    HW212228   4.367   0.913   0.259
 3777SOL     OW12229   3.365   5.571   3.910
 3777SOL    HW112230   3.338   5.612   3.997
 3777SOL    HW212231   3.319   5.483   3.899
 3778SOL     OW12232   3.714   4.919   2.450
 3778SOL    HW112233   3.789   4.875   2.401
 3778SOL    HW212234   3.636   4.931   2.389
 3779SOL     OW12235   1.601   4.644   0.669
 3779SOL    HW112236   1.560   4.674   0.755
 3779SOL    HW212237   1.693   4.681   0.661
 3780SOL     OW12238   6.157   5.946   5.345
 3780SOL    HW112239   6.153   5.854   5.385
 3780SOL    HW212240   6.252   5.972   5.331
 3781SOL     OW12241   0.334   6.471   4.393
 3781SOL    HW112242   0.362   6.525   4.313
 3781SOL    HW212243   0.368   6.515   4.476
 3782SOL     OW12244   2.719   0.675   3.998
 3782SOL    HW112245   2.645   0.609   4.014
 3782SOL    HW212246   2.802   0.626   3.971
 3783SOL     OW12247   5.593   5.414   3.791
 3783SOL    HW112248   5.510   5.404   3.735
 3783SOL    HW212249   5.644   5.329   3.791
 3784SOL     OW12250   4.741   2.840   2.388
 3784SOL    HW112251   4.786   2.895   2.317
 3784SOL    HW212252   4.642   2.844   2.375
 3785SOL     OW12253   2.326   2.267   6.182
 3785SOL    HW112254   2.257   2.335   6.158
 3785SOL    HW212255   2.380   2.300   6.260
 3786SOL     OW12256   1.868   5.884   2.941
 3786SOL    HW112257   1.890   5.894   3.039
 3786SOL    HW212258   1.770   5.872   2.930
 3787SOL     OW12259   5.801   1.249   2.049
 3787SOL    HW112260   5.861   1.322   2.018
 3787SOL    HW212261   5.853   1.164   2.058
 3788SOL     OW12262   0.740   4.246   4.724
 3788SOL    HW112263   0.779   4.175   4.781
 3788SOL    HW212264   0.640   4.248   4.735
 3789SOL     OW12265   0.407   2.758   5.379
 3789SOL    HW112266   0.440   2.768   5.285
 3789SOL    HW212267   0.435   2.838   5.433
 3790SOL     OW12268   1.387   4.381   5.555
 3790SOL    HW112269   1.358   4.394   5.460
 3790SOL    HW212270   1.435   4.463   5.587
 3791SOL     OW12271   5.535   0.624   6.862
 3791SOL    HW112272   5.598   0.688   6.818
 3791SOL    HW212273   5.443   0.664   6.865
 3792SOL     OW12274   0.814   2.023   5.141
 3792SOL    HW112275   0.750   2.046   5.215
 3792SOL    HW212276   0.866   2.105   5.117
 3793SOL     OW12277   5.022   6.782   2.248
 3793SOL    HW112278   4.944   6.843   2.263
 3793SOL    HW212279   5.105   6.836   2.235
 3794SOL     OW12280   2.364   4.013   0.724
 3794SOL    HW112281   2.436   3.966   0.673
 3794SOL    HW212282   2.300   3.946   0.761
 3795SOL     OW12283   4.155   6.796   7.019
 3795SOL    HW112284   4.098   6.784   6.937
 3795SOL    HW212285   4.160   6.709   0.048
 3796SOL     OW12286   2.874   1.952   2.245
 3796SOL    HW112287   2.905   2.034   2.293
 3796SOL    HW212288   2.824   1.979   2.162
 3797SOL     OW12289   6.774   4.160   1.356
 3797SOL    HW112290   6.769   4.115   1.445
 3797SOL    HW212291   6.724   4.106   1.288
 3798SOL     OW12292   2.278   5.618   2.801
 3798SOL    HW112293   2.286   5.638   2.704
 3798SOL    HW212294   2.369   5.615   2.842
 3799SOL     OW12295   0.664   2.399   4.065
 3799SOL    HW112296   0.572   2.377   4.097
 3799SOL    HW212297   0.721   2.317   4.071
 3800SOL     OW12298   5.580   3.384   3.896
 3800SOL    HW112299   5.569   3.336   3.809
 3800SOL    HW212300   5.616   3.321   3.965
 3801SOL     OW12301   6.094   6.569   3.208
 3801SOL    HW112302   6.086   6.526   3.118
 3801SOL    HW212303   6.189   6.565   3.239
 3802SOL     OW12304   1.288   2.059   3.080
 3802SOL    HW112305   1.202   2.024   3.117
 3802SOL    HW212306   1.317   2.139   3.132
 3803SOL     OW12307   3.264   2.288   1.487
 3803SOL    HW112308   3.312   2.376   1.485
 3803SOL    HW212309   3.190   2.291   1.554
 3804SOL     OW12310   4.636   1.462   3.934
 3804SOL    HW112311   4.594   1.413   4.010
 3804SOL    HW212312   4.566   1.486   3.867
 3805SOL     OW12313   2.532   2.768   1.684
 3805SOL    HW112314   2.609   2.825   1.712
 3805SOL    HW212315   2.516   2.697   1.753
 3806SOL     OW12316   3.483   3.906   6.493
 3806SOL    HW112317   3.394   3.881   6.453
 3806SOL    HW212318   3.493   4.005   6.491
 3807SOL     OW12319   1.457   5.803   2.654
 3807SOL    HW112320   1.433   5.776   2.561
 3807SOL    HW212321   1.557   5.807   2.663
 3808SOL     OW12322   3.899   0.513   0.775
 3808SOL    HW112323   3.870   0.591   0.832
 3808SOL    HW212324   3.961   0.545   0.704
 3809SOL     OW12325   5.326   3.060   1.090
 3809SOL    HW112326   5.298   3.155   1.078
 3809SOL    HW212327   5.348   3.021   1.001
 3810SOL     OW12328   4.391   2.454   4.516
 3810SOL    HW112329   4.328   2.500   4.579
 3810SOL    HW212330   4.484   2.457   4.553
 3811SOL     OW12331   1.076   4.251   4.456
 3811SOL    HW112332   1.136   4.312   4.404
 3811SOL    HW212333   1.113   4.158   4.454
 3812SOL     OW12334   5.238   6.491   4.489
 3812SOL    HW112335   5.168   6.420   4.500
 3812SOL    HW212336   5.244   6.517   4.393
 3813SOL     OW12337   4.545   4.454   0.163
 3813SOL    HW112338   4.478   4.454   0.238
 3813SOL    HW212339   4.594   4.367   0.162
 3814SOL     OW12340   0.185   6.778   6.980
 3814SOL    HW112341   0.180   6.878   6.981
 3814SOL    HW212342   0.217   6.746   6.891
 3815SOL     OW12343   4.203   2.436   0.774
 3815SOL    HW112344   4.299   2.410   0.781
 3815SOL    HW212345   4.195   2.514   0.712
 3816SOL     OW12346   0.938   6.019   6.837
 3816SOL    HW112347   1.007   6.091   6.831
 3816SOL    HW212348   0.978   5.938   6.880
 3817SOL     OW12349   4.841   4.187   2.684
 3817SOL    HW112350   4.926   4.218   2.726
 3817SOL    HW212351   4.850   4.091   2.658
 3818SOL     OW12352   5.881   0.933   0.342
 3818SOL    HW112353   5.957   0.875   0.370
 3818SOL    HW212354   5.851   0.989   0.419
 3819SOL     OW12355   5.218   5.859   2.060
 3819SOL    HW112356   5.316   5.875   2.043
 3819SOL    HW212357   5.188   5.778   2.010
 3820SOL     OW12358   5.532   6.820   3.542
 3820SOL    HW112359   5.599   6.843   3.612
 3820SOL    HW212360   5.458   6.766   3.582
 3821SOL     OW12361   2.371   1.694   0.950
 3821SOL    HW112362   2.325   1.622   0.899
 3821SOL    HW212363   2.323   1.710   1.036
 3822SOL     OW12364   2.120   6.819   2.118
 3822SOL    HW112365   2.028   6.794   2.147
 3822SOL    HW212366   2.115   6.886   2.044
 3823SOL     OW12367   3.152   2.952   5.887
 3823SOL    HW112368   3.155   2.970   5.986
 3823SOL    HW212369   3.118   2.859   5.872
 3824SOL     OW12370   6.016   2.441   0.776
 3824SOL    HW112371   5.919   2.417   0.788
 3824SOL    HW212372   6.072   2.377   0.828
 3825SOL     OW12373   0.416   6.245   0.882
 3825SOL    HW112374   0.367   6.171   0.928
 3825SOL    HW212375   0.381   6.255   0.788
 3826SOL     OW12376   1.017   2.971   0.112
 3826SOL    HW112377   1.111   2.960   0.080
 3826SOL    HW212378   0.970   3.040   0.057
 3827SOL     OW12379   2.164   2.840   1.245
 3827SOL    HW112380   2.251   2.826   1.198
 3827SOL    HW212381   2.171   2.807   1.339
 3828SOL     OW12382   3.593   2.612   1.734
 3828SOL    HW112383   3.602   2.523   1.780
 3828SOL    HW212384   3.497   2.627   1.710
 3829SOL     OW12385   1.114   4.755   4.240
 3829SOL    HW112386   1.144   4.721   4.329
 3829SOL    HW212387   1.162   4.840   4.219
 3830SOL     OW12388   0.803   1.280   4.128
 3830SOL    HW112389   0.733   1.275   4.199
 3830SOL    HW212390   0.854   1.366   4.138
 3831SOL     OW12391   4.485   2.499   2.070
 3831SOL    HW112392   4.546   2.578   2.066
 3831SOL    HW212393   4.418   2.505   1.997
 3832SOL     OW12394   6.135   1.062   2.729
 3832SOL    HW112395   6.207   1.130   2.743
 3832SOL    HW212396   6.079   1.087   2.650
 3833SOL     OW12397   0.476   6.275   5.644
 3833SOL    HW112398   0.489   6.245   5.549
 3833SOL    HW212399   0.387   6.244   5.677
 3834SOL     OW12400   4.882   3.672   1.807
 3834SOL    HW112401   4.786   3.667   1.782
 3834SOL    HW212402   4.903   3.764   1.839
 3835SOL     OW12403   3.129   5.587   4.708
 3835SOL    HW112404   3.212   5.541   4.678
 3835SOL    HW212405   3.052   5.523   4.706
 3836SOL     OW12406   1.681   3.920   5.675
 3836SOL    HW112407   1.586   3.946   5.692
 3836SOL    HW212408   1.685   3.857   5.598
 3837SOL     OW12409   5.027   4.254   6.447
 3837SOL    HW112410   5.074   4.257   6.359
 3837SOL    HW212411   4.996   4.346   6.472
 3838SOL     OW12412   6.917   3.735   4.894
 3838SOL    HW112413   6.878   3.760   4.983
 3838SOL    HW212414   6.880   3.647   4.866
 3839SOL     OW12415   4.180   0.807   3.809
 3839SOL    HW112416   4.248   0.880   3.811
 3839SOL    HW212417   4.100   0.834   3.862
 3840SOL     OW12418   1.995   1.381   5.646
 3840SOL    HW112419   2.079   1.360   5.695
 3840SOL    HW212420   1.922   1.320   5.677
 3841SOL     OW12421   0.352   3.464   5.148
 3841SOL    HW112422   0.310   3.535   5.205
 3841SOL    HW212423   0.443   3.494   5.120
 3842SOL     OW12424   1.535   3.618   6.669
 3842SOL    HW112425   1.492   3.687   6.728
 3842SOL    HW212426   1.633   3.615   6.688
 3843SOL     OW12427   6.531   4.180   2.702
 3843SOL    HW112428   6.504   4.268   2.662
 3843SOL    HW212429   6.511   4.179   2.800
 3844SOL     OW12430   0.241   2.951   6.224
 3844SOL    HW112431   0.296   3.033   6.208
 3844SOL    HW212432   0.145   2.971   6.205
 3845SOL     OW12433   3.882   3.045   3.618
 3845SOL    HW112434   3.833   3.017   3.701
 3845SOL    HW212435   3.940   2.970   3.586
 3846SOL     OW12436   0.989   5.127   3.982
 3846SOL    HW112437   1.083   5.157   3.973
 3846SOL    HW212438   0.958   5.086   3.896
 3847SOL     OW12439   6.265   0.847   4.542
 3847SOL    HW112440   6.239   0.756   4.576
 3847SOL    HW212441   6.241   0.915   4.611
 3848SOL     OW12442   3.062   5.461   2.882
 3848SOL    HW112443   3.044   5.363   2.874
 3848SOL    HW212444   3.143   5.485   2.828
 3849SOL     OW12445   0.830   1.321   5.197
 3849SOL    HW112446   0.743   1.328   5.244
 3849SOL    HW212447   0.817   1.340   5.099
 3850SOL     OW12448   2.649   3.250   1.144
 3850SOL    HW112449   2.569   3.241   1.202
 3850SOL    HW212450   2.625   3.303   1.062
 3851SOL     OW12451   2.023   4.240   2.644
 3851SOL    HW112452   1.953   4.227   2.714
 3851SOL    HW212453   1.996   4.194   2.560
 3852SOL     OW12454   4.452   6.775   3.946
 3852SOL    HW112455   4.531   6.809   3.997
 3852SOL    HW212456   4.397   6.717   4.005
 3853SOL     OW12457   1.008   3.073   3.193
 3853SOL    HW112458   1.092   3.112   3.231
 3853SOL    HW212459   1.023   2.978   3.167
 3854SOL     OW12460   1.017   3.667   2.342
 3854SOL    HW112461   0.966   3.753   2.343
 3854SOL    HW212462   0.961   3.596   2.299
 3855SOL     OW12463   5.178   6.340   6.935
 3855SOL    HW112464   5.228   6.415   6.891
 3855SOL    HW212465   5.236   6.259   6.940
 3856SOL     OW12466   6.911   6.597   5.707
 3856SOL    HW112467   6.998   6.601   5.659
 3856SOL    HW212468   6.926   6.569   5.802
 3857SOL     OW12469   0.603   6.037   6.299
 3857SOL    HW112470   0.535   5.988   6.354
 3857SOL    HW212471   0.667   6.083   6.360
 3858SOL     OW12472   1.590   6.566   5.628
 3858SOL    HW112473   1.525   6.641   5.618
 3858SOL    HW212474   1.540   6.480   5.636
 3859SOL     OW12475   6.534   1.927   2.995
 3859SOL    HW112476   6.627   1.918   3.031
 3859SOL    HW212477   6.469   1.884   3.059
 3860SOL     OW12478   2.043   0.187   5.357
 3860SOL    HW112479   2.054   0.286   5.347
 3860SOL    HW212480   2.000   0.168   5.446
 3861SOL     OW12481   4.984   4.700   2.592
 3861SOL    HW112482   4.982   4.644   2.509
 3861SOL    HW212483   5.069   4.683   2.641
 3862SOL     OW12484   0.892   0.324   4.744
 3862SOL    HW112485   0.908   0.225   4.735
 3862SOL    HW212486   0.964   0.364   4.801
 3863SOL     OW12487   4.971   2.932   6.581
 3863SOL    HW112488   5.002   2.857   6.639
 3863SOL    HW212489   4.971   2.903   6.486
 3864SOL     OW12490   3.102   0.753   5.676
 3864SOL    HW112491   3.080   0.814   5.600
 3864SOL    HW212492   3.195   0.716   5.664
 3865SOL     OW12493   3.611   6.982   0.547
 3865SOL    HW112494   3.707   6.998   0.523
 3865SOL    HW212495   3.604   6.901   0.605
 3866SOL     OW12496   4.116   1.125   0.906
 3866SOL    HW112497   4.077   1.183   0.978
 3866SOL    HW212498   4.171   1.182   0.844
 3867SOL     OW12499   1.502   3.860   3.761
 3867SOL    HW112500   1.480   3.766   3.786
 3867SOL    HW212501   1.419   3.906   3.728
 3868SOL     OW12502   2.676   6.924   0.989
 3868SOL    HW112503   2.657   6.909   0.892
 3868SOL    HW212504   2.699   6.836   1.032
 3869SOL     OW12505   0.013   3.179   5.188
 3869SOL    HW112506   6.936   3.169   5.180
 3869SOL    HW212507   0.041   3.270   5.159
 3870SOL     OW12508   4.403   4.913   0.493
 3870SOL    HW112509   4.323   4.965   0.522
 3870SOL    HW212510   4.387   4.876   0.401
 3871SOL     OW12511   4.437   0.283   2.067
 3871SOL    HW112512   4.474   0.370   2.100
 3871SOL    HW212513   4.510   0.228   2.027
 3872SOL     OW12514   3.951   2.938   1.868
 3872SOL    HW112515   3.885   2.903   1.802
 3872SOL    HW212516   3.911   2.935   1.960
 3873SOL     OW12517   6.755   4.679   1.317
 3873SOL    HW112518   6.782   4.597   1.368
 3873SOL    HW212519   6.814   4.689   1.237
 3874SOL     OW12520   3.525   6.015   6.706
 3874SOL    HW112521   3.501   5.921   6.728
 3874SOL    HW212522   3.507   6.033   6.610
 3875SOL     OW12523   1.164   2.793   2.107
 3875SOL    HW112524   1.065   2.782   2.111
 3875SOL    HW212525   1.194   2.852   2.181
 3876SOL     OW12526   5.865   5.095   0.142
 3876SOL    HW112527   5.781   5.143   0.118
 3876SOL    HW212528   5.848   5.035   0.221
 3877SOL     OW12529   6.920   2.479   6.782
 3877SOL    HW112530   6.969   2.492   6.696
 3877SOL    HW212531   6.821   2.483   6.766
 3878SOL     OW12532   2.511   6.617   5.511
 3878SOL    HW112533   2.504   6.522   5.541
 3878SOL    HW212534   2.442   6.672   5.557
 3879SOL     OW12535   5.151   6.733   1.107
 3879SOL    HW112536   5.188   6.766   1.020
 3879SOL    HW212537   5.225   6.695   1.162
 3880SOL     OW12538   6.222   4.479   3.607
 3880SOL    HW112539   6.151   4.426   3.560
 3880SOL    HW212540   6.190   4.573   3.620
 3881SOL     OW12541   1.351   4.824   0.687
 3881SOL    HW112542   1.388   4.800   0.777
 3881SOL    HW212543   1.316   4.917   0.689
 3882SOL     OW12544   6.196   1.606   4.815
 3882SOL    HW112545   6.132   1.594   4.739
 3882SOL    HW212546   6.285   1.635   4.779
 3883SOL     OW12547   4.697   0.967   3.253
 3883SOL    HW112548   4.751   0.885   3.231
 3883SOL    HW212549   4.712   0.991   3.348
 3884SOL     OW12550   1.652   6.014   4.032
 3884SOL    HW112551   1.599   6.094   4.004
 3884SOL    HW212552   1.749   6.037   4.033
 3885SOL     OW12553   6.561   0.971   4.070
 3885SOL    HW112554   6.506   0.975   4.154
 3885SOL    HW212555   6.564   1.061   4.028
 3886SOL     OW12556   6.488   6.441   4.979
 3886SOL    HW112557   6.509   6.513   5.046
 3886SOL    HW212558   6.557   6.369   4.986
 3887SOL     OW12559   5.370   1.572   5.367
 3887SOL    HW112560   5.360   1.669   5.388
 3887SOL    HW212561   5.280   1.534   5.342
 3888SOL     OW12562   0.623   0.445   6.563
 3888SOL    HW112563   0.598   0.466   6.657
 3888SOL    HW212564   0.675   0.359   6.560
 3889SOL     OW12565   0.033   2.610   5.900
 3889SOL    HW112566   0.118   2.643   5.858
 3889SOL    HW212567   6.985   2.599   5.829
 3890SOL     OW12568   5.786   5.749   2.615
 3890SOL    HW112569   5.722   5.685   2.573
 3890SOL    HW212570   5.844   5.789   2.544
 3891SOL     OW12571   5.203   5.107   4.570
 3891SOL    HW112572   5.112   5.124   4.532
 3891SOL    HW212573   5.201   5.023   4.624
 3892SOL     OW12574   0.290   1.266   2.402
 3892SOL    HW112575   0.390   1.274   2.405
 3892SOL    HW212576   0.256   1.236   2.491
 3893SOL     OW12577   2.786   5.374   1.981
 3893SOL    HW112578   2.840   5.456   2.003
 3893SOL    HW212579   2.843   5.293   1.990
 3894SOL     OW12580   2.765   1.977   0.500
 3894SOL    HW112581   2.712   1.998   0.582
 3894SOL    HW212582   2.793   2.062   0.455
 3895SOL     OW12583   0.885   0.776   5.553
 3895SOL    HW112584   0.932   0.856   5.517
 3895SOL    HW212585   0.952   0.710   5.586
 3896SOL     OW12586   0.124   2.303   6.048
 3896SOL    HW112587   0.040   2.357   6.060
 3896SOL    HW212588   0.107   2.209   6.077
 3897SOL     OW12589   3.670   6.417   2.031
 3897SOL    HW112590   3.671   6.443   1.934
 3897SOL    HW212591   3.618   6.332   2.041
 3898SOL     OW12592   3.146   3.328   3.554
 3898SOL    HW112593   3.078   3.273   3.603
 3898SOL    HW212594   3.236   3.313   3.594
 3899SOL     OW12595   4.885   1.002   4.447
 3899SOL    HW112596   4.830   0.937   4.499
 3899SOL    HW212597   4.973   0.961   4.424
 3900SOL     OW12598   5.177   3.281   3.130
 3900SOL    HW112599   5.101   3.344   3.146
 3900SOL    HW212600   5.186   3.219   3.207
 3901SOL     OW12601   3.076   6.374   5.725
 3901SOL    HW112602   3.105   6.419   5.640
 3901SOL    HW212603   3.130   6.291   5.739
 3902SOL     OW12604   4.881   3.914   1.959
 3902SOL    HW112605   4.867   3.878   2.052
 3902SOL    HW212606   4.828   3.997   1.947
 3903SOL     OW12607   4.751   3.549   7.013
 3903SOL    HW112608   4.740   3.465   0.044
 3903SOL    HW212609   4.844   3.585   0.004
 3904SOL     OW12610   1.978   1.067   6.288
 3904SOL    HW112611   2.035   0.986   6.275
 3904SOL    HW212612   1.973   1.088   6.386
 3905SOL     OW12613   5.967   6.271   6.066
 3905SOL    HW112614   6.043   6.252   6.005
 3905SOL    HW212615   5.999   6.268   6.161
 3906SOL     OW12616   1.852   4.822   5.901
 3906SOL    HW112617   1.832   4.791   5.808
 3906SOL    HW212618   1.767   4.824   5.955
 3907SOL     OW12619   0.148   0.865   4.201
 3907SOL    HW112620   0.208   0.796   4.242
 3907SOL    HW212621   0.198   0.913   4.129
 3908SOL     OW12622   1.241   1.309   6.411
 3908SOL    HW112623   1.340   1.307   6.425
 3908SOL    HW212624   1.218   1.382   6.347
 3909SOL     OW12625   6.640   4.329   6.443
 3909SOL    HW112626   6.587   4.305   6.362
 3909SOL    HW212627   6.591   4.301   6.525
 3910SOL     OW12628   3.744   4.093   2.028
 3910SOL    HW112629   3.789   4.027   1.969
 3910SOL    HW212630   3.809   4.128   2.096
 3911SOL     OW12631   4.980   1.077   0.722
 3911SOL    HW112632   4.883   1.062   0.705
 3911SOL    HW212633   5.025   1.105   0.637
 3912SOL     OW12634   3.902   0.957   6.108
 3912SOL    HW112635   3.873   0.870   6.067
 3912SOL    HW212636   3.970   0.939   6.179
 3913SOL     OW12637   3.412   6.455   6.764
 3913SOL    HW112638   3.391   6.368   6.807
 3913SOL    HW212639   3.495   6.494   6.805
 3914SOL     OW12640   5.260   0.794   1.274
 3914SOL    HW112641   5.240   0.776   1.370
 3914SOL    HW212642   5.226   0.718   1.218
 3915SOL     OW12643   4.640   6.749   6.926
 3915SOL    HW112644   4.555   6.786   6.889
 3915SOL    HW212645   4.639   6.649   6.916
 3916SOL     OW12646   2.820   0.099   3.165
 3916SOL    HW112647   2.794   0.002   3.161
 3916SOL    HW212648   2.917   0.107   3.188
 3917SOL     OW12649   1.486   4.722   0.912
 3917SOL    HW112650   1.438   4.660   0.974
 3917SOL    HW212651   1.547   4.781   0.965
 3918SOL     OW12652   3.557   6.944   1.165
 3918SOL    HW112653   3.522   6.963   1.257
 3918SOL    HW212654   3.558   0.008   1.112
 3919SOL     OW12655   3.701   0.409   6.691
 3919SOL    HW112656   3.705   0.446   6.784
 3919SOL    HW212657   3.624   0.451   6.643
 3920SOL     OW12658   2.622   0.741   6.918
 3920SOL    HW112659   2.595   0.763   7.012
 3920SOL    HW212660   2.686   0.811   6.885
 3921SOL     OW12661   0.104   1.849   6.942
 3921SOL    HW112662   0.030   1.914   6.957
 3921SOL    HW212663   0.149   1.869   6.855
 3922SOL     OW12664   4.985   4.743   1.302
 3922SOL    HW112665   4.903   4.690   1.280
 3922SOL    HW212666   4.985   4.767   1.399
 3923SOL     OW12667   5.363   2.215   0.876
 3923SOL    HW112668   5.423   2.154   0.824
 3923SOL    HW212669   5.268   2.186   0.865
 3924SOL     OW12670   0.499   4.604   3.281
 3924SOL    HW112671   0.593   4.604   3.316
 3924SOL    HW212672   0.436   4.576   3.353
 3925SOL     OW12673   5.060   4.993   1.216
 3925SOL    HW112674   5.066   4.982   1.117
 3925SOL    HW212675   5.025   4.908   1.256
 3926SOL     OW12676   0.338   0.414   5.286
 3926SOL    HW112677   0.262   0.477   5.271
 3926SOL    HW212678   0.390   0.442   5.366
 3927SOL     OW12679   0.297   2.774   4.119
 3927SOL    HW112680   0.245   2.694   4.150
 3927SOL    HW212681   0.352   2.750   4.039
 3928SOL     OW12682   3.211   5.748   2.835
 3928SOL    HW112683   3.224   5.821   2.767
 3928SOL    HW212684   3.123   5.704   2.821
 3929SOL     OW12685   0.107   1.137   0.170
 3929SOL    HW112686   0.129   1.222   0.122
 3929SOL    HW212687   0.008   1.132   0.184
 3930SOL     OW12688   0.780   2.299   3.517
 3930SOL    HW112689   0.697   2.341   3.553
 3930SOL    HW212690   0.771   2.199   3.519
 3931SOL     OW12691   1.877   1.943   1.731
 3931SOL    HW112692   1.943   1.985   1.794
 3931SOL    HW212693   1.805   2.010   1.710
 3932SOL     OW12694   2.361   5.183   4.064
 3932SOL    HW112695   2.384   5.086   4.072
 3932SOL    HW212696   2.434   5.238   4.105
 3933SOL     OW12697   1.504   6.923   0.112
 3933SOL    HW112698   1.515   0.000   0.123
 3933SOL    HW212699   1.518   6.878   0.200
 3934SOL     OW12700   0.016   1.036   3.104
 3934SOL    HW112701   0.021   1.134   3.121
 3934SOL    HW212702   0.044   1.016   3.010
 3935SOL     OW12703   0.523   1.702   5.769
 3935SOL    HW112704   0.525   1.603   5.780
 3935SOL    HW212705   0.536   1.746   5.858
 3936SOL     OW12706   7.005   6.307   5.640
 3936SOL    HW112707   6.919   6.280   5.597
 3936SOL    HW212708   0.025   6.382   5.589
 3937SOL     OW12709   0.264   6.461   3.288
 3937SOL    HW112710   0.165   6.466   3.298
 3937SOL    HW212711   0.292   6.366   3.278
 3938SOL     OW12712   6.549   3.566   4.342
 3938SOL    HW112713   6.534   3.467   4.333
 3938SOL    HW212714   6.473   3.615   4.300
 3939SOL     OW12715   2.895   1.686   3.907
 3939SOL    HW112716   2.954   1.635   3.970
 3939SOL    HW212717   2.873   1.629   3.828
 3940SOL     OW12718   2.802   4.733   1.726
 3940SOL    HW112719   2.826   4.650   1.776
 3940SOL    HW212720   2.710   4.762   1.751
 3941SOL     OW12721   5.550   0.045   4.503
 3941SOL    HW112722   5.596   7.015   4.575
 3941SOL    HW212723   5.604   0.040   4.419
 3942SOL     OW12724   0.859   6.221   5.463
 3942SOL    HW112725   0.918   6.143   5.444
 3942SOL    HW212726   0.892   6.269   5.544
 3943SOL     OW12727   0.800   3.511   2.278
 3943SOL    HW112728   0.800   3.416   2.245
 3943SOL    HW212729   0.775   3.513   2.375
 3944SOL     OW12730   5.620   3.703   5.723
 3944SOL    HW112731   5.643   3.800   5.726
 3944SOL    HW212732   5.581   3.675   5.810
 3945SOL     OW12733   1.297   2.258   3.289
 3945SOL    HW112734   1.362   2.261   3.365
 3945SOL    HW212735   1.205   2.270   3.324
 3946SOL     OW12736   0.514   3.722   6.511
 3946SOL    HW112737   0.415   3.716   6.523
 3946SOL    HW212738   0.542   3.661   6.437
 3947SOL     OW12739   5.761   4.922   0.649
 3947SOL    HW112740   5.709   5.006   0.634
 3947SOL    HW212741   5.858   4.944   0.656
 3948SOL     OW12742   1.450   3.794   6.873
 3948SOL    HW112743   1.537   3.841   6.889
 3948SOL    HW212744   1.374   3.856   6.892
 3949SOL     OW12745   6.283   0.245   3.535
 3949SOL    HW112746   6.325   0.212   3.619
 3949SOL    HW212747   6.279   0.171   3.468
 3950SOL     OW12748   4.120   4.032   1.790
 3950SOL    HW112749   4.182   4.110   1.799
 3950SOL    HW212750   4.027   4.061   1.810
 3951SOL     OW12751   0.220   1.395   6.707
 3951SOL    HW112752   0.237   1.484   6.665
 3951SOL    HW212753   0.274   1.386   6.791
 3952SOL     OW12754   6.057   3.080   4.363
 3952SOL    HW112755   5.960   3.058   4.365
 3952SOL    HW212756   6.110   3.001   4.394
 3953SOL     OW12757   3.568   4.407   5.588
 3953SOL    HW112758   3.589   4.310   5.575
 3953SOL    HW212759   3.469   4.419   5.596
 3954SOL     OW12760   6.173   5.030   5.895
 3954SOL    HW112761   6.244   5.052   5.962
 3954SOL    HW212762   6.134   5.115   5.859
 3955SOL     OW12763   4.772   6.255   0.008
 3955SOL    HW112764   4.801   6.190   0.078
 3955SOL    HW212765   4.777   6.212   6.939
 3956SOL     OW12766   0.855   2.735   5.184
 3956SOL    HW112767   0.881   2.752   5.089
 3956SOL    HW212768   0.800   2.652   5.190
 3957SOL     OW12769   3.364   6.046   3.444
 3957SOL    HW112770   3.294   6.109   3.478
 3957SOL    HW212771   3.434   6.033   3.514
 3958SOL     OW12772   6.063   6.160   0.009
 3958SOL    HW112773   5.992   6.209   6.980
 3958SOL    HW212774   6.044   6.166   0.107
 3959SOL     OW12775   3.375   6.404   1.215
 3959SOL    HW112776   3.312   6.417   1.139
 3959SOL    HW212777   3.456   6.461   1.200
 3960SOL     OW12778   5.483   2.342   5.923
 3960SOL    HW112779   5.421   2.413   5.956
 3960SOL    HW212780   5.455   2.313   5.831
 3961SOL     OW12781   5.250   2.152   1.237
 3961SOL    HW112782   5.211   2.180   1.325
 3961SOL    HW212783   5.215   2.211   1.164
 3962SOL     OW12784   0.545   5.814   6.748
 3962SOL    HW112785   0.609   5.785   6.819
 3962SOL    HW212786   0.452   5.812   6.784
 3963SOL     OW12787   5.909   5.373   3.572
 3963SOL    HW112788   5.963   5.438   3.626
 3963SOL    HW212789   5.836   5.336   3.629
 3964SOL     OW12790   4.436   5.730   5.375
 3964SOL    HW112791   4.511   5.762   5.317
 3964SOL    HW212792   4.408   5.804   5.436
 3965SOL     OW12793   3.663   4.991   5.755
 3965SOL    HW112794   3.615   4.915   5.799
 3965SOL    HW212795   3.600   5.037   5.692
 3966SOL     OW12796   6.567   4.610   0.142
 3966SOL    HW112797   6.570   4.527   0.198
 3966SOL    HW212798   6.491   4.668   0.171
 3967SOL     OW12799   1.059   4.602   3.098
 3967SOL    HW112800   1.086   4.660   3.021
 3967SOL    HW212801   0.978   4.549   3.072
 3968SOL     OW12802   5.813   0.618   1.983
 3968SOL    HW112803   5.776   0.564   1.907
 3968SOL    HW212804   5.743   0.682   2.016
 3969SOL     OW12805   0.924   4.513   2.497
 3969SOL    HW112806   0.829   4.524   2.469
 3969SOL    HW212807   0.975   4.468   2.424
 3970SOL     OW12808   5.103   5.386   3.790
 3970SOL    HW112809   5.180   5.393   3.853
 3970SOL    HW212810   5.061   5.296   3.799
 3971SOL     OW12811   3.094   5.267   2.528
 3971SOL    HW112812   3.035   5.340   2.495
 3971SOL    HW212813   3.102   5.196   2.459
 3972SOL     OW12814   0.672   6.101   0.539
 3972SOL    HW112815   0.682   6.029   0.470
 3972SOL    HW212816   0.578   6.101   0.573
 3973SOL     OW12817   3.180   3.565   5.036
 3973SOL    HW112818   3.176   3.653   4.990
 3973SOL    HW212819   3.276   3.539   5.050
 3974SOL     OW12820   0.674   0.759   6.231
 3974SOL    HW112821   0.722   0.736   6.316
 3974SOL    HW212822   0.740   0.771   6.157
 3975SOL     OW12823   6.353   0.558   5.933
 3975SOL    HW112824   6.288   0.578   6.007
 3975SOL    HW212825   6.309   0.497   5.866
 3976SOL     OW12826   1.077   4.759   1.058
 3976SOL    HW112827   1.018   4.830   1.020
 3976SOL    HW212828   1.031   4.671   1.051
 3977SOL     OW12829   2.895   5.216   5.928
 3977SOL    HW112830   2.832   5.142   5.951
 3977SOL    HW212831   2.985   5.177   5.909
 3978SOL     OW12832   5.105   0.996   4.778
 3978SOL    HW112833   5.160   1.076   4.803
 3978SOL    HW212834   5.137   0.960   4.690
 3979SOL     OW12835   2.259   6.338   1.828
 3979SOL    HW112836   2.215   6.278   1.761
 3979SOL    HW212837   2.284   6.285   1.909
 3980SOL     OW12838   0.176   3.941   5.802
 3980SOL    HW112839   0.199   4.038   5.807
 3980SOL    HW212840   0.241   3.888   5.856
 3981SOL     OW12841   1.117   1.831   5.852
 3981SOL    HW112842   1.076   1.922   5.840
 3981SOL    HW212843   1.044   1.764   5.865
 3982SOL     OW12844   2.804   0.495   4.287
 3982SOL    HW112845   2.815   0.420   4.222
 3982SOL    HW212846   2.839   0.580   4.246
 3983SOL     OW12847   3.125   6.058   4.053
 3983SOL    HW112848   3.082   6.043   4.142
 3983SOL    HW212849   3.147   5.969   4.012
 3984SOL     OW12850   2.599   0.391   1.488
 3984SOL    HW112851   2.597   0.488   1.513
 3984SOL    HW212852   2.506   0.356   1.481
 3985SOL     OW12853   2.332   4.203   6.834
 3985SOL    HW112854   2.303   4.155   6.751
 3985SOL    HW212855   2.308   4.148   6.914
 3986SOL     OW12856   0.048   1.702   3.249
 3986SOL    HW112857   0.045   1.667   3.342
 3986SOL    HW212858   0.087   1.632   3.188
 3987SOL     OW12859   1.542   5.277   5.149
 3987SOL    HW112860   1.476   5.328   5.203
 3987SOL    HW212861   1.494   5.218   5.084
 3988SOL     OW12862   3.600   1.788   5.621
 3988SOL    HW112863   3.664   1.714   5.643
 3988SOL    HW212864   3.508   1.751   5.613
 3989SOL     OW12865   5.908   0.789   5.992
 3989SOL    HW112866   5.809   0.786   5.983
 3989SOL    HW212867   5.951   0.759   5.907
 3990SOL     OW12868   5.637   1.930   3.995
 3990SOL    HW112869   5.692   1.932   4.078
 3990SOL    HW212870   5.697   1.918   3.915
 3991SOL     OW12871   6.717   2.272   3.748
 3991SOL    HW112872   6.777   2.334   3.797
 3991SOL    HW212873   6.677   2.319   3.669
 3992SOL     OW12874   4.585   2.985   6.662
 3992SOL    HW112875   4.505   3.039   6.640
 3992SOL    HW212876   4.664   3.045   6.676
 3993SOL     OW12877   2.289   1.878   3.585
 3993SOL    HW112878   2.212   1.826   3.549
 3993SOL    HW212879   2.338   1.922   3.510
 3994SOL     OW12880   2.061   2.770   5.071
 3994SOL    HW112881   1.995   2.702   5.041
 3994SOL    HW212882   2.154   2.734   5.059
 3995SOL     OW12883   2.222   4.884   3.877
 3995SOL    HW112884   2.295   4.939   3.838
 3995SOL    HW212885   2.235   4.877   3.976
 3996SOL     OW12886   2.041   1.311   5.114
 3996SOL    HW112887   2.076   1.275   5.027
 3996SOL    HW212888   2.028   1.410   5.106
 3997SOL     OW12889   4.928   3.704   3.537
 3997SOL    HW112890   5.023   3.733   3.534
 3997SOL    HW212891   4.921   3.609   3.509
 3998SOL     OW12892   5.351   2.283   2.034
 3998SOL    HW112893   5.339   2.209   1.967
 3998SOL    HW212894   5.410   2.251   2.108
 3999SOL     OW12895   5.922   3.476   3.634
 3999SOL    HW112896   5.979   3.493   3.554
 3999SOL    HW212897   5.848   3.543   3.638
 4000SOL     OW12898   3.326   5.388   2.620
 4000SOL    HW112899   3.237   5.350   2.597
 4000SOL    HW212900   3.389   5.372   2.544
 4001SOL     OW12901   2.363   3.486   5.344
 4001SOL    HW112902   2.305   3.525   5.273
 4001SOL    HW212903   2.415   3.410   5.305
 4002SOL     OW12904   3.695   3.918   5.244
 4002SOL    HW112905   3.636   3.884   5.316
 4002SOL    HW212906   3.662   4.007   5.212
 4003SOL     OW12907   1.812   1.222   5.821
 4003SOL    HW112908   1.732   1.200   5.764
 4003SOL    HW212909   1.810   1.165   5.903
 4004SOL     OW12910   5.869   2.899   4.646
 4004SOL    HW112911   5.850   2.916   4.550
 4004SOL    HW212912   5.954   2.847   4.655
 4005SOL     OW12913   4.957   4.326   1.057
 4005SOL    HW112914   4.986   4.274   0.977
 4005SOL    HW212915   5.012   4.299   1.136
 4006SOL     OW12916   5.179   4.639   2.191
 4006SOL    HW112917   5.153   4.732   2.216
 4006SOL    HW212918   5.097   4.589   2.160
 4007SOL     OW12919   0.585   2.543   2.409
 4007SOL    HW112920   0.488   2.566   2.412
 4007SOL    HW212921   0.638   2.626   2.393
 4008SOL     OW12922   3.337   1.481   6.025
 4008SOL    HW112923   3.321   1.452   5.931
 4008SOL    HW212924   3.409   1.550   6.027
 4009SOL     OW12925   4.053   2.227   0.912
 4009SOL    HW112926   4.005   2.313   0.894
 4009SOL    HW212927   4.141   2.227   0.866
 4010SOL     OW12928   2.792   3.149   1.545
 4010SOL    HW112929   2.795   3.204   1.628
 4010SOL    HW212930   2.743   3.064   1.563
 4011SOL     OW12931   0.284   6.674   2.094
 4011SOL    HW112932   0.242   6.763   2.113
 4011SOL    HW212933   0.320   6.635   2.179
 4012SOL     OW12934   4.319   6.158   2.018
 4012SOL    HW112935   4.263   6.114   2.088
 4012SOL    HW212936   4.330   6.255   2.040
 4013SOL     OW12937   2.616   0.341   1.224
 4013SOL    HW112938   2.589   0.331   1.320
 4013SOL    HW212939   2.636   0.437   1.204
 4014SOL     OW12940   3.594   5.752   4.164
 4014SOL    HW112941   3.677   5.713   4.123
 4014SOL    HW212942   3.533   5.783   4.091
 4015SOL     OW12943   4.675   4.480   6.659
 4015SOL    HW112944   4.699   4.385   6.676
 4015SOL    HW212945   4.679   4.532   6.745
 4016SOL     OW12946   2.358   5.688   0.186
 4016SOL    HW112947   2.433   5.635   0.225
 4016SOL    HW212948   2.351   5.775   0.235
 4017SOL     OW12949   1.080   6.464   6.172
 4017SOL    HW112950   1.141   6.509   6.237
 4017SOL    HW212951   1.041   6.382   6.213
 4018SOL     OW12952   5.010   6.603   0.803
 4018SOL    HW112953   5.069   6.676   0.837
 4018SOL    HW212954   5.016   6.598   0.704
 4019SOL     OW12955   6.029   4.004   3.121
 4019SOL    HW112956   5.956   3.939   3.141
 4019SOL    HW212957   6.076   3.976   3.037
 4020SOL     OW12958   6.989   3.023   6.267
 4020SOL    HW112959   6.902   2.992   6.306
 4020SOL    HW212960   6.974   3.107   6.216
 4021SOL     OW12961   3.344   4.070   4.799
 4021SOL    HW112962   3.414   4.137   4.822
 4021SOL    HW212963   3.387   3.986   4.766
 4022SOL     OW12964   4.857   6.896   0.005
 4022SOL    HW112965   4.764   6.866   7.004
 4022SOL    HW212966   4.853   6.966   0.076
 4023SOL     OW12967   0.241   0.609   4.042
 4023SOL    HW112968   0.174   0.536   4.052
 4023SOL    HW212969   0.279   0.632   4.131
 4024SOL     OW12970   2.365   5.640   4.132
 4024SOL    HW112971   2.273   5.603   4.144
 4024SOL    HW212972   2.424   5.608   4.206
 4025SOL     OW12973   0.841   6.557   4.181
 4025SOL    HW112974   0.779   6.483   4.154
 4025SOL    HW212975   0.935   6.524   4.180
 4026SOL     OW12976   5.947   6.802   3.202
 4026SOL    HW112977   6.012   6.729   3.221
 4026SOL    HW212978   5.966   6.881   3.260
 4027SOL     OW12979   2.916   2.527   0.409
 4027SOL    HW112980   2.944   2.621   0.386
 4027SOL    HW212981   2.858   2.528   0.490
 4028SOL     OW12982   3.374   1.450   3.325
 4028SOL    HW112983   3.459   1.438   3.375
 4028SOL    HW212984   3.333   1.538   3.348
 4029SOL     OW12985   3.462   4.788   5.853
 4029SOL    HW112986   3.376   4.804   5.901
 4029SOL    HW212987   3.492   4.694   5.870
 4030SOL     OW12988   0.583   1.605   1.830
 4030SOL    HW112989   0.570   1.543   1.753
 4030SOL    HW212990   0.494   1.624   1.873
 4031SOL     OW12991   5.321   5.857   3.333
 4031SOL    HW112992   5.277   5.830   3.248
 4031SOL    HW212993   5.311   5.955   3.347
 4032SOL     OW12994   6.145   0.502   2.237
 4032SOL    HW112995   6.063   0.510   2.294
 4032SOL    HW212996   6.165   0.405   2.221
 4033SOL     OW12997   2.248   3.507   1.390
 4033SOL    HW112998   2.189   3.439   1.347
 4033SOL    HW212999   2.205   3.539   1.475
 4034SOL     OW13000   6.565   1.738   4.431
 4034SOL    HW113001   6.478   1.731   4.383
 4034SOL    HW213002   6.574   1.662   4.496
 4035SOL     OW13003   6.174   2.287   0.944
 4035SOL    HW113004   6.120   2.267   1.025
 4035SOL    HW213005   6.221   2.204   0.914
 4036SOL     OW13006   4.313   5.591   2.219
 4036SOL    HW113007   4.371   5.558   2.293
 4036SOL    HW213008   4.351   5.676   2.182
 4037SOL     OW13009   2.535   1.649   0.259
 4037SOL    HW113010   2.628   1.682   0.271
 4037SOL    HW213011   2.471   1.721   0.284
 4038SOL     OW13012   4.747   3.140   1.598
 4038SOL    HW113013   4.722   3.139   1.695
 4038SOL    HW213014   4.765   3.047   1.566
 4039SOL     OW13015   5.551   4.855   1.612
 4039SOL    HW113016   5.551   4.871   1.513
 4039SOL    HW213017   5.609   4.776   1.633
 4040SOL     OW13018   3.837   6.783   6.046
 4040SOL    HW113019   3.854   6.878   6.019
 4040SOL    HW213020   3.805   6.780   6.140
 4041SOL     OW13021   0.879   4.922   1.528
 4041SOL    HW113022   0.865   5.000   1.467
 4041SOL    HW213023   0.975   4.892   1.522
 4042SOL     OW13024   5.954   5.635   3.249
 4042SOL    HW113025   5.993   5.625   3.341
 4042SOL    HW213026   6.014   5.694   3.194
 4043SOL     OW13027   5.802   1.517   4.790
 4043SOL    HW113028   5.753   1.604   4.797
 4043SOL    HW213029   5.779   1.459   4.867
 4044SOL     OW13030   4.599   0.098   3.347
 4044SOL    HW113031   4.555   0.184   3.320
 4044SOL    HW213032   4.685   0.088   3.297
 4045SOL     OW13033   3.405   5.879   5.188
 4045SOL    HW113034   3.326   5.921   5.233
 4045SOL    HW213035   3.489   5.910   5.233
 4046SOL     OW13036   1.504   2.097   4.224
 4046SOL    HW113037   1.560   2.040   4.163
 4046SOL    HW213038   1.500   2.054   4.314
 4047SOL     OW13039   2.213   2.344   0.513
 4047SOL    HW113040   2.149   2.408   0.470
 4047SOL    HW213041   2.233   2.374   0.606
 4048SOL     OW13042   5.253   2.066   1.640
 4048SOL    HW113043   5.309   1.997   1.594
 4048SOL    HW213044   5.161   2.030   1.653
 4049SOL     OW13045   6.293   4.787   6.618
 4049SOL    HW113046   6.245   4.739   6.545
 4049SOL    HW213047   6.281   4.737   6.704
 4050SOL     OW13048   1.621   0.241   1.475
 4050SOL    HW113049   1.544   0.188   1.439
 4050SOL    HW213050   1.594   0.338   1.480
 4051SOL     OW13051   4.086   1.727   6.926
 4051SOL    HW113052   4.005   1.672   6.948
 4051SOL    HW213053   4.162   1.666   6.902
 4052SOL     OW13054   6.674   1.240   3.040
 4052SOL    HW113055   6.691   1.318   2.979
 4052SOL    HW213056   6.735   1.245   3.119
 4053SOL     OW13057   3.091   5.554   3.745
 4053SOL    HW113058   3.018   5.618   3.722
 4053SOL    HW213059   3.178   5.588   3.708
 4054SOL     OW13060   6.317   3.451   1.757
 4054SOL    HW113061   6.317   3.540   1.804
 4054SOL    HW213062   6.241   3.448   1.692
 4055SOL     OW13063   3.211   3.115   0.142
 4055SOL    HW113064   3.144   3.044   0.118
 4055SOL    HW213065   3.217   3.123   0.241
 4056SOL     OW13066   3.891   3.671   0.645
 4056SOL    HW113067   3.895   3.590   0.587
 4056SOL    HW213068   3.957   3.739   0.613
 4057SOL     OW13069   6.025   3.008   1.524
 4057SOL    HW113070   6.056   3.005   1.429
 4057SOL    HW213071   5.941   2.954   1.534
 4058SOL     OW13072   1.847   0.205   4.535
 4058SOL    HW113073   1.760   0.174   4.496
 4058SOL    HW213074   1.917   0.206   4.464
 4059SOL     OW13075   1.720   1.935   3.562
 4059SOL    HW113076   1.707   2.035   3.568
 4059SOL    HW213077   1.733   1.898   3.654
 4060SOL     OW13078   5.606   5.621   4.651
 4060SOL    HW113079   5.618   5.575   4.739
 4060SOL    HW213080   5.671   5.583   4.585
 4061SOL     OW13081   2.827   4.828   2.065
 4061SOL    HW113082   2.925   4.827   2.047
 4061SOL    HW213083   2.788   4.739   2.042
 4062SOL     OW13084   1.923   2.364   2.026
 4062SOL    HW113085   1.879   2.350   2.115
 4062SOL    HW213086   1.937   2.275   1.982
 4063SOL     OW13087   6.381   6.286   6.439
 4063SOL    HW113088   6.316   6.315   6.509
 4063SOL    HW213089   6.345   6.205   6.392
 4064SOL     OW13090   2.474   6.955   3.871
 4064SOL    HW113091   2.421   6.999   3.799
 4064SOL    HW213092   2.413   6.906   3.933
 4065SOL     OW13093   0.317   0.094   1.349
 4065SOL    HW113094   0.239   0.152   1.325
 4065SOL    HW213095   0.302   0.001   1.316
 4066SOL     OW13096   5.715   5.183   3.714
 4066SOL    HW113097   5.800   5.166   3.763
 4066SOL    HW213098   5.672   5.096   3.691
 4067SOL     OW13099   6.332   3.205   3.168
 4067SOL    HW113100   6.285   3.262   3.100
 4067SOL    HW213101   6.264   3.151   3.218
 4068SOL     OW13102   2.545   1.070   4.521
 4068SOL    HW113103   2.513   0.980   4.549
 4068SOL    HW213104   2.554   1.073   4.422
 4069SOL     OW13105   2.500   5.111   6.275
 4069SOL    HW113106   2.562   5.185   6.249
 4069SOL    HW213107   2.420   5.112   6.216
 4070SOL     OW13108   0.256   3.378   2.507
 4070SOL    HW113109   0.213   3.380   2.597
 4070SOL    HW213110   0.317   3.300   2.500
 4071SOL     OW13111   1.553   0.738   5.457
 4071SOL    HW113112   1.503   0.751   5.371
 4071SOL    HW213113   1.491   0.753   5.534
 4072SOL     OW13114   0.021   5.634   4.129
 4072SOL    HW113115   0.073   5.690   4.194
 4072SOL    HW213116   0.082   5.604   4.055
 4073SOL     OW13117   2.788   6.119   6.503
 4073SOL    HW113118   2.805   6.185   6.576
 4073SOL    HW213119   2.806   6.162   6.414
 4074SOL     OW13120   7.019   3.428   2.019
 4074SOL    HW113121   7.008   3.524   1.992
 4074SOL    HW213122   0.062   3.383   1.958
 4075SOL     OW13123   3.767   1.772   1.931
 4075SOL    HW113124   3.832   1.805   2.000
 4075SOL    HW213125   3.684   1.827   1.935
 4076SOL     OW13126   2.780   2.887   5.746
 4076SOL    HW113127   2.725   2.842   5.676
 4076SOL    HW213128   2.860   2.929   5.703
 4077SOL     OW13129   3.133   0.664   0.724
 4077SOL    HW113130   3.229   0.675   0.749
 4077SOL    HW213131   3.109   0.567   0.727
 4078SOL     OW13132   0.031   5.886   2.320
 4078SOL    HW113133   0.032   5.863   2.417
 4078SOL    HW213134   6.958   5.884   2.286
 4079SOL     OW13135   1.727   2.385   3.782
 4079SOL    HW113136   1.687   2.362   3.870
 4079SOL    HW213137   1.786   2.465   3.792
 4080SOL     OW13138   3.445   4.307   6.853
 4080SOL    HW113139   3.436   4.228   6.792
 4080SOL    HW213140   3.477   4.386   6.801
 4081SOL     OW13141   2.166   2.562   4.651
 4081SOL    HW113142   2.230   2.638   4.655
 4081SOL    HW213143   2.163   2.515   4.739
 4082SOL     OW13144   1.323   2.978   0.962
 4082SOL    HW113145   1.419   2.965   0.984
 4082SOL    HW213146   1.272   2.895   0.985
 4083SOL     OW13147   6.816   4.669   1.667
 4083SOL    HW113148   6.785   4.647   1.575
 4083SOL    HW213149   6.771   4.610   1.734
 4084SOL     OW13150   4.612   2.027   3.336
 4084SOL    HW113151   4.664   1.996   3.256
 4084SOL    HW213152   4.633   2.124   3.353
 4085SOL     OW13153   2.253   6.302   1.031
 4085SOL    HW113154   2.256   6.379   0.968
 4085SOL    HW213155   2.196   6.229   0.992
 4086SOL     OW13156   0.938   5.501   1.620
 4086SOL    HW113157   1.008   5.488   1.690
 4086SOL    HW213158   0.867   5.430   1.630
 4087SOL     OW13159   1.757   1.517   3.320
 4087SOL    HW113160   1.826   1.478   3.381
 4087SOL    HW213161   1.742   1.613   3.344
 4088SOL     OW13162   6.070   0.915   6.631
 4088SOL    HW113163   6.085   0.952   6.723
 4088SOL    HW213164   6.044   0.990   6.570
 4089SOL     OW13165   6.015   5.291   4.014
 4089SOL    HW113166   6.012   5.371   3.955
 4089SOL    HW213167   6.096   5.296   4.073
 4090SOL     OW13168   1.326   5.409   5.248
 4090SOL    HW113169   1.305   5.433   5.154
 4090SOL    HW213170   1.312   5.489   5.307
 4091SOL     OW13171   6.823   6.828   6.591
 4091SOL    HW113172   6.921   6.832   6.608
 4091SOL    HW213173   6.806   6.795   6.499
 4092SOL     OW13174   5.726   2.398   4.250
 4092SOL    HW113175   5.762   2.337   4.180
 4092SOL    HW213176   5.673   2.471   4.207
 4093SOL     OW13177   4.455   5.813   2.107
 4093SOL    HW113178   4.538   5.803   2.053
 4093SOL    HW213179   4.466   5.889   2.172
 4094SOL     OW13180   2.071   5.396   5.708
 4094SOL    HW113181   2.124   5.394   5.623
 4094SOL    HW213182   1.974   5.392   5.686
 4095SOL     OW13183   0.780   3.625   0.484
 4095SOL    HW113184   0.699   3.684   0.491
 4095SOL    HW213185   0.860   3.681   0.466
 4096SOL     OW13186   4.685   6.963   6.193
 4096SOL    HW113187   4.639   6.875   6.194
 4096SOL    HW213188   4.619   0.014   6.171
 4097SOL     OW13189   4.001   4.846   5.074
 4097SOL    HW113190   4.095   4.878   5.086
 4097SOL    HW213191   3.981   4.836   4.976
 4098SOL     OW13192   6.796   2.647   1.821
 4098SOL    HW113193   6.697   2.651   1.836
 4098SOL    HW213194   6.814   2.640   1.723
 4099SOL     OW13195   3.458   4.923   1.399
 4099SOL    HW113196   3.402   4.858   1.348
 4099SOL    HW213197   3.458   4.897   1.496
 4100SOL     OW13198   6.979   0.130   4.528
 4100SOL    HW113199   6.923   0.213   4.533
 4100SOL    HW213200   6.924   0.055   4.490
 4101SOL     OW13201   6.410   1.276   6.318
 4101SOL    HW113202   6.483   1.209   6.304
 4101SOL    HW213203   6.352   1.279   6.237
 4102SOL     OW13204   0.167   0.918   0.555
 4102SOL    HW113205   0.125   1.005   0.582
 4102SOL    HW213206   0.229   0.934   0.478
 4103SOL     OW13207   0.045   6.946   0.288
 4103SOL    HW113208   6.982   6.998   0.299
 4103SOL    HW213209   0.123   7.003   0.310
 4104SOL     OW13210   6.668   5.055   2.939
 4104SOL    HW113211   6.763   5.055   2.972
 4104SOL    HW213212   6.663   5.003   2.854
 4105SOL     OW13213   5.516   0.451   1.808
 4105SOL    HW113214   5.581   0.523   1.783
 4105SOL    HW213215   5.521   0.377   1.741
 4106SOL     OW13216   6.566   3.077   2.793
 4106SOL    HW113217   6.476   3.116   2.809
 4106SOL    HW213218   6.637   3.140   2.824
 4107SOL     OW13219   0.982   5.198   0.798
 4107SOL    HW113220   1.066   5.172   0.845
 4107SOL    HW213221   0.934   5.267   0.852
 4108SOL     OW13222   6.160   5.103   5.434
 4108SOL    HW113223   6.170   5.102   5.334
 4108SOL    HW213224   6.109   5.185   5.461
 4109SOL     OW13225   6.036   6.910   4.501
 4109SOL    HW113226   6.069   6.909   4.407
 4109SOL    HW213227   6.055   6.823   4.545
 4110SOL     OW13228   4.456   3.480   6.057
 4110SOL    HW113229   4.530   3.447   6.116
 4110SOL    HW213230   4.435   3.411   5.988
 4111SOL     OW13231   5.377   3.587   0.073
 4111SOL    HW113232   5.438   3.510   0.093
 4111SOL    HW213233   5.298   3.584   0.135
 4112SOL     OW13234   5.396   6.122   4.564
 4112SOL    HW113235   5.390   6.103   4.662
 4112SOL    HW213236   5.305   6.121   4.524
 4113SOL     OW13237   5.083   6.145   4.831
 4113SOL    HW113238   5.056   6.230   4.877
 4113SOL    HW213239   5.063   6.151   4.734
 4114SOL     OW13240   3.762   2.108   4.400
 4114SOL    HW113241   3.842   2.161   4.428
 4114SOL    HW213242   3.679   2.162   4.417
 4115SOL     OW13243   3.644   5.334   2.069
 4115SOL    HW113244   3.700   5.366   1.993
 4115SOL    HW213245   3.585   5.259   2.038
 4116SOL     OW13246   3.678   1.117   2.535
 4116SOL    HW113247   3.639   1.194   2.484
 4116SOL    HW213248   3.747   1.151   2.598
 4117SOL     OW13249   1.621   3.902   2.375
 4117SOL    HW113250   1.651   3.890   2.281
 4117SOL    HW213251   1.586   3.816   2.411
 4118SOL     OW13252   4.562   5.779   0.126
 4118SOL    HW113253   4.492   5.820   0.184
 4118SOL    HW213254   4.637   5.747   0.184
 4119SOL     OW13255   3.244   1.952   3.743
 4119SOL    HW113256   3.298   1.873   3.713
 4119SOL    HW213257   3.214   1.938   3.837
 4120SOL     OW13258   3.372   0.611   6.520
 4120SOL    HW113259   3.315   0.533   6.546
 4120SOL    HW213260   3.314   0.685   6.487
 4121SOL     OW13261   6.047   0.769   4.355
 4121SOL    HW113262   6.059   0.674   4.328
 4121SOL    HW213263   6.129   0.800   4.404
 4122SOL     OW13264   1.056   6.195   4.125
 4122SOL    HW113265   1.095   6.163   4.039
 4122SOL    HW213266   1.090   6.287   4.145
 4123SOL     OW13267   4.220   4.784   5.254
 4123SOL    HW113268   4.169   4.863   5.289
 4123SOL    HW213269   4.161   4.703   5.254
 4124SOL     OW13270   6.874   6.252   0.421
 4124SOL    HW113271   6.969   6.234   0.446
 4124SOL    HW213272   6.871   6.303   0.335
 4125SOL     OW13273   4.840   1.728   1.956
 4125SOL    HW113274   4.938   1.716   1.938
 4125SOL    HW213275   4.797   1.638   1.969
 4126SOL     OW13276   1.785   3.489   4.000
 4126SOL    HW113277   1.751   3.474   3.907
 4126SOL    HW213278   1.781   3.403   4.051
 4127SOL     OW13279   5.306   4.910   5.166
 4127SOL    HW113280   5.226   4.968   5.179
 4127SOL    HW213281   5.288   4.819   5.206
 4128SOL     OW13282   0.858   2.846   2.054
 4128SOL    HW113283   0.823   2.940   2.061
 4128SOL    HW213284   0.784   2.785   2.025
 4129SOL     OW13285   3.776   1.193   6.183
 4129SOL    HW113286   3.800   1.099   6.158
 4129SOL    HW213287   3.707   1.229   6.120
 4130SOL     OW13288   6.904   3.277   0.201
 4130SOL    HW113289   6.978   3.250   0.139
 4130SOL    HW213290   6.816   3.251   0.162
 4131SOL     OW13291   0.500   1.430   3.571
 4131SOL    HW113292   0.408   1.452   3.537
 4131SOL    HW213293   0.551   1.514   3.586
 4132SOL     OW13294   4.951   4.299   3.520
 4132SOL    HW113295   4.935   4.397   3.528
 4132SOL    HW213296   5.043   4.284   3.482
 4133SOL     OW13297   3.270   5.539   0.765
 4133SOL    HW113298   3.345   5.474   0.753
 4133SOL    HW213299   3.269   5.570   0.860
 4134SOL     OW13300   2.421   3.843   1.028
 4134SOL    HW113301   2.368   3.921   1.062
 4134SOL    HW213302   2.437   3.778   1.102
 4135SOL     OW13303   0.990   1.733   2.726
 4135SOL    HW113304   1.041   1.721   2.641
 4135SOL    HW213305   1.025   1.670   2.795
 4136SOL     OW13306   1.290   2.887   3.578
 4136SOL    HW113307   1.361   2.933   3.524
 4136SOL    HW213308   1.302   2.788   3.572
 4137SOL     OW13309   0.910   4.089   1.301
 4137SOL    HW113310   0.829   4.086   1.360
 4137SOL    HW213311   0.983   4.141   1.346
 4138SOL     OW13312   4.744   6.084   2.463
 4138SOL    HW113313   4.659   6.038   2.488
 4138SOL    HW213314   4.731   6.137   2.380
 4139SOL     OW13315   2.101   1.642   5.689
 4139SOL    HW113316   2.175   1.663   5.753
 4139SOL    HW213317   2.071   1.547   5.703
 4140SOL     OW13318   3.442   0.443   5.568
 4140SOL    HW113319   3.373   0.496   5.618
 4140SOL    HW213320   3.515   0.503   5.537
 4141SOL     OW13321   5.491   6.422   0.776
 4141SOL    HW113322   5.407   6.378   0.808
 4141SOL    HW213323   5.477   6.458   0.684
 4142SOL     OW13324   6.741   4.764   0.910
 4142SOL    HW113325   6.677   4.707   0.859
 4142SOL    HW213326   6.754   4.728   1.002
 4143SOL     OW13327   5.536   2.048   0.718
 4143SOL    HW113328   5.590   1.965   0.733
 4143SOL    HW213329   5.593   2.117   0.674
 4144SOL     OW13330   4.917   2.857   0.041
 4144SOL    HW113331   4.942   2.920   6.989
 4144SOL    HW213332   4.967   2.771   0.029
 4145SOL     OW13333   0.020   6.571   1.498
 4145SOL    HW113334   7.021   6.502   1.567
 4145SOL    HW213335   0.117   6.597   1.505
 4146SOL     OW13336   6.590   0.135   3.114
 4146SOL    HW113337   6.552   0.177   3.031
 4146SOL    HW213338   6.656   0.064   3.088
 4147SOL     OW13339   5.258   4.662   6.230
 4147SOL    HW113340   5.200   4.740   6.207
 4147SOL    HW213341   5.219   4.579   6.189
 4148SOL     OW13342   1.286   0.527   5.245
 4148SOL    HW113343   1.320   0.619   5.266
 4148SOL    HW213344   1.187   0.526   5.252
 4149SOL     OW13345   0.148   3.798   0.966
 4149SOL    HW113346   0.238   3.794   0.921
 4149SOL    HW213347   0.095   3.716   0.943
 4150SOL     OW13348   1.477   0.386   5.574
 4150SOL    HW113349   1.431   0.329   5.506
 4150SOL    HW213350   1.496   0.476   5.534
 4151SOL     OW13351   2.762   6.096   5.551
 4151SOL    HW113352   2.823   6.120   5.476
 4151SOL    HW213353   2.672   6.070   5.515
 4152SOL     OW13354   4.421   5.624   0.689
 4152SOL    HW113355   4.514   5.652   0.715
 4152SOL    HW213356   4.356   5.693   0.720
 4153SOL     OW13357   5.245   5.522   0.098
 4153SOL    HW113358   5.198   5.558   0.018
 4153SOL    HW213359   5.226   5.424   0.106
 4154SOL     OW13360   0.016   5.094   3.386
 4154SOL    HW113361   6.971   5.049   3.326
 4154SOL    HW213362   0.063   5.025   3.442
 4155SOL     OW13363   1.142   1.344   2.850
 4155SOL    HW113364   1.050   1.384   2.847
 4155SOL    HW213365   1.190   1.376   2.932
 4156SOL     OW13366   5.916   5.872   5.005
 4156SOL    HW113367   5.935   5.795   4.945
 4156SOL    HW213368   5.998   5.927   5.016
 4157SOL     OW13369   4.661   5.119   3.730
 4157SOL    HW113370   4.690   5.110   3.635
 4157SOL    HW213371   4.668   5.030   3.776
 4158SOL     OW13372   0.221   3.813   1.776
 4158SOL    HW113373   0.147   3.784   1.837
 4158SOL    HW213374   0.251   3.736   1.720
 4159SOL     OW13375   2.109   3.635   3.922
 4159SOL    HW113376   2.133   3.625   3.825
 4159SOL    HW213377   2.131   3.551   3.971
 4160SOL     OW13378   6.217   1.004   0.755
 4160SOL    HW113379   6.291   0.976   0.816
 4160SOL    HW213380   6.158   0.926   0.735
 4161SOL     OW13381   0.964   1.207   0.868
 4161SOL    HW113382   0.984   1.149   0.947
 4161SOL    HW213383   0.913   1.155   0.800
 4162SOL     OW13384   0.179   5.896   6.617
 4162SOL    HW113385   0.266   5.933   6.584
 4162SOL    HW213386   0.187   5.876   6.715
 4163SOL     OW13387   4.494   6.652   3.261
 4163SOL    HW113388   4.486   6.718   3.336
 4163SOL    HW213389   4.546   6.694   3.186
 4164SOL     OW13390   1.775   6.634   5.829
 4164SOL    HW113391   1.704   6.617   5.761
 4164SOL    HW213392   1.785   6.553   5.887
 4165SOL     OW13393   4.214   7.001   6.288
 4165SOL    HW113394   4.283   0.039   6.330
 4165SOL    HW213395   4.130   7.004   6.343
 4166SOL     OW13396   5.969   2.922   0.598
 4166SOL    HW113397   5.974   2.827   0.569
 4166SOL    HW213398   5.920   2.928   0.685
 4167SOL     OW13399   1.629   3.897   0.718
 4167SOL    HW113400   1.631   3.948   0.804
 4167SOL    HW213401   1.620   3.799   0.737
 4168SOL     OW13402   6.474   4.417   1.726
 4168SOL    HW113403   6.413   4.496   1.723
 4168SOL    HW213404   6.565   4.447   1.756
 4169SOL     OW13405   5.890   4.465   4.809
 4169SOL    HW113406   5.972   4.437   4.858
 4169SOL    HW213407   5.876   4.403   4.731
 4170SOL     OW13408   4.403   4.500   5.857
 4170SOL    HW113409   4.327   4.442   5.886
 4170SOL    HW213410   4.431   4.559   5.932
 4171SOL     OW13411   6.512   5.943   0.733
 4171SOL    HW113412   6.434   5.960   0.672
 4171SOL    HW213413   6.481   5.949   0.828
 4172SOL     OW13414   0.952   2.090   5.914
 4172SOL    HW113415   0.878   2.099   5.847
 4172SOL    HW213416   0.914   2.092   6.006
 4173SOL     OW13417   5.231   4.024   5.578
 4173SOL    HW113418   5.245   3.947   5.640
 4173SOL    HW213419   5.172   4.092   5.622
 4174SOL     OW13420   5.843   0.383   3.702
 4174SOL    HW113421   5.806   0.467   3.743
 4174SOL    HW213422   5.782   0.353   3.629
 4175SOL     OW13423   2.048   5.886   4.135
 4175SOL    HW113424   2.123   5.873   4.070
 4175SOL    HW213425   2.003   5.973   4.117
 4176SOL     OW13426   3.255   6.008   2.241
 4176SOL    HW113427   3.267   6.091   2.295
 4176SOL    HW213428   3.344   5.966   2.224
 4177SOL     OW13429   6.502   4.047   5.431
 4177SOL    HW113430   6.577   4.024   5.370
 4177SOL    HW213431   6.432   4.097   5.381
 4178SOL     OW13432   4.791   0.919   3.885
 4178SOL    HW113433   4.792   0.949   3.981
 4178SOL    HW213434   4.813   0.822   3.880
 4179SOL     OW13435   4.607   2.734   3.726
 4179SOL    HW113436   4.565   2.665   3.785
 4179SOL    HW213437   4.589   2.712   3.630
 4180SOL     OW13438   5.725   4.957   0.919
 4180SOL    HW113439   5.698   4.925   0.828
 4180SOL    HW213440   5.798   4.897   0.954
 4181SOL     OW13441   2.386   1.399   0.901
 4181SOL    HW113442   2.394   1.375   0.804
 4181SOL    HW213443   2.477   1.420   0.937
 4182SOL     OW13444   0.778   6.808   3.132
 4182SOL    HW113445   0.860   6.756   3.153
 4182SOL    HW213446   0.761   6.805   3.034
 4183SOL     OW13447   3.463   1.173   0.229
 4183SOL    HW113448   3.498   1.263   0.253
 4183SOL    HW213449   3.538   1.107   0.224
 4184SOL     OW13450   4.567   5.053   1.627
 4184SOL    HW113451   4.472   5.085   1.629
 4184SOL    HW213452   4.616   5.097   1.552
 4185SOL     OW13453   0.365   5.626   2.382
 4185SOL    HW113454   0.354   5.625   2.282
 4185SOL    HW213455   0.301   5.691   2.421
 4186SOL     OW13456   2.242   5.422   6.939
 4186SOL    HW113457   2.171   5.357   6.915
 4186SOL    HW213458   2.323   5.406   6.883
 4187SOL     OW13459   3.331   3.473   5.659
 4187SOL    HW113460   3.269   3.540   5.619
 4187SOL    HW213461   3.288   3.432   5.739
 4188SOL     OW13462   4.868   6.666   4.530
 4188SOL    HW113463   4.922   6.604   4.586
 4188SOL    HW213464   4.803   6.715   4.588
 4189SOL     OW13465   3.541   5.987   5.439
 4189SOL    HW113466   3.636   6.004   5.464
 4189SOL    HW213467   3.483   6.061   5.473
 4190SOL     OW13468   0.731   0.789   0.050
 4190SOL    HW113469   0.829   0.797   0.070
 4190SOL    HW213470   0.716   0.717   7.004
 4191SOL     OW13471   4.905   3.720   3.214
 4191SOL    HW113472   4.923   3.652   3.285
 4191SOL    HW213473   4.872   3.804   3.256
 4192SOL     OW13474   0.982   1.505   4.154
 4192SOL    HW113475   1.007   1.568   4.081
 4192SOL    HW213476   0.957   1.557   4.236
 4193SOL     OW13477   1.328   0.845   1.759
 4193SOL    HW113478   1.325   0.945   1.759
 4193SOL    HW213479   1.235   0.809   1.758
 4194SOL     OW13480   5.624   0.735   4.935
 4194SOL    HW113481   5.662   0.822   4.903
 4194SOL    HW213482   5.656   0.717   5.028
 4195SOL     OW13483   3.705   6.356   1.532
 4195SOL    HW113484   3.797   6.345   1.496
 4195SOL    HW213485   3.679   6.275   1.585
 4196SOL     OW13486   5.653   1.978   3.051
 4196SOL    HW113487   5.576   2.007   3.108
 4196SOL    HW213488   5.718   1.925   3.106
 4197SOL     OW13489   5.338   5.831   6.029
 4197SOL    HW113490   5.360   5.873   6.117
 4197SOL    HW213491   5.406   5.860   5.961
 4198SOL     OW13492   5.677   2.944   0.121
 4198SOL    HW113493   5.713   2.892   0.043
 4198SOL    HW213494   5.753   2.978   0.176
 4199SOL     OW13495   2.333   2.997   5.789
 4199SOL    HW113496   2.267   3.062   5.827
 4199SOL    HW213497   2.426   3.026   5.812
 4200SOL     OW13498   3.582   6.639   6.364
 4200SOL    HW113499   3.634   6.586   6.431
 4200SOL    HW213500   3.492   6.597   6.350
 4201SOL     OW13501   6.081   6.444   3.930
 4201SOL    HW113502   6.114   6.448   3.836
 4201SOL    HW213503   6.008   6.376   3.936
 4202SOL     OW13504   4.455   4.763   5.668
 4202SOL    HW113505   4.376   4.810   5.707
 4202SOL    HW213506   4.423   4.681   5.620
 4203SOL     OW13507   4.953   4.851   0.375
 4203SOL    HW113508   5.017   4.918   0.337
 4203SOL    HW213509   4.864   4.894   0.389
 4204SOL     OW13510   3.939   3.346   2.492
 4204SOL    HW113511   3.865   3.397   2.535
 4204SOL    HW213512   3.947   3.374   2.397
 4205SOL     OW13513   3.595   5.655   3.793
 4205SOL    HW113514   3.565   5.725   3.729
 4205SOL    HW213515   3.515   5.610   3.834
 4206SOL     OW13516   6.641   0.238   6.222
 4206SOL    HW113517   6.664   0.322   6.272
 4206SOL    HW213518   6.552   0.250   6.178
 4207SOL     OW13519   1.441   1.594   1.491
 4207SOL    HW113520   1.414   1.498   1.494
 4207SOL    HW213521   1.541   1.601   1.498
 4208SOL     OW13522   0.723   3.996   6.462
 4208SOL    HW113523   0.702   3.926   6.531
 4208SOL    HW213524   0.645   4.007   6.400
 4209SOL     OW13525   0.242   0.905   5.713
 4209SOL    HW113526   0.253   0.868   5.621
 4209SOL    HW213527   0.309   0.863   5.774
 4210SOL     OW13528   2.990   3.151   2.550
 4210SOL    HW113529   3.007   3.248   2.572
 4210SOL    HW213530   3.014   3.135   2.455
 4211SOL     OW13531   4.036   5.192   5.747
 4211SOL    HW113532   4.125   5.164   5.785
 4211SOL    HW213533   3.973   5.115   5.750
 4212SOL     OW13534   5.763   2.198   2.755
 4212SOL    HW113535   5.672   2.197   2.798
 4212SOL    HW213536   5.755   2.162   2.661
 4213SOL     OW13537   2.303   1.011   1.508
 4213SOL    HW113538   2.288   1.110   1.498
 4213SOL    HW213539   2.341   0.993   1.598
 4214SOL     OW13540   1.771   4.767   5.346
 4214SOL    HW113541   1.749   4.824   5.267
 4214SOL    HW213542   1.815   4.683   5.315
 4215SOL     OW13543   6.815   6.459   5.001
 4215SOL    HW113544   6.784   6.378   4.951
 4215SOL    HW213545   6.913   6.470   4.989
 4216SOL     OW13546   1.082   1.619   2.953
 4216SOL    HW113547   1.177   1.590   2.963
 4216SOL    HW213548   1.026   1.577   3.025
 4217SOL     OW13549   0.308   0.396   2.816
 4217SOL    HW113550   0.235   0.429   2.876
 4217SOL    HW213551   0.269   0.374   2.727
 4218SOL     OW13552   4.259   0.941   1.366
 4218SOL    HW113553   4.239   0.849   1.398
 4218SOL    HW213554   4.199   1.007   1.412
 4219SOL     OW13555   2.435   5.258   3.341
 4219SOL    HW113556   2.424   5.220   3.433
 4219SOL    HW213557   2.424   5.185   3.273
 4220SOL     OW13558   5.426   2.616   3.593
 4220SOL    HW113559   5.372   2.605   3.676
 4220SOL    HW213560   5.376   2.673   3.528
 4221SOL     OW13561   6.349   5.049   6.736
 4221SOL    HW113562   6.298   5.041   6.822
 4221SOL    HW213563   6.333   4.967   6.681
 4222SOL     OW13564   5.898   1.911   3.226
 4222SOL    HW113565   5.946   1.982   3.278
 4222SOL    HW213566   5.841   1.857   3.288
 4223SOL     OW13567   3.527   3.940   5.979
 4223SOL    HW113568   3.462   3.923   6.052
 4223SOL    HW213569   3.486   4.001   5.911
 4224SOL     OW13570   4.863   3.214   3.542
 4224SOL    HW113571   4.790   3.243   3.604
 4224SOL    HW213572   4.825   3.201   3.450
 4225SOL     OW13573   3.958   1.055   5.854
 4225SOL    HW113574   3.962   1.048   5.954
 4225SOL    HW213575   3.863   1.069   5.825
 4226SOL     OW13576   1.116   1.017   2.311
 4226SOL    HW113577   1.103   1.108   2.350
 4226SOL    HW213578   1.160   1.025   2.222
 4227SOL     OW13579   4.160   4.692   0.001
 4227SOL    HW113580   4.070   4.724   0.031
 4227SOL    HW213581   4.222   4.771   7.013
 4228SOL     OW13582   0.677   3.363   4.331
 4228SOL    HW113583   0.756   3.382   4.389
 4228SOL    HW213584   0.700   3.291   4.266
 4229SOL     OW13585   4.737   5.243   5.322
 4229SOL    HW113586   4.722   5.146   5.303
 4229SOL    HW213587   4.750   5.293   5.236
 4230SOL     OW13588   1.650   0.505   4.069
 4230SOL    HW113589   1.675   0.597   4.040
 4230SOL    HW213590   1.589   0.464   4.001
 4231SOL     OW13591   5.444   6.346   5.005
 4231SOL    HW113592   5.458   6.380   4.912
 4231SOL    HW213593   5.497   6.262   5.017
 4232SOL     OW13594   0.423   4.475   2.632
 4232SOL    HW113595   0.382   4.566   2.640
 4232SOL    HW213596   0.512   4.476   2.678
 4233SOL     OW13597   6.930   0.201   0.112
 4233SOL    HW113598   6.979   0.180   0.197
 4233SOL    HW213599   6.839   0.161   0.115
 4234SOL     OW13600   2.089   0.141   5.936
 4234SOL    HW113601   2.023   0.068   5.918
 4234SOL    HW213602   2.166   0.132   5.873
 4235SOL     OW13603   5.539   3.673   5.967
 4235SOL    HW113604   5.490   3.755   5.996
 4235SOL    HW213605   5.473   3.602   5.941
 4236SOL     OW13606   0.649   3.670   3.097
 4236SOL    HW113607   0.676   3.759   3.060
 4236SOL    HW213608   0.693   3.656   3.186
 4237SOL     OW13609   6.543   5.259   3.109
 4237SOL    HW113610   6.473   5.264   3.038
 4237SOL    HW213611   6.602   5.180   3.093
 4238SOL     OW13612   3.332   5.014   2.669
 4238SOL    HW113613   3.319   5.110   2.693
 4238SOL    HW213614   3.262   4.987   2.602
 4239SOL     OW13615   5.315   1.814   3.418
 4239SOL    HW113616   5.244   1.753   3.455
 4239SOL    HW213617   5.290   1.909   3.438
 4240SOL     OW13618   2.318   0.337   0.126
 4240SOL    HW113619   2.311   0.296   0.217
 4240SOL    HW213620   2.241   0.305   0.070
 4241SOL     OW13621   5.808   0.382   1.052
 4241SOL    HW113622   5.891   0.401   1.104
 4241SOL    HW213623   5.822   0.406   0.956
 4242SOL     OW13624   2.071   0.624   3.135
 4242SOL    HW113625   1.983   0.649   3.093
 4242SOL    HW213626   2.090   0.527   3.118
 4243SOL     OW13627   5.953   4.182   3.713
 4243SOL    HW113628   6.038   4.170   3.765
 4243SOL    HW213629   5.883   4.220   3.773
 4244SOL     OW13630   5.499   4.698   1.828
 4244SOL    HW113631   5.469   4.703   1.924
 4244SOL    HW213632   5.469   4.779   1.779
 4245SOL     OW13633   6.248   1.031   6.294
 4245SOL    HW113634   6.222   1.112   6.347
 4245SOL    HW213635   6.187   1.021   6.216
 4246SOL     OW13636   5.862   3.198   3.278
 4246SOL    HW113637   5.843   3.202   3.180
 4246SOL    HW213638   5.953   3.234   3.297
 4247SOL     OW13639   2.221   4.738   3.343
 4247SOL    HW113640   2.223   4.745   3.443
 4247SOL    HW213641   2.314   4.733   3.308
 4248SOL     OW13642   1.807   1.149   3.756
 4248SOL    HW113643   1.855   1.229   3.793
 4248SOL    HW213644   1.709   1.157   3.774
 4249SOL     OW13645   5.037   1.559   4.137
 4249SOL    HW113646   5.070   1.587   4.227
 4249SOL    HW213647   4.950   1.604   4.118
 4250SOL     OW13648   6.289   6.356   4.334
 4250SOL    HW113649   6.269   6.334   4.238
 4250SOL    HW213650   6.252   6.446   4.356
 4251SOL     OW13651   6.088   3.479   1.170
 4251SOL    HW113652   6.020   3.553   1.176
 4251SOL    HW213653   6.158   3.493   1.240
 4252SOL     OW13654   6.644   6.526   6.465
 4252SOL    HW113655   6.623   6.448   6.523
 4252SOL    HW213656   6.583   6.602   6.489
 4253SOL     OW13657   3.265   6.783   1.118
 4253SOL    HW113658   3.216   6.750   1.198
 4253SOL    HW213659   3.304   6.874   1.137
 4254SOL     OW13660   1.839   3.392   1.964
 4254SOL    HW113661   1.779   3.384   2.043
 4254SOL    HW213662   1.811   3.325   1.895
 4255SOL     OW13663   6.938   4.179   4.086
 4255SOL    HW113664   6.896   4.174   3.996
 4255SOL    HW213665   6.877   4.138   4.154
 4256SOL     OW13666   1.425   6.384   0.886
 4256SOL    HW113667   1.472   6.421   0.967
 4256SOL    HW213668   1.458   6.431   0.804
 4257SOL     OW13669   3.675   1.247   4.406
 4257SOL    HW113670   3.598   1.304   4.380
 4257SOL    HW213671   3.701   1.188   4.329
 4258SOL     OW13672   3.363   5.652   1.001
 4258SOL    HW113673   3.357   5.717   1.077
 4258SOL    HW213674   3.436   5.680   0.939
 4259SOL     OW13675   1.296   0.111   1.177
 4259SOL    HW113676   1.225   0.165   1.133
 4259SOL    HW213677   1.383   0.123   1.128
 4260SOL     OW13678   5.569   0.315   3.102
 4260SOL    HW113679   5.667   0.325   3.090
 4260SOL    HW213680   5.523   0.399   3.073
 4261SOL     OW13681   2.250   0.838   2.540
 4261SOL    HW113682   2.336   0.882   2.517
 4261SOL    HW213683   2.237   0.840   2.639
 4262SOL     OW13684   0.388   3.846   6.236
 4262SOL    HW113685   0.471   3.798   6.209
 4262SOL    HW213686   0.366   3.915   6.167
 4263SOL     OW13687   2.602   0.503   3.348
 4263SOL    HW113688   2.567   0.558   3.424
 4263SOL    HW213689   2.526   0.470   3.293
 4264SOL     OW13690   6.553   2.076   4.642
 4264SOL    HW113691   6.579   2.137   4.567
 4264SOL    HW213692   6.629   2.016   4.663
 4265SOL     OW13693   3.860   1.294   0.290
 4265SOL    HW113694   3.844   1.373   0.349
 4265SOL    HW213695   3.772   1.249   0.272
 4266SOL     OW13696   1.972   6.826   6.129
 4266SOL    HW113697   1.919   6.861   6.051
 4266SOL    HW213698   1.924   6.849   6.214
 4267SOL     OW13699   2.106   3.567   4.407
 4267SOL    HW113700   2.162   3.622   4.344
 4267SOL    HW213701   2.139   3.473   4.408
 4268SOL     OW13702   1.298   5.734   6.690
 4268SOL    HW113703   1.396   5.717   6.707
 4268SOL    HW213704   1.272   5.694   6.602
 4269SOL     OW13705   2.849   6.925   2.789
 4269SOL    HW113706   2.776   6.857   2.802
 4269SOL    HW213707   2.810   7.017   2.796
 4270SOL     OW13708   4.061   3.533   2.777
 4270SOL    HW113709   4.060   3.471   2.855
 4270SOL    HW213710   4.049   3.480   2.693
 4271SOL     OW13711   6.625   0.637   0.340
 4271SOL    HW113712   6.708   0.628   0.286
 4271SOL    HW213713   6.553   0.580   0.300
 4272SOL     OW13714   6.918   2.008   4.449
 4272SOL    HW113715   6.871   1.956   4.520
 4272SOL    HW213716   6.851   2.065   4.400
 4273SOL     OW13717   4.166   6.534   4.846
 4273SOL    HW113718   4.099   6.567   4.778
 4273SOL    HW213719   4.235   6.479   4.799
 4274SOL     OW13720   1.770   0.080   1.625
 4274SOL    HW113721   1.729   0.156   1.575
 4274SOL    HW213722   1.712   7.021   1.617
 4275SOL     OW13723   6.653   2.086   3.951
 4275SOL    HW113724   6.735   2.040   3.985
 4275SOL    HW213725   6.679   2.153   3.882
 4276SOL     OW13726   2.451   5.031   3.810
 4276SOL    HW113727   2.531   4.990   3.767
 4276SOL    HW213728   2.480   5.103   3.873
 4277SOL     OW13729   6.547   4.824   3.477
 4277SOL    HW113730   6.553   4.738   3.427
 4277SOL    HW213731   6.457   4.866   3.460
 4278SOL     OW13732   0.206   0.049   4.557
 4278SOL    HW113733   0.261   0.090   4.485
 4278SOL    HW213734   0.109   0.067   4.541
 4279SOL     OW13735   3.001   1.156   3.504
 4279SOL    HW113736   3.092   1.189   3.478
 4279SOL    HW213737   2.975   1.080   3.445
 4280SOL     OW13738   5.802   6.781   5.668
 4280SOL    HW113739   5.714   6.795   5.621
 4280SOL    HW213740   5.795   6.815   5.762
 4281SOL     OW13741   6.269   4.932   3.424
 4281SOL    HW113742   6.236   4.976   3.341
 4281SOL    HW213743   6.286   5.002   3.494
 4282SOL     OW13744   3.343   4.177   0.494
 4282SOL    HW113745   3.283   4.128   0.557
 4282SOL    HW213746   3.410   4.229   0.546
 4283SOL     OW13747   2.186   0.758   3.354
 4283SOL    HW113748   2.216   0.847   3.318
 4283SOL    HW213749   2.127   0.713   3.286
 4284SOL     OW13750   3.647   3.904   1.221
 4284SOL    HW113751   3.676   3.819   1.177
 4284SOL    HW213752   3.548   3.914   1.211
 4285SOL     OW13753   2.359   0.721   5.622
 4285SOL    HW113754   2.354   0.813   5.662
 4285SOL    HW213755   2.288   0.711   5.553
 4286SOL     OW13756   5.706   6.697   6.093
 4286SOL    HW113757   5.790   6.648   6.116
 4286SOL    HW213758   5.729   6.785   6.052
 4287SOL     OW13759   4.830   0.719   6.207
 4287SOL    HW113760   4.886   0.646   6.247
 4287SOL    HW213761   4.771   0.758   6.278
 4288SOL     OW13762   0.845   5.333   3.650
 4288SOL    HW113763   0.812   5.398   3.720
 4288SOL    HW213764   0.901   5.382   3.583
 4289SOL     OW13765   7.019   2.753   5.558
 4289SOL    HW113766   0.085   2.705   5.570
 4289SOL    HW213767   0.012   2.834   5.501
 4290SOL     OW13768   1.389   6.626   3.947
 4290SOL    HW113769   1.390   6.698   4.016
 4290SOL    HW213770   1.314   6.643   3.883
 4291SOL     OW13771   4.602   3.637   6.781
 4291SOL    HW113772   4.650   3.585   6.852
 4291SOL    HW213773   4.597   3.582   6.697
 4292SOL     OW13774   6.722   2.937   0.479
 4292SOL    HW113775   6.728   2.873   0.555
 4292SOL    HW213776   6.761   3.025   0.505
 4293SOL     OW13777   3.021   3.567   6.915
 4293SOL    HW113778   3.086   3.574   6.838
 4293SOL    HW213779   3.072   3.563   7.001
 4294SOL     OW13780   1.963   1.618   6.648
 4294SOL    HW113781   2.012   1.558   6.710
 4294SOL    HW213782   2.018   1.700   6.631
 4295SOL     OW13783   4.356   5.920   4.906
 4295SOL    HW113784   4.322   5.847   4.965
 4295SOL    HW213785   4.296   6.000   4.915
 4296SOL     OW13786   3.375   6.831   6.874
 4296SOL    HW113787   3.320   6.913   6.893
 4296SOL    HW213788   3.378   6.774   6.956
 4297SOL     OW13789   5.741   0.206   1.623
 4297SOL    HW113790   5.642   0.197   1.632
 4297SOL    HW213791   5.784   0.202   1.713
 4298SOL     OW13792   3.926   5.586   0.792
 4298SOL    HW113793   3.945   5.674   0.747
 4298SOL    HW213794   3.950   5.593   0.889
 4299SOL     OW13795   1.560   3.244   6.591
 4299SOL    HW113796   1.501   3.323   6.610
 4299SOL    HW213797   1.538   3.207   6.501
 4300SOL     OW13798   2.566   6.732   0.478
 4300SOL    HW113799   2.566   6.826   0.441
 4300SOL    HW213800   2.474   6.706   0.503
 4301SOL     OW13801   4.954   0.137   1.544
 4301SOL    HW113802   4.975   0.233   1.528
 4301SOL    HW213803   4.882   0.107   1.482
 4302SOL     OW13804   0.015   0.007   6.055
 4302SOL    HW113805   6.946   0.048   6.042
 4302SOL    HW213806   0.041   0.012   6.151
 4303SOL     OW13807   6.725   4.513   4.656
 4303SOL    HW113808   6.763   4.546   4.569
 4303SOL    HW213809   6.653   4.575   4.686
 4304SOL     OW13810   3.248   2.921   2.506
 4304SOL    HW113811   3.326   2.866   2.535
 4304SOL    HW213812   3.175   2.913   2.573
 4305SOL     OW13813   1.239   6.880   5.394
 4305SOL    HW113814   1.265   6.807   5.330
 4305SOL    HW213815   1.298   6.877   5.474
 4306SOL     OW13816   4.332   5.273   4.320
 4306SOL    HW113817   4.361   5.281   4.415
 4306SOL    HW213818   4.232   5.282   4.314
 4307SOL     OW13819   6.322   3.850   5.470
 4307SOL    HW113820   6.314   3.813   5.377
 4307SOL    HW213821   6.406   3.905   5.476
 4308SOL     OW13822   6.353   5.268   1.736
 4308SOL    HW113823   6.374   5.210   1.658
 4308SOL    HW213824   6.258   5.298   1.730
 4309SOL     OW13825   0.938   1.295   1.231
 4309SOL    HW113826   0.981   1.385   1.243
 4309SOL    HW213827   0.998   1.237   1.176
 4310SOL     OW13828   1.527   2.397   1.982
 4310SOL    HW113829   1.513   2.475   2.042
 4310SOL    HW213830   1.463   2.402   1.905
 4311SOL     OW13831   0.862   6.332   2.419
 4311SOL    HW113832   0.787   6.397   2.405
 4311SOL    HW213833   0.889   6.293   2.332
 4312SOL     OW13834   1.149   6.121   2.070
 4312SOL    HW113835   1.222   6.068   2.112
 4312SOL    HW213836   1.182   6.165   1.987
 4313SOL     OW13837   5.164   1.823   0.605
 4313SOL    HW113838   5.199   1.766   0.679
 4313SOL    HW213839   5.065   1.810   0.597
 4314SOL     OW13840   5.598   1.644   4.933
 4314SOL    HW113841   5.552   1.619   4.848
 4314SOL    HW213842   5.582   1.574   5.002
 4315SOL     OW13843   2.269   0.513   3.764
 4315SOL    HW113844   2.251   0.527   3.862
 4315SOL    HW213845   2.198   0.559   3.711
 4316SOL     OW13846   4.929   1.032   1.746
 4316SOL    HW113847   4.987   1.083   1.809
 4316SOL    HW213848   4.959   1.049   1.652
 4317SOL     OW13849   5.313   2.252   5.270
 4317SOL    HW113850   5.402   2.266   5.313
 4317SOL    HW213851   5.314   2.165   5.220
 4318SOL     OW13852   0.530   2.092   4.974
 4318SOL    HW113853   0.541   2.056   4.882
 4318SOL    HW213854   0.543   2.018   5.040
 4319SOL     OW13855   1.615   1.895   1.081
 4319SOL    HW113856   1.680   1.839   1.030
 4319SOL    HW213857   1.532   1.907   1.028
 4320SOL     OW13858   4.074   4.793   1.071
 4320SOL    HW113859   4.129   4.869   1.106
 4320SOL    HW213860   3.979   4.803   1.102
 4321SOL     OW13861   0.311   5.105   5.034
 4321SOL    HW113862   0.328   5.130   4.939
 4321SOL    HW213863   0.327   5.185   5.092
 4322SOL     OW13864   6.238   2.741   0.018
 4322SOL    HW113865   6.294   2.734   0.101
 4322SOL    HW213866   6.229   2.651   6.998
 4323SOL     OW13867   4.662   4.200   0.366
 4323SOL    HW113868   4.634   4.176   0.273
 4323SOL    HW213869   4.635   4.127   0.429
 4324SOL     OW13870   5.804   4.446   5.919
 4324SOL    HW113871   5.726   4.501   5.950
 4324SOL    HW213872   5.889   4.491   5.945
 4325SOL     OW13873   2.976   1.392   1.913
 4325SOL    HW113874   2.938   1.481   1.888
 4325SOL    HW213875   3.049   1.368   1.849
 4326SOL     OW13876   4.908   4.468   2.093
 4326SOL    HW113877   4.809   4.458   2.088
 4326SOL    HW213878   4.952   4.405   2.029
 4327SOL     OW13879   5.619   5.568   1.728
 4327SOL    HW113880   5.677   5.646   1.753
 4327SOL    HW213881   5.574   5.532   1.809
 4328SOL     OW13882   4.733   4.435   5.523
 4328SOL    HW113883   4.675   4.391   5.592
 4328SOL    HW213884   4.784   4.510   5.564
 4329SOL     OW13885   4.797   2.687   5.836
 4329SOL    HW113886   4.734   2.618   5.871
 4329SOL    HW213887   4.866   2.710   5.905
 4330SOL     OW13888   1.723   6.319   4.821
 4330SOL    HW113889   1.676   6.232   4.806
 4330SOL    HW213890   1.691   6.360   4.906
 4331SOL     OW13891   5.559   1.425   2.122
 4331SOL    HW113892   5.615   1.344   2.099
 4331SOL    HW213893   5.600   1.473   2.199
 4332SOL     OW13894   5.248   2.793   2.844
 4332SOL    HW113895   5.283   2.773   2.753
 4332SOL    HW213896   5.164   2.742   2.860
 4333SOL     OW13897   4.635   1.655   5.749
 4333SOL    HW113898   4.608   1.742   5.791
 4333SOL    HW213899   4.597   1.650   5.657
 4334SOL     OW13900   2.324   2.661   2.462
 4334SOL    HW113901   2.265   2.738   2.486
 4334SOL    HW213902   2.323   2.648   2.363
 4335SOL     OW13903   3.441   3.410   2.181
 4335SOL    HW113904   3.502   3.445   2.111
 4335SOL    HW213905   3.416   3.315   2.161
 4336SOL     OW13906   3.040   6.773   5.972
 4336SOL    HW113907   3.129   6.728   5.974
 4336SOL    HW213908   3.000   6.772   6.064
 4337SOL     OW13909   1.376   4.261   0.912
 4337SOL    HW113910   1.377   4.229   0.817
 4337SOL    HW213911   1.452   4.325   0.926
 4338SOL     OW13912   6.029   6.979   6.155
 4338SOL    HW113913   6.006   0.009   6.072
 4338SOL    HW213914   6.090   6.904   6.132
 4339SOL     OW13915   3.979   3.270   6.096
 4339SOL    HW113916   4.017   3.330   6.025
 4339SOL    HW213917   3.972   3.177   6.061
 4340SOL     OW13918   6.919   3.379   1.366
 4340SOL    HW113919   6.856   3.399   1.440
 4340SOL    HW213920   7.011   3.409   1.391
 4341SOL     OW13921   1.235   5.268   1.581
 4341SOL    HW113922   1.320   5.218   1.564
 4341SOL    HW213923   1.229   5.346   1.520
 4342SOL     OW13924   5.233   3.964   2.918
 4342SOL    HW113925   5.298   4.007   2.855
 4342SOL    HW213926   5.259   3.986   3.012
 4343SOL     OW13927   2.922   5.723   4.415
 4343SOL    HW113928   2.896   5.659   4.343
 4343SOL    HW213929   2.878   5.696   4.501
 4344SOL     OW13930   0.933   4.182   2.508
 4344SOL    HW113931   0.862   4.220   2.448
 4344SOL    HW213932   0.890   4.143   2.590
 4345SOL     OW13933   4.066   3.942   4.827
 4345SOL    HW113934   4.014   3.946   4.741
 4345SOL    HW213935   4.153   3.989   4.815
 4346SOL     OW13936   1.892   3.663   3.143
 4346SOL    HW113937   1.887   3.600   3.065
 4346SOL    HW213938   1.942   3.619   3.218
 4347SOL     OW13939   5.611   6.959   2.815
 4347SOL    HW113940   5.579   0.032   2.814
 4347SOL    HW213941   5.647   6.937   2.905
 4348SOL     OW13942   0.060   5.339   4.125
 4348SOL    HW113943   0.010   5.424   4.136
 4348SOL    HW213944   0.046   5.281   4.205
 4349SOL     OW13945   5.984   1.744   3.041
 4349SOL    HW113946   5.981   1.826   3.097
 4349SOL    HW213947   6.011   1.767   2.948
 4350SOL     OW13948   3.640   1.774   3.958
 4350SOL    HW113949   3.634   1.870   3.986
 4350SOL    HW213950   3.702   1.725   4.020
 4351SOL     OW13951   1.257   6.069   1.184
 4351SOL    HW113952   1.219   6.091   1.274
 4351SOL    HW213953   1.271   6.153   1.132
 4352SOL     OW13954   6.505   3.756   2.513
 4352SOL    HW113955   6.517   3.716   2.422
 4352SOL    HW213956   6.514   3.684   2.582
 4353SOL     OW13957   3.627   2.743   6.648
 4353SOL    HW113958   3.539   2.788   6.637
 4353SOL    HW213959   3.688   2.802   6.702
 4354SOL     OW13960   1.775   1.059   6.070
 4354SOL    HW113961   1.832   1.121   6.124
 4354SOL    HW213962   1.682   1.096   6.063
 4355SOL     OW13963   2.462   6.801   2.459
 4355SOL    HW113964   2.380   6.819   2.404
 4355SOL    HW213965   2.470   6.871   2.530
 4356SOL     OW13966   5.056   3.307   6.474
 4356SOL    HW113967   4.985   3.279   6.539
 4356SOL    HW213968   5.092   3.397   6.499
 4357SOL     OW13969   6.582   1.167   1.494
 4357SOL    HW113970   6.495   1.213   1.473
 4357SOL    HW213971   6.633   1.220   1.561
 4358SOL     OW13972   6.818   0.992   0.995
 4358SOL    HW113973   6.732   1.022   1.037
 4358SOL    HW213974   6.801   0.965   0.901
 4359SOL     OW13975   1.045   1.424   6.694
 4359SOL    HW113976   0.974   1.361   6.725
 4359SOL    HW213977   1.090   1.388   6.612
 4360SOL     OW13978   1.148   3.566   3.988
 4360SOL    HW113979   1.128   3.522   3.901
 4360SOL    HW213980   1.160   3.496   4.059
 4361SOL     OW13981   2.206   3.889   1.758
 4361SOL    HW113982   2.130   3.869   1.697
 4361SOL    HW213983   2.274   3.816   1.752
 4362SOL     OW13984   6.813   5.257   3.615
 4362SOL    HW113985   6.857   5.313   3.545
 4362SOL    HW213986   6.861   5.268   3.702
 4363SOL     OW13987   4.597   2.156   0.904
 4363SOL    HW113988   4.657   2.157   0.984
 4363SOL    HW213989   4.589   2.064   0.868
 4364SOL     OW13990   3.011   3.959   3.480
 4364SOL    HW113991   3.053   3.891   3.419
 4364SOL    HW213992   2.951   4.019   3.427
 4365SOL     OW13993   3.107   0.568   2.063
 4365SOL    HW113994   3.113   0.603   1.969
 4365SOL    HW213995   3.025   0.605   2.107
 4366SOL     OW13996   6.236   0.175   6.259
 4366SOL    HW113997   6.218   0.187   6.356
 4366SOL    HW213998   6.215   0.080   6.233
 4367SOL     OW13999   2.481   4.887   4.103
 4367SOL    HW114000   2.579   4.898   4.120
 4367SOL    HW214001   2.462   4.790   4.084
 4368SOL     OW14002   3.673   5.564   1.407
 4368SOL    HW114003   3.623   5.645   1.376
 4368SOL    HW214004   3.763   5.592   1.441
 4369SOL     OW14005   4.673   4.949   2.689
 4369SOL    HW114006   4.756   4.977   2.641
 4369SOL    HW214007   4.694   4.934   2.785
 4370SOL     OW14008   3.685   4.414   1.679
 4370SOL    HW114009   3.751   4.428   1.604
 4370SOL    HW214010   3.665   4.502   1.722
 4371SOL     OW14011   1.799   1.827   2.144
 4371SOL    HW114012   1.778   1.893   2.216
 4371SOL    HW214013   1.897   1.811   2.141
 4372SOL     OW14014   2.541   2.166   4.379
 4372SOL    HW114015   2.565   2.263   4.375
 4372SOL    HW214016   2.601   2.114   4.318
 4373SOL     OW14017   4.632   1.142   0.100
 4373SOL    HW114018   4.615   1.232   0.141
 4373SOL    HW214019   4.716   1.104   0.138
 4374SOL     OW14020   0.784   1.527   1.329
 4374SOL    HW114021   0.714   1.584   1.372
 4374SOL    HW214022   0.808   1.451   1.390
 4375SOL     OW14023   4.402   6.016   3.264
 4375SOL    HW114024   4.482   5.965   3.231
 4375SOL    HW214025   4.415   6.039   3.361
 4376SOL     OW14026   6.306   0.027   2.681
 4376SOL    HW114027   6.258   6.988   2.745
 4376SOL    HW214028   6.372   0.083   2.732
 4377SOL     OW14029   5.720   5.504   6.878
 4377SOL    HW114030   5.760   5.557   6.803
 4377SOL    HW214031   5.773   5.421   6.892
 4378SOL     OW14032   1.509   3.491   2.737
 4378SOL    HW114033   1.574   3.564   2.717
 4378SOL    HW214034   1.467   3.507   2.827
 4379SOL     OW14035   2.492   2.125   2.176
 4379SOL    HW114036   2.583   2.086   2.184
 4379SOL    HW214037   2.449   2.127   2.266
 4380SOL     OW14038   1.118   6.721   3.393
 4380SOL    HW114039   1.035   6.748   3.442
 4380SOL    HW214040   1.139   6.625   3.411
 4381SOL     OW14041   2.355   4.183   5.325
 4381SOL    HW114042   2.383   4.116   5.256
 4381SOL    HW214043   2.435   4.225   5.366
 4382SOL     OW14044   6.272   3.543   6.315
 4382SOL    HW114045   6.242   3.522   6.408
 4382SOL    HW214046   6.209   3.500   6.250
 4383SOL     OW14047   0.999   2.562   5.816
 4383SOL    HW114048   1.068   2.577   5.746
 4383SOL    HW214049   0.943   2.644   5.825
 4384SOL     OW14050   5.303   1.545   6.395
 4384SOL    HW114051   5.222   1.522   6.449
 4384SOL    HW214052   5.344   1.461   6.359
 4385SOL     OW14053   6.412   2.571   5.202
 4385SOL    HW114054   6.357   2.645   5.243
 4385SOL    HW214055   6.438   2.506   5.274
 4386SOL     OW14056   2.247   3.674   6.722
 4386SOL    HW114057   2.278   3.709   6.810
 4386SOL    HW214058   2.151   3.648   6.729
 4387SOL     OW14059   0.086   0.887   1.876
 4387SOL    HW114060   0.055   0.872   1.969
 4387SOL    HW214061   0.010   0.920   1.820
 4388SOL     OW14062   5.456   1.212   6.538
 4388SOL    HW114063   5.487   1.292   6.588
 4388SOL    HW214064   5.439   1.236   6.442
 4389SOL     OW14065   6.843   3.231   0.852
 4389SOL    HW114066   6.796   3.296   0.793
 4389SOL    HW214067   6.777   3.173   0.899
 4390SOL     OW14068   3.899   1.396   1.876
 4390SOL    HW114069   3.881   1.438   1.965
 4390SOL    HW214070   3.895   1.467   1.805
 4391SOL     OW14071   1.528   5.651   6.365
 4391SOL    HW114072   1.596   5.609   6.426
 4391SOL    HW214073   1.439   5.651   6.410
 4392SOL     OW14074   6.780   3.308   5.870
 4392SOL    HW114075   6.838   3.346   5.942
 4392SOL    HW214076   6.699   3.365   5.860
 4393SOL     OW14077   5.900   7.018   2.579
 4393SOL    HW114078   5.940   6.953   2.644
 4393SOL    HW214079   5.963   0.010   2.502
 4394SOL     OW14080   5.681   6.012   2.783
 4394SOL    HW114081   5.760   5.965   2.744
 4394SOL    HW214082   5.711   6.067   2.862
 4395SOL     OW14083   3.844   0.577   1.577
 4395SOL    HW114084   3.818   0.484   1.552
 4395SOL    HW214085   3.809   0.598   1.668
 4396SOL     OW14086   2.645   2.435   4.193
 4396SOL    HW114087   2.667   2.386   4.108
 4396SOL    HW214088   2.590   2.515   4.172
 4397SOL     OW14089   0.006   1.089   4.414
 4397SOL    HW114090   0.006   1.069   4.512
 4397SOL    HW214091   0.092   1.057   4.374
 4398SOL     OW14092   0.835   4.729   5.263
 4398SOL    HW114093   0.849   4.766   5.355
 4398SOL    HW214094   0.738   4.739   5.238
 4399SOL     OW14095   1.586   1.261   1.372
 4399SOL    HW114096   1.629   1.283   1.285
 4399SOL    HW214097   1.647   1.288   1.447
 4400SOL     OW14098   3.172   6.697   5.300
 4400SOL    HW114099   3.100   6.723   5.235
 4400SOL    HW214100   3.129   6.659   5.382
 4401SOL     OW14101   4.898   0.053   6.704
 4401SOL    HW114102   4.921   7.008   6.633
 4401SOL    HW214103   4.805   0.036   6.736
 4402SOL     OW14104   2.704   6.549   1.260
 4402SOL    HW114105   2.719   6.467   1.314
 4402SOL    HW214106   2.770   6.620   1.287
 4403SOL     OW14107   0.926   6.857   3.539
 4403SOL    HW114108   0.868   6.913   3.481
 4403SOL    HW214109   0.883   6.768   3.554
 4404SOL     OW14110   0.332   4.224   5.484
 4404SOL    HW114111   0.337   4.281   5.566
 4404SOL    HW214112   0.303   4.279   5.406
 4405SOL     OW14113   2.020   4.630   1.310
 4405SOL    HW114114   2.078   4.567   1.259
 4405SOL    HW214115   2.069   4.715   1.326
 4406SOL     OW14116   0.122   3.798   0.610
 4406SOL    HW114117   0.102   3.774   0.515
 4406SOL    HW214118   0.043   3.777   0.668
 4407SOL     OW14119   0.137   4.497   0.482
 4407SOL    HW114120   0.103   4.566   0.419
 4407SOL    HW214121   0.223   4.528   0.523
 4408SOL     OW14122   3.338   0.964   1.384
 4408SOL    HW114123   3.398   1.026   1.434
 4408SOL    HW214124   3.384   0.934   1.300
 4409SOL     OW14125   4.651   6.960   1.136
 4409SOL    HW114126   4.631   6.862   1.145
 4409SOL    HW214127   4.677   6.980   1.042
 4410SOL     OW14128   1.379   5.695   6.981
 4410SOL    HW114129   1.390   5.659   6.889
 4410SOL    HW214130   1.377   5.795   6.978
 4411SOL     OW14131   3.154   3.898   3.686
 4411SOL    HW114132   3.113   3.841   3.758
 4411SOL    HW214133   3.083   3.926   3.622
 4412SOL     OW14134   4.032   0.029   4.700
 4412SOL    HW114135   4.103   7.002   4.650
 4412SOL    HW214136   4.002   6.995   4.778
 4413SOL     OW14137   5.151   5.800   4.711
 4413SOL    HW114138   5.127   5.716   4.760
 4413SOL    HW214139   5.071   5.832   4.659
 4414SOL     OW14140   3.848   4.446   1.411
 4414SOL    HW114141   3.781   4.512   1.443
 4414SOL    HW214142   3.870   4.464   1.315
 4415SOL     OW14143   3.923   3.644   6.926
 4415SOL    HW114144   3.922   3.674   6.830
 4415SOL    HW214145   3.978   3.561   6.935
 4416SOL     OW14146   2.203   0.538   4.006
 4416SOL    HW114147   2.280   0.493   4.051
 4416SOL    HW214148   2.124   0.536   4.067
 4417SOL     OW14149   5.831   4.381   3.272
 4417SOL    HW114150   5.819   4.312   3.344
 4417SOL    HW214151   5.741   4.416   3.245
 4418SOL     OW14152   5.568   1.115   2.518
 4418SOL    HW114153   5.644   1.137   2.458
 4418SOL    HW214154   5.601   1.064   2.597
 4419SOL     OW14155   5.526   5.719   0.810
 4419SOL    HW114156   5.448   5.656   0.815
 4419SOL    HW214157   5.494   5.813   0.821
 4420SOL     OW14158   5.148   1.441   1.519
 4420SOL    HW114159   5.054   1.407   1.511
 4420SOL    HW214160   5.188   1.449   1.428
 4421SOL     OW14161   1.991   0.919   4.813
 4421SOL    HW114162   1.903   0.924   4.765
 4421SOL    HW214163   2.057   0.979   4.768
 4422SOL     OW14164   3.041   4.525   5.805
 4422SOL    HW114165   2.991   4.555   5.723
 4422SOL    HW214166   3.136   4.503   5.780
 4423SOL     OW14167   1.623   2.750   5.832
 4423SOL    HW114168   1.667   2.822   5.886
 4423SOL    HW214169   1.672   2.740   5.746
 4424SOL     OW14170   5.663   0.297   4.589
 4424SOL    HW114171   5.618   0.232   4.527
 4424SOL    HW214172   5.611   0.382   4.591
 4425SOL     OW14173   3.406   5.159   6.977
 4425SOL    HW114174   3.478   5.221   6.946
 4425SOL    HW214175   3.382   5.097   6.903
 4426SOL     OW14176   6.989   1.356   4.779
 4426SOL    HW114177   6.922   1.345   4.852
 4426SOL    HW214178   0.047   1.298   4.798
 4427SOL     OW14179   0.205   6.117   2.378
 4427SOL    HW114180   0.171   6.025   2.356
 4427SOL    HW214181   0.127   6.179   2.390
 4428SOL     OW14182   2.914   6.195   1.615
 4428SOL    HW114183   2.936   6.177   1.711
 4428SOL    HW214184   2.990   6.165   1.558
 4429SOL     OW14185   3.026   0.214   2.686
 4429SOL    HW114186   3.056   0.240   2.595
 4429SOL    HW214187   3.102   0.223   2.750
 4430SOL     OW14188   4.925   3.626   4.805
 4430SOL    HW114189   5.014   3.586   4.824
 4430SOL    HW214190   4.864   3.611   4.883
 4431SOL     OW14191   2.486   0.705   2.215
 4431SOL    HW114192   2.412   0.769   2.191
 4431SOL    HW214193   2.453   0.642   2.284
 4432SOL     OW14194   4.123   3.552   4.597
 4432SOL    HW114195   4.132   3.586   4.690
 4432SOL    HW214196   4.054   3.605   4.548
 4433SOL     OW14197   5.289   0.645   5.020
 4433SOL    HW114198   5.256   0.654   4.926
 4433SOL    HW214199   5.388   0.631   5.019
 4434SOL     OW14200   4.438   2.013   3.896
 4434SOL    HW114201   4.399   2.096   3.856
 4434SOL    HW214202   4.392   1.933   3.858
 4435SOL     OW14203   4.418   3.383   1.412
 4435SOL    HW114204   4.481   3.458   1.433
 4435SOL    HW214205   4.432   3.308   1.476
 4436SOL     OW14206   3.741   1.543   0.843
 4436SOL    HW114207   3.677   1.509   0.912
 4436SOL    HW214208   3.756   1.641   0.858
 4437SOL     OW14209   5.863   1.481   3.647
 4437SOL    HW114210   5.942   1.495   3.706
 4437SOL    HW214211   5.886   1.510   3.554
 4438SOL     OW14212   4.960   0.687   0.518
 4438SOL    HW114213   4.897   0.731   0.583
 4438SOL    HW214214   4.953   0.731   0.429
 4439SOL     OW14215   0.539   5.872   1.403
 4439SOL    HW114216   0.553   5.917   1.491
 4439SOL    HW214217   0.441   5.855   1.390
 4440SOL     OW14218   2.313   5.190   0.858
 4440SOL    HW114219   2.336   5.175   0.762
 4440SOL    HW214220   2.276   5.282   0.869
 4441SOL     OW14221   6.593   1.814   2.740
 4441SOL    HW114222   6.529   1.752   2.786
 4441SOL    HW214223   6.575   1.908   2.769
 4442SOL     OW14224   2.650   5.868   4.837
 4442SOL    HW114225   2.705   5.921   4.901
 4442SOL    HW214226   2.639   5.920   4.752
 4443SOL     OW14227   0.110   2.630   0.723
 4443SOL    HW114228   0.072   2.670   0.640
 4443SOL    HW214229   0.208   2.650   0.727
 4444SOL     OW14230   3.735   5.169   6.119
 4444SOL    HW114231   3.800   5.222   6.175
 4444SOL    HW214232   3.777   5.149   6.031
 4445SOL     OW14233   6.994   0.710   1.080
 4445SOL    HW114234   0.038   0.661   1.022
 4445SOL    HW214235   6.953   0.785   1.029
 4446SOL     OW14236   5.476   1.344   1.661
 4446SOL    HW114237   5.439   1.430   1.697
 4446SOL    HW214238   5.510   1.288   1.737
 4447SOL     OW14239   5.543   4.063   6.615
 4447SOL    HW114240   5.472   4.053   6.545
 4447SOL    HW214241   5.610   4.131   6.584
 4448SOL     OW14242   2.737   3.889   1.150
 4448SOL    HW114243   2.723   3.801   1.104
 4448SOL    HW214244   2.665   3.903   1.218
 4449SOL     OW14245   5.054   0.783   5.776
 4449SOL    HW114246   5.001   0.862   5.746
 4449SOL    HW214247   5.015   0.700   5.735
 4450SOL     OW14248   3.474   2.858   3.980
 4450SOL    HW114249   3.472   2.863   3.880
 4450SOL    HW214250   3.382   2.874   4.016
 4451SOL     OW14251   5.765   4.242   4.322
 4451SOL    HW114252   5.856   4.207   4.301
 4451SOL    HW214253   5.696   4.172   4.303
 4452SOL     OW14254   5.202   6.154   4.020
 4452SOL    HW114255   5.216   6.236   4.075
 4452SOL    HW214256   5.280   6.093   4.030
 4453SOL     OW14257   0.258   2.675   1.828
 4453SOL    HW114258   0.278   2.772   1.837
 4453SOL    HW214259   0.166   2.657   1.862
 4454SOL     OW14260   0.438   1.810   6.616
 4454SOL    HW114261   0.480   1.731   6.572
 4454SOL    HW214262   0.475   1.894   6.575
 4455SOL     OW14263   3.822   6.255   6.261
 4455SOL    HW114264   3.869   6.167   6.266
 4455SOL    HW214265   3.804   6.277   6.165
 4456SOL     OW14266   3.421   5.200   1.962
 4456SOL    HW114267   3.332   5.244   1.972
 4456SOL    HW214268   3.443   5.190   1.865
 4457SOL     OW14269   4.590   1.775   0.808
 4457SOL    HW114270   4.663   1.732   0.862
 4457SOL    HW214271   4.502   1.740   0.838
 4458SOL     OW14272   1.382   3.155   6.391
 4458SOL    HW114273   1.373   3.148   6.292
 4458SOL    HW214274   1.374   3.065   6.432
 4459SOL     OW14275   4.486   0.503   4.430
 4459SOL    HW114276   4.448   0.593   4.455
 4459SOL    HW214277   4.434   0.465   4.354
 4460SOL     OW14278   3.225   3.149   5.689
 4460SOL    HW114279   3.209   3.071   5.750
 4460SOL    HW214280   3.207   3.234   5.738
 4461SOL     OW14281   1.535   1.060   2.028
 4461SOL    HW114282   1.604   1.107   1.972
 4461SOL    HW214283   1.580   0.998   2.091
 4462SOL     OW14284   6.166   4.429   2.361
 4462SOL    HW114285   6.229   4.406   2.287
 4462SOL    HW214286   6.074   4.396   2.338
 4463SOL     OW14287   4.864   2.282   6.333
 4463SOL    HW114288   4.875   2.353   6.403
 4463SOL    HW214289   4.771   2.284   6.297
 4464SOL     OW14290   0.177   4.985   0.959
 4464SOL    HW114291   0.266   4.995   1.003
 4464SOL    HW214292   0.105   5.016   1.022
 4465SOL     OW14293   2.542   5.455   2.025
 4465SOL    HW114294   2.483   5.375   2.025
 4465SOL    HW214295   2.635   5.428   1.998
 4466SOL     OW14296   2.306   1.573   3.303
 4466SOL    HW114297   2.356   1.576   3.216
 4466SOL    HW214298   2.371   1.578   3.379
 4467SOL     OW14299   2.015   6.842   2.590
 4467SOL    HW114300   2.057   6.895   2.663
 4467SOL    HW214301   1.962   6.767   2.630
 4468SOL     OW14302   2.043   3.104   1.203
 4468SOL    HW114303   2.002   3.112   1.294
 4468SOL    HW214304   2.094   3.019   1.198
 4469SOL     OW14305   4.164   0.426   1.055
 4469SOL    HW114306   4.202   0.513   1.085
 4469SOL    HW214307   4.195   0.405   0.963
 4470SOL     OW14308   5.895   2.314   2.156
 4470SOL    HW114309   5.861   2.296   2.064
 4470SOL    HW214310   5.828   2.370   2.206
 4471SOL     OW14311   0.168   1.653   6.445
 4471SOL    HW114312   0.170   1.752   6.434
 4471SOL    HW214313   0.082   1.616   6.410
 4472SOL     OW14314   1.685   2.931   3.732
 4472SOL    HW114315   1.770   2.942   3.784
 4472SOL    HW214316   1.607   2.953   3.790
 4473SOL     OW14317   6.881   2.168   4.175
 4473SOL    HW114318   6.812   2.223   4.128
 4473SOL    HW214319   6.925   2.106   4.110
 4474SOL     OW14320   3.141   1.116   1.551
 4474SOL    HW114321   3.165   1.088   1.457
 4474SOL    HW214322   3.212   1.084   1.614
 4475SOL     OW14323   1.829   4.238   2.840
 4475SOL    HW114324   1.734   4.222   2.869
 4475SOL    HW214325   1.878   4.285   2.914
 4476SOL     OW14326   4.246   6.627   4.039
 4476SOL    HW114327   4.188   6.567   3.985
 4476SOL    HW214328   4.274   6.580   4.123
 4477SOL     OW14329   1.905   0.096   5.574
 4477SOL    HW114330   1.897   0.073   5.671
 4477SOL    HW214331   1.841   0.170   5.551
 4478SOL     OW14332   3.949   6.597   2.811
 4478SOL    HW114333   4.040   6.568   2.782
 4478SOL    HW214334   3.888   6.600   2.732
 4479SOL     OW14335   1.467   1.031   1.220
 4479SOL    HW114336   1.501   1.034   1.126
 4479SOL    HW214337   1.532   1.076   1.280
 4480SOL     OW14338   2.503   3.109   6.028
 4480SOL    HW114339   2.515   3.205   6.051
 4480SOL    HW214340   2.570   3.082   5.959
 4481SOL     OW14341   2.553   6.343   5.571
 4481SOL    HW114342   2.556   6.288   5.488
 4481SOL    HW214343   2.628   6.317   5.631
 4482SOL     OW14344   1.201   4.667   4.507
 4482SOL    HW114345   1.226   4.661   4.603
 4482SOL    HW214346   1.237   4.588   4.458
 4483SOL     OW14347   4.869   3.544   2.125
 4483SOL    HW114348   4.921   3.549   2.040
 4483SOL    HW214349   4.881   3.628   2.177
 4484SOL     OW14350   3.543   2.944   5.911
 4484SOL    HW114351   3.450   2.930   5.946
 4484SOL    HW214352   3.587   2.856   5.899
 4485SOL     OW14353   5.138   1.815   5.111
 4485SOL    HW114354   5.148   1.721   5.146
 4485SOL    HW214355   5.044   1.829   5.080
 4486SOL     OW14356   5.216   4.862   4.674
 4486SOL    HW114357   5.305   4.828   4.706
 4486SOL    HW214358   5.190   4.813   4.591
 4487SOL     OW14359   2.597   2.694   6.241
 4487SOL    HW114360   2.643   2.783   6.248
 4487SOL    HW214361   2.643   2.628   6.302
 4488SOL     OW14362   6.651   3.127   6.070
 4488SOL    HW114363   6.695   3.037   6.076
 4488SOL    HW214364   6.715   3.192   6.030
 4489SOL     OW14365   6.147   5.663   4.385
 4489SOL    HW114366   6.182   5.651   4.478
 4489SOL    HW214367   6.222   5.696   4.327
 4490SOL     OW14368   6.308   2.796   3.149
 4490SOL    HW114369   6.281   2.699   3.152
 4490SOL    HW214370   6.229   2.851   3.123
 4491SOL     OW14371   0.051   2.223   4.522
 4491SOL    HW114372   0.031   2.129   4.494
 4491SOL    HW214373   0.141   2.227   4.566
 4492SOL     OW14374   5.879   4.297   2.044
 4492SOL    HW114375   5.877   4.336   2.136
 4492SOL    HW214376   5.786   4.284   2.010
 4493SOL     OW14377   4.927   5.951   5.277
 4493SOL    HW114378   4.993   5.917   5.344
 4493SOL    HW214379   4.959   6.038   5.240
 4494SOL     OW14380   6.465   1.218   5.400
 4494SOL    HW114381   6.502   1.137   5.447
 4494SOL    HW214382   6.396   1.261   5.458
 4495SOL     OW14383   3.772   6.613   4.572
 4495SOL    HW114384   3.737   6.634   4.663
 4495SOL    HW214385   3.747   6.520   4.547
 4496SOL     OW14386   5.378   5.491   1.339
 4496SOL    HW114387   5.378   5.410   1.280
 4496SOL    HW214388   5.384   5.573   1.282
 4497SOL     OW14389   4.931   0.793   6.694
 4497SOL    HW114390   4.869   0.720   6.722
 4497SOL    HW214391   4.879   0.878   6.680
 4498SOL     OW14392   6.792   3.580   6.386
 4498SOL    HW114393   6.694   3.558   6.386
 4498SOL    HW214394   6.844   3.500   6.356
 4499SOL     OW14395   6.540   3.237   4.291
 4499SOL    HW114396   6.510   3.149   4.327
 4499SOL    HW214397   6.461   3.295   4.273
 4500SOL     OW14398   2.901   3.555   4.043
 4500SOL    HW114399   2.930   3.649   4.062
 4500SOL    HW214400   2.907   3.501   4.127
 4501SOL     OW14401   0.465   3.096   4.488
 4501SOL    HW114402   0.525   3.074   4.411
 4501SOL    HW214403   0.457   3.195   4.497
 4502SOL     OW14404   1.100   2.804   6.444
 4502SOL    HW114405   1.080   2.767   6.535
 4502SOL    HW214406   1.029   2.869   6.419
 4503SOL     OW14407   3.656   6.879   2.111
 4503SOL    HW114408   3.600   6.910   2.188
 4503SOL    HW214409   3.647   6.943   2.035
 4504SOL     OW14410   6.172   1.480   5.067
 4504SOL    HW114411   6.189   1.533   4.984
 4504SOL    HW214412   6.080   1.499   5.101
 4505SOL     OW14413   6.036   5.583   2.263
 4505SOL    HW114414   6.031   5.639   2.345
 4505SOL    HW214415   5.943   5.560   2.233
 4506SOL     OW14416   4.248   2.213   3.639
 4506SOL    HW114417   4.313   2.289   3.635
 4506SOL    HW214418   4.215   2.192   3.547
 4507SOL     OW14419   5.597   5.478   2.283
 4507SOL    HW114420   5.511   5.528   2.281
 4507SOL    HW214421   5.582   5.382   2.260
 4508SOL     OW14422   0.741   4.343   6.233
 4508SOL    HW114423   0.806   4.353   6.157
 4508SOL    HW214424   0.725   4.432   6.274
 4509SOL     OW14425   4.997   2.476   2.394
 4509SOL    HW114426   4.971   2.414   2.468
 4509SOL    HW214427   4.956   2.444   2.308
 4510SOL     OW14428   4.509   1.046   4.390
 4510SOL    HW114429   4.411   1.025   4.396
 4510SOL    HW214430   4.549   1.039   4.481
 4511SOL     OW14431   0.019   3.298   6.753
 4511SOL    HW114432   0.095   3.307   6.817
 4511SOL    HW214433   0.054   3.289   6.660
 4512SOL     OW14434   2.794   0.284   4.904
 4512SOL    HW114435   2.785   0.205   4.965
 4512SOL    HW214436   2.884   0.326   4.918
 4513SOL     OW14437   5.955   5.290   0.652
 4513SOL    HW114438   5.939   5.384   0.620
 4513SOL    HW214439   5.924   5.283   0.747
 4514SOL     OW14440   4.585   1.393   6.361
 4514SOL    HW114441   4.539   1.423   6.277
 4514SOL    HW214442   4.578   1.293   6.368
 4515SOL     OW14443   0.178   2.330   5.767
 4515SOL    HW114444   0.088   2.326   5.724
 4515SOL    HW214445   0.167   2.341   5.866
 4516SOL     OW14446   1.340   0.586   6.840
 4516SOL    HW114447   1.317   0.506   6.785
 4516SOL    HW214448   1.260   0.647   6.844
 4517SOL     OW14449   3.179   0.813   6.629
 4517SOL    HW114450   3.183   0.840   6.532
 4517SOL    HW214451   3.086   0.786   6.652
 4518SOL     OW14452   0.082   0.336   3.065
 4518SOL    HW114453   0.022   0.266   3.026
 4518SOL    HW214454   0.044   0.369   3.151
 4519SOL     OW14455   5.874   0.651   1.371
 4519SOL    HW114456   5.866   0.568   1.427
 4519SOL    HW214457   5.865   0.626   1.274
 4520SOL     OW14458   4.756   6.069   4.503
 4520SOL    HW114459   4.658   6.054   4.514
 4520SOL    HW214460   4.773   6.116   4.416
 4521SOL     OW14461   6.173   2.041   4.387
 4521SOL    HW114462   6.254   2.086   4.349
 4521SOL    HW214463   6.128   1.987   4.316
 4522SOL     OW14464   6.190   6.982   3.644
 4522SOL    HW114465   6.202   6.884   3.660
 4522SOL    HW214466   6.172   0.007   3.730
 4523SOL     OW14467   1.595   4.620   0.371
 4523SOL    HW114468   1.585   4.616   0.470
 4523SOL    HW214469   1.597   4.528   0.333
 4524SOL     OW14470   5.579   2.347   3.622
 4524SOL    HW114471   5.578   2.445   3.606
 4524SOL    HW214472   5.547   2.328   3.715
 4525SOL     OW14473   4.995   1.202   4.034
 4525SOL    HW114474   5.020   1.222   4.129
 4525SOL    HW214475   5.075   1.214   3.976
 4526SOL     OW14476   6.005   0.453   1.209
 4526SOL    HW114477   6.093   0.465   1.164
 4526SOL    HW214478   6.007   0.495   1.299
 4527SOL     OW14479   4.443   1.209   3.645
 4527SOL    HW114480   4.424   1.162   3.559
 4527SOL    HW214481   4.519   1.163   3.692
 4528SOL     OW14482   4.856   0.301   0.250
 4528SOL    HW114483   4.874   0.291   0.153
 4528SOL    HW214484   4.774   0.356   0.263
 4529SOL     OW14485   3.487   1.315   5.282
 4529SOL    HW114486   3.475   1.406   5.323
 4529SOL    HW214487   3.585   1.292   5.282
 4530SOL     OW14488   1.630   3.596   6.399
 4530SOL    HW114489   1.569   3.627   6.472
 4530SOL    HW214490   1.687   3.521   6.434
 4531SOL     OW14491   0.443   3.374   4.486
 4531SOL    HW114492   0.394   3.460   4.469
 4531SOL    HW214493   0.537   3.382   4.453
 4532SOL     OW14494   5.811   2.178   3.326
 4532SOL    HW114495   5.732   2.140   3.375
 4532SOL    HW214496   5.804   2.278   3.327
 4533SOL     OW14497   1.703   0.746   1.909
 4533SOL    HW114498   1.681   0.777   2.001
 4533SOL    HW214499   1.719   0.648   1.909
 4534SOL     OW14500   4.629   4.411   4.629
 4534SOL    HW114501   4.647   4.353   4.709
 4534SOL    HW214502   4.543   4.461   4.644
 4535SOL     OW14503   4.992   1.073   2.437
 4535SOL    HW114504   5.034   1.131   2.507
 4535SOL    HW214505   5.031   1.097   2.347
 4536SOL     OW14506   3.863   1.144   3.916
 4536SOL    HW114507   3.948   1.157   3.865
 4536SOL    HW214508   3.786   1.146   3.853
 4537SOL     OW14509   3.728   2.954   6.196
 4537SOL    HW114510   3.699   2.861   6.172
 4537SOL    HW214511   3.649   3.014   6.200
 4538SOL     OW14512   2.289   0.295   4.133
 4538SOL    HW114513   2.274   0.214   4.190
 4538SOL    HW214514   2.316   0.267   4.041
 4539SOL     OW14515   2.389   0.630   4.848
 4539SOL    HW114516   2.468   0.687   4.872
 4539SOL    HW214517   2.308   0.665   4.895
 4540SOL     OW14518   3.072   2.762   5.288
 4540SOL    HW114519   2.991   2.819   5.286
 4540SOL    HW214520   3.046   2.666   5.299
 4541SOL     OW14521   6.262   1.465   1.094
 4541SOL    HW114522   6.287   1.381   1.047
 4541SOL    HW214523   6.170   1.492   1.067
 4542SOL     OW14524   6.393   1.233   2.950
 4542SOL    HW114525   6.487   1.257   2.974
 4542SOL    HW214526   6.353   1.308   2.897
 4543SOL     OW14527   4.651   1.977   1.441
 4543SOL    HW114528   4.706   2.020   1.512
 4543SOL    HW214529   4.626   2.046   1.372
 4544SOL     OW14530   3.099   6.253   6.158
 4544SOL    HW114531   3.017   6.206   6.125
 4544SOL    HW214532   3.073   6.340   6.199
 4545SOL     OW14533   5.241   3.635   4.868
 4545SOL    HW114534   5.209   3.728   4.848
 4545SOL    HW214535   5.326   3.618   4.819
 4546SOL     OW14536   2.018   1.233   6.095
 4546SOL    HW114537   2.010   1.159   6.163
 4546SOL    HW214538   2.078   1.203   6.021
 4547SOL     OW14539   6.050   2.522   3.338
 4547SOL    HW114540   6.125   2.502   3.401
 4547SOL    HW214541   6.074   2.488   3.247
 4548SOL     OW14542   1.260   4.034   4.499
 4548SOL    HW114543   1.357   4.058   4.500
 4548SOL    HW214544   1.246   3.952   4.443
 4549SOL     OW14545   6.140   4.226   2.128
 4549SOL    HW114546   6.153   4.169   2.209
 4549SOL    HW214547   6.051   4.206   2.086
 4550SOL     OW14548   1.223   6.018   3.186
 4550SOL    HW114549   1.292   6.056   3.125
 4550SOL    HW214550   1.185   6.090   3.243
 4551SOL     OW14551   6.914   1.677   5.584
 4551SOL    HW114552   6.985   1.748   5.578
 4551SOL    HW214553   6.833   1.707   5.533
 4552SOL     OW14554   6.441   2.723   0.696
 4552SOL    HW114555   6.534   2.687   0.692
 4552SOL    HW214556   6.393   2.702   0.611
 4553SOL     OW14557   3.865   4.430   6.732
 4553SOL    HW114558   3.774   4.468   6.718
 4553SOL    HW214559   3.920   4.494   6.786
 4554SOL     OW14560   5.289   0.396   1.385
 4554SOL    HW114561   5.356   0.437   1.448
 4554SOL    HW214562   5.266   0.463   1.314
 4555SOL     OW14563   3.094   1.561   5.681
 4555SOL    HW114564   3.100   1.462   5.670
 4555SOL    HW214565   3.051   1.602   5.600
 4556SOL     OW14566   4.426   2.374   4.214
 4556SOL    HW114567   4.371   2.436   4.271
 4556SOL    HW214568   4.478   2.313   4.272
 4557SOL     OW14569   4.966   6.583   5.021
 4557SOL    HW114570   4.883   6.527   5.015
 4557SOL    HW214571   4.943   6.673   5.057
 4558SOL     OW14572   0.712   3.941   4.874
 4558SOL    HW114573   0.625   3.956   4.828
 4558SOL    HW214574   0.700   3.956   4.972
 4559SOL     OW14575   0.480   3.758   1.950
 4559SOL    HW114576   0.393   3.807   1.959
 4559SOL    HW214577   0.462   3.660   1.948
 4560SOL     OW14578   5.402   5.069   2.599
 4560SOL    HW114579   5.368   5.139   2.535
 4560SOL    HW214580   5.481   5.104   2.648
 4561SOL     OW14581   2.622   0.996   2.048
 4561SOL    HW114582   2.551   0.926   2.059
 4561SOL    HW214583   2.705   0.954   2.012
 4562SOL     OW14584   3.177   6.340   4.668
 4562SOL    HW114585   3.080   6.353   4.686
 4562SOL    HW214586   3.223   6.308   4.750
 4563SOL     OW14587   0.374   3.713   1.201
 4563SOL    HW114588   0.284   3.757   1.204
 4563SOL    HW214589   0.403   3.702   1.105
 4564SOL     OW14590   6.556   6.915   0.646
 4564SOL    HW114591   6.639   6.859   0.648
 4564SOL    HW214592   6.489   6.873   0.585
 4565SOL     OW14593   0.191   1.486   5.573
 4565SOL    HW114594   0.185   1.498   5.672
 4565SOL    HW214595   0.103   1.455   5.537
 4566SOL     OW14596   6.745   2.101   0.921
 4566SOL    HW114597   6.842   2.099   0.897
 4566SOL    HW214598   6.704   2.184   0.885
 4567SOL     OW14599   0.042   0.429   0.089
 4567SOL    HW114600   7.017   0.340   0.095
 4567SOL    HW214601   0.012   0.476   0.006
 4568SOL     OW14602   1.985   3.845   6.097
 4568SOL    HW114603   1.896   3.828   6.138
 4568SOL    HW214604   1.977   3.921   6.032
 4569SOL     OW14605   2.065   1.387   3.365
 4569SOL    HW114606   2.070   1.487   3.374
 4569SOL    HW214607   2.068   1.346   3.456
 4570SOL     OW14608   0.547   6.418   3.296
 4570SOL    HW114609   0.462   6.470   3.293
 4570SOL    HW214610   0.581   6.405   3.202
 4571SOL     OW14611   4.085   3.429   5.913
 4571SOL    HW114612   4.177   3.401   5.888
 4571SOL    HW214613   4.056   3.504   5.855
 4572SOL     OW14614   1.221   6.660   6.875
 4572SOL    HW114615   1.203   6.566   6.848
 4572SOL    HW214616   1.288   6.701   6.813
 4573SOL     OW14617   6.353   6.780   0.489
 4573SOL    HW114618   6.278   6.845   0.485
 4573SOL    HW214619   6.326   6.701   0.544
 4574SOL     OW14620   6.590   4.014   1.208
 4574SOL    HW114621   6.549   3.963   1.133
 4574SOL    HW214622   6.523   4.023   1.282
 4575SOL     OW14623   5.787   1.693   6.647
 4575SOL    HW114624   5.688   1.681   6.658
 4575SOL    HW214625   5.806   1.728   6.555
 4576SOL     OW14626   2.585   6.269   6.102
 4576SOL    HW114627   2.558   6.205   6.031
 4576SOL    HW214628   2.533   6.354   6.092
 4577SOL     OW14629   1.157   2.056   4.736
 4577SOL    HW114630   1.222   1.995   4.781
 4577SOL    HW214631   1.206   2.115   4.670
 4578SOL     OW14632   1.073   3.634   4.861
 4578SOL    HW114633   1.003   3.691   4.819
 4578SOL    HW214634   1.161   3.650   4.817
 4579SOL     OW14635   4.840   2.463   3.319
 4579SOL    HW114636   4.790   2.526   3.378
 4579SOL    HW214637   4.778   2.420   3.253
 4580SOL     OW14638   4.922   4.437   6.963
 4580SOL    HW114639   4.913   4.408   0.036
 4580SOL    HW214640   4.899   4.534   6.955
 4581SOL     OW14641   2.985   4.814   2.734
 4581SOL    HW114642   2.908   4.762   2.772
 4581SOL    HW214643   3.054   4.828   2.805
 4582SOL     OW14644   5.952   6.420   4.637
 4582SOL    HW114645   5.860   6.382   4.631
 4582SOL    HW214646   5.998   6.384   4.718
 4583SOL     OW14647   2.138   2.227   5.794
 4583SOL    HW114648   2.107   2.204   5.702
 4583SOL    HW214649   2.084   2.177   5.861
 4584SOL     OW14650   0.265   5.398   6.146
 4584SOL    HW114651   0.171   5.413   6.117
 4584SOL    HW214652   0.325   5.395   6.066
 4585SOL     OW14653   2.419   7.015   3.176
 4585SOL    HW114654   2.478   0.060   3.222
 4585SOL    HW214655   2.340   6.995   3.233
 4586SOL     OW14656   3.296   4.502   0.426
 4586SOL    HW114657   3.297   4.523   0.524
 4586SOL    HW214658   3.284   4.403   0.413
 4587SOL     OW14659   3.800   3.649   2.283
 4587SOL    HW114660   3.810   3.714   2.358
 4587SOL    HW214661   3.712   3.603   2.290
 4588SOL     OW14662   4.098   3.653   4.855
 4588SOL    HW114663   4.140   3.580   4.908
 4588SOL    HW214664   4.125   3.742   4.893
 4589SOL     OW14665   5.982   0.845   2.320
 4589SOL    HW114666   5.955   0.872   2.412
 4589SOL    HW214667   5.977   0.924   2.259
 4590SOL     OW14668   5.103   5.788   0.230
 4590SOL    HW114669   5.044   5.814   0.154
 4590SOL    HW214670   5.108   5.688   0.237
 4591SOL     OW14671   0.760   6.660   4.493
 4591SOL    HW114672   0.715   6.574   4.469
 4591SOL    HW214673   0.721   6.695   4.578
 4592SOL     OW14674   3.533   1.585   1.591
 4592SOL    HW114675   3.575   1.676   1.590
 4592SOL    HW214676   3.514   1.558   1.686
 4593SOL     OW14677   4.489   5.311   3.603
 4593SOL    HW114678   4.533   5.397   3.576
 4593SOL    HW214679   4.556   5.252   3.648
 4594SOL     OW14680   3.102   1.076   1.853
 4594SOL    HW114681   3.125   1.148   1.918
 4594SOL    HW214682   3.185   1.026   1.828
 4595SOL     OW14683   4.091   2.299   6.449
 4595SOL    HW114684   4.140   2.285   6.535
 4595SOL    HW214685   3.997   2.268   6.460
 4596SOL     OW14686   6.203   6.744   2.606
 4596SOL    HW114687   6.245   6.653   2.602
 4596SOL    HW214688   6.230   6.797   2.525
 4597SOL     OW14689   4.376   4.632   6.412
 4597SOL    HW114690   4.339   4.581   6.489
 4597SOL    HW214691   4.416   4.718   6.445
 4598SOL     OW14692   2.108   5.893   0.113
 4598SOL    HW114693   2.009   5.910   0.108
 4598SOL    HW214694   2.127   5.801   0.080
 4599SOL     OW14695   0.687   5.464   0.659
 4599SOL    HW114696   0.716   5.560   0.663
 4599SOL    HW214697   0.657   5.442   0.566
 4600SOL     OW14698   1.441   4.729   5.320
 4600SOL    HW114699   1.454   4.732   5.419
 4600SOL    HW214700   1.428   4.634   5.291
 4601SOL     OW14701   2.055   0.478   5.784
 4601SOL    HW114702   2.009   0.418   5.849
 4601SOL    HW214703   2.103   0.423   5.715
 4602SOL     OW14704   1.029   5.735   1.278
 4602SOL    HW114705   0.933   5.752   1.298
 4602SOL    HW214706   1.053   5.779   1.191
 4603SOL     OW14707   3.299   5.936   0.796
 4603SOL    HW114708   3.397   5.956   0.790
 4603SOL    HW214709   3.254   5.968   0.713
 4604SOL     OW14710   4.751   0.348   1.288
 4604SOL    HW114711   4.663   0.355   1.240
 4604SOL    HW214712   4.768   0.252   1.312
 4605SOL     OW14713   3.485   0.625   3.288
 4605SOL    HW114714   3.494   0.526   3.304
 4605SOL    HW214715   3.440   0.640   3.200
 4606SOL     OW14716   1.147   0.387   2.137
 4606SOL    HW114717   1.119   0.367   2.230
 4606SOL    HW214718   1.067   0.390   2.077
 4607SOL     OW14719   2.205   2.440   1.172
 4607SOL    HW114720   2.109   2.417   1.156
 4607SOL    HW214721   2.210   2.526   1.223
 4608SOL     OW14722   0.545   5.915   3.834
 4608SOL    HW114723   0.566   6.006   3.872
 4608SOL    HW214724   0.483   5.926   3.756
 4609SOL     OW14725   4.507   4.837   6.559
 4609SOL    HW114726   4.424   4.810   6.608
 4609SOL    HW214727   4.505   4.936   6.543
 4610SOL     OW14728   4.967   2.961   0.549
 4610SOL    HW114729   4.959   2.876   0.602
 4610SOL    HW214730   5.008   3.032   0.605
 4611SOL     OW14731   0.007   6.171   5.922
 4611SOL    HW114732   6.985   6.219   5.846
 4611SOL    HW214733   6.998   6.076   5.924
 4612SOL     OW14734   0.991   6.244   0.055
 4612SOL    HW114735   1.059   6.278   0.121
 4612SOL    HW214736   1.038   6.217   6.992
 4613SOL     OW14737   2.183   6.191   2.125
 4613SOL    HW114738   2.206   6.096   2.105
 4613SOL    HW214739   2.224   6.218   2.212
 4614SOL     OW14740   6.715   3.513   4.836
 4614SOL    HW114741   6.685   3.418   4.834
 4614SOL    HW214742   6.697   3.555   4.747
 4615SOL     OW14743   1.557   0.542   0.370
 4615SOL    HW114744   1.506   0.551   0.285
 4615SOL    HW214745   1.499   0.497   0.439
 4616SOL     OW14746   6.261   0.725   5.715
 4616SOL    HW114747   6.307   0.680   5.639
 4616SOL    HW214748   6.261   0.824   5.701
 4617SOL     OW14749   0.677   2.306   2.283
 4617SOL    HW114750   0.650   2.396   2.317
 4617SOL    HW214751   0.596   2.249   2.272
 4618SOL     OW14752   2.179   3.222   4.917
 4618SOL    HW114753   2.174   3.133   4.963
 4618SOL    HW214754   2.268   3.230   4.871
 4619SOL     OW14755   3.466   6.358   3.352
 4619SOL    HW114756   3.508   6.338   3.263
 4619SOL    HW214757   3.524   6.323   3.425
 4620SOL     OW14758   2.490   5.000   0.397
 4620SOL    HW114759   2.444   5.031   0.314
 4620SOL    HW214760   2.442   4.920   0.433
 4621SOL     OW14761   5.316   1.095   2.405
 4621SOL    HW114762   5.257   1.148   2.466
 4621SOL    HW214763   5.410   1.095   2.441
 4622SOL     OW14764   2.313   4.535   0.345
 4622SOL    HW114765   2.360   4.527   0.433
 4622SOL    HW214766   2.295   4.444   0.308
 4623SOL     OW14767   5.925   6.969   0.638
 4623SOL    HW114768   5.866   6.889   0.649
 4623SOL    HW214769   5.925   0.001   0.723
 4624SOL     OW14770   5.364   0.155   3.197
 4624SOL    HW114771   5.398   0.076   3.248
 4624SOL    HW214772   5.442   0.208   3.163
 4625SOL     OW14773   1.373   3.887   0.623
 4625SOL    HW114774   1.468   3.911   0.646
 4625SOL    HW214775   1.317   3.892   0.706
 4626SOL     OW14776   5.320   5.580   2.256
 4626SOL    HW114777   5.291   5.671   2.285
 4626SOL    HW214778   5.242   5.532   2.215
 4627SOL     OW14779   2.740   4.808   4.247
 4627SOL    HW114780   2.825   4.831   4.295
 4627SOL    HW214781   2.695   4.732   4.293
 4628SOL     OW14782   6.312   4.786   4.385
 4628SOL    HW114783   6.281   4.881   4.378
 4628SOL    HW214784   6.398   4.775   4.335
 4629SOL     OW14785   1.858   4.989   5.675
 4629SOL    HW114786   1.865   4.985   5.775
 4629SOL    HW214787   1.938   4.945   5.635
 4630SOL     OW14788   3.961   5.418   2.383
 4630SOL    HW114789   3.930   5.326   2.407
 4630SOL    HW214790   4.012   5.458   2.459
 4631SOL     OW14791   2.193   6.236   2.997
 4631SOL    HW114792   2.209   6.194   2.908
 4631SOL    HW214793   2.255   6.315   3.007
 4632SOL     OW14794   3.636   5.339   2.492
 4632SOL    HW114795   3.646   5.350   2.591
 4632SOL    HW214796   3.710   5.280   2.458
 4633SOL     OW14797   5.769   1.236   4.429
 4633SOL    HW114798   5.782   1.168   4.357
 4633SOL    HW214799   5.672   1.258   4.437
 4634SOL     OW14800   2.751   5.043   6.101
 4634SOL    HW114801   2.733   4.955   6.146
 4634SOL    HW214802   2.781   5.110   6.169
 4635SOL     OW14803   5.499   3.705   1.045
 4635SOL    HW114804   5.454   3.707   1.134
 4635SOL    HW214805   5.440   3.749   0.977
 4636SOL     OW14806   2.089   5.081   0.577
 4636SOL    HW114807   1.991   5.061   0.588
 4636SOL    HW214808   2.115   5.065   0.482
 4637SOL     OW14809   0.629   6.823   0.320
 4637SOL    HW114810   0.608   6.757   0.392
 4637SOL    HW214811   0.721   6.806   0.285
 4638SOL     OW14812   5.105   3.348   0.166
 4638SOL    HW114813   5.044   3.268   0.171
 4638SOL    HW214814   5.172   3.335   0.093
 4639SOL     OW14815   2.904   4.322   5.364
 4639SOL    HW114816   2.963   4.323   5.445
 4639SOL    HW214817   2.933   4.393   5.300
 4640SOL     OW14818   4.596   4.306   3.511
 4640SOL    HW114819   4.571   4.290   3.415
 4640SOL    HW214820   4.555   4.391   3.543
 4641SOL     OW14821   2.011   6.560   5.058
 4641SOL    HW114822   2.014   6.658   5.078
 4641SOL    HW214823   1.923   6.522   5.088
 4642SOL     OW14824   0.274   5.636   4.063
 4642SOL    HW114825   0.341   5.699   4.102
 4642SOL    HW214826   0.319   5.575   3.998
 4643SOL     OW14827   5.934   3.224   1.233
 4643SOL    HW114828   5.967   3.309   1.191
 4643SOL    HW214829   5.836   3.231   1.249
 4644SOL     OW14830   7.019   4.983   4.972
 4644SOL    HW114831   0.082   5.019   5.011
 4644SOL    HW214832   6.980   4.915   5.034
 4645SOL     OW14833   0.775   1.306   4.524
 4645SOL    HW114834   0.700   1.267   4.578
 4645SOL    HW214835   0.861   1.293   4.573
 4646SOL     OW14836   1.851   5.826   3.739
 4646SOL    HW114837   1.918   5.754   3.761
 4646SOL    HW214838   1.765   5.806   3.786
 4647SOL     OW14839   1.530   1.211   3.831
 4647SOL    HW114840   1.469   1.200   3.752
 4647SOL    HW214841   1.479   1.246   3.909
 4648SOL     OW14842   4.302   1.118   2.338
 4648SOL    HW114843   4.356   1.038   2.366
 4648SOL    HW214844   4.223   1.128   2.399
 4649SOL     OW14845   5.269   0.158   6.624
 4649SOL    HW114846   5.189   0.187   6.572
 4649SOL    HW214847   5.311   0.078   6.581
 4650SOL     OW14848   4.886   5.454   3.110
 4650SOL    HW114849   4.901   5.366   3.154
 4650SOL    HW214850   4.925   5.527   3.166
 4651SOL     OW14851   0.107   2.176   0.373
 4651SOL    HW114852   0.084   2.123   0.291
 4651SOL    HW214853   0.084   2.123   0.454
 4652SOL     OW14854   6.863   0.364   4.454
 4652SOL    HW114855   6.819   0.451   4.435
 4652SOL    HW214856   6.824   0.293   4.395
 4653SOL     OW14857   5.889   4.925   0.375
 4653SOL    HW114858   5.894   4.836   0.328
 4653SOL    HW214859   5.942   4.919   0.460
 4654SOL     OW14860   0.917   6.745   0.229
 4654SOL    HW114861   0.949   6.830   0.269
 4654SOL    HW214862   0.945   6.668   0.286
 4655SOL     OW14863   6.064   4.370   1.806
 4655SOL    HW114864   5.987   4.373   1.870
 4655SOL    HW214865   6.046   4.431   1.729
 4656SOL     OW14866   1.203   0.742   3.532
 4656SOL    HW114867   1.127   0.743   3.468
 4656SOL    HW214868   1.175   0.785   3.618
 4657SOL     OW14869   5.212   5.898   1.456
 4657SOL    HW114870   5.122   5.869   1.488
 4657SOL    HW214871   5.282   5.839   1.496
 4658SOL     OW14872   4.094   0.852   2.795
 4658SOL    HW114873   4.041   0.848   2.880
 4658SOL    HW214874   4.175   0.908   2.809
 4659SOL     OW14875   3.204   4.461   5.292
 4659SOL    HW114876   3.122   4.489   5.242
 4659SOL    HW214877   3.214   4.362   5.285
 4660SOL     OW14878   1.405   4.149   5.967
 4660SOL    HW114879   1.425   4.203   6.048
 4660SOL    HW214880   1.474   4.165   5.897
 4661SOL     OW14881   3.488   4.291   5.935
 4661SOL    HW114882   3.491   4.389   5.913
 4661SOL    HW214883   3.456   4.240   5.856
 4662SOL     OW14884   3.815   0.035   5.368
 4662SOL    HW114885   3.757   0.116   5.365
 4662SOL    HW214886   3.788   6.999   5.445
 4663SOL     OW14887   0.502   1.792   2.467
 4663SOL    HW114888   0.592   1.782   2.424
 4663SOL    HW214889   0.508   1.762   2.562
 4664SOL     OW14890   1.154   1.390   0.538
 4664SOL    HW114891   1.207   1.452   0.481
 4664SOL    HW214892   1.205   1.304   0.549
 4665SOL     OW14893   3.706   6.791   6.938
 4665SOL    HW114894   3.709   6.796   0.016
 4665SOL    HW214895   3.646   6.864   6.903
 4666SOL     OW14896   1.393   1.903   0.902
 4666SOL    HW114897   1.379   1.998   0.932
 4666SOL    HW214898   1.313   1.872   0.851
 4667SOL     OW14899   5.833   3.516   2.729
 4667SOL    HW114900   5.867   3.454   2.658
 4667SOL    HW214901   5.750   3.478   2.770
 4668SOL     OW14902   4.986   1.711   2.692
 4668SOL    HW114903   4.889   1.733   2.699
 4668SOL    HW214904   4.998   1.623   2.646
 4669SOL     OW14905   4.839   6.159   6.768
 4669SOL    HW114906   4.764   6.148   6.702
 4669SOL    HW214907   4.926   6.162   6.718
 4670SOL     OW14908   3.023   2.052   5.134
 4670SOL    HW114909   3.065   2.130   5.087
 4670SOL    HW214910   3.047   2.055   5.231
 4671SOL     OW14911   6.831   3.050   2.315
 4671SOL    HW114912   6.870   3.093   2.233
 4671SOL    HW214913   6.904   3.009   2.370
 4672SOL     OW14914   2.842   4.644   6.373
 4672SOL    HW114915   2.767   4.679   6.317
 4672SOL    HW214916   2.926   4.696   6.353
 4673SOL     OW14917   5.343   6.560   1.612
 4673SOL    HW114918   5.309   6.473   1.577
 4673SOL    HW214919   5.267   6.611   1.653
 4674SOL     OW14920   4.729   0.136   6.440
 4674SOL    HW114921   4.829   0.132   6.437
 4674SOL    HW214922   4.691   0.089   6.360
 4675SOL     OW14923   0.879   1.282   6.060
 4675SOL    HW114924   0.888   1.198   6.115
 4675SOL    HW214925   0.897   1.261   5.964
 4676SOL     OW14926   0.084   6.377   3.528
 4676SOL    HW114927   0.034   6.366   3.614
 4676SOL    HW214928   0.027   6.428   3.463
 4677SOL     OW14929   2.956   1.113   6.787
 4677SOL    HW114930   2.860   1.090   6.771
 4677SOL    HW214931   2.997   1.145   6.701
 4678SOL     OW14932   1.933   4.577   3.653
 4678SOL    HW114933   2.012   4.638   3.647
 4678SOL    HW214934   1.959   4.485   3.627
 4679SOL     OW14935   3.502   0.555   0.372
 4679SOL    HW114936   3.576   0.489   0.360
 4679SOL    HW214937   3.429   0.514   0.427
 4680SOL     OW14938   2.898   1.800   6.689
 4680SOL    HW114939   2.888   1.780   6.591
 4680SOL    HW214940   2.993   1.786   6.716
 4681SOL     OW14941   5.159   5.204   6.771
 4681SOL    HW114942   5.080   5.175   6.825
 4681SOL    HW214943   5.209   5.123   6.741
 4682SOL     OW14944   4.790   4.514   5.252
 4682SOL    HW114945   4.867   4.463   5.214
 4682SOL    HW214946   4.769   4.479   5.344
 4683SOL     OW14947   5.047   4.889   2.276
 4683SOL    HW114948   5.084   4.978   2.302
 4683SOL    HW214949   4.947   4.895   2.270
 4684SOL     OW14950   5.570   0.394   5.328
 4684SOL    HW114951   5.542   0.488   5.346
 4684SOL    HW214952   5.644   0.394   5.261
 4685SOL     OW14953   1.118   5.385   5.772
 4685SOL    HW114954   1.063   5.353   5.695
 4685SOL    HW214955   1.205   5.422   5.739
 4686SOL     OW14956   4.300   5.066   0.140
 4686SOL    HW114957   4.323   5.015   0.057
 4686SOL    HW214958   4.208   5.042   0.169
 4687SOL     OW14959   5.645   3.420   4.290
 4687SOL    HW114960   5.551   3.412   4.324
 4687SOL    HW214961   5.659   3.356   4.215
 4688SOL     OW14962   5.799   4.037   4.890
 4688SOL    HW114963   5.712   3.998   4.918
 4688SOL    HW214964   5.833   3.990   4.808
 4689SOL     OW14965   4.356   0.740   0.193
 4689SOL    HW114966   4.287   0.671   0.213
 4689SOL    HW214967   4.413   0.710   0.117
 4690SOL     OW14968   1.032   0.457   6.837
 4690SOL    HW114969   1.058   0.496   6.749
 4690SOL    HW214970   1.114   0.441   6.892
 4691SOL     OW14971   2.693   4.906   1.140
 4691SOL    HW114972   2.719   4.864   1.053
 4691SOL    HW214973   2.704   4.839   1.213
 4692SOL     OW14974   5.439   5.652   1.935
 4692SOL    HW114975   5.341   5.637   1.949
 4692SOL    HW214976   5.468   5.731   1.989
 4693SOL     OW14977   1.616   2.190   3.639
 4693SOL    HW114978   1.551   2.141   3.697
 4693SOL    HW214979   1.664   2.259   3.694
 4694SOL     OW14980   1.745   0.687   0.494
 4694SOL    HW114981   1.700   0.623   0.432
 4694SOL    HW214982   1.790   0.759   0.441
 4695SOL     OW14983   0.908   4.069   2.227
 4695SOL    HW114984   0.969   4.132   2.274
 4695SOL    HW214985   0.879   3.996   2.289
 4696SOL     OW14986   6.932   3.879   0.102
 4696SOL    HW114987   6.898   3.874   0.008
 4696SOL    HW214988   6.948   3.974   0.127
 4697SOL     OW14989   1.416   3.229   1.228
 4697SOL    HW114990   1.506   3.194   1.203
 4697SOL    HW214991   1.410   3.326   1.202
 4698SOL     OW14992   4.461   5.575   2.570
 4698SOL    HW114993   4.549   5.537   2.543
 4698SOL    HW214994   4.411   5.507   2.624
 4699SOL     OW14995   1.096   6.751   2.127
 4699SOL    HW114996   1.057   6.777   2.038
 4699SOL    HW214997   1.094   6.651   2.136
 4700SOL     OW14998   6.856   0.745   2.926
 4700SOL    HW114999   6.814   0.676   2.867
 4700SOL    HW215000   6.808   0.832   2.914
 4701SOL     OW15001   2.787   2.536   0.674
 4701SOL    HW115002   2.716   2.472   0.705
 4701SOL    HW215003   2.778   2.622   0.725
 4702SOL     OW15004   4.892   4.737   7.003
 4702SOL    HW115005   4.847   4.744   0.071
 4702SOL    HW215006   4.828   4.763   6.931
 4703SOL     OW15007   0.339   1.573   2.219
 4703SOL    HW115008   0.274   1.623   2.275
 4703SOL    HW215009   0.291   1.502   2.167
 4704SOL     OW15010   6.974   6.076   6.635
 4704SOL    HW115011   0.001   6.158   6.604
 4704SOL    HW215012   0.004   5.995   6.609
 4705SOL     OW15013   3.836   2.475   1.457
 4705SOL    HW115014   3.881   2.474   1.546
 4705SOL    HW215015   3.764   2.406   1.455
 4706SOL     OW15016   2.615   6.835   0.752
 4706SOL    HW115017   2.644   6.794   0.666
 4706SOL    HW215018   2.515   6.847   0.751
 4707SOL     OW15019   1.331   6.733   0.694
 4707SOL    HW115020   1.399   6.668   0.661
 4707SOL    HW215021   1.375   6.820   0.715
 4708SOL     OW15022   1.354   2.173   6.271
 4708SOL    HW115023   1.313   2.090   6.234
 4708SOL    HW215024   1.346   2.173   6.371
 4709SOL     OW15025   4.651   5.859   5.247
 4709SOL    HW115026   4.740   5.884   5.286
 4709SOL    HW215027   4.658   5.859   5.147
 4710SOL     OW15028   4.690   0.150   5.776
 4710SOL    HW115029   4.651   0.214   5.842
 4710SOL    HW215030   4.673   0.056   5.805
 4711SOL     OW15031   6.007   1.381   1.766
 4711SOL    HW115032   5.928   1.387   1.706
 4711SOL    HW215033   6.080   1.440   1.730
 4712SOL     OW15034   3.737   4.656   0.247
 4712SOL    HW115035   3.764   4.730   0.308
 4712SOL    HW215036   3.655   4.611   0.283
 4713SOL     OW15037   3.663   3.827   0.730
 4713SOL    HW115038   3.732   3.777   0.679
 4713SOL    HW215039   3.692   3.923   0.740
 4714SOL     OW15040   0.972   2.025   6.238
 4714SOL    HW115041   0.925   2.041   6.325
 4714SOL    HW215042   1.023   1.939   6.243
 4715SOL     OW15043   6.292   3.071   2.590
 4715SOL    HW115044   6.217   3.006   2.607
 4715SOL    HW215045   6.358   3.030   2.527
 4716SOL     OW15046   4.060   6.388   6.261
 4716SOL    HW115047   4.054   6.452   6.337
 4716SOL    HW215048   3.972   6.343   6.248
 4717SOL     OW15049   0.043   6.388   4.041
 4717SOL    HW115050   7.021   6.424   4.123
 4717SOL    HW215051   0.102   6.311   4.065
 4718SOL     OW15052   5.739   2.502   1.343
 4718SOL    HW115053   5.754   2.599   1.327
 4718SOL    HW215054   5.822   2.461   1.379
 4719SOL     OW15055   4.910   3.146   1.923
 4719SOL    HW115056   4.829   3.096   1.893
 4719SOL    HW215057   4.909   3.154   2.023
 4720SOL     OW15058   2.135   5.541   6.174
 4720SOL    HW115059   2.205   5.592   6.225
 4720SOL    HW215060   2.118   5.454   6.218
 4721SOL     OW15061   6.218   1.892   2.208
 4721SOL    HW115062   6.285   1.817   2.207
 4721SOL    HW215063   6.255   1.970   2.158
 4722SOL     OW15064   1.177   5.993   6.639
 4722SOL    HW115065   1.083   5.969   6.615
 4722SOL    HW215066   1.218   5.919   6.692
 4723SOL     OW15067   2.892   3.079   5.948
 4723SOL    HW115068   2.919   3.069   5.853
 4723SOL    HW215069   2.971   3.060   6.007
 4724SOL     OW15070   5.977   6.729   3.646
 4724SOL    HW115071   5.990   6.750   3.743
 4724SOL    HW215072   6.026   6.645   3.623
 4725SOL     OW15073   6.862   5.391   0.945
 4725SOL    HW115074   6.826   5.435   1.027
 4725SOL    HW215075   6.948   5.434   0.919
 4726SOL     OW15076   1.084   3.142   6.255
 4726SOL    HW115077   1.081   3.241   6.243
 4726SOL    HW215078   1.174   3.108   6.226
 4727SOL     OW15079   0.952   6.314   1.209
 4727SOL    HW115080   1.002   6.296   1.294
 4727SOL    HW215081   1.004   6.280   1.131
 4728SOL     OW15082   5.773   1.381   1.609
 4728SOL    HW115083   5.682   1.390   1.650
 4728SOL    HW215084   5.789   1.285   1.586
 4729SOL     OW15085   3.898   1.533   0.421
 4729SOL    HW115086   3.931   1.624   0.396
 4729SOL    HW215087   3.931   1.509   0.512
 4730SOL     OW15088   3.558   6.101   5.872
 4730SOL    HW115089   3.477   6.056   5.834
 4730SOL    HW215090   3.537   6.196   5.892
 4731SOL     OW15091   3.373   0.611   0.125
 4731SOL    HW115092   3.315   0.693   0.120
 4731SOL    HW215093   3.409   0.601   0.218
 4732SOL     OW15094   1.646   4.412   5.361
 4732SOL    HW115095   1.569   4.348   5.358
 4732SOL    HW215096   1.654   4.458   5.273
 4733SOL     OW15097   1.556   4.154   3.999
 4733SOL    HW115098   1.543   4.063   4.038
 4733SOL    HW215099   1.575   4.147   3.902
 4734SOL     OW15100   4.223   3.560   6.828
 4734SOL    HW115101   4.212   3.483   6.891
 4734SOL    HW215102   4.159   3.549   6.752
 4735SOL     OW15103   6.748   4.926   4.277
 4735SOL    HW115104   6.812   4.922   4.201
 4735SOL    HW215105   6.791   4.890   4.360
 4736SOL     OW15106   6.110   1.771   5.527
 4736SOL    HW115107   6.065   1.682   5.535
 4736SOL    HW215108   6.043   1.840   5.498
 4737SOL     OW15109   2.546   4.498   1.779
 4737SOL    HW115110   2.564   4.504   1.681
 4737SOL    HW215111   2.626   4.528   1.830
 4738SOL     OW15112   1.060   6.254   3.273
 4738SOL    HW115113   0.989   6.226   3.337
 4738SOL    HW215114   1.017   6.293   3.191
 4739SOL     OW15115   4.865   1.430   2.598
 4739SOL    HW115116   4.795   1.385   2.543
 4739SOL    HW215117   4.877   1.379   2.683
 4740SOL     OW15118   0.525   1.645   1.492
 4740SOL    HW115119   0.429   1.635   1.467
 4740SOL    HW215120   0.534   1.707   1.570
 4741SOL     OW15121   5.610   3.804   0.601
 4741SOL    HW115122   5.516   3.774   0.583
 4741SOL    HW215123   5.635   3.876   0.536
 4742SOL     OW15124   2.906   6.771   6.548
 4742SOL    HW115125   2.989   6.808   6.506
 4742SOL    HW215126   2.909   6.671   6.545
 4743SOL     OW15127   1.829   3.513   4.451
 4743SOL    HW115128   1.926   3.522   4.429
 4743SOL    HW215129   1.808   3.566   4.533
 4744SOL     OW15130   2.703   4.154   6.739
 4744SOL    HW115131   2.664   4.181   6.651
 4744SOL    HW215132   2.676   4.060   6.760
 4745SOL     OW15133   3.113   5.007   6.230
 4745SOL    HW115134   3.060   4.991   6.147
 4745SOL    HW215135   3.210   5.012   6.207
 4746SOL     OW15136   5.056   6.048   1.945
 4746SOL    HW115137   5.089   5.977   2.008
 4746SOL    HW215138   5.057   6.136   1.992
 4747SOL     OW15139   2.346   4.025   6.608
 4747SOL    HW115140   2.306   3.957   6.546
 4747SOL    HW215141   2.426   3.985   6.654
 4748SOL     OW15142   0.904   5.012   0.522
 4748SOL    HW115143   0.979   4.960   0.480
 4748SOL    HW215144   0.942   5.087   0.577
 4749SOL     OW15145   3.020   6.449   5.463
 4749SOL    HW115146   2.944   6.499   5.504
 4749SOL    HW215147   2.985   6.387   5.392
 4750SOL     OW15148   0.447   4.019   3.911
 4750SOL    HW115149   0.462   3.925   3.942
 4750SOL    HW215150   0.362   4.054   3.950
 4751SOL     OW15151   3.562   1.865   1.283
 4751SOL    HW115152   3.495   1.934   1.312
 4751SOL    HW215153   3.598   1.818   1.363
 4752SOL     OW15154   3.210   0.782   6.339
 4752SOL    HW115155   3.172   0.829   6.259
 4752SOL    HW215156   3.197   0.684   6.329
 4753SOL     OW15157   5.308   0.038   4.256
 4753SOL    HW115158   5.368   6.980   4.266
 4753SOL    HW215159   5.336   0.090   4.175
 4754SOL     OW15160   5.476   0.145   4.986
 4754SOL    HW115161   5.476   0.052   5.022
 4754SOL    HW215162   5.558   0.158   4.929
 4755SOL     OW15163   2.230   0.622   1.110
 4755SOL    HW115164   2.158   0.610   1.178
 4755SOL    HW215165   2.263   0.716   1.113
 4756SOL     OW15166   5.755   2.841   0.753
 4756SOL    HW115167   5.694   2.763   0.743
 4756SOL    HW215168   5.811   2.830   0.835
 4757SOL     OW15169   2.073   2.001   1.110
 4757SOL    HW115170   2.137   2.040   1.176
 4757SOL    HW215171   2.122   1.973   1.028
 4758SOL     OW15172   2.295   6.784   4.023
 4758SOL    HW115173   2.223   6.716   4.039
 4758SOL    HW215174   2.332   6.815   4.110
 4759SOL     OW15175   5.985   4.825   5.007
 4759SOL    HW115176   5.896   4.811   4.964
 4759SOL    HW215177   5.999   4.922   5.025
 4760SOL     OW15178   2.103   1.930   0.716
 4760SOL    HW115179   2.043   2.007   0.695
 4760SOL    HW215180   2.193   1.963   0.743
 4761SOL     OW15181   0.543   6.379   6.843
 4761SOL    HW115182   0.455   6.334   6.830
 4761SOL    HW215183   0.613   6.311   6.865
 4762SOL     OW15184   1.000   5.914   2.340
 4762SOL    HW115185   1.083   5.908   2.286
 4762SOL    HW215186   0.920   5.916   2.280
 4763SOL     OW15187   6.161   6.518   3.617
 4763SOL    HW115188   6.099   6.451   3.574
 4763SOL    HW215189   6.243   6.470   3.650
 4764SOL     OW15190   5.005   3.755   4.549
 4764SOL    HW115191   4.984   3.710   4.635
 4764SOL    HW215192   4.927   3.749   4.487
 4765SOL     OW15193   4.609   0.647   3.743
 4765SOL    HW115194   4.564   0.562   3.714
 4765SOL    HW215195   4.697   0.625   3.785
 4766SOL     OW15196   5.318   5.807   4.035
 4766SOL    HW115197   5.221   5.821   4.018
 4766SOL    HW215198   5.336   5.814   4.134
 4767SOL     OW15199   3.357   5.230   5.794
 4767SOL    HW115200   3.411   5.245   5.876
 4767SOL    HW215201   3.417   5.203   5.719
 4768SOL     OW15202   4.270   1.671   5.807
 4768SOL    HW115203   4.233   1.587   5.845
 4768SOL    HW215204   4.304   1.729   5.881
 4769SOL     OW15205   5.151   3.785   6.790
 4769SOL    HW115206   5.232   3.842   6.807
 4769SOL    HW215207   5.180   3.691   6.773
 4770SOL     OW15208   1.251   0.831   4.618
 4770SOL    HW115209   1.325   0.883   4.661
 4770SOL    HW215210   1.289   0.775   4.544
 4771SOL     OW15211   3.023   6.210   4.962
 4771SOL    HW115212   3.114   6.172   4.946
 4771SOL    HW215213   3.025   6.309   4.949
 4772SOL     OW15214   3.470   4.621   1.365
 4772SOL    HW115215   3.430   4.648   1.452
 4772SOL    HW215216   3.449   4.525   1.347
 4773SOL     OW15217   6.881   5.577   3.539
 4773SOL    HW115218   6.833   5.646   3.484
 4773SOL    HW215219   6.840   5.571   3.629
 4774SOL     OW15220   1.586   3.331   2.082
 4774SOL    HW115221   1.532   3.396   2.134
 4774SOL    HW215222   1.570   3.238   2.116
 4775SOL     OW15223   5.185   6.458   2.470
 4775SOL    HW115224   5.259   6.392   2.454
 4775SOL    HW215225   5.103   6.428   2.423
 4776SOL     OW15226   1.296   6.592   5.480
 4776SOL    HW115227   1.268   6.665   5.542
 4776SOL    HW215228   1.328   6.630   5.394
 4777SOL     OW15229   2.396   4.955   0.977
 4777SOL    HW115230   2.422   4.990   1.066
 4777SOL    HW215231   2.367   5.031   0.918
 4778SOL     OW15232   6.305   2.338   3.497
 4778SOL    HW115233   6.293   2.277   3.575
 4778SOL    HW215234   6.373   2.408   3.519
 4779SOL     OW15235   6.675   6.479   2.663
 4779SOL    HW115236   6.759   6.524   2.635
 4779SOL    HW215237   6.621   6.540   2.720
 4780SOL     OW15238   5.696   1.195   6.762
 4780SOL    HW115239   5.605   1.187   6.721
 4780SOL    HW215240   5.754   1.120   6.730
 4781SOL     OW15241   2.827   5.427   2.280
 4781SOL    HW115242   2.921   5.462   2.282
 4781SOL    HW215243   2.812   5.377   2.195
 4782SOL     OW15244   4.873   5.498   0.030
 4782SOL    HW115245   4.773   5.492   0.030
 4782SOL    HW215246   4.905   5.520   6.959
 4783SOL     OW15247   4.253   3.828   6.776
 4783SOL    HW115248   4.251   3.734   6.807
 4783SOL    HW215249   4.346   3.852   6.748
 4784SOL     OW15250   6.202   3.995   6.653
 4784SOL    HW115251   6.225   4.086   6.687
 4784SOL    HW215252   6.248   3.978   6.566
 4785SOL     OW15253   0.812   6.624   2.238
 4785SOL    HW115254   0.836   6.720   2.227
 4785SOL    HW215255   0.887   6.576   2.284
 4786SOL     OW15256   2.591   1.627   7.019
 4786SOL    HW115257   2.588   1.624   0.097
 4786SOL    HW215258   2.651   1.554   6.986
 4787SOL     OW15259   4.111   1.511   2.308
 4787SOL    HW115260   4.098   1.485   2.404
 4787SOL    HW215261   4.120   1.610   2.301
 4788SOL     OW15262   0.258   5.943   5.556
 4788SOL    HW115263   0.282   5.990   5.642
 4788SOL    HW215264   0.342   5.923   5.505
 4789SOL     OW15265   5.283   1.646   0.776
 4789SOL    HW115266   5.290   1.596   0.690
 4789SOL    HW215267   5.372   1.649   0.820
 4790SOL     OW15268   6.005   2.338   5.007
 4790SOL    HW115269   6.094   2.356   4.966
 4790SOL    HW215270   5.989   2.402   5.082
 4791SOL     OW15271   7.013   2.710   1.964
 4791SOL    HW115272   7.021   2.810   1.974
 4791SOL    HW215273   6.939   2.688   1.901
 4792SOL     OW15274   1.771   4.130   3.411
 4792SOL    HW115275   1.725   4.044   3.391
 4792SOL    HW215276   1.839   4.149   3.340
 4793SOL     OW15277   1.721   3.112   5.385
 4793SOL    HW115278   1.781   3.185   5.417
 4793SOL    HW215279   1.763   3.023   5.406
 4794SOL     OW15280   4.497   0.391   3.628
 4794SOL    HW115281   4.439   0.362   3.553
 4794SOL    HW215282   4.588   0.351   3.617
 4795SOL     OW15283   5.485   2.377   3.871
 4795SOL    HW115284   5.497   2.417   3.962
 4795SOL    HW215285   5.412   2.426   3.823
 4796SOL     OW15286   4.606   1.746   5.123
 4796SOL    HW115287   4.531   1.802   5.157
 4796SOL    HW215288   4.693   1.785   5.153
 4797SOL     OW15289   1.154   6.138   5.510
 4797SOL    HW115290   1.238   6.192   5.509
 4797SOL    HW215291   1.165   6.061   5.572
 4798SOL     OW15292   0.447   3.771   4.934
 4798SOL    HW115293   0.450   3.719   4.849
 4798SOL    HW215294   0.483   3.716   5.008
 4799SOL     OW15295   5.112   1.989   0.031
 4799SOL    HW115296   5.055   2.019   6.976
 4799SOL    HW215297   5.137   1.892   0.019
 4800SOL     OW15298   3.518   3.098   6.379
 4800SOL    HW115299   3.444   3.136   6.433
 4800SOL    HW215300   3.604   3.143   6.404
 4801SOL     OW15301   2.765   2.427   6.343
 4801SOL    HW115302   2.715   2.377   6.414
 4801SOL    HW215303   2.816   2.502   6.385
 4802SOL     OW15304   1.060   6.833   1.859
 4802SOL    HW115305   1.135   6.887   1.821
 4802SOL    HW215306   0.981   6.838   1.798
 4803SOL     OW15307   0.667   5.670   1.055
 4803SOL    HW115308   0.672   5.732   0.977
 4803SOL    HW215309   0.601   5.597   1.036
 4804SOL     OW15310   5.333   5.923   0.729
 4804SOL    HW115311   5.334   5.884   0.637
 4804SOL    HW215312   5.369   6.016   0.725
 4805SOL     OW15313   5.655   1.900   2.506
 4805SOL    HW115314   5.729   1.840   2.536
 4805SOL    HW215315   5.692   1.988   2.477
 4806SOL     OW15316   1.418   4.752   2.539
 4806SOL    HW115317   1.393   4.696   2.460
 4806SOL    HW215318   1.338   4.761   2.599
 4807SOL     OW15319   0.758   5.152   0.336
 4807SOL    HW115320   0.823   5.096   0.388
 4807SOL    HW215321   0.773   5.138   0.238
 4808SOL     OW15322   5.622   4.091   0.082
 4808SOL    HW115323   5.604   4.111   0.178
 4808SOL    HW215324   5.538   4.062   0.037
 4809SOL     OW15325   4.150   4.254   0.111
 4809SOL    HW115326   4.075   4.192   0.134
 4809SOL    HW215327   4.236   4.203   0.111
 4810SOL     OW15328   1.449   5.067   2.206
 4810SOL    HW115329   1.471   5.131   2.280
 4810SOL    HW215330   1.502   5.090   2.125
 4811SOL     OW15331   2.559   4.080   1.727
 4811SOL    HW115332   2.475   4.032   1.751
 4811SOL    HW215333   2.621   4.018   1.678
 4812SOL     OW15334   6.953   5.329   3.074
 4812SOL    HW115335   6.890   5.379   3.015
 4812SOL    HW215336   6.952   5.370   3.165
 4813SOL     OW15337   5.320   2.549   0.753
 4813SOL    HW115338   5.385   2.595   0.814
 4813SOL    HW215339   5.329   2.586   0.661
 4814SOL     OW15340   6.768   3.720   1.191
 4814SOL    HW115341   6.804   3.795   1.136
 4814SOL    HW215342   6.827   3.640   1.180
 4815SOL     OW15343   5.756   4.112   2.828
 4815SOL    HW115344   5.673   4.056   2.827
 4815SOL    HW215345   5.762   4.161   2.915
 4816SOL     OW15346   2.231   4.616   0.786
 4816SOL    HW115347   2.159   4.547   0.788
 4816SOL    HW215348   2.190   4.707   0.772
 4817SOL     OW15349   0.820   1.650   6.334
 4817SOL    HW115350   0.801   1.706   6.253
 4817SOL    HW215351   0.839   1.556   6.305
 4818SOL     OW15352   0.997   6.400   3.678
 4818SOL    HW115353   1.076   6.383   3.737
 4818SOL    HW215354   0.917   6.421   3.733
 4819SOL     OW15355   1.645   1.480   0.340
 4819SOL    HW115356   1.568   1.484   0.403
 4819SOL    HW215357   1.650   1.564   0.286
 4820SOL     OW15358   6.159   2.225   2.232
 4820SOL    HW115359   6.156   2.180   2.321
 4820SOL    HW215360   6.070   2.266   2.211
 4821SOL     OW15361   1.119   6.874   2.377
 4821SOL    HW115362   1.088   6.837   2.290
 4821SOL    HW215363   1.162   6.963   2.362
 4822SOL     OW15364   1.854   2.601   5.039
 4822SOL    HW115365   1.880   2.522   5.095
 4822SOL    HW215366   1.754   2.609   5.038
 4823SOL     OW15367   2.089   0.578   4.823
 4823SOL    HW115368   2.000   0.585   4.778
 4823SOL    HW215369   2.075   0.563   4.921
 4824SOL     OW15370   5.055   2.187   4.904
 4824SOL    HW115371   5.088   2.257   4.968
 4824SOL    HW215372   4.956   2.197   4.892
 4825SOL     OW15373   1.912   3.008   4.397
 4825SOL    HW115374   1.863   2.983   4.480
 4825SOL    HW215375   2.008   3.026   4.418
 4826SOL     OW15376   5.851   1.742   0.062
 4826SOL    HW115377   5.792   1.753   7.004
 4826SOL    HW215378   5.810   1.676   0.125
 4827SOL     OW15379   6.588   1.513   0.526
 4827SOL    HW115380   6.572   1.548   0.434
 4827SOL    HW215381   6.548   1.576   0.593
 4828SOL     OW15382   5.113   2.408   0.836
 4828SOL    HW115383   5.043   2.448   0.777
 4828SOL    HW215384   5.199   2.456   0.824
 4829SOL     OW15385   3.805   6.327   6.014
 4829SOL    HW115386   3.719   6.375   5.994
 4829SOL    HW215387   3.859   6.321   5.931
 4830SOL     OW15388   4.038   6.655   4.281
 4830SOL    HW115389   4.073   6.567   4.314
 4830SOL    HW215390   4.101   6.728   4.308
 4831SOL     OW15391   1.063   4.145   6.268
 4831SOL    HW115392   1.038   4.137   6.365
 4831SOL    HW215393   0.983   4.127   6.211
 4832SOL     OW15394   3.788   3.071   4.081
 4832SOL    HW115395   3.847   3.073   4.162
 4832SOL    HW215396   3.729   3.152   4.080
 4833SOL     OW15397   4.606   2.281   2.797
 4833SOL    HW115398   4.581   2.367   2.752
 4833SOL    HW215399   4.635   2.214   2.728
 4834SOL     OW15400   3.478   6.353   0.512
 4834SOL    HW115401   3.518   6.445   0.506
 4834SOL    HW215402   3.458   6.331   0.608
 4835SOL     OW15403   5.973   1.808   0.278
 4835SOL    HW115404   5.986   1.908   0.277
 4835SOL    HW215405   5.926   1.780   0.194
 4836SOL     OW15406   5.372   2.574   4.792
 4836SOL    HW115407   5.360   2.540   4.698
 4836SOL    HW215408   5.283   2.582   4.836
 4837SOL     OW15409   6.854   4.314   3.157
 4837SOL    HW115410   6.772   4.305   3.213
 4837SOL    HW215411   6.848   4.253   3.078
 4838SOL     OW15412   1.293   5.467   0.101
 4838SOL    HW115413   1.307   5.560   0.067
 4838SOL    HW215414   1.195   5.449   0.111
 4839SOL     OW15415   1.747   3.782   0.015
 4839SOL    HW115416   1.730   3.687   7.007
 4839SOL    HW215417   1.712   3.794   0.108
 4840SOL     OW15418   6.361   4.285   6.574
 4840SOL    HW115419   6.337   4.336   6.491
 4840SOL    HW215420   6.371   4.349   6.650
 4841SOL     OW15421   2.471   4.983   2.155
 4841SOL    HW115422   2.424   5.064   2.119
 4841SOL    HW215423   2.567   5.005   2.172
 4842SOL     OW15424   3.543   5.499   2.283
 4842SOL    HW115425   3.571   5.450   2.200
 4842SOL    HW215426   3.576   5.450   2.363
 4843SOL     OW15427   6.943   3.398   1.698
 4843SOL    HW115428   6.942   3.478   1.638
 4843SOL    HW215429   0.013   3.385   1.736
 4844SOL     OW15430   0.923   3.549   6.657
 4844SOL    HW115431   0.891   3.495   6.579
 4844SOL    HW215432   0.850   3.557   6.724
 4845SOL     OW15433   4.940   5.235   6.961
 4845SOL    HW115434   4.966   5.152   7.009
 4845SOL    HW215435   4.918   5.306   0.006
 4846SOL     OW15436   6.590   2.466   3.582
 4846SOL    HW115437   6.537   2.541   3.621
 4846SOL    HW215438   6.615   2.487   3.487
 4847SOL     OW15439   2.168   0.399   6.529
 4847SOL    HW115440   2.082   0.350   6.514
 4847SOL    HW215441   2.185   0.459   6.450
 4848SOL     OW15442   1.622   1.338   4.580
 4848SOL    HW115443   1.696   1.335   4.513
 4848SOL    HW215444   1.557   1.264   4.562
 4849SOL     OW15445   0.756   6.175   6.499
 4849SOL    HW115446   0.799   6.265   6.505
 4849SOL    HW215447   0.702   6.158   6.581
 4850SOL     OW15448   4.127   1.102   1.577
 4850SOL    HW115449   4.141   1.158   1.658
 4850SOL    HW215450   4.102   1.009   1.605
 4851SOL     OW15451   3.695   6.729   5.766
 4851SOL    HW115452   3.757   6.655   5.739
 4851SOL    HW215453   3.706   6.747   5.864
 4852SOL     OW15454   2.105   5.980   4.858
 4852SOL    HW115455   2.154   5.923   4.924
 4852SOL    HW215456   2.040   5.924   4.808
 4853SOL     OW15457   3.312   0.833   3.117
 4853SOL    HW115458   3.411   0.849   3.113
 4853SOL    HW215459   3.277   0.862   3.206
 4854SOL     OW15460   4.391   6.412   1.461
 4854SOL    HW115461   4.334   6.444   1.537
 4854SOL    HW215462   4.463   6.479   1.442
 4855SOL     OW15463   6.210   2.463   4.228
 4855SOL    HW115464   6.217   2.383   4.168
 4855SOL    HW215465   6.116   2.497   4.226
 4856SOL     OW15466   1.449   2.984   3.377
 4856SOL    HW115467   1.398   2.931   3.310
 4856SOL    HW215468   1.547   2.963   3.369
 4857SOL     OW15469   3.488   2.100   3.955
 4857SOL    HW115470   3.579   2.102   3.996
 4857SOL    HW215471   3.419   2.101   4.028
 4858SOL     OW15472   0.392   0.262   4.825
 4858SOL    HW115473   0.443   0.271   4.739
 4858SOL    HW215474   0.362   0.167   4.836
 4859SOL     OW15475   1.060   6.004   3.510
 4859SOL    HW115476   0.982   6.064   3.494
 4859SOL    HW215477   1.039   5.940   3.584
 4860SOL     OW15478   4.452   4.151   1.098
 4860SOL    HW115479   4.443   4.108   1.008
 4860SOL    HW215480   4.429   4.085   1.169
 4861SOL     OW15481   6.059   5.352   0.141
 4861SOL    HW115482   5.964   5.341   0.110
 4861SOL    HW215483   6.070   5.313   0.232
 4862SOL     OW15484   2.243   4.315   5.092
 4862SOL    HW115485   2.285   4.240   5.143
 4862SOL    HW215486   2.241   4.398   5.149
 4863SOL     OW15487   5.027   3.759   1.513
 4863SOL    HW115488   4.933   3.772   1.544
 4863SOL    HW215489   5.045   3.818   1.434
 4864SOL     OW15490   3.740   1.729   2.274
 4864SOL    HW115491   3.674   1.794   2.235
 4864SOL    HW215492   3.769   1.762   2.364
 4865SOL     OW15493   2.394   6.866   4.283
 4865SOL    HW115494   2.479   6.892   4.237
 4865SOL    HW215495   2.415   6.812   4.364
 4866SOL     OW15496   6.471   4.199   0.893
 4866SOL    HW115497   6.471   4.104   0.924
 4866SOL    HW215498   6.480   4.260   0.971
 4867SOL     OW15499   4.906   5.373   2.236
 4867SOL    HW115500   4.824   5.337   2.191
 4867SOL    HW215501   4.895   5.367   2.335
 4868SOL     OW15502   6.812   5.024   2.451
 4868SOL    HW115503   6.803   5.008   2.550
 4868SOL    HW215504   6.833   5.120   2.435
 4869SOL     OW15505   0.280   1.280   1.797
 4869SOL    HW115506   0.323   1.340   1.730
 4869SOL    HW215507   0.346   1.210   1.825
 4870SOL     OW15508   6.994   6.122   1.839
 4870SOL    HW115509   0.044   6.087   1.899
 4870SOL    HW215510   6.905   6.097   1.876
 4871SOL     OW15511   0.810   1.325   4.916
 4871SOL    HW115512   0.909   1.323   4.903
 4871SOL    HW215513   0.767   1.378   4.843
 4872SOL     OW15514   6.844   5.601   4.511
 4872SOL    HW115515   6.798   5.520   4.475
 4872SOL    HW215516   6.934   5.575   4.547
 4873SOL     OW15517   6.961   4.768   3.450
 4873SOL    HW115518   6.884   4.817   3.491
 4873SOL    HW215519   6.977   4.802   3.358
 4874SOL     OW15520   5.905   3.192   3.627
 4874SOL    HW115521   5.873   3.144   3.709
 4874SOL    HW215522   5.884   3.289   3.636
 4875SOL     OW15523   5.652   3.456   1.757
 4875SOL    HW115524   5.599   3.391   1.812
 4875SOL    HW215525   5.704   3.406   1.687
 4876SOL     OW15526   5.538   1.563   4.132
 4876SOL    HW115527   5.519   1.646   4.080
 4876SOL    HW215528   5.517   1.578   4.228
 4877SOL     OW15529   0.598   1.918   0.683
 4877SOL    HW115530   0.534   1.985   0.644
 4877SOL    HW215531   0.565   1.826   0.666
 4878SOL     OW15532   5.847   0.711   3.241
 4878SOL    HW115533   5.862   0.751   3.151
 4878SOL    HW215534   5.920   0.646   3.261
 4879SOL     OW15535   4.615   5.546   3.491
 4879SOL    HW115536   4.707   5.536   3.454
 4879SOL    HW215537   4.550   5.556   3.415
 4880SOL     OW15538   6.229   3.009   6.912
 4880SOL    HW115539   6.230   2.922   6.959
 4880SOL    HW215540   6.171   3.003   6.831
 4881SOL     OW15541   1.972   0.234   6.500
 4881SOL    HW115542   1.892   0.201   6.450
 4881SOL    HW215543   1.984   0.180   6.583
 4882SOL     OW15544   5.414   1.608   4.379
 4882SOL    HW115545   5.319   1.580   4.396
 4882SOL    HW215546   5.472   1.577   4.455
 4883SOL     OW15547   5.058   5.130   2.413
 4883SOL    HW115548   4.987   5.200   2.423
 4883SOL    HW215549   5.147   5.171   2.430
 4884SOL     OW15550   3.748   0.429   1.226
 4884SOL    HW115551   3.668   0.389   1.181
 4884SOL    HW215552   3.783   0.505   1.172
 4885SOL     OW15553   1.889   5.579   2.530
 4885SOL    HW115554   1.930   5.670   2.521
 4885SOL    HW215555   1.962   5.509   2.526
 4886SOL     OW15556   0.160   6.359   1.068
 4886SOL    HW115557   0.200   6.402   0.987
 4886SOL    HW215558   0.069   6.325   1.046
 4887SOL     OW15559   0.796   0.337   2.816
 4887SOL    HW115560   0.715   0.391   2.794
 4887SOL    HW215561   0.793   0.250   2.767
 4888SOL     OW15562   2.160   6.642   4.604
 4888SOL    HW115563   2.196   6.598   4.686
 4888SOL    HW215564   2.085   6.588   4.566
 4889SOL     OW15565   6.104   1.081   6.842
 4889SOL    HW115566   6.102   1.060   6.940
 4889SOL    HW215567   6.143   1.172   6.829
 4890SOL     OW15568   0.858   1.718   5.891
 4890SOL    HW115569   0.853   1.718   5.791
 4890SOL    HW215570   0.811   1.638   5.927
 4891SOL     OW15571   1.829   5.353   0.430
 4891SOL    HW115572   1.862   5.337   0.337
 4891SOL    HW215573   1.793   5.268   0.468
 4892SOL     OW15574   3.231   6.011   1.602
 4892SOL    HW115575   3.211   5.914   1.592
 4892SOL    HW215576   3.171   6.064   1.541
 4893SOL     OW15577   0.084   4.482   1.516
 4893SOL    HW115578   0.112   4.570   1.555
 4893SOL    HW215579   0.112   4.408   1.577
 4894SOL     OW15580   2.363   2.227   2.411
 4894SOL    HW115581   2.274   2.265   2.438
 4894SOL    HW215582   2.428   2.301   2.396
 4895SOL     OW15583   0.827   5.446   2.884
 4895SOL    HW115584   0.905   5.506   2.903
 4895SOL    HW215585   0.799   5.401   2.969
 4896SOL     OW15586   2.279   5.157   1.838
 4896SOL    HW115587   2.242   5.082   1.784
 4896SOL    HW215588   2.240   5.244   1.805
 4897SOL     OW15589   2.601   4.456   5.911
 4897SOL    HW115590   2.588   4.362   5.943
 4897SOL    HW215591   2.655   4.455   5.827
 4898SOL     OW15592   3.809   1.669   4.152
 4898SOL    HW115593   3.804   1.739   4.223
 4898SOL    HW215594   3.904   1.658   4.122
 4899SOL     OW15595   6.379   5.377   3.453
 4899SOL    HW115596   6.297   5.367   3.396
 4899SOL    HW215597   6.460   5.373   3.395
 4900SOL     OW15598   2.404   5.679   4.859
 4900SOL    HW115599   2.424   5.583   4.839
 4900SOL    HW215600   2.440   5.737   4.786
 4901SOL     OW15601   3.138   6.807   5.661
 4901SOL    HW115602   3.072   6.745   5.704
 4901SOL    HW215603   3.230   6.786   5.695
 4902SOL     OW15604   2.516   2.458   4.431
 4902SOL    HW115605   2.577   2.463   4.351
 4902SOL    HW215606   2.567   2.421   4.509
 4903SOL     OW15607   3.083   5.861   0.198
 4903SOL    HW115608   3.002   5.906   0.235
 4903SOL    HW215609   3.061   5.767   0.175
 4904SOL     OW15610   1.392   0.713   4.393
 4904SOL    HW115611   1.462   0.646   4.369
 4904SOL    HW215612   1.304   0.667   4.401
 4905SOL     OW15613   4.191   1.258   2.139
 4905SOL    HW115614   4.136   1.316   2.199
 4905SOL    HW215615   4.224   1.179   2.191
 4906SOL     OW15616   4.370   2.068   6.388
 4906SOL    HW115617   4.369   2.157   6.434
 4906SOL    HW215618   4.455   2.058   6.337
 4907SOL     OW15619   4.632   5.675   0.904
 4907SOL    HW115620   4.726   5.703   0.921
 4907SOL    HW215621   4.572   5.756   0.907
 4908SOL     OW15622   5.056   4.828   6.132
 4908SOL    HW115623   4.992   4.814   6.056
 4908SOL    HW215624   5.132   4.886   6.101
 4909SOL     OW15625   6.447   0.012   4.784
 4909SOL    HW115626   6.404   0.013   4.694
 4909SOL    HW215627   6.389   6.986   4.849
 4910SOL     OW15628   5.231   6.378   4.179
 4910SOL    HW115629   5.292   6.326   4.238
 4910SOL    HW215630   5.260   6.474   4.178
 4911SOL     OW15631   0.460   3.321   4.838
 4911SOL    HW115632   0.559   3.305   4.834
 4911SOL    HW215633   0.431   3.373   4.758
 4912SOL     OW15634   5.595   2.422   0.638
 4912SOL    HW115635   5.674   2.386   0.687
 4912SOL    HW215636   5.516   2.424   0.700
 4913SOL     OW15637   3.531   3.654   3.871
 4913SOL    HW115638   3.577   3.659   3.959
 4913SOL    HW215639   3.571   3.580   3.817
 4914SOL     OW15640   3.460   0.075   5.375
 4914SOL    HW115641   3.411   0.113   5.453
 4914SOL    HW215642   3.429   7.003   5.359
 4915SOL     OW15643   4.288   0.708   4.380
 4915SOL    HW115644   4.278   0.798   4.336
 4915SOL    HW215645   4.225   0.702   4.457
 4916SOL     OW15646   2.055   1.320   4.117
 4916SOL    HW115647   2.003   1.245   4.158
 4916SOL    HW215648   2.143   1.286   4.086
 4917SOL     OW15649   1.878   5.123   0.862
 4917SOL    HW115650   1.940   5.177   0.806
 4917SOL    HW215651   1.789   5.116   0.816
 4918SOL     OW15652   3.836   6.701   2.075
 4918SOL    HW115653   3.799   6.608   2.067
 4918SOL    HW215654   3.761   6.767   2.074
 4919SOL     OW15655   2.388   2.253   6.732
 4919SOL    HW115656   2.429   2.256   6.823
 4919SOL    HW215657   2.333   2.169   6.724
 4920SOL     OW15658   4.920   0.575   5.622
 4920SOL    HW115659   4.923   0.477   5.644
 4920SOL    HW215660   4.919   0.586   5.522
 4921SOL     OW15661   1.918   4.271   0.593
 4921SOL    HW115662   1.828   4.262   0.635
 4921SOL    HW215663   1.909   4.282   0.495
 4922SOL     OW15664   1.982   2.906   4.783
 4922SOL    HW115665   2.080   2.920   4.798
 4922SOL    HW215666   1.931   2.954   4.855
 4923SOL     OW15667   3.580   1.422   0.248
 4923SOL    HW115668   3.620   1.484   0.315
 4923SOL    HW215669   3.569   1.469   0.160
 4924SOL     OW15670   2.338   2.117   5.599
 4924SOL    HW115671   2.377   2.169   5.523
 4924SOL    HW215672   2.239   2.130   5.601
 4925SOL     OW15673   5.545   6.917   2.068
 4925SOL    HW115674   5.514   6.962   2.152
 4925SOL    HW215675   5.551   6.983   1.994
 4926SOL     OW15676   5.653   2.399   0.214
 4926SOL    HW115677   5.606   2.317   0.245
 4926SOL    HW215678   5.591   2.478   0.222
 4927SOL     OW15679   3.960   3.547   3.915
 4927SOL    HW115680   4.024   3.607   3.964
 4927SOL    HW215681   3.990   3.452   3.925
 4928SOL     OW15682   6.959   0.157   6.464
 4928SOL    HW115683   6.985   0.181   6.371
 4928SOL    HW215684   6.927   0.238   6.513
 4929SOL     OW15685   1.423   4.683   4.946
 4929SOL    HW115686   1.493   4.663   5.014
 4929SOL    HW215687   1.432   4.777   4.915
 4930SOL     OW15688   4.728   1.011   2.163
 4930SOL    HW115689   4.821   1.037   2.191
 4930SOL    HW215690   4.665   1.085   2.184
 4931SOL     OW15691   6.410   0.366   1.156
 4931SOL    HW115692   6.505   0.392   1.172
 4931SOL    HW215693   6.353   0.448   1.151
 4932SOL     OW15694   2.302   3.273   1.617
 4932SOL    HW115695   2.361   3.335   1.668
 4932SOL    HW215696   2.207   3.306   1.622
 4933SOL     OW15697   2.037   0.346   3.405
 4933SOL    HW115698   2.098   0.278   3.364
 4933SOL    HW215699   2.014   0.415   3.337
 4934SOL     OW15700   1.828   4.907   2.792
 4934SOL    HW115701   1.735   4.928   2.822
 4934SOL    HW215702   1.841   4.808   2.792
 4935SOL     OW15703   1.341   1.578   6.685
 4935SOL    HW115704   1.364   1.554   6.779
 4935SOL    HW215705   1.243   1.594   6.677
 4936SOL     OW15706   1.638   4.898   1.059
 4936SOL    HW115707   1.680   4.989   1.059
 4936SOL    HW215708   1.692   4.836   1.115
 4937SOL     OW15709   6.839   2.928   6.035
 4937SOL    HW115710   6.798   2.867   6.103
 4937SOL    HW215711   6.926   2.963   6.070
 4938SOL     OW15712   2.521   5.703   6.515
 4938SOL    HW115713   2.482   5.683   6.605
 4938SOL    HW215714   2.572   5.789   6.519
 4939SOL     OW15715   0.517   1.390   4.069
 4939SOL    HW115716   0.556   1.332   4.141
 4939SOL    HW215717   0.472   1.332   4.001
 4940SOL     OW15718   0.639   1.672   5.243
 4940SOL    HW115719   0.556   1.640   5.288
 4940SOL    HW215720   0.636   1.649   5.146
 4941SOL     OW15721   4.691   2.829   5.382
 4941SOL    HW115722   4.692   2.929   5.381
 4941SOL    HW215723   4.687   2.797   5.476
 4942SOL     OW15724   5.466   2.681   5.814
 4942SOL    HW115725   5.402   2.678   5.891
 4942SOL    HW215726   5.426   2.632   5.736
 4943SOL     OW15727   5.174   4.446   6.107
 4943SOL    HW115728   5.105   4.409   6.044
 4943SOL    HW215729   5.254   4.386   6.108
 4944SOL     OW15730   2.404   4.293   1.855
 4944SOL    HW115731   2.456   4.375   1.833
 4944SOL    HW215732   2.464   4.213   1.845
 4945SOL     OW15733   1.042   6.866   4.345
 4945SOL    HW115734   1.045   6.853   4.246
 4945SOL    HW215735   0.973   6.934   4.368
 4946SOL     OW15736   1.011   5.213   6.780
 4946SOL    HW115737   0.929   5.158   6.764
 4946SOL    HW215738   1.089   5.171   6.733
 4947SOL     OW15739   2.256   0.430   0.531
 4947SOL    HW115740   2.247   0.394   0.624
 4947SOL    HW215741   2.350   0.419   0.500
 4948SOL     OW15742   2.060   3.015   2.956
 4948SOL    HW115743   2.076   3.058   2.867
 4948SOL    HW215744   1.970   2.972   2.957
 4949SOL     OW15745   6.033   4.812   5.838
 4949SOL    HW115746   6.109   4.764   5.795
 4949SOL    HW215747   6.064   4.903   5.867
 4950SOL     OW15748   2.140   4.673   4.571
 4950SOL    HW115749   2.198   4.714   4.500
 4950SOL    HW215750   2.089   4.745   4.617
 4951SOL     OW15751   5.885   1.113   4.667
 4951SOL    HW115752   5.889   1.141   4.571
 4951SOL    HW215753   5.842   1.185   4.722
 4952SOL     OW15754   6.785   0.105   6.047
 4952SOL    HW115755   6.724   0.149   6.113
 4952SOL    HW215756   6.739   0.025   6.008
 4953SOL     OW15757   1.837   7.013   3.363
 4953SOL    HW115758   1.780   0.067   3.394
 4953SOL    HW215759   1.903   0.025   3.296
 4954SOL     OW15760   2.779   3.525   0.539
 4954SOL    HW115761   2.782   3.584   0.458
 4954SOL    HW215762   2.763   3.580   0.620
 4955SOL     OW15763   3.254   6.353   0.121
 4955SOL    HW115764   3.255   6.297   0.204
 4955SOL    HW215765   3.329   6.419   0.124
 4956SOL     OW15766   2.645   0.296   5.404
 4956SOL    HW115767   2.600   0.269   5.319
 4956SOL    HW215768   2.579   0.344   5.463
 4957SOL     OW15769   5.566   2.703   1.881
 4957SOL    HW115770   5.618   2.694   1.966
 4957SOL    HW215771   5.479   2.653   1.889
 4958SOL     OW15772   0.400   5.460   5.604
 4958SOL    HW115773   0.306   5.444   5.634
 4958SOL    HW215774   0.401   5.487   5.508
 4959SOL     OW15775   6.257   2.062   0.811
 4959SOL    HW115776   6.224   2.025   0.724
 4959SOL    HW215777   6.356   2.049   0.818
 4960SOL     OW15778   3.645   4.972   3.665
 4960SOL    HW115779   3.708   4.909   3.620
 4960SOL    HW215780   3.553   4.957   3.631
 4961SOL     OW15781   4.213   0.795   5.571
 4961SOL    HW115782   4.128   0.781   5.623
 4961SOL    HW215783   4.192   0.799   5.473
 4962SOL     OW15784   5.451   3.086   0.132
 4962SOL    HW115785   5.534   3.035   0.108
 4962SOL    HW215786   5.402   3.037   0.204
 4963SOL     OW15787   0.254   6.348   0.645
 4963SOL    HW115788   0.232   6.322   0.550
 4963SOL    HW215789   0.181   6.316   0.705
 4964SOL     OW15790   2.822   0.163   4.364
 4964SOL    HW115791   2.866   0.183   4.452
 4964SOL    HW215792   2.786   0.070   4.366
 4965SOL     OW15793   0.387   0.649   2.241
 4965SOL    HW115794   0.333   0.723   2.282
 4965SOL    HW215795   0.468   0.687   2.197
 4966SOL     OW15796   2.620   6.529   5.254
 4966SOL    HW115797   2.570   6.578   5.182
 4966SOL    HW215798   2.571   6.541   5.341
 4967SOL     OW15799   3.737   5.057   4.966
 4967SOL    HW115800   3.830   5.022   4.976
 4967SOL    HW215801   3.740   5.150   4.929
 4968SOL     OW15802   0.291   1.490   3.402
 4968SOL    HW115803   0.289   1.405   3.349
 4968SOL    HW215804   0.198   1.528   3.406
 4969SOL     OW15805   2.080   5.544   3.208
 4969SOL    HW115806   2.132   5.499   3.281
 4969SOL    HW215807   1.987   5.560   3.239
 4970SOL     OW15808   2.438   2.280   1.964
 4970SOL    HW115809   2.373   2.344   2.006
 4970SOL    HW215810   2.466   2.212   2.031
 4971SOL     OW15811   5.591   5.852   3.293
 4971SOL    HW115812   5.501   5.871   3.332
 4971SOL    HW215813   5.652   5.815   3.363
 4972SOL     OW15814   1.087   3.488   1.084
 4972SOL    HW115815   1.018   3.437   1.033
 4972SOL    HW215816   1.119   3.433   1.161
 4973SOL     OW15817   1.407   0.444   2.139
 4973SOL    HW115818   1.312   0.419   2.160
 4973SOL    HW215819   1.467   0.366   2.158
 4974SOL     OW15820   6.570   4.334   1.174
 4974SOL    HW115821   6.596   4.242   1.205
 4974SOL    HW215822   6.562   4.395   1.253
 4975SOL     OW15823   6.394   4.225   5.924
 4975SOL    HW115824   6.299   4.251   5.905
 4975SOL    HW215825   6.432   4.176   5.846
 4976SOL     OW15826   2.459   1.418   3.812
 4976SOL    HW115827   2.484   1.387   3.720
 4976SOL    HW215828   2.495   1.510   3.827
 4977SOL     OW15829   4.213   4.209   6.596
 4977SOL    HW115830   4.232   4.115   6.569
 4977SOL    HW215831   4.286   4.268   6.562
 4978SOL     OW15832   6.593   4.591   5.423
 4978SOL    HW115833   6.646   4.667   5.460
 4978SOL    HW215834   6.634   4.505   5.453
 4979SOL     OW15835   6.793   6.697   6.289
 4979SOL    HW115836   6.733   6.738   6.220
 4979SOL    HW215837   6.738   6.640   6.351
 4980SOL     OW15838   5.178   6.478   3.093
 4980SOL    HW115839   5.143   6.536   3.019
 4980SOL    HW215840   5.267   6.441   3.067
 4981SOL     OW15841   4.261   5.057   0.833
 4981SOL    HW115842   4.229   5.148   0.860
 4981SOL    HW215843   4.215   5.030   0.749
 4982SOL     OW15844   3.152   0.947   5.178
 4982SOL    HW115845   3.213   1.009   5.229
 4982SOL    HW215846   3.062   0.988   5.170
 4983SOL     OW15847   5.947   4.111   5.698
 4983SOL    HW115848   6.011   4.063   5.639
 4983SOL    HW215849   5.998   4.156   5.773
 4984SOL     OW15850   5.259   4.373   3.009
 4984SOL    HW115851   5.312   4.316   2.947
 4984SOL    HW215852   5.280   4.349   3.104
 4985SOL     OW15853   5.210   0.432   3.868
 4985SOL    HW115854   5.112   0.443   3.851
 4985SOL    HW215855   5.248   0.366   3.803
 4986SOL     OW15856   0.061   4.520   1.251
 4986SOL    HW115857   0.024   4.445   1.196
 4986SOL    HW215858   0.084   4.487   1.342
 4987SOL     OW15859   1.162   0.610   2.329
 4987SOL    HW115860   1.154   0.679   2.401
 4987SOL    HW215861   1.162   0.519   2.370
 4988SOL     OW15862   5.668   0.898   2.237
 4988SOL    HW115863   5.666   0.802   2.265
 4988SOL    HW215864   5.707   0.904   2.145
 4989SOL     OW15865   5.131   6.720   1.718
 4989SOL    HW115866   5.115   6.669   1.803
 4989SOL    HW215867   5.141   6.817   1.739
 4990SOL     OW15868   2.582   2.360   5.502
 4990SOL    HW115869   2.544   2.305   5.427
 4990SOL    HW215870   2.681   2.346   5.506
 4991SOL     OW15871   6.274   5.516   3.696
 4991SOL    HW115872   6.315   5.464   3.621
 4991SOL    HW215873   6.332   5.595   3.717
 4992SOL     OW15874   4.805   0.950   2.598
 4992SOL    HW115875   4.735   0.914   2.536
 4992SOL    HW215876   4.890   0.964   2.548
 4993SOL     OW15877   3.212   6.246   4.414
 4993SOL    HW115878   3.283   6.176   4.403
 4993SOL    HW215879   3.213   6.280   4.507
 4994SOL     OW15880   1.679   0.759   3.917
 4994SOL    HW115881   1.681   0.684   3.851
 4994SOL    HW215882   1.756   0.820   3.900
 4995SOL     OW15883   0.235   2.547   5.378
 4995SOL    HW115884   0.200   2.555   5.285
 4995SOL    HW215885   0.303   2.619   5.394
 4996SOL     OW15886   0.651   1.110   2.935
 4996SOL    HW115887   0.555   1.091   2.952
 4996SOL    HW215888   0.674   1.084   2.841
 4997SOL     OW15889   4.901   2.640   2.627
 4997SOL    HW115890   4.836   2.613   2.555
 4997SOL    HW215891   4.951   2.721   2.597
 4998SOL     OW15892   2.089   4.262   4.855
 4998SOL    HW115893   2.101   4.170   4.819
 4998SOL    HW215894   2.151   4.275   4.932
 4999SOL     OW15895   6.295   3.884   0.273
 4999SOL    HW115896   6.220   3.908   0.211
 4999SOL    HW215897   6.303   3.785   0.279
 5000SOL     OW15898   3.570   6.672   3.268
 5000SOL    HW115899   3.578   6.689   3.169
 5000SOL    HW215900   3.503   6.600   3.284
 5001SOL     OW15901   6.922   4.296   1.842
 5001SOL    HW115902   6.876   4.381   1.817
 5001SOL    HW215903   7.021   4.308   1.834
 5002SOL     OW15904   0.425   3.175   2.567
 5002SOL    HW115905   0.493   3.225   2.621
 5002SOL    HW215906   0.472   3.111   2.506
 5003SOL     OW15907   2.979   5.676   2.659
 5003SOL    HW115908   2.936   5.716   2.740
 5003SOL    HW215909   2.932   5.591   2.635
 5004SOL     OW15910   2.706   5.217   5.714
 5004SOL    HW115911   2.724   5.125   5.682
 5004SOL    HW215912   2.755   5.233   5.800
 5005SOL     OW15913   2.995   2.713   0.743
 5005SOL    HW115914   3.010   2.621   0.705
 5005SOL    HW215915   3.080   2.766   0.736
 5006SOL     OW15916   4.847   0.453   0.582
 5006SOL    HW115917   4.895   0.530   0.541
 5006SOL    HW215918   4.910   0.377   0.594
 5007SOL     OW15919   0.923   6.947   0.415
 5007SOL    HW115920   0.911   6.926   0.512
 5007SOL    HW215921   0.918   0.025   0.402
 5008SOL     OW15922   5.826   6.795   2.052
 5008SOL    HW115923   5.727   6.811   2.061
 5008SOL    HW215924   5.843   6.742   1.969
 5009SOL     OW15925   0.527   0.523   0.849
 5009SOL    HW115926   0.574   0.490   0.930
 5009SOL    HW215927   0.437   0.480   0.842
 5010SOL     OW15928   3.926   3.096   2.600
 5010SOL    HW115929   3.928   3.195   2.583
 5010SOL    HW215930   4.020   3.062   2.606
 5011SOL     OW15931   1.883   4.116   2.140
 5011SOL    HW115932   1.816   4.041   2.131
 5011SOL    HW215933   1.973   4.077   2.159
 5012SOL     OW15934   5.995   4.209   6.465
 5012SOL    HW115935   6.034   4.119   6.486
 5012SOL    HW215936   6.006   4.228   6.368
 5013SOL     OW15937   4.755   0.804   0.278
 5013SOL    HW115938   4.721   0.882   0.329
 5013SOL    HW215939   4.689   0.729   0.282
 5014SOL     OW15940   6.797   4.581   0.405
 5014SOL    HW115941   6.844   4.510   0.352
 5014SOL    HW215942   6.717   4.540   0.450
 5015SOL     OW15943   4.538   1.981   4.598
 5015SOL    HW115944   4.450   1.939   4.577
 5015SOL    HW215945   4.557   1.971   4.695
 5016SOL     OW15946   1.486   2.527   0.511
 5016SOL    HW115947   1.408   2.587   0.495
 5016SOL    HW215948   1.458   2.453   0.572
 5017SOL     OW15949   1.849   2.920   0.777
 5017SOL    HW115950   1.842   2.914   0.877
 5017SOL    HW215951   1.832   3.014   0.748
 5018SOL     OW15952   0.477   4.205   2.486
 5018SOL    HW115953   0.431   4.120   2.461
 5018SOL    HW215954   0.410   4.279   2.492
 5019SOL     OW15955   1.327   4.594   5.845
 5019SOL    HW115956   1.366   4.522   5.789
 5019SOL    HW215957   1.320   4.678   5.791
 5020SOL     OW15958   5.035   0.432   6.385
 5020SOL    HW115959   5.041   0.362   6.456
 5020SOL    HW215960   4.952   0.417   6.331
 5021SOL     OW15961   0.867   1.223   6.795
 5021SOL    HW115962   0.789   1.173   6.831
 5021SOL    HW215963   0.933   1.159   6.757
 5022SOL     OW15964   0.892   1.652   6.728
 5022SOL    HW115965   0.862   1.662   6.823
 5022SOL    HW215966   0.964   1.583   6.723
 5023SOL     OW15967   6.750   2.779   1.333
 5023SOL    HW115968   6.808   2.825   1.266
 5023SOL    HW215969   6.807   2.737   1.404
 5024SOL     OW15970   6.377   5.057   1.550
 5024SOL    HW115971   6.344   4.982   1.493
 5024SOL    HW215972   6.475   5.070   1.534
 5025SOL     OW15973   3.269   1.846   2.233
 5025SOL    HW115974   3.208   1.814   2.161
 5025SOL    HW215975   3.319   1.768   2.271
 5026SOL     OW15976   6.199   6.240   5.856
 5026SOL    HW115977   6.165   6.221   5.764
 5026SOL    HW215978   6.247   6.328   5.856
 5027SOL     OW15979   6.863   6.545   1.911
 5027SOL    HW115980   6.855   6.635   1.953
 5027SOL    HW215981   6.938   6.495   1.955
 5028SOL     OW15982   0.204   1.779   2.388
 5028SOL    HW115983   0.135   1.756   2.457
 5028SOL    HW215984   0.294   1.783   2.431
 5029SOL     OW15985   6.487   2.416   2.351
 5029SOL    HW115986   6.424   2.463   2.289
 5029SOL    HW215987   6.495   2.320   2.324
 5030SOL     OW15988   6.726   6.701   0.614
 5030SOL    HW115989   6.754   6.664   0.702
 5030SOL    HW215990   6.723   6.626   0.547
 5031SOL     OW15991   5.586   6.911   5.555
 5031SOL    HW115992   5.653   6.896   5.482
 5031SOL    HW215993   5.549   7.003   5.547
 5032SOL     OW15994   1.964   2.246   0.698
 5032SOL    HW115995   1.957   2.224   0.795
 5032SOL    HW215996   2.041   2.308   0.683
 5033SOL     OW15997   2.293   0.087   5.263
 5033SOL    HW115998   2.195   0.105   5.252
 5033SOL    HW215999   2.314   7.017   5.230
 5034SOL     OW16000   5.739   0.622   3.788
 5034SOL    HW116001   5.756   0.710   3.742
 5034SOL    HW216002   5.723   0.638   3.885
 5035SOL     OW16003   1.225   4.101   0.458
 5035SOL    HW116004   1.166   4.057   0.525
 5035SOL    HW216005   1.295   4.036   0.428
 5036SOL     OW16006   0.951   4.655   6.809
 5036SOL    HW116007   0.939   4.650   6.908
 5036SOL    HW216008   0.986   4.568   6.775
 5037SOL     OW16009   4.967   3.799   2.279
 5037SOL    HW116010   5.053   3.771   2.237
 5037SOL    HW216011   4.985   3.872   2.345
 5038SOL     OW16012   2.961   3.914   6.013
 5038SOL    HW116013   2.872   3.896   6.054
 5038SOL    HW216014   3.009   3.984   6.065
 5039SOL     OW16015   3.289   4.732   5.446
 5039SOL    HW116016   3.249   4.661   5.389
 5039SOL    HW216017   3.389   4.726   5.442
 5040SOL     OW16018   1.522   5.946   5.749
 5040SOL    HW116019   1.597   5.913   5.806
 5040SOL    HW216020   1.558   5.975   5.660
 5041SOL     OW16021   2.193   1.506   2.553
 5041SOL    HW116022   2.176   1.531   2.648
 5041SOL    HW216023   2.168   1.582   2.493
 5042SOL     OW16024   6.788   2.788   0.254
 5042SOL    HW116025   6.773   2.823   0.346
 5042SOL    HW216026   6.868   2.832   0.213
 5043SOL     OW16027   3.684   0.230   5.974
 5043SOL    HW116028   3.721   0.308   6.023
 5043SOL    HW216029   3.594   0.254   5.938
 5044SOL     OW16030   0.636   6.611   7.005
 5044SOL    HW116031   0.662   6.699   6.966
 5044SOL    HW216032   0.613   6.548   6.931
 5045SOL     OW16033   5.278   1.039   6.644
 5045SOL    HW116034   5.250   1.009   6.553
 5045SOL    HW216035   5.362   1.093   6.637
 5046SOL     OW16036   3.379   4.142   2.795
 5046SOL    HW116037   3.432   4.204   2.852
 5046SOL    HW216038   3.314   4.091   2.852
 5047SOL     OW16039   0.590   3.954   2.331
 5047SOL    HW116040   0.601   4.004   2.245
 5047SOL    HW216041   0.494   3.949   2.355
 5048SOL     OW16042   0.315   1.700   1.966
 5048SOL    HW116043   0.331   1.799   1.971
 5048SOL    HW216044   0.313   1.662   2.058
 5049SOL     OW16045   5.754   2.155   6.078
 5049SOL    HW116046   5.683   2.120   6.017
 5049SOL    HW216047   5.748   2.255   6.082
 5050SOL     OW16048   1.307   1.284   1.230
 5050SOL    HW116049   1.306   1.314   1.326
 5050SOL    HW216050   1.368   1.205   1.221
 5051SOL     OW16051   4.622   4.684   1.030
 5051SOL    HW116052   4.565   4.681   1.112
 5051SOL    HW216053   4.564   4.696   0.949
 5052SOL     OW16054   2.428   0.393   6.179
 5052SOL    HW116055   2.412   0.298   6.149
 5052SOL    HW216056   2.525   0.416   6.166
 5053SOL     OW16057   2.237   4.106   3.007
 5053SOL    HW116058   2.268   4.171   3.075
 5053SOL    HW216059   2.207   4.022   3.052
 5054SOL     OW16060   3.286   6.215   4.873
 5054SOL    HW116061   3.363   6.246   4.928
 5054SOL    HW216062   3.308   6.128   4.830
 5055SOL     OW16063   1.451   1.533   5.391
 5055SOL    HW116064   1.523   1.587   5.435
 5055SOL    HW216065   1.432   1.570   5.301
 5056SOL     OW16066   6.577   4.290   6.929
 5056SOL    HW116067   6.626   4.216   6.884
 5056SOL    HW216068   6.624   4.317   7.013
 5057SOL     OW16069   0.338   6.199   4.274
 5057SOL    HW116070   0.364   6.286   4.314
 5057SOL    HW216071   0.419   6.149   4.244
 5058SOL     OW16072   3.404   3.263   5.478
 5058SOL    HW116073   3.338   3.200   5.518
 5058SOL    HW216074   3.394   3.353   5.520
 5059SOL     OW16075   6.096   1.786   3.780
 5059SOL    HW116076   6.190   1.799   3.749
 5059SOL    HW216077   6.083   1.690   3.806
 5060SOL     OW16078   0.746   2.119   5.721
 5060SOL    HW116079   0.676   2.048   5.726
 5060SOL    HW216080   0.807   2.100   5.644
 5061SOL     OW16081   4.161   3.056   1.734
 5061SOL    HW116082   4.093   3.017   1.796
 5061SOL    HW216083   4.235   2.990   1.720
 5062SOL     OW16084   4.974   0.985   3.142
 5062SOL    HW116085   4.940   0.973   3.236
 5062SOL    HW216086   4.937   0.912   3.084
 5063SOL     OW16087   1.285   0.079   2.332
 5063SOL    HW116088   1.376   0.089   2.373
 5063SOL    HW216089   1.230   0.159   2.354
 5064SOL     OW16090   5.252   4.256   1.941
 5064SOL    HW116091   5.202   4.172   1.959
 5064SOL    HW216092   5.330   4.237   1.882
 5065SOL     OW16093   1.723   1.537   3.772
 5065SOL    HW116094   1.683   1.629   3.785
 5065SOL    HW216095   1.650   1.469   3.770
 5066SOL     OW16096   4.098   4.726   1.920
 5066SOL    HW116097   4.026   4.781   1.962
 5066SOL    HW216098   4.068   4.697   1.829
 5067SOL     OW16099   4.201   0.704   1.491
 5067SOL    HW116100   4.109   0.738   1.509
 5067SOL    HW216101   4.248   0.684   1.577
 5068SOL     OW16102   2.656   4.891   6.701
 5068SOL    HW116103   2.680   4.794   6.692
 5068SOL    HW216104   2.654   4.933   6.611
 5069SOL     OW16105   2.195   3.094   5.522
 5069SOL    HW116106   2.236   3.108   5.432
 5069SOL    HW216107   2.264   3.112   5.592
 5070SOL     OW16108   4.335   4.718   3.697
 5070SOL    HW116109   4.344   4.800   3.641
 5070SOL    HW216110   4.248   4.722   3.747
 5071SOL     OW16111   4.060   1.622   3.278
 5071SOL    HW116112   4.067   1.706   3.333
 5071SOL    HW216113   3.976   1.573   3.303
 5072SOL     OW16114   1.138   0.316   1.831
 5072SOL    HW116115   1.200   0.359   1.765
 5072SOL    HW216116   1.192   0.273   1.904
 5073SOL     OW16117   0.262   6.158   1.714
 5073SOL    HW116118   0.189   6.169   1.647
 5073SOL    HW216119   0.224   6.151   1.806
 5074SOL     OW16120   3.308   2.881   1.417
 5074SOL    HW116121   3.401   2.858   1.446
 5074SOL    HW216122   3.263   2.799   1.382
 5075SOL     OW16123   1.077   2.245   6.655
 5075SOL    HW116124   1.120   2.319   6.708
 5075SOL    HW216125   1.146   2.202   6.597
 5076SOL     OW16126   4.227   0.348   0.475
 5076SOL    HW116127   4.157   0.370   0.543
 5076SOL    HW216128   4.254   0.252   0.484
 5077SOL     OW16129   2.148   4.227   5.474
 5077SOL    HW116130   2.220   4.191   5.415
 5077SOL    HW216131   2.063   4.235   5.423
 5078SOL     OW16132   0.327   1.072   3.708
 5078SOL    HW116133   0.339   1.157   3.758
 5078SOL    HW216134   0.273   1.008   3.763
 5079SOL     OW16135   1.855   3.301   5.506
 5079SOL    HW116136   1.801   3.317   5.589
 5079SOL    HW216137   1.945   3.345   5.517
 5080SOL     OW16138   6.037   6.804   6.759
 5080SOL    HW116139   5.994   6.852   6.683
 5080SOL    HW216140   5.990   6.717   6.775
 5081SOL     OW16141   2.921   3.217   4.903
 5081SOL    HW116142   2.979   3.204   4.823
 5081SOL    HW216143   2.825   3.218   4.876
 5082SOL     OW16144   5.200   5.702   0.822
 5082SOL    HW116145   5.223   5.661   0.910
 5082SOL    HW216146   5.241   5.793   0.816
 5083SOL     OW16147   2.349   6.552   2.387
 5083SOL    HW116148   2.355   6.554   2.287
 5083SOL    HW216149   2.398   6.630   2.426
 5084SOL     OW16150   0.339   4.364   4.096
 5084SOL    HW116151   0.391   4.281   4.079
 5084SOL    HW216152   0.372   4.437   4.036
 5085SOL     OW16153   5.652   3.020   6.478
 5085SOL    HW116154   5.586   3.087   6.445
 5085SOL    HW216155   5.665   3.033   6.576
 5086SOL     OW16156   1.236   5.737   3.299
 5086SOL    HW116157   1.250   5.836   3.305
 5086SOL    HW216158   1.257   5.705   3.207
 5087SOL     OW16159   1.655   5.463   2.611
 5087SOL    HW116160   1.699   5.442   2.699
 5087SOL    HW216161   1.708   5.532   2.563
 5088SOL     OW16162   6.561   1.099   4.669
 5088SOL    HW116163   6.557   1.003   4.641
 5088SOL    HW216164   6.541   1.157   4.590
 5089SOL     OW16165   5.029   4.362   4.340
 5089SOL    HW116166   5.032   4.299   4.262
 5089SOL    HW216167   5.038   4.309   4.425
 5090SOL     OW16168   1.931   4.065   2.453
 5090SOL    HW116169   1.917   3.973   2.491
 5090SOL    HW216170   1.935   4.060   2.354
 5091SOL     OW16171   0.671   1.008   2.201
 5091SOL    HW116172   0.729   1.090   2.193
 5091SOL    HW216173   0.596   1.014   2.135
 5092SOL     OW16174   3.210   3.701   2.131
 5092SOL    HW116175   3.296   3.736   2.170
 5092SOL    HW216176   3.156   3.658   2.204
 5093SOL     OW16177   2.732   1.233   1.237
 5093SOL    HW116178   2.689   1.306   1.289
 5093SOL    HW216179   2.665   1.194   1.173
 5094SOL     OW16180   2.474   5.384   6.056
 5094SOL    HW116181   2.446   5.475   6.026
 5094SOL    HW216182   2.455   5.318   5.983
 5095SOL     OW16183   5.823   2.222   4.078
 5095SOL    HW116184   5.825   2.144   4.140
 5095SOL    HW216185   5.800   2.192   3.986
 5096SOL     OW16186   3.737   4.686   0.587
 5096SOL    HW116187   3.694   4.618   0.527
 5096SOL    HW216188   3.668   4.721   0.651
 5097SOL     OW16189   1.611   0.459   6.814
 5097SOL    HW116190   1.526   0.512   6.811
 5097SOL    HW216191   1.639   0.434   6.722
 5098SOL     OW16192   2.608   0.529   1.850
 5098SOL    HW116193   2.614   0.585   1.767
 5098SOL    HW216194   2.646   0.438   1.831
 5099SOL     OW16195   0.650   6.844   6.850
 5099SOL    HW116196   0.738   6.888   6.864
 5099SOL    HW216197   0.583   6.882   6.914
 5100SOL     OW16198   3.433   5.493   4.919
 5100SOL    HW116199   3.462   5.417   4.862
 5100SOL    HW216200   3.401   5.458   5.007
 5101SOL     OW16201   5.579   6.805   6.927
 5101SOL    HW116202   5.603   6.852   7.012
 5101SOL    HW216203   5.605   6.861   6.849
 5102SOL     OW16204   5.262   6.644   4.208
 5102SOL    HW116205   5.353   6.682   4.220
 5102SOL    HW216206   5.193   6.710   4.238
 5103SOL     OW16207   6.919   0.886   4.113
 5103SOL    HW116208   6.943   0.924   4.024
 5103SOL    HW216209   6.998   0.894   4.174
 5104SOL     OW16210   1.863   6.659   2.745
 5104SOL    HW116211   1.780   6.713   2.754
 5104SOL    HW216212   1.840   6.564   2.725
 5105SOL     OW16213   3.539   2.966   0.767
 5105SOL    HW116214   3.518   3.002   0.857
 5105SOL    HW216215   3.618   3.014   0.728
 5106SOL     OW16216   4.471   1.351   0.231
 5106SOL    HW116217   4.461   1.374   0.328
 5106SOL    HW216218   4.446   1.430   0.175
 5107SOL     OW16219   2.921   1.249   0.363
 5107SOL    HW116220   2.889   1.343   0.366
 5107SOL    HW216221   2.945   1.224   0.270
 5108SOL     OW16222   3.210   2.995   5.181
 5108SOL    HW116223   3.158   2.913   5.205
 5108SOL    HW216224   3.308   2.978   5.193
 5109SOL     OW16225   1.135   0.672   0.501
 5109SOL    HW116226   1.226   0.701   0.530
 5109SOL    HW216227   1.084   0.639   0.581
 5110SOL     OW16228   0.227   0.309   5.906
 5110SOL    HW116229   0.216   0.213   5.879
 5110SOL    HW216230   0.193   0.368   5.832
 5111SOL     OW16231   1.960   1.554   5.183
 5111SOL    HW116232   2.004   1.571   5.271
 5111SOL    HW216233   1.952   1.641   5.133
 5112SOL     OW16234   1.763   0.735   2.576
 5112SOL    HW116235   1.702   0.736   2.656
 5112SOL    HW216236   1.842   0.677   2.595
 5113SOL     OW16237   2.201   6.996   1.006
 5113SOL    HW116238   2.253   6.922   1.050
 5113SOL    HW216239   2.114   7.008   1.053
 5114SOL     OW16240   2.724   1.100   0.095
 5114SOL    HW116241   2.686   1.089   0.003
 5114SOL    HW216242   2.658   1.067   0.162
 5115SOL     OW16243   2.145   4.980   4.429
 5115SOL    HW116244   2.054   4.966   4.389
 5115SOL    HW216245   2.209   4.913   4.391
 5116SOL     OW16246   6.395   0.274   6.029
 5116SOL    HW116247   6.321   0.261   6.095
 5116SOL    HW216248   6.398   0.370   6.001
 5117SOL     OW16249   2.382   4.434   4.477
 5117SOL    HW116250   2.355   4.343   4.447
 5117SOL    HW216251   2.337   4.454   4.565
 5118SOL     OW16252   5.099   0.503   7.005
 5118SOL    HW116253   5.186   0.540   0.018
 5118SOL    HW216254   5.025   0.531   0.045
 5119SOL     OW16255   4.766   0.888   1.899
 5119SOL    HW116256   4.746   0.935   1.985
 5119SOL    HW216257   4.843   0.933   1.854
 5120SOL     OW16258   3.785   1.078   4.164
 5120SOL    HW116259   3.807   1.106   4.070
 5120SOL    HW216260   3.706   1.018   4.163
 5121SOL     OW16261   2.825   2.010   6.864
 5121SOL    HW116262   2.728   1.990   6.880
 5121SOL    HW216263   2.856   1.961   6.782
 5122SOL     OW16264   3.352   6.645   2.668
 5122SOL    HW116265   3.410   6.721   2.637
 5122SOL    HW216266   3.288   6.679   2.737
 5123SOL     OW16267   4.558   2.105   5.071
 5123SOL    HW116268   4.486   2.174   5.060
 5123SOL    HW216269   4.537   2.047   5.150
 5124SOL     OW16270   3.166   5.225   5.302
 5124SOL    HW116271   3.077   5.185   5.323
 5124SOL    HW216272   3.238   5.164   5.333
 5125SOL     OW16273   6.190   3.301   4.450
 5125SOL    HW116274   6.129   3.238   4.403
 5125SOL    HW216275   6.178   3.292   4.548
 5126SOL     OW16276   6.589   5.171   5.125
 5126SOL    HW116277   6.590   5.216   5.214
 5126SOL    HW216278   6.527   5.220   5.063
 5127SOL     OW16279   0.665   3.510   6.810
 5127SOL    HW116280   0.663   3.604   6.843
 5127SOL    HW216281   0.616   3.451   6.873
 5128SOL     OW16282   6.770   0.759   6.179
 5128SOL    HW116283   6.672   0.750   6.197
 5128SOL    HW216284   6.804   0.674   6.138
 5129SOL     OW16285   5.025   0.404   2.966
 5129SOL    HW116286   5.051   0.501   2.969
 5129SOL    HW216287   4.998   0.373   3.057
 5130SOL     OW16288   1.613   5.830   3.838
 5130SOL    HW116289   1.617   5.907   3.902
 5130SOL    HW216290   1.518   5.797   3.833
 5131SOL     OW16291   2.654   5.100   3.594
 5131SOL    HW116292   2.683   5.193   3.572
 5131SOL    HW216293   2.578   5.074   3.533
 5132SOL     OW16294   3.012   2.526   5.666
 5132SOL    HW116295   3.058   2.611   5.640
 5132SOL    HW216296   3.005   2.522   5.766
 5133SOL     OW16297   1.543   5.616   6.736
 5133SOL    HW116298   1.619   5.649   6.793
 5133SOL    HW216299   1.546   5.517   6.731
 5134SOL     OW16300   6.332   1.478   2.393
 5134SOL    HW116301   6.386   1.493   2.475
 5134SOL    HW216302   6.364   1.537   2.320
 5135SOL     OW16303   5.359   3.412   4.327
 5135SOL    HW116304   5.330   3.505   4.349
 5135SOL    HW216305   5.292   3.347   4.362
 5136SOL     OW16306   5.486   0.729   6.501
 5136SOL    HW116307   5.425   0.778   6.439
 5136SOL    HW216308   5.432   0.686   6.574
 5137SOL     OW16309   4.580   3.602   5.536
 5137SOL    HW116310   4.525   3.541   5.478
 5137SOL    HW216311   4.660   3.633   5.486
 5138SOL     OW16312   3.691   2.943   4.856
 5138SOL    HW116313   3.640   2.987   4.930
 5138SOL    HW216314   3.666   2.846   4.851
 5139SOL     OW16315   0.982   0.587   3.744
 5139SOL    HW116316   1.049   0.659   3.760
 5139SOL    HW216317   0.890   0.623   3.757
 5140SOL     OW16318   3.895   2.425   5.525
 5140SOL    HW116319   3.913   2.520   5.552
 5140SOL    HW216320   3.802   2.401   5.551
 5141SOL     OW16321   6.356   3.686   0.594
 5141SOL    HW116322   6.420   3.677   0.670
 5141SOL    HW216323   6.281   3.621   0.605
 5142SOL     OW16324   5.615   6.297   3.114
 5142SOL    HW116325   5.671   6.221   3.080
 5142SOL    HW216326   5.675   6.374   3.137
 5143SOL     OW16327   6.533   4.153   4.346
 5143SOL    HW116328   6.495   4.196   4.428
 5143SOL    HW216329   6.565   4.223   4.283
 5144SOL     OW16330   0.977   4.951   5.163
 5144SOL    HW116331   0.987   4.989   5.256
 5144SOL    HW216332   0.935   4.860   5.169
 5145SOL     OW16333   3.872   5.801   6.684
 5145SOL    HW116334   3.840   5.706   6.680
 5145SOL    HW216335   3.889   5.826   6.779
 5146SOL     OW16336   3.127   3.767   5.288
 5146SOL    HW116337   3.088   3.675   5.276
 5146SOL    HW216338   3.084   3.830   5.223
 5147SOL     OW16339   6.417   5.624   3.172
 5147SOL    HW116340   6.469   5.668   3.246
 5147SOL    HW216341   6.333   5.676   3.155
 5148SOL     OW16342   6.933   0.989   1.692
 5148SOL    HW116343   6.901   0.933   1.616
 5148SOL    HW216344   6.854   1.021   1.746
 5149SOL     OW16345   6.444   5.750   3.425
 5149SOL    HW116346   6.543   5.741   3.435
 5149SOL    HW216347   6.419   5.847   3.430
 5150SOL     OW16348   2.164   5.356   3.387
 5150SOL    HW116349   2.241   5.326   3.331
 5150SOL    HW216350   2.175   5.321   3.480
 5151SOL     OW16351   6.893   3.985   2.403
 5151SOL    HW116352   6.836   4.024   2.475
 5151SOL    HW216353   6.870   3.889   2.390
 5152SOL     OW16354   1.613   5.279   6.900
 5152SOL    HW116355   1.589   5.264   6.996
 5152SOL    HW216356   1.711   5.300   6.894
 5153SOL     OW16357   0.951   1.957   0.368
 5153SOL    HW116358   0.872   1.897   0.354
 5153SOL    HW216359   1.004   1.925   0.447
 5154SOL     OW16360   1.032   3.094   5.983
 5154SOL    HW116361   1.111   3.090   5.922
 5154SOL    HW216362   1.060   3.076   6.077
 5155SOL     OW16363   4.269   6.660   2.023
 5155SOL    HW116364   4.326   6.732   1.985
 5155SOL    HW216365   4.199   6.700   2.082
 5156SOL     OW16366   5.581   4.537   6.055
 5156SOL    HW116367   5.559   4.610   6.119
 5156SOL    HW216368   5.499   4.509   6.005
 5157SOL     OW16369   3.796   2.119   3.265
 5157SOL    HW116370   3.723   2.065   3.222
 5157SOL    HW216371   3.782   2.121   3.364
 5158SOL     OW16372   3.661   1.824   0.903
 5158SOL    HW116373   3.729   1.875   0.955
 5158SOL    HW216374   3.586   1.797   0.964
 5159SOL     OW16375   5.749   3.587   5.522
 5159SOL    HW116376   5.705   3.508   5.480
 5159SOL    HW216377   5.691   3.623   5.594
 5160SOL     OW16378   0.278   5.142   3.274
 5160SOL    HW116379   0.335   5.110   3.349
 5160SOL    HW216380   0.182   5.143   3.303
 5161SOL     OW16381   1.557   4.016   7.010
 5161SOL    HW116382   1.632   4.080   0.003
 5161SOL    HW216383   1.577   3.929   0.035
 5162SOL     OW16384   0.838   5.939   2.591
 5162SOL    HW116385   0.927   5.934   2.545
 5162SOL    HW216386   0.838   5.877   2.669
 5163SOL     OW16387   2.802   6.649   0.589
 5163SOL    HW116388   2.722   6.663   0.532
 5163SOL    HW216389   2.870   6.719   0.569
 5164SOL     OW16390   3.866   2.290   6.749
 5164SOL    HW116391   3.842   2.386   6.763
 5164SOL    HW216392   3.889   2.249   6.837
 5165SOL     OW16393   0.330   4.469   5.662
 5165SOL    HW116394   0.313   4.567   5.665
 5165SOL    HW216395   0.419   4.450   5.703
 5166SOL     OW16396   1.145   6.186   2.487
 5166SOL    HW116397   1.054   6.226   2.499
 5166SOL    HW216398   1.142   6.116   2.416
 5167SOL     OW16399   6.385   5.110   5.558
 5167SOL    HW116400   6.458   5.145   5.499
 5167SOL    HW216401   6.302   5.097   5.504
 5168SOL     OW16402   5.015   3.413   1.902
 5168SOL    HW116403   4.958   3.486   1.864
 5168SOL    HW216404   4.963   3.327   1.904
 5169SOL     OW16405   4.060   1.923   4.225
 5169SOL    HW116406   4.062   1.938   4.323
 5169SOL    HW216407   4.056   1.825   4.206
 5170SOL     OW16408   1.331   3.891   4.944
 5170SOL    HW116409   1.296   3.948   4.870
 5170SOL    HW216410   1.348   3.948   5.025
 5171SOL     OW16411   0.930   4.149   5.426
 5171SOL    HW116412   0.950   4.223   5.491
 5171SOL    HW216413   0.912   4.188   5.336
 5172SOL     OW16414   1.449   3.670   2.545
 5172SOL    HW116415   1.367   3.680   2.489
 5172SOL    HW216416   1.430   3.609   2.622
 5173SOL     OW16417   4.872   5.232   4.765
 5173SOL    HW116418   4.938   5.298   4.729
 5173SOL    HW216419   4.814   5.199   4.690
 5174SOL     OW16420   2.384   5.018   3.507
 5174SOL    HW116421   2.321   4.990   3.434
 5174SOL    HW216422   2.352   4.980   3.594
 5175SOL     OW16423   2.988   3.908   6.425
 5175SOL    HW116424   2.936   3.833   6.466
 5175SOL    HW216425   2.979   3.990   6.482
 5176SOL     OW16426   5.565   3.395   0.046
 5176SOL    HW116427   5.627   3.327   0.085
 5176SOL    HW216428   5.573   3.394   6.968
 5177SOL     OW16429   5.616   0.053   0.563
 5177SOL    HW116430   5.607   0.127   0.629
 5177SOL    HW216431   5.614   6.987   0.610
 5178SOL     OW16432   0.519   3.537   2.893
 5178SOL    HW116433   0.582   3.581   2.958
 5178SOL    HW216434   0.471   3.606   2.840
 5179SOL     OW16435   4.954   5.047   4.469
 5179SOL    HW116436   4.888   4.978   4.499
 5179SOL    HW216437   5.033   5.002   4.429
 5180SOL     OW16438   2.546   2.061   0.728
 5180SOL    HW116439   2.612   2.010   0.784
 5180SOL    HW216440   2.527   2.149   0.771
 5181SOL     OW16441   5.203   0.869   2.721
 5181SOL    HW116442   5.161   0.953   2.687
 5181SOL    HW216443   5.161   0.790   2.677
 5182SOL     OW16444   4.171   4.404   1.670
 5182SOL    HW116445   4.109   4.482   1.660
 5182SOL    HW216446   4.258   4.434   1.708
 5183SOL     OW16447   3.932   1.790   2.508
 5183SOL    HW116448   3.932   1.748   2.599
 5183SOL    HW216449   3.921   1.889   2.517
 5184SOL     OW16450   0.736   2.102   4.097
 5184SOL    HW116451   0.672   2.122   4.172
 5184SOL    HW216452   0.744   2.003   4.086
 5185SOL     OW16453   5.392   0.674   2.836
 5185SOL    HW116454   5.321   0.736   2.805
 5185SOL    HW216455   5.388   0.666   2.935
 5186SOL     OW16456   6.580   2.088   6.912
 5186SOL    HW116457   6.487   2.070   6.946
 5186SOL    HW216458   6.625   2.152   6.974
 5187SOL     OW16459   1.353   6.350   4.222
 5187SOL    HW116460   1.434   6.399   4.254
 5187SOL    HW216461   1.332   6.275   4.285
 5188SOL     OW16462   0.166   5.863   1.711
 5188SOL    HW116463   0.125   5.831   1.796
 5188SOL    HW216464   0.213   5.950   1.727
 5189SOL     OW16465   4.001   4.852   0.795
 5189SOL    HW116466   4.046   4.780   0.741
 5189SOL    HW216467   3.998   4.824   0.890
 5190SOL     OW16468   0.546   2.159   4.319
 5190SOL    HW116469   0.479   2.213   4.269
 5190SOL    HW216470   0.509   2.068   4.337
 5191SOL     OW16471   4.046   7.016   2.025
 5191SOL    HW116472   4.049   6.933   2.080
 5191SOL    HW216473   4.125   0.052   2.046
 5192SOL     OW16474   2.464   5.682   1.395
 5192SOL    HW116475   2.500   5.589   1.391
 5192SOL    HW216476   2.415   5.695   1.481
 5193SOL     OW16477   5.510   5.114   4.720
 5193SOL    HW116478   5.448   5.151   4.650
 5193SOL    HW216479   5.477   5.141   4.811
 5194SOL     OW16480   4.151   1.862   0.128
 5194SOL    HW116481   4.136   1.809   0.044
 5194SOL    HW216482   4.074   1.848   0.190
 5195SOL     OW16483   6.981   6.907   4.349
 5195SOL    HW116484   0.011   6.835   4.303
 5195SOL    HW216485   6.884   6.898   4.327
 5196SOL     OW16486   3.818   6.416   1.193
 5196SOL    HW116487   3.885   6.387   1.261
 5196SOL    HW216488   3.756   6.483   1.233
 5197SOL     OW16489   2.514   3.928   5.950
 5197SOL    HW116490   2.591   3.894   6.004
 5197SOL    HW216491   2.529   3.907   5.853
 5198SOL     OW16492   4.813   5.850   2.972
 5198SOL    HW116493   4.776   5.764   2.936
 5198SOL    HW216494   4.763   5.927   2.932
 5199SOL     OW16495   1.081   6.701   0.503
 5199SOL    HW116496   1.001   6.686   0.561
 5199SOL    HW216497   1.164   6.680   0.555
 5200SOL     OW16498   0.568   3.794   5.591
 5200SOL    HW116499   0.617   3.773   5.507
 5200SOL    HW216500   0.478   3.750   5.589
 5201SOL     OW16501   0.438   0.197   3.015
 5201SOL    HW116502   0.397   0.269   2.960
 5201SOL    HW216503   0.441   0.226   3.111
 5202SOL     OW16504   6.035   3.267   6.135
 5202SOL    HW116505   6.078   3.352   6.105
 5202SOL    HW216506   6.091   3.223   6.205
 5203SOL     OW16507   2.097   2.985   0.062
 5203SOL    HW116508   2.017   3.021   0.015
 5203SOL    HW216509   2.155   3.060   0.092
 5204SOL     OW16510   4.082   4.938   6.785
 5204SOL    HW116511   3.994   4.948   6.832
 5204SOL    HW216512   4.151   4.994   6.830
 5205SOL     OW16513   0.397   6.082   0.607
 5205SOL    HW116514   0.328   6.010   0.612
 5205SOL    HW216515   0.358   6.162   0.561
 5206SOL     OW16516   0.662   4.449   5.922
 5206SOL    HW116517   0.619   4.376   5.975
 5206SOL    HW216518   0.746   4.414   5.880
 5207SOL     OW16519   1.386   6.200   3.724
 5207SOL    HW116520   1.471   6.194   3.672
 5207SOL    HW216521   1.408   6.207   3.822
 5208SOL     OW16522   4.090   2.768   6.120
 5208SOL    HW116523   4.059   2.777   6.214
 5208SOL    HW216524   4.175   2.818   6.108
 5209SOL     OW16525   5.792   6.021   3.219
 5209SOL    HW116526   5.719   5.958   3.248
 5209SOL    HW216527   5.837   5.984   3.138
 5210SOL     OW16528   4.232   3.008   6.403
 5210SOL    HW116529   4.297   3.003   6.327
 5210SOL    HW216530   4.208   2.915   6.432
 5211SOL     OW16531   3.530   2.968   5.526
 5211SOL    HW116532   3.486   3.050   5.490
 5211SOL    HW216533   3.615   2.993   5.572
 5212SOL     OW16534   6.908   2.519   0.872
 5212SOL    HW116535   6.997   2.540   0.832
 5212SOL    HW216536   6.917   2.443   0.937
 5213SOL     OW16537   4.760   3.639   6.426
 5213SOL    HW116538   4.829   3.610   6.492
 5213SOL    HW216539   4.745   3.738   6.434
 5214SOL     OW16540   4.558   1.891   5.859
 5214SOL    HW116541   4.609   1.976   5.844
 5214SOL    HW216542   4.461   1.911   5.872
 5215SOL     OW16543   6.821   4.853   3.708
 5215SOL    HW116544   6.820   4.769   3.762
 5215SOL    HW216545   6.742   4.909   3.733
 5216SOL     OW16546   5.159   4.624   1.549
 5216SOL    HW116547   5.235   4.582   1.598
 5216SOL    HW216548   5.178   4.721   1.535
 5217SOL     OW16549   3.844   5.282   4.741
 5217SOL    HW116550   3.904   5.255   4.816
 5217SOL    HW216551   3.765   5.332   4.777
 5218SOL     OW16552   0.776   1.000   3.620
 5218SOL    HW116553   0.750   1.050   3.703
 5218SOL    HW216554   0.737   0.908   3.622
 5219SOL     OW16555   4.160   1.338   5.572
 5219SOL    HW116556   4.169   1.250   5.618
 5219SOL    HW216557   4.067   1.373   5.585
 5220SOL     OW16558   1.397   6.005   2.844
 5220SOL    HW116559   1.424   5.926   2.790
 5220SOL    HW216560   1.311   6.041   2.810
 5221SOL     OW16561   5.855   2.355   3.627
 5221SOL    HW116562   5.854   2.450   3.659
 5221SOL    HW216563   5.766   2.333   3.587
 5222SOL     OW16564   3.790   5.918   3.352
 5222SOL    HW116565   3.698   5.901   3.317
 5222SOL    HW216566   3.850   5.945   3.278
 5223SOL     OW16567   6.609   2.726   1.101
 5223SOL    HW116568   6.684   2.733   1.035
 5223SOL    HW216569   6.638   2.766   1.188
 5224SOL     OW16570   0.083   2.293   4.242
 5224SOL    HW116571   0.083   2.268   4.339
 5224SOL    HW216572   0.008   2.246   4.196
 5225SOL     OW16573   0.711   0.010   3.455
 5225SOL    HW116574   0.619   7.004   3.428
 5225SOL    HW216575   0.761   0.043   3.375
 5226SOL     OW16576   0.346   5.979   4.775
 5226SOL    HW116577   0.350   5.972   4.676
 5226SOL    HW216578   0.267   5.928   4.809
 5227SOL     OW16579   0.999   3.212   4.597
 5227SOL    HW116580   1.000   3.157   4.680
 5227SOL    HW216581   0.974   3.155   4.519
 5228SOL     OW16582   6.499   2.911   1.433
 5228SOL    HW116583   6.518   2.994   1.381
 5228SOL    HW216584   6.575   2.847   1.424
 5229SOL     OW16585   1.841   5.996   0.079
 5229SOL    HW116586   1.844   6.037   7.009
 5229SOL    HW216587   1.802   6.062   0.144
 5230SOL     OW16588   0.597   6.293   1.749
 5230SOL    HW116589   0.553   6.329   1.831
 5230SOL    HW216590   0.677   6.238   1.774
 5231SOL     OW16591   4.543   3.173   5.397
 5231SOL    HW116592   4.461   3.142   5.445
 5231SOL    HW216593   4.532   3.269   5.371
 5232SOL     OW16594   3.524   2.397   5.914
 5232SOL    HW116595   3.471   2.476   5.885
 5232SOL    HW216596   3.478   2.313   5.885
 5233SOL     OW16597   5.077   0.818   2.340
 5233SOL    HW116598   5.025   0.901   2.324
 5233SOL    HW216599   5.157   0.817   2.279
 5234SOL     OW16600   2.423   0.989   6.555
 5234SOL    HW116601   2.336   0.960   6.513
 5234SOL    HW216602   2.407   1.014   6.650
 5235SOL     OW16603   1.654   2.833   1.603
 5235SOL    HW116604   1.587   2.847   1.531
 5235SOL    HW216605   1.622   2.877   1.687
 5236SOL     OW16606   5.501   4.059   2.769
 5236SOL    HW116607   5.460   3.986   2.715
 5236SOL    HW216608   5.526   4.135   2.710
 5237SOL     OW16609   1.721   0.974   5.289
 5237SOL    HW116610   1.717   0.914   5.209
 5237SOL    HW216611   1.637   1.028   5.294
 5238SOL     OW16612   0.577   4.444   0.293
 5238SOL    HW116613   0.573   4.348   0.320
 5238SOL    HW216614   0.484   4.481   0.285
 5239SOL     OW16615   3.366   3.297   3.698
 5239SOL    HW116616   3.339   3.201   3.694
 5239SOL    HW216617   3.352   3.332   3.791
 5240SOL     OW16618   2.951   1.445   6.193
 5240SOL    HW116619   2.957   1.506   6.115
 5240SOL    HW216620   2.885   1.372   6.174
 5241SOL     OW16621   1.265   5.128   5.287
 5241SOL    HW116622   1.183   5.122   5.344
 5241SOL    HW216623   1.280   5.224   5.261
 5242SOL     OW16624   0.496   6.548   6.355
 5242SOL    HW116625   0.521   6.540   6.452
 5242SOL    HW216626   0.440   6.470   6.328
 5243SOL     OW16627   1.095   5.473   1.856
 5243SOL    HW116628   1.099   5.373   1.859
 5243SOL    HW216629   1.099   5.509   1.949
 5244SOL     OW16630   3.535   4.901   6.709
 5244SOL    HW116631   3.589   4.981   6.733
 5244SOL    HW216632   3.445   4.907   6.752
 5245SOL     OW16633   4.115   3.822   0.540
 5245SOL    HW116634   4.172   3.902   0.520
 5245SOL    HW216635   4.170   3.739   0.534
 5246SOL     OW16636   5.750   3.877   2.591
 5246SOL    HW116637   5.767   3.932   2.672
 5246SOL    HW216638   5.680   3.809   2.611
 5247SOL     OW16639   0.792   0.520   6.972
 5247SOL    HW116640   0.804   0.489   0.045
 5247SOL    HW216641   0.875   0.501   6.920
 5248SOL     OW16642   6.000   0.996   4.231
 5248SOL    HW116643   6.071   1.066   4.235
 5248SOL    HW216644   6.035   0.911   4.272
 5249SOL     OW16645   6.984   4.802   5.388
 5249SOL    HW116646   7.011   4.715   5.429
 5249SOL    HW216647   0.033   4.871   5.406
 5250SOL     OW16648   1.515   0.152   5.159
 5250SOL    HW116649   1.493   0.147   5.062
 5250SOL    HW216650   1.562   0.238   5.179
 5251SOL     OW16651   0.575   3.270   0.390
 5251SOL    HW116652   0.645   3.330   0.351
 5251SOL    HW216653   0.541   3.310   0.475
 5252SOL     OW16654   1.991   6.208   0.416
 5252SOL    HW116655   2.042   6.123   0.430
 5252SOL    HW216656   1.962   6.215   0.321
 5253SOL     OW16657   5.341   4.530   4.325
 5253SOL    HW116658   5.281   4.582   4.264
 5253SOL    HW216659   5.431   4.573   4.329
 5254SOL     OW16660   4.625   1.459   3.105
 5254SOL    HW116661   4.579   1.491   3.189
 5254SOL    HW216662   4.660   1.367   3.119
 5255SOL     OW16663   4.965   1.134   6.594
 5255SOL    HW116664   5.062   1.158   6.591
 5255SOL    HW216665   4.945   1.068   6.522
 5256SOL     OW16666   4.624   1.162   3.082
 5256SOL    HW116667   4.637   1.121   2.992
 5256SOL    HW216668   4.634   1.092   3.153
 5257SOL     OW16669   4.943   6.088   1.693
 5257SOL    HW116670   4.859   6.036   1.679
 5257SOL    HW216671   4.967   6.089   1.790
 5258SOL     OW16672   5.932   3.600   1.813
 5258SOL    HW116673   5.839   3.562   1.811
 5258SOL    HW216674   5.935   3.682   1.756
 5259SOL     OW16675   5.468   6.566   0.233
 5259SOL    HW116676   5.398   6.528   0.294
 5259SOL    HW216677   5.512   6.644   0.277
 5260SOL     OW16678   5.726   3.930   0.999
 5260SOL    HW116679   5.662   3.856   1.020
 5260SOL    HW216680   5.785   3.903   0.922
 5261SOL     OW16681   1.102   3.713   7.016
 5261SOL    HW116682   1.128   3.632   6.964
 5261SOL    HW216683   1.123   3.795   6.964
 5262SOL     OW16684   2.756   0.171   2.769
 5262SOL    HW116685   2.727   0.245   2.829
 5262SOL    HW216686   2.855   0.177   2.753
 5263SOL     OW16687   1.908   1.819   5.081
 5263SOL    HW116688   1.837   1.822   5.011
 5263SOL    HW216689   1.988   1.870   5.049
 5264SOL     OW16690   5.940   1.480   2.419
 5264SOL    HW116691   5.852   1.521   2.395
 5264SOL    HW216692   6.014   1.546   2.402
 5265SOL     OW16693   5.574   3.871   4.421
 5265SOL    HW116694   5.569   3.964   4.385
 5265SOL    HW216695   5.610   3.810   4.350
 5266SOL     OW16696   2.463   6.172   1.253
 5266SOL    HW116697   2.477   6.114   1.173
 5266SOL    HW216698   2.551   6.204   1.287
 5267SOL     OW16699   4.825   4.098   4.987
 5267SOL    HW116700   4.759   4.075   5.059
 5267SOL    HW216701   4.857   4.014   4.944
 5268SOL     OW16702   6.228   0.817   6.441
 5268SOL    HW116703   6.179   0.833   6.527
 5268SOL    HW216704   6.232   0.902   6.389
 5269SOL     OW16705   1.784   6.877   3.629
 5269SOL    HW116706   1.836   6.949   3.584
 5269SOL    HW216707   1.731   6.827   3.561
 5270SOL     OW16708   5.399   1.774   1.233
 5270SOL    HW116709   5.314   1.824   1.217
 5270SOL    HW216710   5.379   1.681   1.262
 5271SOL     OW16711   5.857   5.782   4.479
 5271SOL    HW116712   5.850   5.762   4.381
 5271SOL    HW216713   5.765   5.797   4.516
 5272SOL     OW16714   2.596   5.175   1.789
 5272SOL    HW116715   2.615   5.258   1.842
 5272SOL    HW216716   2.509   5.137   1.818
 5273SOL     OW16717   6.657   3.124   3.375
 5273SOL    HW116718   6.600   3.122   3.293
 5273SOL    HW216719   6.753   3.126   3.349
 5274SOL     OW16720   6.535   6.259   1.688
 5274SOL    HW116721   6.524   6.172   1.639
 5274SOL    HW216722   6.454   6.278   1.743
 5275SOL     OW16723   3.353   1.741   6.831
 5275SOL    HW116724   3.371   1.749   6.929
 5275SOL    HW216725   3.360   1.831   6.788
 5276SOL     OW16726   0.985   0.222   0.540
 5276SOL    HW116727   0.989   0.311   0.495
 5276SOL    HW216728   0.906   0.220   0.601
 5277SOL     OW16729   1.941   1.955   3.200
 5277SOL    HW116730   1.974   1.993   3.287
 5277SOL    HW216731   2.017   1.944   3.137
 5278SOL     OW16732   5.005   0.262   4.352
 5278SOL    HW116733   5.083   0.308   4.309
 5278SOL    HW216734   4.976   0.313   4.433
 5279SOL     OW16735   1.429   5.163   6.719
 5279SOL    HW116736   1.480   5.148   6.634
 5279SOL    HW216737   1.488   5.209   6.785
 5280SOL     OW16738   3.600   6.695   5.055
 5280SOL    HW116739   3.672   6.626   5.046
 5280SOL    HW216740   3.511   6.652   5.037
 5281SOL     OW16741   0.804   2.047   2.399
 5281SOL    HW116742   0.776   1.973   2.338
 5281SOL    HW216743   0.729   2.112   2.409
 5282SOL     OW16744   2.791   1.659   2.987
 5282SOL    HW116745   2.701   1.686   3.021
 5282SOL    HW216746   2.781   1.582   2.924
 5283SOL     OW16747   4.487   6.801   1.371
 5283SOL    HW116748   4.434   6.774   1.452
 5283SOL    HW216749   4.482   6.900   1.359
 5284SOL     OW16750   5.356   3.405   3.521
 5284SOL    HW116751   5.336   3.445   3.432
 5284SOL    HW216752   5.275   3.361   3.558
 5285SOL     OW16753   2.147   4.200   4.030
 5285SOL    HW116754   2.091   4.267   4.079
 5285SOL    HW216755   2.102   4.111   4.030
 5286SOL     OW16756   0.669   3.610   1.775
 5286SOL    HW116757   0.766   3.628   1.794
 5286SOL    HW216758   0.613   3.675   1.826
 5287SOL     OW16759   1.400   6.310   1.490
 5287SOL    HW116760   1.495   6.279   1.493
 5287SOL    HW216761   1.397   6.403   1.452
 5288SOL     OW16762   4.040   0.376   1.728
 5288SOL    HW116763   4.071   0.300   1.671
 5288SOL    HW216764   4.111   0.401   1.793
 5289SOL     OW16765   1.702   5.482   6.036
 5289SOL    HW116766   1.784   5.427   6.050
 5289SOL    HW216767   1.710   5.534   5.951
 5290SOL     OW16768   1.796   4.676   5.601
 5290SOL    HW116769   1.786   4.716   5.510
 5290SOL    HW216770   1.849   4.591   5.595
 5291SOL     OW16771   2.938   5.063   5.372
 5291SOL    HW116772   2.966   5.040   5.465
 5291SOL    HW216773   2.845   5.098   5.372
 5292SOL     OW16774   6.731   3.860   0.299
 5292SOL    HW116775   6.822   3.876   0.260
 5292SOL    HW216776   6.740   3.803   0.381
 5293SOL     OW16777   1.114   0.823   3.790
 5293SOL    HW116778   1.194   0.832   3.850
 5293SOL    HW216779   1.033   0.857   3.837
 5294SOL     OW16780   5.189   3.470   5.319
 5294SOL    HW116781   5.101   3.445   5.277
 5294SOL    HW216782   5.252   3.502   5.249
 5295SOL     OW16783   4.635   0.274   2.430
 5295SOL    HW116784   4.537   0.290   2.441
 5295SOL    HW216785   4.665   0.312   2.343
 5296SOL     OW16786   2.023   5.312   0.720
 5296SOL    HW116787   2.087   5.366   0.775
 5296SOL    HW216788   2.073   5.257   0.653
 5297SOL     OW16789   3.009   1.844   1.289
 5297SOL    HW116790   3.061   1.850   1.203
 5297SOL    HW216791   2.911   1.854   1.269
 5298SOL     OW16792   1.631   5.906   6.365
 5298SOL    HW116793   1.564   5.834   6.352
 5298SOL    HW216794   1.701   5.875   6.429
 5299SOL     OW16795   3.021   2.367   0.934
 5299SOL    HW116796   3.042   2.414   0.848
 5299SOL    HW216797   3.067   2.278   0.935
 5300SOL     OW16798   0.185   6.086   1.992
 5300SOL    HW116799   0.210   6.164   2.048
 5300SOL    HW216800   0.220   6.002   2.034
 5301SOL     OW16801   4.391   2.531   0.383
 5301SOL    HW116802   4.314   2.552   0.443
 5301SOL    HW216803   4.436   2.616   0.356
 5302SOL     OW16804   6.236   4.633   3.317
 5302SOL    HW116805   6.153   4.609   3.368
 5302SOL    HW216806   6.246   4.732   3.315
 5303SOL     OW16807   0.078   5.859   2.837
 5303SOL    HW116808   0.112   5.765   2.827
 5303SOL    HW216809   0.102   5.892   2.928
 5304SOL     OW16810   6.042   1.544   6.905
 5304SOL    HW116811   5.969   1.518   6.969
 5304SOL    HW216812   6.095   1.463   6.880
 5305SOL     OW16813   1.465   5.622   4.200
 5305SOL    HW116814   1.443   5.572   4.117
 5305SOL    HW216815   1.540   5.686   4.181
 5306SOL     OW16816   0.386   5.225   4.783
 5306SOL    HW116817   0.473   5.189   4.815
 5306SOL    HW216818   0.390   5.240   4.685
 5307SOL     OW16819   4.296   0.028   0.139
 5307SOL    HW116820   4.330   0.065   0.052
 5307SOL    HW216821   4.196   0.026   0.137
 5308SOL     OW16822   1.112   6.074   3.874
 5308SOL    HW116823   1.177   6.127   3.820
 5308SOL    HW216824   1.109   5.980   3.841
 5309SOL     OW16825   3.872   4.162   1.735
 5309SOL    HW116826   3.805   4.232   1.760
 5309SOL    HW216827   3.918   4.189   1.650
 5310SOL     OW16828   5.979   3.117   1.778
 5310SOL    HW116829   6.039   3.071   1.843
 5310SOL    HW216830   6.011   3.098   1.685
 5311SOL     OW16831   0.031   6.261   0.765
 5311SOL    HW116832   6.977   6.324   0.784
 5311SOL    HW216833   0.007   6.169   0.795
 5312SOL     OW16834   0.662   4.252   2.094
 5312SOL    HW116835   0.712   4.267   2.179
 5312SOL    HW216836   0.670   4.156   2.066
 5313SOL     OW16837   1.195   4.097   6.614
 5313SOL    HW116838   1.097   4.112   6.596
 5313SOL    HW216839   1.245   4.181   6.595
 5314SOL     OW16840   3.445   6.557   0.139
 5314SOL    HW116841   3.389   6.633   0.106
 5314SOL    HW216842   3.528   6.593   0.182
 5315SOL     OW16843   4.300   3.611   1.718
 5315SOL    HW116844   4.239   3.635   1.643
 5315SOL    HW216845   4.357   3.690   1.741
 5316SOL     OW16846   6.838   4.337   4.999
 5316SOL    HW116847   6.897   4.280   4.943
 5316SOL    HW216848   6.860   4.433   4.985
 5317SOL     OW16849   0.109   0.314   4.770
 5317SOL    HW116850   0.085   0.262   4.688
 5317SOL    HW216851   0.207   0.305   4.788
 5318SOL     OW16852   0.084   2.054   6.107
 5318SOL    HW116853   0.018   1.980   6.094
 5318SOL    HW216854   0.153   2.026   6.174
 5319SOL     OW16855   4.473   6.420   6.392
 5319SOL    HW116856   4.522   6.426   6.305
 5319SOL    HW216857   4.483   6.506   6.441
 5320SOL     OW16858   5.652   5.222   0.018
 5320SOL    HW116859   5.566   5.175   7.022
 5320SOL    HW216860   5.634   5.318   0.037
 5321SOL     OW16861   1.032   4.000   3.047
 5321SOL    HW116862   1.118   3.974   3.004
 5321SOL    HW216863   1.028   4.100   3.057
 5322SOL     OW16864   3.629   5.938   6.339
 5322SOL    HW116865   3.594   5.856   6.294
 5322SOL    HW216866   3.729   5.939   6.334
 5323SOL     OW16867   3.861   3.150   6.820
 5323SOL    HW116868   3.809   3.233   6.801
 5323SOL    HW216869   3.927   3.134   6.747
 5324SOL     OW16870   3.945   2.415   1.715
 5324SOL    HW116871   3.852   2.411   1.752
 5324SOL    HW216872   4.011   2.396   1.787
 5325SOL     OW16873   5.200   0.289   4.128
 5325SOL    HW116874   5.221   0.317   4.034
 5325SOL    HW216875   5.187   0.190   4.132
 5326SOL     OW16876   0.346   5.510   3.475
 5326SOL    HW116877   0.331   5.501   3.376
 5326SOL    HW216878   0.336   5.420   3.518
 5327SOL     OW16879   5.817   4.271   5.003
 5327SOL    HW116880   5.805   4.351   4.945
 5327SOL    HW216881   5.801   4.188   4.950
 5328SOL     OW16882   4.436   2.833   5.819
 5328SOL    HW116883   4.405   2.746   5.856
 5328SOL    HW216884   4.507   2.817   5.750
 5329SOL     OW16885   0.149   4.094   0.657
 5329SOL    HW116886   0.192   4.158   0.593
 5329SOL    HW216887   0.129   4.009   0.609
 5330SOL     OW16888   3.777   3.930   6.092
 5330SOL    HW116889   3.811   3.836   6.091
 5330SOL    HW216890   3.690   3.934   6.041
 5331SOL     OW16891   5.684   0.645   1.677
 5331SOL    HW116892   5.754   0.713   1.657
 5331SOL    HW216893   5.628   0.630   1.596
 5332SOL     OW16894   0.361   3.837   0.452
 5332SOL    HW116895   0.298   3.830   0.529
 5332SOL    HW216896   0.453   3.810   0.482
 5333SOL     OW16897   0.943   0.502   3.281
 5333SOL    HW116898   0.961   0.591   3.325
 5333SOL    HW216899   0.850   0.503   3.243
 5334SOL     OW16900   3.731   6.022   5.186
 5334SOL    HW116901   3.729   6.034   5.285
 5334SOL    HW216902   3.812   5.968   5.160
 5335SOL     OW16903   0.331   5.058   2.650
 5335SOL    HW116904   0.279   5.115   2.586
 5335SOL    HW216905   0.297   4.965   2.647
 5336SOL     OW16906   2.552   1.736   3.498
 5336SOL    HW116907   2.621   1.684   3.448
 5336SOL    HW216908   2.581   1.832   3.505
 5337SOL     OW16909   5.294   5.156   2.115
 5337SOL    HW116910   5.224   5.226   2.131
 5337SOL    HW216911   5.385   5.196   2.131
 5338SOL     OW16912   6.093   1.007   6.076
 5338SOL    HW116913   6.020   1.069   6.102
 5338SOL    HW216914   6.054   0.925   6.033
 5339SOL     OW16915   5.442   1.449   3.470
 5339SOL    HW116916   5.459   1.547   3.459
 5339SOL    HW216917   5.356   1.436   3.520
 5340SOL     OW16918   6.109   3.781   1.409
 5340SOL    HW116919   6.063   3.700   1.371
 5340SOL    HW216920   6.044   3.857   1.412
 5341SOL     OW16921   3.487   5.527   5.227
 5341SOL    HW116922   3.431   5.609   5.214
 5341SOL    HW216923   3.576   5.553   5.265
 5342SOL     OW16924   4.713   0.011   4.800
 5342SOL    HW116925   4.780   0.078   4.769
 5342SOL    HW216926   4.758   6.944   4.812
 5343SOL     OW16927   4.214   3.436   4.996
 5343SOL    HW116928   4.219   3.393   5.086
 5343SOL    HW216929   4.258   3.376   4.929
 5344SOL     OW16930   1.561   2.400   1.297
 5344SOL    HW116931   1.565   2.485   1.243
 5344SOL    HW216932   1.487   2.406   1.363
 5345SOL     OW16933   5.153   6.600   0.266
 5345SOL    HW116934   5.112   6.512   0.240
 5345SOL    HW216935   5.210   6.633   0.191
 5346SOL     OW16936   2.476   5.415   3.654
 5346SOL    HW116937   2.570   5.403   3.685
 5346SOL    HW216938   2.475   5.453   3.562
 5347SOL     OW16939   0.832   2.909   2.737
 5347SOL    HW116940   0.928   2.930   2.715
 5347SOL    HW216941   0.783   2.993   2.758
 5348SOL     OW16942   6.870   1.137   0.269
 5348SOL    HW116943   6.803   1.135   0.194
 5348SOL    HW216944   6.879   1.045   0.307
 5349SOL     OW16945   2.096   3.531   0.269
 5349SOL    HW116946   2.035   3.461   0.231
 5349SOL    HW216947   2.059   3.622   0.250
 5350SOL     OW16948   1.653   0.038   4.402
 5350SOL    HW116949   1.655   0.062   4.305
 5350SOL    HW216950   1.561   0.007   4.426
 5351SOL     OW16951   6.795   5.223   1.878
 5351SOL    HW116952   6.695   5.219   1.876
 5351SOL    HW216953   6.825   5.316   1.899
 5352SOL     OW16954   2.220   4.598   3.083
 5352SOL    HW116955   2.291   4.528   3.084
 5352SOL    HW216956   2.212   4.639   3.174
 5353SOL     OW16957   3.792   5.640   4.449
 5353SOL    HW116958   3.700   5.604   4.432
 5353SOL    HW216959   3.858   5.564   4.448
 5354SOL     OW16960   2.226   4.308   1.346
 5354SOL    HW116961   2.137   4.304   1.391
 5354SOL    HW216962   2.223   4.375   1.272
 5355SOL     OW16963   5.945   5.087   4.560
 5355SOL    HW116964   5.952   5.079   4.461
 5355SOL    HW216965   5.992   5.011   4.604
 5356SOL     OW16966   6.177   3.462   2.804
 5356SOL    HW116967   6.099   3.488   2.861
 5356SOL    HW216968   6.145   3.439   2.712
 5357SOL     OW16969   3.000   5.586   0.707
 5357SOL    HW116970   3.099   5.574   0.709
 5357SOL    HW216971   2.967   5.607   0.799
 5358SOL     OW16972   4.280   1.677   0.504
 5358SOL    HW116973   4.378   1.693   0.495
 5358SOL    HW216974   4.254   1.598   0.449
 5359SOL     OW16975   2.543   1.254   6.231
 5359SOL    HW116976   2.469   1.313   6.199
 5359SOL    HW216977   2.544   1.253   6.331
 5360SOL     OW16978   3.790   6.277   3.518
 5360SOL    HW116979   3.848   6.355   3.495
 5360SOL    HW216980   3.701   6.310   3.551
 5361SOL     OW16981   2.275   0.108   4.604
 5361SOL    HW116982   2.348   0.175   4.590
 5361SOL    HW216983   2.219   0.135   4.682
 5362SOL     OW16984   6.610   6.315   2.461
 5362SOL    HW116985   6.645   6.369   2.537
 5362SOL    HW216986   6.525   6.355   2.427
 5363SOL     OW16987   6.551   6.151   5.674
 5363SOL    HW116988   6.498   6.087   5.618
 5363SOL    HW216989   6.575   6.107   5.761
 5364SOL     OW16990   6.207   0.089   2.044
 5364SOL    HW116991   6.162   0.004   2.016
 5364SOL    HW216992   6.161   0.126   2.125
 5365SOL     OW16993   3.652   3.184   1.781
 5365SOL    HW116994   3.709   3.180   1.864
 5365SOL    HW216995   3.690   3.251   1.718
 5366SOL     OW16996   5.936   6.446   1.270
 5366SOL    HW116997   5.949   6.544   1.277
 5366SOL    HW216998   5.999   6.399   1.332
 5367SOL     OW16999   0.105   6.908   1.602
 5367SOL    HW117000   0.143   6.858   1.524
 5367SOL    HW217001   0.170   6.903   1.678
 5368SOL     OW17002   5.545   0.214   2.839
 5368SOL    HW117003   5.568   0.217   2.936
 5368SOL    HW217004   5.629   0.225   2.785
 5369SOL     OW17005   2.761   6.450   0.836
 5369SOL    HW117006   2.793   6.507   0.760
 5369SOL    HW217007   2.682   6.396   0.806
 5370SOL     OW17008   4.773   3.265   0.974
 5370SOL    HW117009   4.824   3.188   0.937
 5370SOL    HW217010   4.767   3.257   1.073
 5371SOL     OW17011   1.060   4.410   5.565
 5371SOL    HW117012   0.993   4.483   5.574
 5371SOL    HW217013   1.133   4.422   5.632
 5372SOL     OW17014   1.134   6.046   2.762
 5372SOL    HW117015   1.122   6.111   2.688
 5372SOL    HW217016   1.051   6.043   2.818
 5373SOL     OW17017   3.847   6.469   5.398
 5373SOL    HW117018   3.939   6.431   5.395
 5373SOL    HW217019   3.832   6.526   5.318
 5374SOL     OW17020   2.447   4.578   0.608
 5374SOL    HW117021   2.503   4.496   0.609
 5374SOL    HW217022   2.386   4.578   0.687
 5375SOL     OW17023   0.496   6.121   4.935
 5375SOL    HW117024   0.462   6.148   5.024
 5375SOL    HW217025   0.424   6.073   4.884
 5376SOL     OW17026   1.319   2.387   1.467
 5376SOL    HW117027   1.224   2.420   1.461
 5376SOL    HW217028   1.332   2.313   1.401
 5377SOL     OW17029   0.493   0.140   1.941
 5377SOL    HW117030   0.486   0.135   2.040
 5377SOL    HW217031   0.432   0.211   1.907
 5378SOL     OW17032   6.660   0.033   2.707
 5378SOL    HW117033   6.646   0.122   2.663
 5378SOL    HW217034   6.670   6.984   2.636
 5379SOL     OW17035   1.066   3.793   5.120
 5379SOL    HW117036   1.063   3.890   5.098
 5379SOL    HW217037   1.035   3.740   5.040
 5380SOL     OW17038   3.490   6.786   2.387
 5380SOL    HW117039   3.573   6.750   2.345
 5380SOL    HW217040   3.493   6.886   2.388
 5381SOL     OW17041   6.862   5.578   2.171
 5381SOL    HW117042   6.770   5.540   2.164
 5381SOL    HW217043   6.901   5.555   2.260
 5382SOL     OW17044   3.089   1.815   2.022
 5382SOL    HW117045   3.019   1.746   2.040
 5382SOL    HW217046   3.141   1.789   1.941
 5383SOL     OW17047   1.863   2.695   4.641
 5383SOL    HW117048   1.891   2.720   4.548
 5383SOL    HW217049   1.901   2.760   4.706
 5384SOL     OW17050   5.336   0.261   5.286
 5384SOL    HW117051   5.295   0.303   5.205
 5384SOL    HW217052   5.425   0.303   5.304
 5385SOL     OW17053   3.794   3.537   5.168
 5385SOL    HW117054   3.779   3.574   5.260
 5385SOL    HW217055   3.814   3.612   5.104
 5386SOL     OW17056   4.606   1.318   4.174
 5386SOL    HW117057   4.578   1.232   4.132
 5386SOL    HW217058   4.558   1.330   4.261
 5387SOL     OW17059   2.194   6.596   2.858
 5387SOL    HW117060   2.129   6.668   2.883
 5387SOL    HW217061   2.197   6.528   2.932
 5388SOL     OW17062   1.066   1.107   2.984
 5388SOL    HW117063   1.121   1.174   2.934
 5388SOL    HW217064   0.979   1.148   3.010
 5389SOL     OW17065   3.792   1.116   3.599
 5389SOL    HW117066   3.713   1.118   3.538
 5389SOL    HW217067   3.846   1.199   3.588
 5390SOL     OW17068   5.135   3.889   4.015
 5390SOL    HW117069   5.048   3.858   4.051
 5390SOL    HW217070   5.209   3.860   4.076
 5391SOL     OW17071   2.378   1.323   0.654
 5391SOL    HW117072   2.430   1.384   0.593
 5391SOL    HW217073   2.340   1.247   0.601
 5392SOL     OW17074   5.961   3.607   0.845
 5392SOL    HW117075   5.875   3.557   0.832
 5392SOL    HW217076   6.031   3.545   0.880
 5393SOL     OW17077   4.881   0.703   5.071
 5393SOL    HW117078   4.829   0.749   4.999
 5393SOL    HW217079   4.818   0.652   5.131
 5394SOL     OW17080   0.284   5.702   1.249
 5394SOL    HW117081   0.291   5.606   1.276
 5394SOL    HW217082   0.249   5.708   1.156
 5395SOL     OW17083   4.851   0.655   0.904
 5395SOL    HW117084   4.815   0.697   0.821
 5395SOL    HW217085   4.947   0.631   0.890
 5396SOL     OW17086   5.556   4.862   1.330
 5396SOL    HW117087   5.560   4.766   1.358
 5396SOL    HW217088   5.482   4.874   1.263
 5397SOL     OW17089   0.167   2.205   1.139
 5397SOL    HW117090   0.222   2.263   1.080
 5397SOL    HW217091   0.116   2.261   1.204
 5398SOL     OW17092   2.933   2.215   3.788
 5398SOL    HW117093   2.925   2.116   3.790
 5398SOL    HW217094   2.964   2.248   3.877
 5399SOL     OW17095   2.649   6.511   6.627
 5399SOL    HW117096   2.606   6.495   6.716
 5399SOL    HW217097   2.716   6.439   6.609
 5400SOL     OW17098   3.200   3.622   6.729
 5400SOL    HW117099   3.129   3.623   6.659
 5400SOL    HW217100   3.269   3.691   6.708
 5401SOL     OW17101   6.007   4.488   2.698
 5401SOL    HW117102   6.006   4.388   2.711
 5401SOL    HW217103   6.097   4.516   2.665
 5402SOL     OW17104   2.694   5.739   1.765
 5402SOL    HW117105   2.728   5.755   1.672
 5402SOL    HW217106   2.751   5.789   1.830
 5403SOL     OW17107   4.672   3.474   6.242
 5403SOL    HW117108   4.747   3.424   6.199
 5403SOL    HW217109   4.707   3.529   6.318
 5404SOL     OW17110   0.628   0.741   2.156
 5404SOL    HW117111   0.649   0.832   2.192
 5404SOL    HW217112   0.704   0.679   2.175
 5405SOL     OW17113   5.524   5.471   0.120
 5405SOL    HW117114   5.487   5.405   0.187
 5405SOL    HW217115   5.457   5.484   0.047
 5406SOL     OW17116   1.841   0.629   5.266
 5406SOL    HW117117   1.842   0.716   5.215
 5406SOL    HW217118   1.794   0.643   5.353
 5407SOL     OW17119   3.135   1.864   1.048
 5407SOL    HW117120   3.140   1.963   1.054
 5407SOL    HW217121   3.197   1.831   0.977
 5408SOL     OW17122   4.122   0.168   5.384
 5408SOL    HW117123   4.140   0.070   5.371
 5408SOL    HW217124   4.085   0.206   5.300
 5409SOL     OW17125   6.568   1.621   3.104
 5409SOL    HW117126   6.480   1.667   3.088
 5409SOL    HW217127   6.607   1.593   3.017
 5410SOL     OW17128   0.927   2.487   6.449
 5410SOL    HW117129   0.957   2.516   6.540
 5410SOL    HW217130   0.983   2.410   6.419
 5411SOL     OW17131   6.102   5.381   5.924
 5411SOL    HW117132   6.154   5.402   5.842
 5411SOL    HW217133   6.046   5.460   5.949
 5412SOL     OW17134   3.411   1.349   7.009
 5412SOL    HW117135   3.338   1.417   7.002
 5412SOL    HW217136   3.388   1.282   0.058
 5413SOL     OW17137   6.856   0.603   0.201
 5413SOL    HW117138   6.900   0.542   0.135
 5413SOL    HW217139   6.891   0.696   0.189
 5414SOL     OW17140   6.113   4.391   4.997
 5414SOL    HW117141   6.083   4.296   4.999
 5414SOL    HW217142   6.062   4.444   5.064
 5415SOL     OW17143   1.426   6.750   1.802
 5415SOL    HW117144   1.518   6.772   1.771
 5415SOL    HW217145   1.364   6.824   1.777
 5416SOL     OW17146   3.131   5.113   5.861
 5416SOL    HW117147   3.207   5.174   5.842
 5416SOL    HW217148   3.166   5.024   5.890
 5417SOL     OW17149   4.339   6.329   4.941
 5417SOL    HW117150   4.281   6.251   4.964
 5417SOL    HW217151   4.385   6.361   5.023
 5418SOL     OW17152   5.211   0.199   4.944
 5418SOL    HW117153   5.292   0.141   4.957
 5418SOL    HW217154   5.208   0.231   4.849
 5419SOL     OW17155   3.209   5.324   0.595
 5419SOL    HW117156   3.289   5.307   0.654
 5419SOL    HW217157   3.147   5.246   0.601
 5420SOL     OW17158   2.186   2.263   1.369
 5420SOL    HW117159   2.212   2.314   1.287
 5420SOL    HW217160   2.087   2.245   1.367
 5421SOL     OW17161   2.792   5.315   3.138
 5421SOL    HW117162   2.728   5.255   3.187
 5421SOL    HW217163   2.776   5.410   3.167
 5422SOL     OW17164   0.321   5.313   4.106
 5422SOL    HW117165   0.343   5.219   4.132
 5422SOL    HW217166   0.222   5.328   4.116
 5423SOL     OW17167   5.639   4.732   0.435
 5423SOL    HW117168   5.545   4.740   0.468
 5423SOL    HW217169   5.701   4.774   0.501
 5424SOL     OW17170   5.765   3.794   4.623
 5424SOL    HW117171   5.701   3.780   4.547
 5424SOL    HW217172   5.809   3.883   4.613
 5425SOL     OW17173   5.053   2.368   4.640
 5425SOL    HW117174   5.100   2.335   4.722
 5425SOL    HW217175   5.096   2.328   4.559
 5426SOL     OW17176   5.987   5.942   2.976
 5426SOL    HW117177   6.068   5.939   2.918
 5426SOL    HW217178   5.937   5.856   2.968
 5427SOL     OW17179   5.238   4.061   0.469
 5427SOL    HW117180   5.148   4.021   0.483
 5427SOL    HW217181   5.290   4.006   0.404
 5428SOL     OW17182   6.210   6.807   2.345
 5428SOL    HW117183   6.310   6.810   2.342
 5428SOL    HW217184   6.179   6.712   2.333
 5429SOL     OW17185   2.261   0.581   6.299
 5429SOL    HW117186   2.315   0.516   6.246
 5429SOL    HW217187   2.310   0.669   6.302
 5430SOL     OW17188   2.162   2.672   6.062
 5430SOL    HW117189   2.083   2.719   6.022
 5430SOL    HW217190   2.192   2.600   6.001
 5431SOL     OW17191   3.276   4.276   6.413
 5431SOL    HW117192   3.281   4.261   6.314
 5431SOL    HW217193   3.369   4.275   6.451
 5432SOL     OW17194   3.325   5.271   6.549
 5432SOL    HW117195   3.352   5.175   6.544
 5432SOL    HW217196   3.405   5.329   6.532
 5433SOL     OW17197   0.685   1.029   2.681
 5433SOL    HW117198   0.621   0.977   2.625
 5433SOL    HW217199   0.766   0.972   2.700
 5434SOL     OW17200   3.994   0.579   4.266
 5434SOL    HW117201   3.915   0.528   4.232
 5434SOL    HW217202   4.077   0.549   4.218
 5435SOL     OW17203   6.122   2.593   1.066
 5435SOL    HW117204   6.081   2.536   0.994
 5435SOL    HW217205   6.217   2.564   1.081
 5436SOL     OW17206   5.830   4.739   4.021
 5436SOL    HW117207   5.779   4.805   4.075
 5436SOL    HW217208   5.918   4.721   4.064
 5437SOL     OW17209   2.812   5.521   5.400
 5437SOL    HW117210   2.719   5.543   5.373
 5437SOL    HW217211   2.870   5.602   5.389
 5438SOL     OW17212   6.110   3.041   2.085
 5438SOL    HW117213   6.103   2.992   2.172
 5438SOL    HW217214   6.157   2.984   2.019
 5439SOL     OW17215   0.479   2.456   0.334
 5439SOL    HW117216   0.380   2.472   0.335
 5439SOL    HW217217   0.496   2.359   0.316
 5440SOL     OW17218   6.497   6.782   3.575
 5440SOL    HW117219   6.503   6.843   3.496
 5440SOL    HW217220   6.404   6.782   3.610
 5441SOL     OW17221   4.794   2.809   3.444
 5441SOL    HW117222   4.867   2.843   3.503
 5441SOL    HW217223   4.796   2.857   3.357
 5442SOL     OW17224   4.166   0.000   2.640
 5442SOL    HW117225   4.105   0.074   2.613
 5442SOL    HW217226   4.210   0.024   2.727
 5443SOL     OW17227   3.540   5.224   3.740
 5443SOL    HW117228   3.586   5.285   3.676
 5443SOL    HW217229   3.569   5.129   3.723
 5444SOL     OW17230   0.488   0.680   3.359
 5444SOL    HW117231   0.539   0.594   3.349
 5444SOL    HW217232   0.448   0.683   3.451
 5445SOL     OW17233   6.349   3.729   4.225
 5445SOL    HW117234   6.403   3.790   4.283
 5445SOL    HW217235   6.286   3.783   4.169
 5446SOL     OW17236   5.880   5.472   4.881
 5446SOL    HW117237   5.893   5.378   4.851
 5446SOL    HW217238   5.786   5.486   4.910
 5447SOL     OW17239   1.462   1.460   0.556
 5447SOL    HW117240   1.517   1.440   0.637
 5447SOL    HW217241   1.428   1.554   0.561
 5448SOL     OW17242   5.197   4.986   4.304
 5448SOL    HW117243   5.171   5.058   4.240
 5448SOL    HW217244   5.273   5.018   4.361
 5449SOL     OW17245   1.953   1.541   1.227
 5449SOL    HW117246   2.017   1.603   1.272
 5449SOL    HW217247   2.005   1.473   1.174
 5450SOL     OW17248   2.982   0.077   0.912
 5450SOL    HW117249   2.895   0.117   0.940
 5450SOL    HW217250   2.991   0.085   0.812
 5451SOL     OW17251   2.415   6.294   3.623
 5451SOL    HW117252   2.360   6.371   3.590
 5451SOL    HW217253   2.389   6.273   3.717
 5452SOL     OW17254   2.726   4.165   0.109
 5452SOL    HW117255   2.696   4.080   0.152
 5452SOL    HW217256   2.646   4.222   0.089
 5453SOL     OW17257   5.227   4.200   2.678
 5453SOL    HW117258   5.144   4.232   2.724
 5453SOL    HW217259   5.302   4.263   2.696
 5454SOL     OW17260   4.925   5.830   0.024
 5454SOL    HW117261   4.839   5.781   0.037
 5454SOL    HW217262   4.935   5.855   6.949
 5455SOL     OW17263   0.340   2.734   3.465
 5455SOL    HW117264   0.355   2.639   3.492
 5455SOL    HW217265   0.311   2.787   3.544
 5456SOL     OW17266   3.167   0.301   0.098
 5456SOL    HW117267   3.166   0.211   0.055
 5456SOL    HW217268   3.204   0.368   0.034
 5457SOL     OW17269   6.170   2.053   1.253
 5457SOL    HW117270   6.136   2.146   1.238
 5457SOL    HW217271   6.142   2.021   1.343
 5458SOL     OW17272   0.732   5.066   0.059
 5458SOL    HW117273   0.655   5.002   0.063
 5458SOL    HW217274   0.705   5.148   0.009
 5459SOL     OW17275   3.102   4.024   5.810
 5459SOL    HW117276   3.079   3.963   5.734
 5459SOL    HW217277   3.058   3.991   5.894
 5460SOL     OW17278   3.591   6.714   2.940
 5460SOL    HW117279   3.636   6.763   2.865
 5460SOL    HW217280   3.553   6.628   2.905
 5461SOL     OW17281   0.427   0.504   4.988
 5461SOL    HW117282   0.431   0.408   4.960
 5461SOL    HW217283   0.517   0.533   5.020
 5462SOL     OW17284   5.655   6.545   6.830
 5462SOL    HW117285   5.589   6.477   6.860
 5462SOL    HW217286   5.636   6.633   6.875
 5463SOL     OW17287   0.438   1.656   6.945
 5463SOL    HW117288   0.509   1.690   6.884
 5463SOL    HW217289   0.416   1.727   7.013
 5464SOL     OW17290   6.248   0.278   4.956
 5464SOL    HW117291   6.331   0.223   4.965
 5464SOL    HW217292   6.261   0.366   5.002
 5465SOL     OW17293   5.080   0.840   4.284
 5465SOL    HW117294   5.091   0.742   4.266
 5465SOL    HW217295   5.150   0.891   4.234
 5466SOL     OW17296   5.256   2.915   5.759
 5466SOL    HW117297   5.255   3.012   5.782
 5466SOL    HW217298   5.170   2.890   5.715
 5467SOL     OW17299   5.227   3.829   3.746
 5467SOL    HW117300   5.185   3.879   3.822
 5467SOL    HW217301   5.221   3.731   3.765
 5468SOL     OW17302   6.268   2.125   4.709
 5468SOL    HW117303   6.358   2.126   4.667
 5468SOL    HW217304   6.203   2.081   4.647
 5469SOL     OW17305   3.395   6.273   5.519
 5469SOL    HW117306   3.362   6.297   5.427
 5469SOL    HW217307   3.470   6.335   5.545
 5470SOL     OW17308   3.457   5.427   3.515
 5470SOL    HW117309   3.495   5.507   3.562
 5470SOL    HW217310   3.500   5.419   3.425
 5471SOL     OW17311   6.305   0.507   3.438
 5471SOL    HW117312   6.335   0.424   3.485
 5471SOL    HW217313   6.296   0.488   3.340
 5472SOL     OW17314   2.955   3.658   6.249
 5472SOL    HW117315   2.959   3.604   6.165
 5472SOL    HW217316   2.904   3.742   6.232
 5473SOL     OW17317   1.018   3.308   1.684
 5473SOL    HW117318   1.090   3.354   1.633
 5473SOL    HW217319   0.929   3.344   1.656
 5474SOL     OW17320   1.299   4.374   4.702
 5474SOL    HW117321   1.225   4.309   4.685
 5474SOL    HW217322   1.261   4.465   4.717
 5475SOL     OW17323   1.938   2.422   1.159
 5475SOL    HW117324   1.938   2.509   1.209
 5475SOL    HW217325   1.902   2.350   1.219
 5476SOL     OW17326   2.353   4.551   4.959
 5476SOL    HW117327   2.329   4.507   4.873
 5476SOL    HW217328   2.370   4.481   5.028
 5477SOL     OW17329   2.273   4.133   2.492
 5477SOL    HW117330   2.340   4.206   2.505
 5477SOL    HW217331   2.261   4.083   2.578
 5478SOL     OW17332   3.329   6.872   5.426
 5478SOL    HW117333   3.280   6.797   5.382
 5478SOL    HW217334   3.319   6.865   5.526
 5479SOL     OW17335   5.818   1.804   5.548
 5479SOL    HW117336   5.799   1.855   5.631
 5479SOL    HW217337   5.757   1.834   5.475
 5480SOL     OW17338   6.166   5.935   3.976
 5480SOL    HW117339   6.175   6.032   3.999
 5480SOL    HW217340   6.129   5.886   4.055
 5481SOL     OW17341   4.557   0.854   4.616
 5481SOL    HW117342   4.531   0.773   4.668
 5481SOL    HW217343   4.637   0.834   4.559
 5482SOL     OW17344   3.478   4.127   1.547
 5482SOL    HW117345   3.569   4.108   1.511
 5482SOL    HW217346   3.412   4.131   1.472
 5483SOL     OW17347   0.008   2.805   5.249
 5483SOL    HW117348   0.031   2.875   5.318
 5483SOL    HW217349   6.965   2.740   5.289
 5484SOL     OW17350   4.549   0.864   3.560
 5484SOL    HW117351   4.615   0.938   3.547
 5484SOL    HW217352   4.590   0.794   3.619
 5485SOL     OW17353   3.720   0.106   4.955
 5485SOL    HW117354   3.646   0.040   4.970
 5485SOL    HW217355   3.750   0.101   4.860
 5486SOL     OW17356   1.747   5.887   5.213
 5486SOL    HW117357   1.760   5.818   5.142
 5486SOL    HW217358   1.837   5.914   5.249
 5487SOL     OW17359   5.305   3.100   6.494
 5487SOL    HW117360   5.368   3.132   6.423
 5487SOL    HW217361   5.216   3.144   6.481
 5488SOL     OW17362   5.962   0.837   0.948
 5488SOL    HW117363   5.898   0.783   1.003
 5488SOL    HW217364   6.017   0.894   1.008
 5489SOL     OW17365   1.264   4.017   1.076
 5489SOL    HW117366   1.299   4.053   1.163
 5489SOL    HW217367   1.249   4.093   1.013
 5490SOL     OW17368   2.710   0.168   0.983
 5490SOL    HW117369   2.669   0.229   1.051
 5490SOL    HW217370   2.674   0.075   0.998
 5491SOL     OW17371   1.814   4.254   0.953
 5491SOL    HW117372   1.861   4.268   1.040
 5491SOL    HW217373   1.755   4.333   0.934
 5492SOL     OW17374   0.266   2.707   5.783
 5492SOL    HW117375   0.289   2.622   5.737
 5492SOL    HW217376   0.347   2.745   5.826
 5493SOL     OW17377   3.978   3.972   3.906
 5493SOL    HW117378   3.914   3.985   3.982
 5493SOL    HW217379   3.953   4.032   3.830
 5494SOL     OW17380   6.142   2.680   6.353
 5494SOL    HW117381   6.044   2.684   6.335
 5494SOL    HW217382   6.188   2.632   6.279
 5495SOL     OW17383   3.147   2.060   0.520
 5495SOL    HW117384   3.133   1.963   0.501
 5495SOL    HW217385   3.062   2.100   0.554
 5496SOL     OW17386   3.528   0.322   3.293
 5496SOL    HW117387   3.612   0.360   3.254
 5496SOL    HW217388   3.548   0.280   3.381
 5497SOL     OW17389   0.457   1.846   4.096
 5497SOL    HW117390   0.407   1.900   4.165
 5497SOL    HW217391   0.392   1.789   4.046
 5498SOL     OW17392   6.076   6.162   1.165
 5498SOL    HW117393   6.046   6.193   1.075
 5498SOL    HW217394   5.996   6.136   1.219
 5499SOL     OW17395   0.724   0.515   4.663
 5499SOL    HW117396   0.787   0.455   4.711
 5499SOL    HW217397   0.652   0.460   4.620
 5500SOL     OW17398   0.880   0.476   0.201
 5500SOL    HW117399   0.831   0.544   0.254
 5500SOL    HW217400   0.970   0.461   0.241
 5501SOL     OW17401   3.688   6.906   0.163
 5501SOL    HW117402   3.652   6.988   0.208
 5501SOL    HW217403   3.685   6.829   0.227
 5502SOL     OW17404   5.484   3.325   0.319
 5502SOL    HW117405   5.499   3.303   0.223
 5502SOL    HW217406   5.441   3.247   0.365
 5503SOL     OW17407   0.505   5.089   2.051
 5503SOL    HW117408   0.444   5.166   2.070
 5503SOL    HW217409   0.463   5.029   1.983
 5504SOL     OW17410   3.799   1.318   4.882
 5504SOL    HW117411   3.838   1.348   4.968
 5504SOL    HW217412   3.850   1.238   4.848
 5505SOL     OW17413   1.774   5.121   4.426
 5505SOL    HW117414   1.792   5.039   4.371
 5505SOL    HW217415   1.747   5.093   4.518
 5506SOL     OW17416   1.108   2.325   6.331
 5506SOL    HW117417   1.171   2.261   6.287
 5506SOL    HW217418   1.155   2.412   6.346
 5507SOL     OW17419   3.599   0.898   4.168
 5507SOL    HW117420   3.567   0.878   4.261
 5507SOL    HW217421   3.555   0.836   4.103
 5508SOL     OW17422   1.576   0.692   6.176
 5508SOL    HW117423   1.506   0.637   6.223
 5508SOL    HW217424   1.561   0.789   6.196
 5509SOL     OW17425   0.171   6.479   6.837
 5509SOL    HW117426   0.226   6.476   6.920
 5509SOL    HW217427   0.217   6.536   6.769
 5510SOL     OW17428   5.308   5.503   0.695
 5510SOL    HW117429   5.229   5.443   0.685
 5510SOL    HW217430   5.279   5.592   0.730
 5511SOL     OW17431   2.071   1.577   4.210
 5511SOL    HW117432   2.064   1.484   4.174
 5511SOL    HW217433   2.081   1.642   4.135
 5512SOL     OW17434   5.684   2.241   1.669
 5512SOL    HW117435   5.644   2.274   1.583
 5512SOL    HW217436   5.687   2.141   1.668
 5513SOL     OW17437   4.331   4.895   6.931
 5513SOL    HW117438   4.330   4.823   6.862
 5513SOL    HW217439   4.352   4.983   6.887
 5514SOL     OW17440   4.333   6.466   4.254
 5514SOL    HW117441   4.263   6.398   4.276
 5514SOL    HW217442   4.424   6.423   4.261
 5515SOL     OW17443   0.490   5.649   2.012
 5515SOL    HW117444   0.584   5.615   2.017
 5515SOL    HW217445   0.472   5.684   1.920
 5516SOL     OW17446   2.078   4.318   6.465
 5516SOL    HW117447   2.142   4.257   6.420
 5516SOL    HW217448   2.108   4.336   6.559
 5517SOL     OW17449   2.147   3.221   2.070
 5517SOL    HW117450   2.158   3.308   2.021
 5517SOL    HW217451   2.201   3.225   2.155
 5518SOL     OW17452   5.938   6.336   6.474
 5518SOL    HW117453   5.949   6.236   6.476
 5518SOL    HW217454   5.869   6.363   6.541
 5519SOL     OW17455   5.732   3.825   3.954
 5519SOL    HW117456   5.821   3.787   3.928
 5519SOL    HW217457   5.712   3.905   3.896
 5520SOL     OW17458   6.044   6.078   2.297
 5520SOL    HW117459   6.122   6.083   2.359
 5520SOL    HW217460   5.987   6.160   2.307
 5521SOL     OW17461   5.188   6.329   1.536
 5521SOL    HW117462   5.176   6.276   1.620
 5521SOL    HW217463   5.102   6.375   1.514
 5522SOL     OW17464   0.685   5.410   0.382
 5522SOL    HW117465   0.721   5.318   0.364
 5522SOL    HW217466   0.593   5.417   0.343
 5523SOL     OW17467   3.914   0.624   2.061
 5523SOL    HW117468   3.986   0.692   2.072
 5523SOL    HW217469   3.929   0.549   2.126
 5524SOL     OW17470   5.495   6.889   5.112
 5524SOL    HW117471   5.593   6.878   5.099
 5524SOL    HW217472   5.457   6.805   5.151
 5525SOL     OW17473   0.336   1.981   1.147
 5525SOL    HW117474   0.257   2.035   1.177
 5525SOL    HW217475   0.357   2.003   1.051
 5526SOL     OW17476   4.975   5.240   3.580
 5526SOL    HW117477   5.035   5.301   3.632
 5526SOL    HW217478   4.975   5.149   3.622
 5527SOL     OW17479   5.318   3.833   4.208
 5527SOL    HW117480   5.381   3.883   4.267
 5527SOL    HW217481   5.284   3.752   4.256
 5528SOL     OW17482   1.502   0.951   6.268
 5528SOL    HW117483   1.575   0.985   6.327
 5528SOL    HW217484   1.472   1.024   6.206
 5529SOL     OW17485   3.050   0.112   3.438
 5529SOL    HW117486   3.087   0.127   3.346
 5529SOL    HW217487   3.123   0.121   3.506
 5530SOL     OW17488   5.872   2.258   1.861
 5530SOL    HW117489   5.963   2.248   1.822
 5530SOL    HW217490   5.804   2.262   1.787
 5531SOL     OW17491   3.206   3.363   2.357
 5531SOL    HW117492   3.287   3.361   2.298
 5531SOL    HW217493   3.164   3.273   2.359
 5532SOL     OW17494   1.603   2.845   0.573
 5532SOL    HW117495   1.631   2.789   0.651
 5532SOL    HW217496   1.548   2.789   0.510
 5533SOL     OW17497   3.731   1.722   2.924
 5533SOL    HW117498   3.634   1.701   2.911
 5533SOL    HW217499   3.740   1.806   2.977
 5534SOL     OW17500   0.364   1.098   5.987
 5534SOL    HW117501   0.427   1.057   5.921
 5534SOL    HW217502   0.393   1.192   6.006
 5535SOL     OW17503   6.609   2.577   3.313
 5535SOL    HW117504   6.599   2.676   3.308
 5535SOL    HW217505   6.532   2.533   3.266
 5536SOL     OW17506   3.432   1.085   4.062
 5536SOL    HW117507   3.496   1.151   4.021
 5536SOL    HW217508   3.484   1.010   4.104
 5537SOL     OW17509   3.111   0.506   2.630
 5537SOL    HW117510   3.121   0.594   2.583
 5537SOL    HW217511   3.024   0.504   2.679
 5538SOL     OW17512   2.498   6.092   5.890
 5538SOL    HW117513   2.527   6.003   5.856
 5538SOL    HW217514   2.439   6.136   5.823
 5539SOL     OW17515   1.458   2.819   1.389
 5539SOL    HW117516   1.410   2.906   1.404
 5539SOL    HW217517   1.424   2.751   1.454
 5540SOL     OW17518   4.942   4.220   3.838
 5540SOL    HW117519   5.001   4.295   3.866
 5540SOL    HW217520   4.991   4.161   3.774
 5541SOL     OW17521   5.886   0.215   6.289
 5541SOL    HW117522   5.902   0.135   6.231
 5541SOL    HW217523   5.924   0.297   6.244
 5542SOL     OW17524   5.739   3.928   5.983
 5542SOL    HW117525   5.737   3.934   5.883
 5542SOL    HW217526   5.647   3.911   6.017
 5543SOL     OW17527   3.822   4.997   5.479
 5543SOL    HW117528   3.821   4.952   5.568
 5543SOL    HW217529   3.914   4.992   5.440
 5544SOL     OW17530   5.124   6.171   6.713
 5544SOL    HW117531   5.149   6.203   6.621
 5544SOL    HW217532   5.157   6.237   6.781
 5545SOL     OW17533   3.771   1.123   1.575
 5545SOL    HW117534   3.863   1.131   1.537
 5545SOL    HW217535   3.743   1.027   1.575
 5546SOL     OW17536   0.905   5.192   4.800
 5546SOL    HW117537   0.888   5.278   4.752
 5546SOL    HW217538   0.854   5.118   4.755
 5547SOL     OW17539   2.385   0.044   4.973
 5547SOL    HW117540   2.300   0.003   5.007
 5547SOL    HW217541   2.366   0.135   4.937
 5548SOL     OW17542   5.550   3.069   5.317
 5548SOL    HW117543   5.465   3.073   5.369
 5548SOL    HW217544   5.596   2.982   5.336
 5549SOL     OW17545   4.406   4.005   6.247
 5549SOL    HW117546   4.432   4.085   6.193
 5549SOL    HW217547   4.426   3.922   6.195
 5550SOL     OW17548   2.315   4.707   1.928
 5550SOL    HW117549   2.391   4.685   1.988
 5550SOL    HW217550   2.266   4.623   1.904
 5551SOL     OW17551   2.113   0.638   3.596
 5551SOL    HW117552   2.135   0.698   3.519
 5551SOL    HW217553   2.017   0.613   3.593
 5552SOL     OW17554   6.760   0.940   6.939
 5552SOL    HW117555   6.695   0.934   7.015
 5552SOL    HW217556   6.747   1.027   6.891
 5553SOL     OW17557   5.035   6.725   6.931
 5553SOL    HW117558   4.967   6.793   6.956
 5553SOL    HW217559   4.991   6.649   6.883
 5554SOL     OW17560   3.961   1.682   5.260
 5554SOL    HW117561   3.866   1.702   5.237
 5554SOL    HW217562   3.973   1.685   5.359
 5555SOL     OW17563   1.686   4.680   4.537
 5555SOL    HW117564   1.650   4.773   4.528
 5555SOL    HW217565   1.683   4.652   4.633
 5556SOL     OW17566   6.712   1.894   3.725
 5556SOL    HW117567   6.800   1.942   3.729
 5556SOL    HW217568   6.641   1.952   3.764
 5557SOL     OW17569   3.764   6.624   2.550
 5557SOL    HW117570   3.735   6.696   2.612
 5557SOL    HW217571   3.687   6.561   2.534
 5558SOL     OW17572   5.101   3.214   6.226
 5558SOL    HW117573   5.027   3.253   6.172
 5558SOL    HW217574   5.086   3.234   6.323
 5559SOL     OW17575   3.323   6.715   2.128
 5559SOL    HW117576   3.376   6.797   2.150
 5559SOL    HW217577   3.270   6.687   2.207
 5560SOL     OW17578   0.820   6.603   3.543
 5560SOL    HW117579   0.841   6.584   3.447
 5560SOL    HW217580   0.821   6.518   3.595
 5561SOL     OW17581   2.228   2.571   4.208
 5561SOL    HW117582   2.173   2.613   4.279
 5561SOL    HW217583   2.171   2.507   4.156
 5562SOL     OW17584   3.048   2.374   7.012
 5562SOL    HW117585   3.145   2.387   6.992
 5562SOL    HW217586   2.998   2.457   6.987
 5563SOL     OW17587   4.533   5.826   2.457
 5563SOL    HW117588   4.451   5.878   2.431
 5563SOL    HW217589   4.506   5.747   2.512
 5564SOL     OW17590   4.712   1.286   1.764
 5564SOL    HW117591   4.708   1.220   1.839
 5564SOL    HW217592   4.704   1.378   1.801
 5565SOL     OW17593   4.942   1.696   6.931
 5565SOL    HW117594   4.861   1.649   6.966
 5565SOL    HW217595   5.006   1.629   6.893
 5566SOL     OW17596   1.695   5.489   0.628
 5566SOL    HW117597   1.758   5.540   0.687
 5566SOL    HW217598   1.746   5.445   0.554
 5567SOL     OW17599   0.200   4.842   1.972
 5567SOL    HW117600   0.177   4.906   2.046
 5567SOL    HW217601   0.116   4.812   1.927
 5568SOL     OW17602   4.182   2.301   3.074
 5568SOL    HW117603   4.143   2.305   2.982
 5568SOL    HW217604   4.166   2.211   3.113
 5569SOL     OW17605   2.871   1.379   2.168
 5569SOL    HW117606   2.900   1.389   2.073
 5569SOL    HW217607   2.808   1.302   2.177
 5570SOL     OW17608   5.372   5.183   4.975
 5570SOL    HW117609   5.370   5.091   5.015
 5570SOL    HW217610   5.280   5.210   4.949
 5571SOL     OW17611   0.215   6.354   0.390
 5571SOL    HW117612   0.229   6.338   0.293
 5571SOL    HW217613   0.188   6.449   0.406
 5572SOL     OW17614   1.662   2.540   4.755
 5572SOL    HW117615   1.583   2.581   4.710
 5572SOL    HW217616   1.745   2.591   4.731
 5573SOL     OW17617   1.874   3.379   6.823
 5573SOL    HW117618   1.855   3.315   6.748
 5573SOL    HW217619   1.941   3.446   6.793
 5574SOL     OW17620   6.448   1.679   4.092
 5574SOL    HW117621   6.410   1.700   4.182
 5574SOL    HW217622   6.416   1.589   4.061
 5575SOL     OW17623   0.193   1.373   2.064
 5575SOL    HW117624   0.184   1.381   1.965
 5575SOL    HW217625   0.138   1.296   2.096
 5576SOL     OW17626   0.579   6.320   2.177
 5576SOL    HW117627   0.630   6.235   2.173
 5576SOL    HW217628   0.601   6.377   2.098
 5577SOL     OW17629   3.016   2.719   5.876
 5577SOL    HW117630   2.928   2.765   5.861
 5577SOL    HW217631   3.000   2.622   5.891
 5578SOL     OW17632   4.233   4.035   0.437
 5578SOL    HW117633   4.243   3.987   0.350
 5578SOL    HW217634   4.142   4.076   0.442
 5579SOL     OW17635   6.748   3.883   6.076
 5579SOL    HW117636   6.652   3.908   6.067
 5579SOL    HW217637   6.789   3.934   6.152
 5580SOL     OW17638   4.435   2.246   5.977
 5580SOL    HW117639   4.418   2.155   6.015
 5580SOL    HW217640   4.532   2.257   5.957
 5581SOL     OW17641   2.187   6.769   1.863
 5581SOL    HW117642   2.167   6.728   1.952
 5581SOL    HW217643   2.247   6.848   1.875
 5582SOL     OW17644   3.882   3.329   3.497
 5582SOL    HW117645   3.809   3.393   3.521
 5582SOL    HW217646   3.866   3.241   3.543
 5583SOL     OW17647   4.494   0.162   2.756
 5583SOL    HW117648   4.561   0.148   2.683
 5583SOL    HW217649   4.486   0.260   2.775
 5584SOL     OW17650   5.545   3.706   4.819
 5584SOL    HW117651   5.606   3.785   4.827
 5584SOL    HW217652   5.596   3.622   4.841
 5585SOL     OW17653   4.710   6.893   4.107
 5585SOL    HW117654   4.655   6.970   4.076
 5585SOL    HW217655   4.803   6.925   4.127
 5586SOL     OW17656   0.715   2.298   6.432
 5586SOL    HW117657   0.761   2.211   6.444
 5586SOL    HW217658   0.780   2.373   6.448
 5587SOL     OW17659   4.397   6.261   2.537
 5587SOL    HW117660   4.364   6.176   2.496
 5587SOL    HW217661   4.395   6.253   2.637
 5588SOL     OW17662   1.122   0.008   3.270
 5588SOL    HW117663   1.173   6.944   3.263
 5588SOL    HW217664   1.026   7.010   3.287
 5589SOL     OW17665   6.054   2.991   6.702
 5589SOL    HW117666   5.977   2.929   6.690
 5589SOL    HW217667   6.026   3.084   6.675
 5590SOL     OW17668   0.312   5.571   3.160
 5590SOL    HW117669   0.385   5.634   3.131
 5590SOL    HW217670   0.232   5.623   3.189
 5591SOL     OW17671   5.956   1.191   6.610
 5591SOL    HW117672   5.969   1.290   6.603
 5591SOL    HW217673   6.009   1.156   6.687
 5592SOL     OW17674   1.721   4.520   2.829
 5592SOL    HW117675   1.639   4.551   2.877
 5592SOL    HW217676   1.706   4.428   2.792
 5593SOL     OW17677   6.629   2.000   6.170
 5593SOL    HW117678   6.720   1.962   6.155
 5593SOL    HW217679   6.562   1.927   6.173
 5594SOL     OW17680   2.680   1.363   6.731
 5594SOL    HW117681   2.659   1.275   6.773
 5594SOL    HW217682   2.605   1.427   6.748
 5595SOL     OW17683   6.105   0.907   5.169
 5595SOL    HW117684   6.072   0.930   5.077
 5595SOL    HW217685   6.177   0.838   5.162
 5596SOL     OW17686   4.952   0.473   2.350
 5596SOL    HW117687   5.031   0.489   2.409
 5596SOL    HW217688   4.932   0.375   2.346
 5597SOL     OW17689   5.357   2.187   4.868
 5597SOL    HW117690   5.419   2.216   4.941
 5597SOL    HW217691   5.265   2.220   4.889
 5598SOL     OW17692   5.051   2.274   3.845
 5598SOL    HW117693   4.962   2.286   3.889
 5598SOL    HW217694   5.053   2.327   3.760
 5599SOL     OW17695   6.879   3.466   2.255
 5599SOL    HW117696   6.911   3.454   2.161
 5599SOL    HW217697   6.795   3.412   2.268
 5600SOL     OW17698   2.165   0.353   2.322
 5600SOL    HW117699   2.090   0.304   2.366
 5600SOL    HW217700   2.248   0.297   2.325
 5601SOL     OW17701   4.183   2.053   6.184
 5601SOL    HW117702   4.247   2.059   6.261
 5601SOL    HW217703   4.134   2.139   6.173
 5602SOL     OW17704   0.388   0.794   2.785
 5602SOL    HW117705   0.306   0.847   2.805
 5602SOL    HW217706   0.435   0.771   2.871
 5603SOL     OW17707   5.089   2.257   5.458
 5603SOL    HW117708   5.086   2.302   5.547
 5603SOL    HW217709   5.171   2.287   5.409
 5604SOL     OW17710   0.559   1.935   4.696
 5604SOL    HW117711   0.489   1.926   4.625
 5604SOL    HW217712   0.635   1.874   4.674
 5605SOL     OW17713   1.630   6.647   4.557
 5605SOL    HW117714   1.706   6.589   4.586
 5605SOL    HW217715   1.666   6.734   4.523
 5606SOL     OW17716   4.209   0.449   0.227
 5606SOL    HW117717   4.258   0.400   0.156
 5606SOL    HW217718   4.237   0.415   0.317
 5607SOL     OW17719   5.203   2.072   3.794
 5607SOL    HW117720   5.135   2.143   3.806
 5607SOL    HW217721   5.280   2.087   3.857
 5608SOL     OW17722   5.827   1.170   3.219
 5608SOL    HW117723   5.926   1.176   3.232
 5608SOL    HW217724   5.805   1.176   3.122
 5609SOL     OW17725   4.985   5.706   0.607
 5609SOL    HW117726   5.008   5.785   0.550
 5609SOL    HW217727   5.025   5.718   0.698
 5610SOL     OW17728   5.987   3.844   1.655
 5610SOL    HW117729   6.075   3.820   1.614
 5610SOL    HW217730   5.987   3.940   1.681
 5611SOL     OW17731   0.678   5.510   2.211
 5611SOL    HW117732   0.690   5.470   2.121
 5611SOL    HW217733   0.648   5.439   2.275
 5612SOL     OW17734   3.404   2.776   0.591
 5612SOL    HW117735   3.445   2.814   0.673
 5612SOL    HW217736   3.454   2.807   0.510
 5613SOL     OW17737   6.714   4.840   5.473
 5613SOL    HW117738   6.710   4.856   5.571
 5613SOL    HW217739   6.810   4.840   5.443
 5614SOL     OW17740   6.044   2.949   5.188
 5614SOL    HW117741   5.980   2.987   5.256
 5614SOL    HW217742   6.069   3.021   5.123
 5615SOL     OW17743   6.847   1.490   3.229
 5615SOL    HW117744   6.897   1.576   3.241
 5615SOL    HW217745   6.757   1.509   3.190
 5616SOL     OW17746   2.341   2.726   5.024
 5616SOL    HW117747   2.404   2.694   5.095
 5616SOL    HW217748   2.338   2.826   5.024
 5617SOL     OW17749   1.458   3.457   4.877
 5617SOL    HW117750   1.467   3.416   4.968
 5617SOL    HW217751   1.405   3.396   4.818
 5618SOL     OW17752   6.839   4.899   3.255
 5618SOL    HW117753   6.787   4.819   3.225
 5618SOL    HW217754   6.829   4.972   3.187
 5619SOL     OW17755   3.236   3.514   3.373
 5619SOL    HW117756   3.208   3.459   3.451
 5619SOL    HW217757   3.313   3.469   3.326
 5620SOL     OW17758   4.826   3.912   6.481
 5620SOL    HW117759   4.883   3.904   6.563
 5620SOL    HW217760   4.878   3.880   6.401
 5621SOL     OW17761   1.590   3.247   6.104
 5621SOL    HW117762   1.639   3.184   6.164
 5621SOL    HW217763   1.609   3.224   6.009
 5622SOL     OW17764   4.800   6.478   5.906
 5622SOL    HW117765   4.831   6.383   5.917
 5622SOL    HW217766   4.718   6.479   5.847
 5623SOL     OW17767   4.622   5.866   4.974
 5623SOL    HW117768   4.536   5.876   4.925
 5623SOL    HW217769   4.698   5.861   4.909
 5624SOL     OW17770   0.417   5.453   3.890
 5624SOL    HW117771   0.336   5.432   3.835
 5624SOL    HW217772   0.410   5.409   3.979
 5625SOL     OW17773   6.876   5.195   5.524
 5625SOL    HW117774   6.784   5.221   5.554
 5625SOL    HW217775   6.901   5.108   5.567
 5626SOL     OW17776   2.615   5.620   4.019
 5626SOL    HW117777   2.531   5.658   4.057
 5626SOL    HW217778   2.616   5.521   4.031
 5627SOL     OW17779   6.900   5.332   6.403
 5627SOL    HW117780   6.814   5.335   6.455
 5627SOL    HW217781   6.880   5.336   6.305
 5628SOL     OW17782   2.558   2.482   1.130
 5628SOL    HW117783   2.645   2.464   1.085
 5628SOL    HW217784   2.549   2.580   1.148
 5629SOL     OW17785   5.050   2.622   1.924
 5629SOL    HW117786   5.007   2.704   1.887
 5629SOL    HW217787   5.043   2.623   2.024
 5630SOL     OW17788   1.946   4.083   6.731
 5630SOL    HW117789   1.889   4.165   6.740
 5630SOL    HW217790   2.010   4.096   6.655
 5631SOL     OW17791   5.553   1.619   0.859
 5631SOL    HW117792   5.561   1.557   0.937
 5631SOL    HW217793   5.567   1.569   0.774
 5632SOL     OW17794   4.469   1.933   5.278
 5632SOL    HW117795   4.375   1.966   5.288
 5632SOL    HW217796   4.503   1.901   5.366
 5633SOL     OW17797   6.007   4.874   4.718
 5633SOL    HW117798   5.974   4.802   4.657
 5633SOL    HW217799   6.070   4.835   4.785
 5634SOL     OW17800   1.961   4.723   3.929
 5634SOL    HW117801   1.882   4.719   3.868
 5634SOL    HW217802   2.035   4.773   3.883
 5635SOL     OW17803   2.315   6.350   6.692
 5635SOL    HW117804   2.389   6.283   6.694
 5635SOL    HW217805   2.231   6.305   6.661
 5636SOL     OW17806   6.071   0.911   5.443
 5636SOL    HW117807   6.020   0.825   5.445
 5636SOL    HW217808   6.111   0.924   5.352
 5637SOL     OW17809   3.865   6.810   3.690
 5637SOL    HW117810   3.927   6.732   3.701
 5637SOL    HW217811   3.878   6.873   3.767
 5638SOL     OW17812   6.263   5.071   1.131
 5638SOL    HW117813   6.222   4.982   1.115
 5638SOL    HW217814   6.354   5.073   1.090
 5639SOL     OW17815   2.888   0.602   1.489
 5639SOL    HW117816   2.944   0.540   1.435
 5639SOL    HW217817   2.801   0.558   1.511
 5640SOL     OW17818   3.000   0.238   2.409
 5640SOL    HW117819   3.045   0.252   2.321
 5640SOL    HW217820   2.925   0.172   2.398
 5641SOL     OW17821   0.230   5.001   5.884
 5641SOL    HW117822   0.242   5.081   5.942
 5641SOL    HW217823   0.243   4.918   5.938
 5642SOL     OW17824   0.969   5.217   5.084
 5642SOL    HW117825   0.984   5.129   5.129
 5642SOL    HW217826   0.957   5.203   4.986
 5643SOL     OW17827   3.554   0.870   4.443
 5643SOL    HW117828   3.559   0.771   4.451
 5643SOL    HW217829   3.627   0.912   4.496
 5644SOL     OW17830   3.709   0.372   3.629
 5644SOL    HW117831   3.779   0.438   3.657
 5644SOL    HW217832   3.619   0.407   3.655
 5645SOL     OW17833   6.175   3.967   3.576
 5645SOL    HW117834   6.163   3.868   3.562
 5645SOL    HW217835   6.198   4.010   3.489
 5646SOL     OW17836   1.860   6.239   3.325
 5646SOL    HW117837   1.793   6.291   3.272
 5646SOL    HW217838   1.888   6.158   3.272
 5647SOL     OW17839   6.533   6.677   0.282
 5647SOL    HW117840   6.557   6.737   0.206
 5647SOL    HW217841   6.480   6.728   0.350
 5648SOL     OW17842   2.560   1.468   2.694
 5648SOL    HW117843   2.581   1.391   2.754
 5648SOL    HW217844   2.471   1.453   2.650
 5649SOL     OW17845   0.171   6.618   5.122
 5649SOL    HW117846   0.142   6.580   5.034
 5649SOL    HW217847   0.092   6.623   5.183
 5650SOL     OW17848   0.352   5.932   1.105
 5650SOL    HW117849   0.303   5.859   1.059
 5650SOL    HW217850   0.444   5.900   1.129
 5651SOL     OW17851   0.419   1.344   1.568
 5651SOL    HW117852   0.517   1.345   1.588
 5651SOL    HW217853   0.406   1.351   1.469
 5652SOL     OW17854   5.857   6.437   2.410
 5652SOL    HW117855   5.778   6.497   2.396
 5652SOL    HW217856   5.859   6.368   2.338
 5653SOL     OW17857   0.319   6.167   6.512
 5653SOL    HW117858   0.387   6.097   6.490
 5653SOL    HW217859   0.308   6.229   6.435
 5654SOL     OW17860   6.377   6.816   5.560
 5654SOL    HW117861   6.415   6.862   5.480
 5654SOL    HW217862   6.451   6.771   5.610
 5655SOL     OW17863   1.341   3.176   4.782
 5655SOL    HW117864   1.364   3.105   4.715
 5655SOL    HW217865   1.297   3.253   4.736
 5656SOL     OW17866   0.635   3.051   0.633
 5656SOL    HW117867   0.706   2.981   0.645
 5656SOL    HW217868   0.672   3.126   0.577
 5657SOL     OW17869   5.594   0.473   0.458
 5657SOL    HW117870   5.509   0.509   0.418
 5657SOL    HW217871   5.573   0.397   0.519
 5658SOL     OW17872   3.202   5.443   5.724
 5658SOL    HW117873   3.233   5.350   5.742
 5658SOL    HW217874   3.150   5.445   5.638
 5659SOL     OW17875   4.050   3.702   3.402
 5659SOL    HW117876   4.134   3.720   3.351
 5659SOL    HW217877   4.015   3.787   3.440
 5660SOL     OW17878   5.615   0.203   5.506
 5660SOL    HW117879   5.582   0.264   5.434
 5660SOL    HW217880   5.711   0.180   5.488
 5661SOL     OW17881   0.721   3.967   5.141
 5661SOL    HW117882   0.661   4.044   5.160
 5661SOL    HW217883   0.812   3.985   5.180
 5662SOL     OW17884   2.432   5.547   3.295
 5662SOL    HW117885   2.348   5.563   3.347
 5662SOL    HW217886   2.455   5.450   3.298
 5663SOL     OW17887   2.412   3.094   6.753
 5663SOL    HW117888   2.467   3.023   6.796
 5663SOL    HW217889   2.325   3.055   6.722
 5664SOL     OW17890   6.767   4.208   5.242
 5664SOL    HW117891   6.756   4.123   5.192
 5664SOL    HW217892   6.809   4.277   5.182
 5665SOL     OW17893   1.196   1.813   6.564
 5665SOL    HW117894   1.206   1.842   6.659
 5665SOL    HW217895   1.099   1.800   6.543
 5666SOL     OW17896   6.120   5.903   1.177
 5666SOL    HW117897   6.142   5.874   1.270
 5666SOL    HW217898   6.097   6.000   1.176
 5667SOL     OW17899   1.249   4.389   3.862
 5667SOL    HW117900   1.291   4.448   3.931
 5667SOL    HW217901   1.183   4.442   3.808
 5668SOL     OW17902   4.786   2.203   5.147
 5668SOL    HW117903   4.701   2.162   5.113
 5668SOL    HW217904   4.783   2.301   5.133
 5669SOL     OW17905   0.872   2.752   0.040
 5669SOL    HW117906   0.776   2.760   0.068
 5669SOL    HW217907   0.925   2.826   0.081
 5670SOL     OW17908   6.576   3.019   3.612
 5670SOL    HW117909   6.482   3.002   3.643
 5670SOL    HW217910   6.580   3.014   3.512
 5671SOL     OW17911   0.919   5.950   6.532
 5671SOL    HW117912   0.929   5.901   6.445
 5671SOL    HW217913   0.845   6.016   6.525
 5672SOL     OW17914   4.235   4.496   6.604
 5672SOL    HW117915   4.150   4.477   6.556
 5672SOL    HW217916   4.238   4.443   6.689
 5673SOL     OW17917   0.764   6.552   1.735
 5673SOL    HW117918   0.800   6.643   1.750
 5673SOL    HW217919   0.700   6.553   1.658
 5674SOL     OW17920   6.333   4.506   4.646
 5674SOL    HW117921   6.241   4.522   4.610
 5674SOL    HW217922   6.358   4.410   4.634
 5675SOL     OW17923   5.018   2.362   5.731
 5675SOL    HW117924   4.930   2.320   5.710
 5675SOL    HW217925   5.029   2.368   5.830
 5676SOL     OW17926   2.035   2.344   2.380
 5676SOL    HW117927   1.980   2.261   2.368
 5676SOL    HW217928   2.061   2.352   2.477
 5677SOL     OW17929   0.542   1.922   3.078
 5677SOL    HW117930   0.514   1.912   2.983
 5677SOL    HW217931   0.603   2.000   3.087
 5678SOL     OW17932   3.556   6.408   2.504
 5678SOL    HW117933   3.581   6.312   2.493
 5678SOL    HW217934   3.462   6.415   2.538
 5679SOL     OW17935   0.892   0.916   3.906
 5679SOL    HW117936   0.914   1.005   3.865
 5679SOL    HW217937   0.862   0.930   4.000
 5680SOL     OW17938   1.523   5.672   0.472
 5680SOL    HW117939   1.559   5.603   0.535
 5680SOL    HW217940   1.543   5.644   0.378
 5681SOL     OW17941   0.276   3.531   6.667
 5681SOL    HW117942   0.311   3.604   6.726
 5681SOL    HW217943   0.282   3.443   6.715
 5682SOL     OW17944   2.301   4.435   5.925
 5682SOL    HW117945   2.374   4.490   5.885
 5682SOL    HW217946   2.327   4.338   5.921
 5683SOL     OW17947   3.608   0.814   0.319
 5683SOL    HW117948   3.554   0.731   0.333
 5683SOL    HW217949   3.695   0.791   0.276
 5684SOL     OW17950   3.425   2.909   4.634
 5684SOL    HW117951   3.329   2.915   4.608
 5684SOL    HW217952   3.432   2.905   4.734
 5685SOL     OW17953   1.792   3.174   2.617
 5685SOL    HW117954   1.797   3.107   2.543
 5685SOL    HW217955   1.761   3.262   2.581
 5686SOL     OW17956   2.785   6.643   6.114
 5686SOL    HW117957   2.709   6.630   6.177
 5686SOL    HW217958   2.776   6.579   6.037
 5687SOL     OW17959   1.037   4.732   5.837
 5687SOL    HW117960   1.130   4.696   5.833
 5687SOL    HW217961   0.982   4.690   5.764
 5688SOL     OW17962   6.835   1.878   0.004
 5688SOL    HW117963   6.840   1.952   6.959
 5688SOL    HW217964   6.768   1.810   6.994
 5689SOL     OW17965   4.069   0.638   0.631
 5689SOL    HW117966   3.999   0.710   0.629
 5689SOL    HW217967   4.146   0.668   0.688
 5690SOL     OW17968   2.415   6.124   0.796
 5690SOL    HW117969   2.341   6.084   0.850
 5690SOL    HW217970   2.416   6.081   0.705
 5691SOL     OW17971   2.912   6.531   1.961
 5691SOL    HW117972   2.937   6.557   1.868
 5691SOL    HW217973   2.913   6.612   2.020
 5692SOL     OW17974   6.928   3.404   6.103
 5692SOL    HW117975   7.017   3.447   6.090
 5692SOL    HW217976   6.921   3.368   6.196
 5693SOL     OW17977   5.754   2.419   2.392
 5693SOL    HW117978   5.661   2.453   2.378
 5693SOL    HW217979   5.800   2.476   2.460
 5694SOL     OW17980   1.345   2.386   3.719
 5694SOL    HW117981   1.263   2.442   3.726
 5694SOL    HW217982   1.379   2.365   3.811
 5695SOL     OW17983   1.543   2.621   3.367
 5695SOL    HW117984   1.641   2.605   3.351
 5695SOL    HW217985   1.499   2.534   3.388
 5696SOL     OW17986   1.767   0.702   3.126
 5696SOL    HW117987   1.804   0.784   3.084
 5696SOL    HW217988   1.685   0.725   3.178
 5697SOL     OW17989   6.243   2.827   1.500
 5697SOL    HW117990   6.184   2.906   1.519
 5697SOL    HW217991   6.335   2.858   1.477
 5698SOL     OW17992   0.449   3.158   3.045
 5698SOL    HW117993   0.367   3.101   3.057
 5698SOL    HW217994   0.422   3.250   3.017
 5699SOL     OW17995   6.552   2.458   2.770
 5699SOL    HW117996   6.462   2.453   2.726
 5699SOL    HW217997   6.557   2.389   2.842
 5700SOL     OW17998   6.715   6.813   4.356
 5700SOL    HW117999   6.705   6.834   4.454
 5700SOL    HW218000   6.642   6.750   4.329
 5701SOL     OW18001   1.352   6.811   2.965
 5701SOL    HW118002   1.386   6.803   3.059
 5701SOL    HW218003   1.289   6.889   2.959
 5702SOL     OW18004   2.211   6.666   5.365
 5702SOL    HW118005   2.235   6.571   5.345
 5702SOL    HW218006   2.214   6.681   5.463
 5703SOL     OW18007   5.775   4.752   1.895
 5703SOL    HW118008   5.809   4.748   1.989
 5703SOL    HW218009   5.687   4.705   1.890
 5704SOL     OW18010   4.017   5.630   2.049
 5704SOL    HW118011   3.953   5.640   2.125
 5704SOL    HW218012   4.040   5.533   2.038
 5705SOL     OW18013   4.712   1.045   1.253
 5705SOL    HW118014   4.662   0.964   1.286
 5705SOL    HW218015   4.810   1.028   1.258
 5706SOL     OW18016   0.399   2.805   0.263
 5706SOL    HW118017   0.467   2.787   0.334
 5706SOL    HW218018   0.345   2.885   0.288
 5707SOL     OW18019   6.821   6.857   0.402
 5707SOL    HW118020   6.916   6.831   0.388
 5707SOL    HW218021   6.779   6.797   0.470
 5708SOL     OW18022   5.010   5.891   1.224
 5708SOL    HW118023   5.064   5.835   1.288
 5708SOL    HW218024   4.977   5.972   1.272
 5709SOL     OW18025   1.838   0.449   3.242
 5709SOL    HW118026   1.855   0.379   3.172
 5709SOL    HW218027   1.834   0.538   3.198
 5710SOL     OW18028   2.628   3.007   6.528
 5710SOL    HW118029   2.561   3.060   6.581
 5710SOL    HW218030   2.615   2.910   6.546
 5711SOL     OW18031   5.383   1.193   2.787
 5711SOL    HW118032   5.412   1.284   2.757
 5711SOL    HW218033   5.462   1.143   2.822
 5712SOL     OW18034   0.978   5.839   6.260
 5712SOL    HW118035   1.009   5.745   6.267
 5712SOL    HW218036   1.030   5.886   6.188
 5713SOL     OW18037   2.192   2.765   1.506
 5713SOL    HW118038   2.259   2.811   1.563
 5713SOL    HW218039   2.104   2.760   1.554
 5714SOL     OW18040   0.569   5.639   6.243
 5714SOL    HW118041   0.640   5.686   6.190
 5714SOL    HW218042   0.588   5.649   6.341
 5715SOL     OW18043   0.990   6.438   3.076
 5715SOL    HW118044   1.049   6.380   3.019
 5715SOL    HW218045   1.024   6.532   3.074
 5716SOL     OW18046   1.706   4.702   0.121
 5716SOL    HW118047   1.644   4.728   0.195
 5716SOL    HW218048   1.792   4.667   0.159
 5717SOL     OW18049   1.693   6.126   1.032
 5717SOL    HW118050   1.702   6.028   1.046
 5717SOL    HW218051   1.722   6.174   1.115
 5718SOL     OW18052   1.204   3.363   6.134
 5718SOL    HW118053   1.164   3.373   6.043
 5718SOL    HW218054   1.295   3.405   6.136
 5719SOL     OW18055   2.701   1.119   6.040
 5719SOL    HW118056   2.641   1.151   6.113
 5719SOL    HW218057   2.645   1.088   5.963
 5720SOL     OW18058   0.924   5.191   4.255
 5720SOL    HW118059   0.958   5.277   4.292
 5720SOL    HW218060   0.953   5.183   4.159
 5721SOL     OW18061   0.206   4.128   0.946
 5721SOL    HW118062   0.137   4.090   1.007
 5721SOL    HW218063   0.188   4.097   0.852
 5722SOL     OW18064   5.925   1.573   5.194
 5722SOL    HW118065   5.945   1.665   5.160
 5722SOL    HW218066   5.925   1.574   5.294
 5723SOL     OW18067   4.566   3.498   6.562
 5723SOL    HW118068   4.632   3.537   6.498
 5723SOL    HW218069   4.477   3.490   6.517
 5724SOL     OW18070   4.304   2.724   5.370
 5724SOL    HW118071   4.250   2.763   5.445
 5724SOL    HW218072   4.247   2.662   5.316
 5725SOL     OW18073   5.955   5.952   3.768
 5725SOL    HW118074   5.921   6.045   3.775
 5725SOL    HW218075   6.029   5.938   3.835
 5726SOL     OW18076   6.910   4.230   4.649
 5726SOL    HW118077   6.944   4.149   4.696
 5726SOL    HW218078   6.840   4.274   4.705
 5727SOL     OW18079   1.056   2.609   3.710
 5727SOL    HW118080   1.000   2.528   3.696
 5727SOL    HW218081   1.003   2.691   3.685
 5728SOL     OW18082   4.331   1.825   6.613
 5728SOL    HW118083   4.331   1.775   6.699
 5728SOL    HW218084   4.237   1.851   6.590
 5729SOL     OW18085   0.891   1.477   0.352
 5729SOL    HW118086   0.973   1.458   0.297
 5729SOL    HW218087   0.872   1.399   0.411
 5730SOL     OW18088   4.382   5.256   5.590
 5730SOL    HW118089   4.359   5.345   5.550
 5730SOL    HW218090   4.454   5.267   5.658
 5731SOL     OW18091   1.551   6.884   3.427
 5731SOL    HW118092   1.524   6.968   3.475
 5731SOL    HW218093   1.488   6.811   3.452
 5732SOL     OW18094   6.475   4.949   5.252
 5732SOL    HW118095   6.519   4.933   5.341
 5732SOL    HW218096   6.538   5.000   5.194
 5733SOL     OW18097   3.668   0.560   5.468
 5733SOL    HW118098   3.658   0.542   5.370
 5733SOL    HW218099   3.707   0.651   5.481
 5734SOL     OW18100   1.190   6.077   5.995
 5734SOL    HW118101   1.257   6.149   6.010
 5734SOL    HW218102   1.191   6.013   6.071
 5735SOL     OW18103   4.097   1.776   2.307
 5735SOL    HW118104   4.037   1.760   2.228
 5735SOL    HW218105   4.046   1.761   2.391
 5736SOL     OW18106   6.260   4.586   1.115
 5736SOL    HW118107   6.337   4.587   1.052
 5736SOL    HW218108   6.290   4.553   1.204
 5737SOL     OW18109   4.691   5.496   6.572
 5737SOL    HW118110   4.654   5.441   6.497
 5737SOL    HW218111   4.749   5.439   6.630
 5738SOL     OW18112   2.950   2.309   6.188
 5738SOL    HW118113   3.037   2.353   6.168
 5738SOL    HW218114   2.883   2.377   6.216
 5739SOL     OW18115   0.985   6.820   5.349
 5739SOL    HW118116   1.075   6.840   5.387
 5739SOL    HW218117   0.914   6.857   5.409
 5740SOL     OW18118   3.904   3.600   0.928
 5740SOL    HW118119   3.822   3.640   0.968
 5740SOL    HW218120   3.903   3.614   0.829
 5741SOL     OW18121   6.199   4.120   4.734
 5741SOL    HW118122   6.185   4.038   4.789
 5741SOL    HW218123   6.193   4.201   4.793
 5742SOL     OW18124   4.605   6.609   2.195
 5742SOL    HW118125   4.660   6.579   2.273
 5742SOL    HW218126   4.509   6.613   2.221
 5743SOL     OW18127   2.662   5.762   5.213
 5743SOL    HW118128   2.667   5.705   5.131
 5743SOL    HW218129   2.755   5.782   5.245
 5744SOL     OW18130   5.004   1.276   0.939
 5744SOL    HW118131   5.013   1.220   0.856
 5744SOL    HW218132   5.016   1.372   0.916
 5745SOL     OW18133   2.120   1.317   3.629
 5745SOL    HW118134   2.171   1.233   3.612
 5745SOL    HW218135   2.081   1.314   3.722
 5746SOL     OW18136   5.316   6.768   1.402
 5746SOL    HW118137   5.241   6.832   1.417
 5746SOL    HW218138   5.325   6.707   1.481
 5747SOL     OW18139   0.533   4.987   2.316
 5747SOL    HW118140   0.541   5.067   2.374
 5747SOL    HW218141   0.506   5.015   2.223
 5748SOL     OW18142   1.110   0.042   0.734
 5748SOL    HW118143   1.037   6.995   0.738
 5748SOL    HW218144   1.077   0.124   0.688
 5749SOL     OW18145   1.396   6.270   4.715
 5749SOL    HW118146   1.403   6.201   4.787
 5749SOL    HW218147   1.300   6.284   4.691
 5750SOL     OW18148   6.576   6.327   4.671
 5750SOL    HW118149   6.606   6.413   4.712
 5750SOL    HW218150   6.488   6.300   4.711
 5751SOL     OW18151   2.257   2.976   4.747
 5751SOL    HW118152   2.314   3.001   4.826
 5751SOL    HW218153   2.299   2.899   4.699
 5752SOL     OW18154   6.388   0.436   0.464
 5752SOL    HW118155   6.354   0.515   0.516
 5752SOL    HW218156   6.407   0.464   0.370
 5753SOL     OW18157   3.815   3.484   4.342
 5753SOL    HW118158   3.906   3.473   4.304
 5753SOL    HW218159   3.817   3.552   4.416
 5754SOL     OW18160   0.232   5.127   1.674
 5754SOL    HW118161   0.308   5.077   1.716
 5754SOL    HW218162   0.258   5.223   1.661
 5755SOL     OW18163   2.434   2.383   6.410
 5755SOL    HW118164   2.515   2.386   6.468
 5755SOL    HW218165   2.354   2.412   6.462
 5756SOL     OW18166   6.049   0.523   3.277
 5756SOL    HW118167   6.122   0.463   3.245
 5756SOL    HW218168   6.023   0.498   3.370
 5757SOL     OW18169   6.975   6.500   3.296
 5757SOL    HW118170   6.950   6.596   3.284
 5757SOL    HW218171   6.957   6.449   3.212
 5758SOL     OW18172   2.582   0.924   4.836
 5758SOL    HW118173   2.675   0.889   4.833
 5758SOL    HW218174   2.532   0.894   4.755
 5759SOL     OW18175   4.778   1.358   6.834
 5759SOL    HW118176   4.829   1.272   6.842
 5759SOL    HW218177   4.761   1.377   6.737
 5760SOL     OW18178   6.869   3.448   1.097
 5760SOL    HW118179   6.883   3.414   1.190
 5760SOL    HW218180   6.781   3.415   1.063
 5761SOL     OW18181   6.118   5.560   6.791
 5761SOL    HW118182   6.161   5.647   6.815
 5761SOL    HW218183   6.156   5.488   6.848
 5762SOL     OW18184   4.826   3.947   0.240
 5762SOL    HW118185   4.748   4.007   0.252
 5762SOL    HW218186   4.820   3.901   0.152
 5763SOL     OW18187   6.500   6.377   0.514
 5763SOL    HW118188   6.563   6.435   0.463
 5763SOL    HW218189   6.540   6.286   0.527
 5764SOL     OW18190   5.328   5.179   5.512
 5764SOL    HW118191   5.351   5.200   5.417
 5764SOL    HW218192   5.315   5.264   5.563
 5765SOL     OW18193   6.330   2.598   0.399
 5765SOL    HW118194   6.329   2.608   0.299
 5765SOL    HW218195   6.422   2.571   0.428
 5766SOL     OW18196   1.881   1.939   6.872
 5766SOL    HW118197   1.908   1.997   6.794
 5766SOL    HW218198   1.790   1.967   6.903
 5767SOL     OW18199   1.063   1.158   0.135
 5767SOL    HW118200   1.101   1.137   0.225
 5767SOL    HW218201   1.122   1.224   0.088
 5768SOL     OW18202   1.669   6.366   3.853
 5768SOL    HW118203   1.679   6.453   3.804
 5768SOL    HW218204   1.714   6.293   3.802
 5769SOL     OW18205   2.787   6.098   4.643
 5769SOL    HW118206   2.784   6.072   4.547
 5769SOL    HW218207   2.851   6.174   4.655
 5770SOL     OW18208   6.107   5.954   0.438
 5770SOL    HW118209   6.029   5.896   0.413
 5770SOL    HW218210   6.166   5.965   0.358
 5771SOL     OW18211   1.321   6.982   3.848
 5771SOL    HW118212   1.330   6.887   3.818
 5771SOL    HW218213   1.411   7.020   3.867
 5772SOL     OW18214   5.686   1.970   1.413
 5772SOL    HW118215   5.758   1.959   1.345
 5772SOL    HW218216   5.610   2.022   1.373
 5773SOL     OW18217   4.010   0.447   2.941
 5773SOL    HW118218   4.063   0.379   2.991
 5773SOL    HW218219   4.073   0.510   2.894
 5774SOL     OW18220   2.612   6.109   3.561
 5774SOL    HW118221   2.571   6.074   3.477
 5774SOL    HW218222   2.561   6.189   3.592
 5775SOL     OW18223   1.659   0.809   2.161
 5775SOL    HW118224   1.688   0.864   2.239
 5775SOL    HW218225   1.623   0.721   2.194
 5776SOL     OW18226   0.133   0.626   4.723
 5776SOL    HW118227   0.117   0.708   4.669
 5776SOL    HW218228   0.046   0.580   4.741
 5777SOL     OW18229   6.694   0.043   5.143
 5777SOL    HW118230   6.679   6.973   5.105
 5777SOL    HW218231   6.757   0.037   5.220
 5778SOL     OW18232   1.752   0.815   1.332
 5778SOL    HW118233   1.724   0.773   1.246
 5778SOL    HW218234   1.678   0.875   1.365
 5779SOL     OW18235   4.225   3.082   0.789
 5779SOL    HW118236   4.268   3.148   0.851
 5779SOL    HW218237   4.285   3.002   0.779
 5780SOL     OW18238   6.007   5.779   3.582
 5780SOL    HW118239   5.925   5.748   3.533
 5780SOL    HW218240   5.979   5.840   3.656
 5781SOL     OW18241   7.006   4.373   4.449
 5781SOL    HW118242   6.974   4.296   4.504
 5781SOL    HW218243   0.076   4.354   4.414
 5782SOL     OW18244   1.206   1.606   0.374
 5782SOL    HW118245   1.189   1.655   0.289
 5782SOL    HW218246   1.285   1.648   0.421
 5783SOL     OW18247   2.120   0.504   1.536
 5783SOL    HW118248   2.066   0.444   1.595
 5783SOL    HW218249   2.119   0.597   1.574
 5784SOL     OW18250   6.627   5.813   0.072
 5784SOL    HW118251   6.648   5.716   0.061
 5784SOL    HW218252   6.586   5.829   0.162
 5785SOL     OW18253   1.939   1.703   0.706
 5785SOL    HW118254   2.005   1.778   0.713
 5785SOL    HW218255   1.868   1.727   0.640
 5786SOL     OW18256   0.294   4.256   0.447
 5786SOL    HW118257   0.300   4.254   0.347
 5786SOL    HW218258   0.216   4.313   0.474
 5787SOL     OW18259   3.996   1.442   5.039
 5787SOL    HW118260   4.007   1.528   5.090
 5787SOL    HW218261   3.991   1.462   4.941
 5788SOL     OW18262   3.183   1.806   1.533
 5788SOL    HW118263   3.120   1.801   1.455
 5788SOL    HW218264   3.250   1.878   1.516
 5789SOL     OW18265   2.865   4.403   0.372
 5789SOL    HW118266   2.838   4.321   0.423
 5789SOL    HW218267   2.881   4.378   0.276
 5790SOL     OW18268   0.763   4.683   4.819
 5790SOL    HW118269   0.788   4.621   4.894
 5790SOL    HW218270   0.838   4.686   4.752
 5791SOL     OW18271   3.181   1.599   2.540
 5791SOL    HW118272   3.247   1.595   2.466
 5791SOL    HW218273   3.103   1.656   2.511
 5792SOL     OW18274   5.978   2.983   2.642
 5792SOL    HW118275   5.947   3.078   2.640
 5792SOL    HW218276   5.948   2.936   2.559
 5793SOL     OW18277   5.041   0.978   3.724
 5793SOL    HW118278   4.952   0.987   3.770
 5793SOL    HW218279   5.097   1.059   3.744
 5794SOL     OW18280   2.022   0.855   0.126
 5794SOL    HW118281   1.942   0.889   0.175
 5794SOL    HW218282   2.049   0.767   0.163
 5795SOL     OW18283   6.648   0.122   6.588
 5795SOL    HW118284   6.669   0.214   6.556
 5795SOL    HW218285   6.707   0.099   6.665
 5796SOL     OW18286   4.626   1.064   5.956
 5796SOL    HW118287   4.670   1.131   6.015
 5796SOL    HW218288   4.612   1.104   5.865
 5797SOL     OW18289   4.600   2.337   0.362
 5797SOL    HW118290   4.673   2.383   0.311
 5797SOL    HW218291   4.520   2.397   0.367
 5798SOL     OW18292   0.219   5.409   4.391
 5798SOL    HW118293   0.293   5.345   4.410
 5798SOL    HW218294   0.190   5.399   4.296
 5799SOL     OW18295   0.530   0.925   3.274
 5799SOL    HW118296   0.513   1.003   3.335
 5799SOL    HW218297   0.514   0.840   3.324
 5800SOL     OW18298   6.045   6.497   1.669
 5800SOL    HW118299   6.041   6.442   1.585
 5800SOL    HW218300   6.090   6.445   1.741
 5801SOL     OW18301   1.718   2.935   3.269
 5801SOL    HW118302   1.748   2.880   3.347
 5801SOL    HW218303   1.730   2.882   3.185
 5802SOL     OW18304   0.108   3.413   2.804
 5802SOL    HW118305   0.093   3.421   2.902
 5802SOL    HW218306   0.139   3.500   2.767
 5803SOL     OW18307   2.016   5.760   1.988
 5803SOL    HW118308   2.068   5.837   2.024
 5803SOL    HW218309   2.079   5.684   1.969
 5804SOL     OW18310   0.217   4.971   3.647
 5804SOL    HW118311   0.289   4.951   3.580
 5804SOL    HW218312   0.160   4.889   3.660
 5805SOL     OW18313   2.268   3.644   0.685
 5805SOL    HW118314   2.276   3.668   0.588
 5805SOL    HW218315   2.214   3.713   0.733
 5806SOL     OW18316   6.298   4.914   4.878
 5806SOL    HW118317   6.308   4.843   4.947
 5806SOL    HW218318   6.311   4.875   4.787
 5807SOL     OW18319   0.955   4.269   0.788
 5807SOL    HW118320   0.901   4.257   0.871
 5807SOL    HW218321   1.044   4.308   0.811
 5808SOL     OW18322   6.297   5.247   4.080
 5808SOL    HW118323   6.315   5.149   4.084
 5808SOL    HW218324   6.349   5.288   4.006
 5809SOL     OW18325   6.356   2.155   5.103
 5809SOL    HW118326   6.363   2.058   5.077
 5809SOL    HW218327   6.317   2.162   5.195
 5810SOL     OW18328   4.512   1.483   5.303
 5810SOL    HW118329   4.525   1.550   5.230
 5810SOL    HW218330   4.523   1.391   5.266
 5811SOL     OW18331   3.111   0.578   4.977
 5811SOL    HW118332   3.116   0.556   4.879
 5811SOL    HW218333   3.203   0.602   5.010
 5812SOL     OW18334   5.874   3.252   5.037
 5812SOL    HW118335   5.843   3.246   4.942
 5812SOL    HW218336   5.962   3.206   5.046
 5813SOL     OW18337   1.694   1.794   1.515
 5813SOL    HW118338   1.730   1.832   1.600
 5813SOL    HW218339   1.752   1.719   1.484
 5814SOL     OW18340   6.446   3.823   2.183
 5814SOL    HW118341   6.463   3.727   2.205
 5814SOL    HW218342   6.518   3.856   2.122
 5815SOL     OW18343   4.076   1.672   4.170
 5815SOL    HW118344   4.051   1.638   4.261
 5815SOL    HW218345   4.106   1.595   4.113
 5816SOL     OW18346   4.903   4.574   0.423
 5816SOL    HW118347   4.970   4.520   0.475
 5816SOL    HW218348   4.934   4.669   0.419
 5817SOL     OW18349   6.135   4.293   5.850
 5817SOL    HW118350   6.117   4.355   5.773
 5817SOL    HW218351   6.081   4.321   5.929
 5818SOL     OW18352   6.583   5.305   5.357
 5818SOL    HW118353   6.615   5.368   5.428
 5818SOL    HW218354   6.492   5.332   5.326
 5819SOL     OW18355   3.553   0.382   0.084
 5819SOL    HW118356   3.485   0.450   0.110
 5819SOL    HW218357   3.607   0.417   0.007
 5820SOL     OW18358   4.694   4.617   3.346
 5820SOL    HW118359   4.654   4.593   3.435
 5820SOL    HW218360   4.793   4.598   3.348
 5821SOL     OW18361   0.220   0.511   2.079
 5821SOL    HW118362   0.254   0.588   2.026
 5821SOL    HW218363   0.256   0.515   2.172
 5822SOL     OW18364   1.331   2.654   1.559
 5822SOL    HW118365   1.331   2.558   1.531
 5822SOL    HW218366   1.237   2.687   1.569
 5823SOL     OW18367   2.794   0.280   4.606
 5823SOL    HW118368   2.705   0.290   4.562
 5823SOL    HW218369   2.789   0.315   4.699
 5824SOL     OW18370   6.944   5.525   2.419
 5824SOL    HW118371   0.008   5.500   2.465
 5824SOL    HW218372   6.887   5.579   2.481
 5825SOL     OW18373   6.885   0.739   4.913
 5825SOL    HW118374   6.957   0.803   4.885
 5825SOL    HW218375   6.920   0.645   4.908
 5826SOL     OW18376   0.742   5.233   5.927
 5826SOL    HW118377   0.708   5.292   5.854
 5826SOL    HW218378   0.712   5.269   6.015
 5827SOL     OW18379   1.759   4.005   5.236
 5827SOL    HW118380   1.851   3.966   5.241
 5827SOL    HW218381   1.691   3.932   5.233
 5828SOL     OW18382   6.094   2.215   1.666
 5828SOL    HW118383   6.088   2.115   1.675
 5828SOL    HW218384   6.172   2.248   1.718
 5829SOL     OW18385   1.312   0.615   4.045
 5829SOL    HW118386   1.366   0.531   4.058
 5829SOL    HW218387   1.217   0.597   4.069
 5830SOL     OW18388   5.430   6.763   5.706
 5830SOL    HW118389   5.481   6.822   5.643
 5830SOL    HW218390   5.418   6.811   5.794
 5831SOL     OW18391   1.034   1.039   5.563
 5831SOL    HW118392   1.089   1.107   5.610
 5831SOL    HW218393   0.950   1.081   5.529
 5832SOL     OW18394   3.282   4.975   6.794
 5832SOL    HW118395   3.206   5.036   6.814
 5832SOL    HW218396   3.249   4.894   6.747
 5833SOL     OW18397   3.603   4.132   5.098
 5833SOL    HW118398   3.577   4.227   5.116
 5833SOL    HW218399   3.592   4.112   5.001
 5834SOL     OW18400   0.180   2.619   0.211
 5834SOL    HW118401   0.187   2.592   0.115
 5834SOL    HW218402   0.248   2.689   0.231
 5835SOL     OW18403   5.373   2.964   3.293
 5835SOL    HW118404   5.387   2.894   3.223
 5835SOL    HW218405   5.458   3.014   3.308
 5836SOL     OW18406   2.758   0.126   2.089
 5836SOL    HW118407   2.670   0.104   2.130
 5836SOL    HW218408   2.831   0.080   2.140
 5837SOL     OW18409   3.209   3.888   0.269
 5837SOL    HW118410   3.176   3.982   0.265
 5837SOL    HW218411   3.307   3.886   0.248
 5838SOL     OW18412   2.980   1.731   0.750
 5838SOL    HW118413   3.039   1.661   0.790
 5838SOL    HW218414   3.007   1.821   0.784
 5839SOL     OW18415   1.075   2.042   2.427
 5839SOL    HW118416   1.091   1.986   2.346
 5839SOL    HW218417   0.978   2.065   2.433
 5840SOL     OW18418   1.073   4.783   6.270
 5840SOL    HW118419   1.057   4.707   6.332
 5840SOL    HW218420   1.128   4.753   6.193
 5841SOL     OW18421   5.021   1.872   2.300
 5841SOL    HW118422   4.929   1.890   2.267
 5841SOL    HW218423   5.025   1.887   2.399
 5842SOL     OW18424   5.284   3.266   1.527
 5842SOL    HW118425   5.208   3.243   1.588
 5842SOL    HW218426   5.249   3.315   1.448
 5843SOL     OW18427   1.705   4.332   2.602
 5843SOL    HW118428   1.803   4.342   2.582
 5843SOL    HW218429   1.685   4.236   2.624
 5844SOL     OW18430   1.735   5.952   5.889
 5844SOL    HW118431   1.782   6.024   5.839
 5844SOL    HW218432   1.800   5.903   5.947
 5845SOL     OW18433   0.259   0.247   2.576
 5845SOL    HW118434   0.296   0.158   2.603
 5845SOL    HW218435   0.316   0.286   2.504
 5846SOL     OW18436   5.976   3.240   5.738
 5846SOL    HW118437   5.980   3.193   5.826
 5846SOL    HW218438   5.954   3.337   5.753
 5847SOL     OW18439   2.948   2.109   1.906
 5847SOL    HW118440   2.919   2.169   1.981
 5847SOL    HW218441   2.994   2.028   1.944
 5848SOL     OW18442   1.251   5.574   2.792
 5848SOL    HW118443   1.289   5.659   2.755
 5848SOL    HW218444   1.288   5.496   2.743
 5849SOL     OW18445   0.975   0.424   5.410
 5849SOL    HW118446   0.998   0.337   5.454
 5849SOL    HW218447   0.930   0.483   5.476
 5850SOL     OW18448   6.648   3.607   1.894
 5850SOL    HW118449   6.707   3.629   1.971
 5850SOL    HW218450   6.552   3.609   1.923
 5851SOL     OW18451   5.165   3.082   2.791
 5851SOL    HW118452   5.075   3.088   2.748
 5851SOL    HW218453   5.185   2.987   2.814
 5852SOL     OW18454   5.335   6.509   3.408
 5852SOL    HW118455   5.275   6.588   3.398
 5852SOL    HW218456   5.311   6.460   3.492
 5853SOL     OW18457   3.191   5.849   4.418
 5853SOL    HW118458   3.093   5.868   4.421
 5853SOL    HW218459   3.207   5.754   4.445
 5854SOL     OW18460   4.364   4.305   6.132
 5854SOL    HW118461   4.283   4.279   6.185
 5854SOL    HW218462   4.367   4.405   6.123
 5855SOL     OW18463   0.632   1.177   5.014
 5855SOL    HW118464   0.549   1.185   4.958
 5855SOL    HW218465   0.707   1.225   4.968
 5856SOL     OW18466   1.967   6.132   3.777
 5856SOL    HW118467   1.931   6.041   3.794
 5856SOL    HW218468   1.990   6.141   3.680
 5857SOL     OW18469   5.965   2.515   6.163
 5857SOL    HW118470   6.015   2.526   6.077
 5857SOL    HW218471   5.866   2.517   6.145
 5858SOL     OW18472   2.798   2.247   3.008
 5858SOL    HW118473   2.754   2.304   2.939
 5858SOL    HW218474   2.763   2.153   3.001
 5859SOL     OW18475   6.136   6.376   1.877
 5859SOL    HW118476   6.234   6.369   1.893
 5859SOL    HW218477   6.093   6.428   1.950
 5860SOL     OW18478   0.394   3.605   2.505
 5860SOL    HW118479   0.435   3.629   2.417
 5860SOL    HW218480   0.344   3.518   2.496
 5861SOL     OW18481   4.611   1.620   4.337
 5861SOL    HW118482   4.633   1.710   4.375
 5861SOL    HW218483   4.669   1.551   4.380
 5862SOL     OW18484   5.893   5.735   1.174
 5862SOL    HW118485   5.954   5.814   1.172
 5862SOL    HW218486   5.849   5.730   1.264
 5863SOL     OW18487   3.344   2.080   5.127
 5863SOL    HW118488   3.410   2.094   5.201
 5863SOL    HW218489   3.276   2.154   5.129
 5864SOL     OW18490   4.090   3.764   2.321
 5864SOL    HW118491   4.046   3.760   2.410
 5864SOL    HW218492   4.155   3.840   2.319
 5865SOL     OW18493   5.876   0.165   5.176
 5865SOL    HW118494   5.876   0.262   5.149
 5865SOL    HW218495   5.913   0.110   5.101
 5866SOL     OW18496   4.155   4.316   0.548
 5866SOL    HW118497   4.109   4.283   0.630
 5866SOL    HW218498   4.088   4.355   0.485
 5867SOL     OW18499   1.955   3.532   1.175
 5867SOL    HW118500   1.949   3.512   1.272
 5867SOL    HW218501   1.863   3.540   1.137
 5868SOL     OW18502   0.693   1.393   5.529
 5868SOL    HW118503   0.720   1.302   5.500
 5868SOL    HW218504   0.744   1.462   5.478
 5869SOL     OW18505   1.919   6.554   3.147
 5869SOL    HW118506   1.838   6.613   3.144
 5869SOL    HW218507   1.986   6.586   3.080
 5870SOL     OW18508   4.302   6.346   4.669
 5870SOL    HW118509   4.297   6.284   4.590
 5870SOL    HW218510   4.318   6.293   4.752
 5871SOL     OW18511   3.307   3.324   1.198
 5871SOL    HW118512   3.274   3.239   1.238
 5871SOL    HW218513   3.401   3.341   1.229
 5872SOL     OW18514   4.515   6.136   1.055
 5872SOL    HW118515   4.502   6.039   1.078
 5872SOL    HW218516   4.487   6.192   1.133
 5873SOL     OW18517   3.478   1.846   1.756
 5873SOL    HW118518   3.500   1.894   1.841
 5873SOL    HW218519   3.387   1.805   1.763
 5874SOL     OW18520   3.208   4.569   6.427
 5874SOL    HW118521   3.152   4.543   6.348
 5874SOL    HW218522   3.269   4.493   6.450
 5875SOL     OW18523   4.552   1.083   6.863
 5875SOL    HW118524   4.593   1.111   6.949
 5875SOL    HW218525   4.492   1.155   6.829
 5876SOL     OW18526   4.042   2.754   0.324
 5876SOL    HW118527   4.122   2.762   0.264
 5876SOL    HW218528   4.020   2.843   0.363
 5877SOL     OW18529   0.855   0.661   1.657
 5877SOL    HW118530   0.916   0.712   1.718
 5877SOL    HW218531   0.834   0.716   1.577
 5878SOL     OW18532   6.021   5.477   3.806
 5878SOL    HW118533   6.005   5.561   3.857
 5878SOL    HW218534   6.109   5.483   3.759
 5879SOL     OW18535   1.778   4.408   6.826
 5879SOL    HW118536   1.733   4.341   6.768
 5879SOL    HW218537   1.710   4.456   6.882
 5880SOL     OW18538   4.812   4.577   5.931
 5880SOL    HW118539   4.799   4.562   6.029
 5880SOL    HW218540   4.902   4.543   5.904
 5881SOL     OW18541   0.492   0.085   2.195
 5881SOL    HW118542   0.450   0.011   2.247
 5881SOL    HW218543   0.591   0.072   2.192
 5882SOL     OW18544   0.247   5.683   0.481
 5882SOL    HW118545   0.290   5.702   0.393
 5882SOL    HW218546   0.208   5.768   0.519
 5883SOL     OW18547   0.855   1.361   6.337
 5883SOL    HW118548   0.864   1.340   6.240
 5883SOL    HW218549   0.922   1.308   6.389
 5884SOL     OW18550   4.273   1.289   4.184
 5884SOL    HW118551   4.317   1.359   4.241
 5884SOL    HW218552   4.181   1.273   4.218
 5885SOL     OW18553   0.581   6.628   2.376
 5885SOL    HW118554   0.663   6.642   2.320
 5885SOL    HW218555   0.609   6.598   2.468
 5886SOL     OW18556   0.129   2.181   3.841
 5886SOL    HW118557   0.103   2.198   3.746
 5886SOL    HW218558   0.228   2.181   3.850
 5887SOL     OW18559   2.694   2.004   2.023
 5887SOL    HW118560   2.731   2.070   1.958
 5887SOL    HW218561   2.612   1.962   1.984
 5888SOL     OW18562   2.399   0.835   1.129
 5888SOL    HW118563   2.435   0.889   1.205
 5888SOL    HW218564   2.472   0.816   1.064
 5889SOL     OW18565   0.267   0.346   0.485
 5889SOL    HW118566   0.251   0.268   0.424
 5889SOL    HW218567   0.280   0.429   0.430
 5890SOL     OW18568   2.270   1.008   3.239
 5890SOL    HW118569   2.252   1.098   3.199
 5890SOL    HW218570   2.362   0.979   3.215
 5891SOL     OW18571   2.878   3.242   6.980
 5891SOL    HW118572   2.964   3.287   6.956
 5891SOL    HW218573   2.888   3.195   0.046
 5892SOL     OW18574   0.958   5.225   2.388
 5892SOL    HW118575   1.031   5.267   2.334
 5892SOL    HW218576   0.900   5.297   2.427
 5893SOL     OW18577   2.234   4.114   3.741
 5893SOL    HW118578   2.203   4.019   3.742
 5893SOL    HW218579   2.220   4.155   3.831
 5894SOL     OW18580   0.323   5.967   4.479
 5894SOL    HW118581   0.286   5.882   4.442
 5894SOL    HW218582   0.345   6.029   4.404
 5895SOL     OW18583   5.161   3.389   4.019
 5895SOL    HW118584   5.197   3.375   3.926
 5895SOL    HW218585   5.211   3.464   4.063
 5896SOL     OW18586   3.404   0.704   0.695
 5896SOL    HW118587   3.467   0.662   0.760
 5896SOL    HW218588   3.451   0.778   0.646
 5897SOL     OW18589   4.347   0.014   1.217
 5897SOL    HW118590   4.436   0.044   1.181
 5897SOL    HW218591   4.275   0.043   1.155
 5898SOL     OW18592   2.423   0.308   3.890
 5898SOL    HW118593   2.380   0.362   3.818
 5898SOL    HW218594   2.497   0.254   3.852
 5899SOL     OW18595   6.464   5.490   0.129
 5899SOL    HW118596   6.426   5.528   0.214
 5899SOL    HW218597   6.396   5.431   0.086
 5900SOL     OW18598   6.272   4.977   3.823
 5900SOL    HW118599   6.259   5.052   3.758
 5900SOL    HW218600   6.367   4.947   3.820
 5901SOL     OW18601   2.278   1.419   0.350
 5901SOL    HW118602   2.362   1.427   0.296
 5901SOL    HW218603   2.261   1.323   0.371
 5902SOL     OW18604   5.703   2.411   4.878
 5902SOL    HW118605   5.745   2.329   4.839
 5902SOL    HW218606   5.637   2.449   4.813
 5903SOL     OW18607   4.893   3.548   6.650
 5903SOL    HW118608   4.943   3.598   6.721
 5903SOL    HW218609   4.938   3.460   6.634
 5904SOL     OW18610   0.909   4.629   1.344
 5904SOL    HW118611   0.963   4.703   1.383
 5904SOL    HW218612   0.929   4.544   1.392
 5905SOL     OW18613   6.048   6.796   3.891
 5905SOL    HW118614   6.128   6.740   3.910
 5905SOL    HW218615   5.982   6.787   3.967
 5906SOL     OW18616   3.758   2.085   3.540
 5906SOL    HW118617   3.675   2.131   3.572
 5906SOL    HW218618   3.837   2.121   3.590
 5907SOL     OW18619   1.385   5.242   0.227
 5907SOL    HW118620   1.334   5.320   0.191
 5907SOL    HW218621   1.349   5.217   0.317
 5908SOL     OW18622   0.180   3.255   0.409
 5908SOL    HW118623   0.105   3.314   0.438
 5908SOL    HW218624   0.241   3.239   0.486
 5909SOL     OW18625   0.338   5.342   0.482
 5909SOL    HW118626   0.355   5.400   0.403
 5909SOL    HW218627   0.332   5.246   0.452
 5910SOL     OW18628   0.768   3.974   3.607
 5910SOL    HW118629   0.800   3.891   3.653
 5910SOL    HW218630   0.743   4.042   3.675
 5911SOL     OW18631   6.991   5.068   6.400
 5911SOL    HW118632   6.993   5.165   6.374
 5911SOL    HW218633   6.971   5.012   6.320
 5912SOL     OW18634   5.764   2.294   6.752
 5912SOL    HW118635   5.827   2.367   6.725
 5912SOL    HW218636   5.739   2.240   6.672
 5913SOL     OW18637   5.088   2.790   6.246
 5913SOL    HW118638   5.101   2.879   6.203
 5913SOL    HW218639   5.153   2.778   6.321
 5914SOL     OW18640   1.545   5.264   6.135
 5914SOL    HW118641   1.604   5.338   6.102
 5914SOL    HW218642   1.455   5.271   6.092
 5915SOL     OW18643   4.718   5.225   1.370
 5915SOL    HW118644   4.740   5.322   1.363
 5915SOL    HW218645   4.720   5.184   1.279
 5916SOL     OW18646   4.798   6.198   4.272
 5916SOL    HW118647   4.801   6.128   4.202
 5916SOL    HW218648   4.848   6.279   4.241
 5917SOL     OW18649   3.240   3.655   4.181
 5917SOL    HW118650   3.333   3.662   4.217
 5917SOL    HW218651   3.236   3.582   4.113
 5918SOL     OW18652   1.924   3.534   6.126
 5918SOL    HW118653   1.850   3.578   6.177
 5918SOL    HW218654   1.916   3.557   6.029
 5919SOL     OW18655   3.416   3.142   2.258
 5919SOL    HW118656   3.456   3.051   2.273
 5919SOL    HW218657   3.321   3.142   2.291
 5920SOL     OW18658   4.361   0.781   6.777
 5920SOL    HW118659   4.283   0.781   6.714
 5920SOL    HW218660   4.344   0.716   6.851
 5921SOL     OW18661   3.767   5.434   6.434
 5921SOL    HW118662   3.846   5.383   6.401
 5921SOL    HW218663   3.768   5.435   6.534
 5922SOL     OW18664   6.385   5.227   2.890
 5922SOL    HW118665   6.320   5.220   2.814
 5922SOL    HW218666   6.478   5.218   2.855
 5923SOL     OW18667   5.885   0.926   1.309
 5923SOL    HW118668   5.899   0.829   1.333
 5923SOL    HW218669   5.796   0.937   1.266
 5924SOL     OW18670   6.989   1.050   3.572
 5924SOL    HW118671   6.921   1.038   3.501
 5924SOL    HW218672   0.059   1.046   3.532
 5925SOL     OW18673   3.762   5.855   1.819
 5925SOL    HW118674   3.830   5.891   1.883
 5925SOL    HW218675   3.674   5.899   1.835
 5926SOL     OW18676   4.184   5.435   1.248
 5926SOL    HW118677   4.129   5.496   1.190
 5926SOL    HW218678   4.193   5.346   1.204
 5927SOL     OW18679   1.451   4.405   2.495
 5927SOL    HW118680   1.538   4.392   2.543
 5927SOL    HW218681   1.375   4.378   2.554
 5928SOL     OW18682   3.352   0.355   0.868
 5928SOL    HW118683   3.392   0.264   0.863
 5928SOL    HW218684   3.405   0.418   0.811
 5929SOL     OW18685   0.685   7.006   6.424
 5929SOL    HW118686   0.760   6.954   6.464
 5929SOL    HW218687   0.659   6.964   6.337
 5930SOL     OW18688   6.359   3.401   3.403
 5930SOL    HW118689   6.344   3.323   3.342
 5930SOL    HW218690   6.439   3.384   3.460
 5931SOL     OW18691   6.743   5.717   3.136
 5931SOL    HW118692   6.792   5.639   3.097
 5931SOL    HW218693   6.765   5.799   3.084
 5932SOL     OW18694   2.437   0.214   0.378
 5932SOL    HW118695   2.507   0.254   0.437
 5932SOL    HW218696   2.480   0.145   0.319
 5933SOL     OW18697   6.920   5.991   3.413
 5933SOL    HW118698   6.966   6.031   3.492
 5933SOL    HW218699   6.955   6.034   3.329
 5934SOL     OW18700   3.676   2.871   4.195
 5934SOL    HW118701   3.599   2.821   4.156
 5934SOL    HW218702   3.715   2.931   4.126
 5935SOL     OW18703   4.868   4.995   6.252
 5935SOL    HW118704   4.950   4.939   6.241
 5935SOL    HW218705   4.872   5.044   6.339
 5936SOL     OW18706   3.718   2.998   1.026
 5936SOL    HW118707   3.621   3.002   1.049
 5936SOL    HW218708   3.739   3.071   0.961
 5937SOL     OW18709   0.821   4.452   3.001
 5937SOL    HW118710   0.808   4.444   2.902
 5937SOL    HW218711   0.734   4.474   3.045
 5938SOL     OW18712   0.945   5.069   3.695
 5938SOL    HW118713   1.031   5.118   3.678
 5938SOL    HW218714   0.868   5.127   3.672
 5939SOL     OW18715   2.565   6.711   3.051
 5939SOL    HW118716   2.638   6.669   2.995
 5939SOL    HW218717   2.500   6.758   2.991
 5940SOL     OW18718   5.050   5.441   0.614
 5940SOL    HW118719   4.987   5.398   0.678
 5940SOL    HW218720   5.017   5.532   0.591
 5941SOL     OW18721   6.084   3.266   2.235
 5941SOL    HW118722   6.091   3.190   2.170
 5941SOL    HW218723   6.042   3.345   2.190
 5942SOL     OW18724   4.768   3.452   0.421
 5942SOL    HW118725   4.838   3.426   0.487
 5942SOL    HW218726   4.776   3.549   0.400
 5943SOL     OW18727   3.448   5.010   0.239
 5943SOL    HW118728   3.417   4.920   0.206
 5943SOL    HW218729   3.470   5.068   0.161
 5944SOL     OW18730   6.412   3.285   1.270
 5944SOL    HW118731   6.454   3.265   1.358
 5944SOL    HW218732   6.368   3.374   1.273
 5945SOL     OW18733   6.175   5.602   4.983
 5945SOL    HW118734   6.163   5.672   4.912
 5945SOL    HW218735   6.206   5.517   4.940
 5946SOL     OW18736   3.756   3.227   6.393
 5946SOL    HW118737   3.751   3.248   6.295
 5946SOL    HW218738   3.844   3.184   6.413
 5947SOL     OW18739   3.862   3.577   1.948
 5947SOL    HW118740   3.859   3.478   1.942
 5947SOL    HW218741   3.802   3.617   1.878
 5948SOL     OW18742   4.435   5.078   3.325
 5948SOL    HW118743   4.494   5.155   3.348
 5948SOL    HW218744   4.400   5.037   3.410
 5949SOL     OW18745   5.124   4.075   1.606
 5949SOL    HW118746   5.198   4.142   1.608
 5949SOL    HW218747   5.103   4.044   1.698
 5950SOL     OW18748   4.295   1.962   5.960
 5950SOL    HW118749   4.273   1.956   6.057
 5950SOL    HW218750   4.219   2.006   5.911
 5951SOL     OW18751   1.297   5.935   4.128
 5951SOL    HW118752   1.259   5.868   4.193
 5951SOL    HW218753   1.224   5.993   4.093
 5952SOL     OW18754   5.801   4.707   3.560
 5952SOL    HW118755   5.807   4.763   3.478
 5952SOL    HW218756   5.833   4.760   3.639
 5953SOL     OW18757   6.475   2.764   5.646
 5953SOL    HW118758   6.470   2.830   5.572
 5953SOL    HW218759   6.543   2.795   5.713
 5954SOL     OW18760   7.002   4.520   6.249
 5954SOL    HW118761   6.987   4.447   6.316
 5954SOL    HW218762   6.927   4.520   6.182
 5955SOL     OW18763   5.251   6.210   2.831
 5955SOL    HW118764   5.311   6.289   2.839
 5955SOL    HW218765   5.158   6.235   2.858
 5956SOL     OW18766   4.588   1.419   5.866
 5956SOL    HW118767   4.617   1.508   5.833
 5956SOL    HW218768   4.592   1.353   5.791
 5957SOL     OW18769   4.056   0.664   5.206
 5957SOL    HW118770   4.121   0.592   5.183
 5957SOL    HW218771   4.045   0.725   5.127
 5958SOL     OW18772   5.995   0.110   3.175
 5958SOL    HW118773   5.920   0.113   3.242
 5958SOL    HW218774   6.082   0.122   3.222
 5959SOL     OW18775   3.986   2.735   5.306
 5959SOL    HW118776   3.888   2.712   5.306
 5959SOL    HW218777   4.036   2.663   5.258
 5960SOL     OW18778   3.495   5.267   4.735
 5960SOL    HW118779   3.500   5.187   4.675
 5960SOL    HW218780   3.431   5.248   4.810
 5961SOL     OW18781   5.297   1.512   2.997
 5961SOL    HW118782   5.337   1.515   2.905
 5961SOL    HW218783   5.356   1.563   3.060
 5962SOL     OW18784   5.643   6.453   0.482
 5962SOL    HW118785   5.685   6.447   0.392
 5962SOL    HW218786   5.661   6.543   0.522
 5963SOL     OW18787   3.712   3.551   5.447
 5963SOL    HW118788   3.758   3.534   5.534
 5963SOL    HW218789   3.666   3.467   5.417
 5964SOL     OW18790   0.286   5.320   5.203
 5964SOL    HW118791   0.223   5.310   5.280
 5964SOL    HW218792   0.367   5.369   5.233
 5965SOL     OW18793   1.363   2.208   6.538
 5965SOL    HW118794   1.378   2.305   6.557
 5965SOL    HW218795   1.381   2.154   6.620
 5966SOL     OW18796   3.125   5.932   5.504
 5966SOL    HW118797   3.151   5.836   5.494
 5966SOL    HW218798   3.050   5.940   5.569
 5967SOL     OW18799   4.316   6.756   6.342
 5967SOL    HW118800   4.234   6.708   6.375
 5967SOL    HW218801   4.290   6.844   6.302
 5968SOL     OW18802   4.800   1.682   0.958
 5968SOL    HW118803   4.815   1.712   1.052
 5968SOL    HW218804   4.749   1.596   0.959
 5969SOL     OW18805   0.266   6.855   6.194
 5969SOL    HW118806   0.205   6.795   6.246
 5969SOL    HW218807   0.254   6.949   6.225
 5970SOL     OW18808   0.096   4.490   2.248
 5970SOL    HW118809   0.167   4.526   2.187
 5970SOL    HW218810   0.085   4.552   2.326
 5971SOL     OW18811   1.387   1.206   2.278
 5971SOL    HW118812   1.476   1.194   2.323
 5971SOL    HW218813   1.378   1.139   2.204
 5972SOL     OW18814   5.355   5.175   6.517
 5972SOL    HW118815   5.343   5.171   6.418
 5972SOL    HW218816   5.283   5.233   6.557
 5973SOL     OW18817   1.691   3.696   2.708
 5973SOL    HW118818   1.636   3.686   2.626
 5973SOL    HW218819   1.754   3.773   2.697
 5974SOL     OW18820   5.299   5.251   6.145
 5974SOL    HW118821   5.366   5.177   6.148
 5974SOL    HW218822   5.331   5.327   6.202
 5975SOL     OW18823   3.593   0.877   0.574
 5975SOL    HW118824   3.598   0.862   0.475
 5975SOL    HW218825   3.685   0.894   0.610
 5976SOL     OW18826   3.228   3.360   5.883
 5976SOL    HW118827   3.272   3.293   5.942
 5976SOL    HW218828   3.147   3.396   5.928
 5977SOL     OW18829   2.468   5.301   6.796
 5977SOL    HW118830   2.455   5.270   6.701
 5977SOL    HW218831   2.529   5.238   6.843
 5978SOL     OW18832   5.016   5.428   2.838
 5978SOL    HW118833   5.014   5.340   2.790
 5978SOL    HW218834   4.970   5.418   2.926
 5979SOL     OW18835   5.631   0.533   2.930
 5979SOL    HW118836   5.712   0.479   2.908
 5979SOL    HW218837   5.587   0.561   2.845
 5980SOL     OW18838   3.741   4.131   1.024
 5980SOL    HW118839   3.714   4.037   1.046
 5980SOL    HW218840   3.835   4.131   0.990
 5981SOL     OW18841   5.584   2.296   1.422
 5981SOL    HW118842   5.628   2.372   1.375
 5981SOL    HW218843   5.552   2.230   1.355
 5982SOL     OW18844   6.830   3.502   2.584
 5982SOL    HW118845   6.861   3.411   2.613
 5982SOL    HW218846   6.730   3.508   2.595
 5983SOL     OW18847   0.897   1.877   4.237
 5983SOL    HW118848   0.861   1.838   4.152
 5983SOL    HW218849   0.977   1.826   4.267
 5984SOL     OW18850   6.599   5.511   3.643
 5984SOL    HW118851   6.623   5.414   3.645
 5984SOL    HW218852   6.564   5.534   3.552
 5985SOL     OW18853   6.914   2.919   4.619
 5985SOL    HW118854   7.009   2.945   4.602
 5985SOL    HW218855   6.865   2.912   4.531
 5986SOL     OW18856   2.922   3.558   4.541
 5986SOL    HW118857   2.940   3.543   4.638
 5986SOL    HW218858   2.824   3.565   4.525
 5987SOL     OW18859   4.854   0.339   4.140
 5987SOL    HW118860   4.808   0.422   4.173
 5987SOL    HW218861   4.927   0.315   4.203
 5988SOL     OW18862   4.788   6.957   5.450
 5988SOL    HW118863   4.722   7.015   5.402
 5988SOL    HW218864   4.879   6.995   5.441
 5989SOL     OW18865   2.365   6.567   6.508
 5989SOL    HW118866   2.451   6.616   6.500
 5989SOL    HW218867   2.372   6.499   6.581
 5990SOL     OW18868   3.828   4.320   0.196
 5990SOL    HW118869   3.786   4.308   0.105
 5990SOL    HW218870   3.868   4.233   0.225
 5991SOL     OW18871   3.182   5.173   0.102
 5991SOL    HW118872   3.130   5.090   0.081
 5991SOL    HW218873   3.269   5.171   0.052
 5992SOL     OW18874   3.776   6.985   2.427
 5992SOL    HW118875   3.808   7.004   2.335
 5992SOL    HW218876   3.691   0.012   2.444
 5993SOL     OW18877   3.276   5.904   6.861
 5993SOL    HW118878   3.244   5.958   6.939
 5993SOL    HW218879   3.202   5.896   6.795
 5994SOL     OW18880   5.459   2.708   2.165
 5994SOL    HW118881   5.408   2.650   2.101
 5994SOL    HW218882   5.477   2.657   2.249
 5995SOL     OW18883   4.753   4.232   3.235
 5995SOL    HW118884   4.763   4.322   3.277
 5995SOL    HW218885   4.714   4.242   3.143
 5996SOL     OW18886   0.861   6.549   0.639
 5996SOL    HW118887   0.878   6.476   0.574
 5996SOL    HW218888   0.762   6.556   0.656
 5997SOL     OW18889   0.438   5.505   2.848
 5997SOL    HW118890   0.411   5.444   2.922
 5997SOL    HW218891   0.513   5.464   2.796
 5998SOL     OW18892   5.577   1.219   3.353
 5998SOL    HW118893   5.669   1.233   3.317
 5998SOL    HW218894   5.538   1.307   3.380
 5999SOL     OW18895   1.619   1.643   2.593
 5999SOL    HW118896   1.694   1.615   2.533
 5999SOL    HW218897   1.542   1.675   2.537
 6000SOL     OW18898   4.551   6.674   0.840
 6000SOL    HW118899   4.554   6.590   0.894
 6000SOL    HW218900   4.474   6.731   0.871
 6001SOL     OW18901   1.226   3.522   6.724
 6001SOL    HW118902   1.312   3.544   6.678
 6001SOL    HW218903   1.150   3.533   6.659
 6002SOL     OW18904   5.850   0.500   0.812
 6002SOL    HW118905   5.949   0.491   0.809
 6002SOL    HW218906   5.817   0.540   0.727
 6003SOL     OW18907   6.203   2.423   4.641
 6003SOL    HW118908   6.192   2.331   4.679
 6003SOL    HW218909   6.117   2.453   4.600
 6004SOL     OW18910   0.354   3.802   2.916
 6004SOL    HW118911   0.415   3.878   2.938
 6004SOL    HW218912   0.284   3.795   2.987
 6005SOL     OW18913   4.825   5.707   4.235
 6005SOL    HW118914   4.783   5.688   4.323
 6005SOL    HW218915   4.755   5.720   4.165
 6006SOL     OW18916   2.459   0.694   5.886
 6006SOL    HW118917   2.442   0.597   5.901
 6006SOL    HW218918   2.444   0.716   5.790
 6007SOL     OW18919   4.906   3.334   5.575
 6007SOL    HW118920   5.004   3.353   5.575
 6007SOL    HW218921   4.857   3.412   5.612
 6008SOL     OW18922   2.231   4.493   5.460
 6008SOL    HW118923   2.198   4.546   5.538
 6008SOL    HW218924   2.195   4.400   5.466
 6009SOL     OW18925   3.253   0.157   3.601
 6009SOL    HW118926   3.322   0.121   3.664
 6009SOL    HW218927   3.297   0.221   3.538
 6010SOL     OW18928   1.525   4.318   4.206
 6010SOL    HW118929   1.598   4.386   4.204
 6010SOL    HW218930   1.534   4.257   4.127
 6011SOL     OW18931   4.888   3.360   2.496
 6011SOL    HW118932   4.808   3.352   2.438
 6011SOL    HW218933   4.917   3.456   2.502
 6012SOL     OW18934   4.883   1.394   0.213
 6012SOL    HW118935   4.807   1.429   0.158
 6012SOL    HW218936   4.896   1.451   0.293
 6013SOL     OW18937   4.731   1.828   2.804
 6013SOL    HW118938   4.751   1.824   2.902
 6013SOL    HW218939   4.642   1.787   2.787
 6014SOL     OW18940   3.870   3.520   1.613
 6014SOL    HW118941   3.832   3.507   1.521
 6014SOL    HW218942   3.920   3.438   1.640
 6015SOL     OW18943   5.635   3.238   4.499
 6015SOL    HW118944   5.659   3.328   4.461
 6015SOL    HW218945   5.536   3.229   4.503
 6016SOL     OW18946   6.485   1.723   6.087
 6016SOL    HW118947   6.538   1.699   6.006
 6016SOL    HW218948   6.520   1.674   6.166
 6017SOL     OW18949   6.634   4.312   3.334
 6017SOL    HW118950   6.633   4.410   3.317
 6017SOL    HW218951   6.690   4.293   3.415
 6018SOL     OW18952   3.345   0.463   6.871
 6018SOL    HW118953   3.278   0.528   6.836
 6018SOL    HW218954   3.414   0.512   6.926
 6019SOL     OW18955   0.077   1.837   4.124
 6019SOL    HW118956   0.049   1.779   4.200
 6019SOL    HW218957   0.093   1.780   4.043
 6020SOL     OW18958   1.073   4.693   0.625
 6020SOL    HW118959   0.977   4.712   0.645
 6020SOL    HW218960   1.128   4.775   0.645
 6021SOL     OW18961   4.753   0.633   2.303
 6021SOL    HW118962   4.714   0.584   2.226
 6021SOL    HW218963   4.836   0.586   2.334
 6022SOL     OW18964   4.202   2.270   3.952
 6022SOL    HW118965   4.263   2.286   4.030
 6022SOL    HW218966   4.249   2.294   3.867
 6023SOL     OW18967   6.088   0.226   2.264
 6023SOL    HW118968   5.991   0.235   2.242
 6023SOL    HW218969   6.100   0.159   2.338
 6024SOL     OW18970   1.320   5.011   3.212
 6024SOL    HW118971   1.376   4.934   3.243
 6024SOL    HW218972   1.251   5.033   3.282
 6025SOL     OW18973   3.638   1.475   2.725
 6025SOL    HW118974   3.665   1.493   2.819
 6025SOL    HW218975   3.539   1.461   2.720
 6026SOL     OW18976   0.197   4.427   5.336
 6026SOL    HW118977   0.178   4.346   5.280
 6026SOL    HW218978   0.172   4.510   5.286
 6027SOL     OW18979   1.310   4.337   6.651
 6027SOL    HW118980   1.317   4.434   6.629
 6027SOL    HW218981   1.374   4.315   6.725
 6028SOL     OW18982   0.329   4.458   6.689
 6028SOL    HW118983   0.389   4.383   6.661
 6028SOL    HW218984   0.378   4.545   6.683
 6029SOL     OW18985   2.482   6.244   5.198
 6029SOL    HW118986   2.508   6.306   5.124
 6029SOL    HW218987   2.531   6.157   5.189
 6030SOL     OW18988   3.976   5.776   3.017
 6030SOL    HW118989   3.974   5.836   3.097
 6030SOL    HW218990   3.920   5.815   2.945
 6031SOL     OW18991   2.853   5.586   3.404
 6031SOL    HW118992   2.933   5.640   3.429
 6031SOL    HW218993   2.820   5.616   3.314
 6032SOL     OW18994   2.321   4.317   2.797
 6032SOL    HW118995   2.282   4.240   2.847
 6032SOL    HW218996   2.342   4.391   2.861
 6033SOL     OW18997   3.223   1.750   3.023
 6033SOL    HW118998   3.194   1.721   2.932
 6033SOL    HW218999   3.235   1.849   3.025
 6034SOL     OW19000   1.384   5.466   4.820
 6034SOL    HW119001   1.476   5.486   4.851
 6034SOL    HW219002   1.319   5.482   4.894
 6035SOL     OW19003   6.941   0.865   2.623
 6035SOL    HW119004   6.924   0.814   2.707
 6035SOL    HW219005   6.853   0.893   2.584
 6036SOL     OW19006   5.384   5.430   3.625
 6036SOL    HW119007   5.325   5.510   3.616
 6036SOL    HW219008   5.340   5.350   3.584
 6037SOL     OW19009   4.363   5.094   6.731
 6037SOL    HW119010   4.365   5.074   6.633
 6037SOL    HW219011   4.340   5.190   6.745
 6038SOL     OW19012   1.373   2.075   5.804
 6038SOL    HW119013   1.442   2.103   5.871
 6038SOL    HW219014   1.299   2.143   5.802
 6039SOL     OW19015   3.012   3.668   2.327
 6039SOL    HW119016   3.002   3.755   2.375
 6039SOL    HW219017   3.017   3.593   2.394
 6040SOL     OW19018   0.905   1.829   6.525
 6040SOL    HW119019   0.884   1.787   6.436
 6040SOL    HW219020   0.883   1.765   6.598
 6041SOL     OW19021   2.703   0.519   5.001
 6041SOL    HW119022   2.779   0.567   5.045
 6041SOL    HW219023   2.738   0.454   4.934
 6042SOL     OW19024   5.146   5.626   1.910
 6042SOL    HW119025   5.067   5.653   1.965
 6042SOL    HW219026   5.117   5.604   1.817
 6043SOL     OW19027   0.894   4.624   5.629
 6043SOL    HW119028   0.800   4.595   5.648
 6043SOL    HW219029   0.892   4.706   5.572
 6044SOL     OW19030   0.975   2.033   1.626
 6044SOL    HW119031   0.968   2.065   1.532
 6044SOL    HW219032   0.961   2.109   1.689
 6045SOL     OW19033   6.418   5.024   2.253
 6045SOL    HW119034   6.509   4.987   2.233
 6045SOL    HW219035   6.372   4.965   2.319
 6046SOL     OW19036   3.929   1.744   0.189
 6046SOL    HW119037   3.862   1.672   0.170
 6046SOL    HW219038   3.893   1.832   0.157
 6047SOL     OW19039   5.250   2.501   1.306
 6047SOL    HW119040   5.338   2.550   1.307
 6047SOL    HW219041   5.253   2.427   1.373
 6048SOL     OW19042   4.407   5.464   4.986
 6048SOL    HW119043   4.505   5.467   5.006
 6048SOL    HW219044   4.359   5.522   5.052
 6049SOL     OW19045   5.930   3.838   6.495
 6049SOL    HW119046   5.926   3.824   6.594
 6049SOL    HW219047   6.023   3.824   6.464
 6050SOL     OW19048   3.670   6.347   4.516
 6050SOL    HW119049   3.704   6.285   4.444
 6050SOL    HW219050   3.621   6.294   4.585
 6051SOL     OW19051   2.581   0.628   4.378
 6051SOL    HW119052   2.495   0.579   4.393
 6051SOL    HW219053   2.654   0.563   4.362
 6052SOL     OW19054   6.253   0.654   0.567
 6052SOL    HW119055   6.323   0.716   0.532
 6052SOL    HW219056   6.168   0.706   0.582
 6053SOL     OW19057   4.346   1.618   6.182
 6053SOL    HW119058   4.269   1.675   6.210
 6053SOL    HW219059   4.426   1.638   6.239
 6054SOL     OW19060   2.627   3.402   0.904
 6054SOL    HW119061   2.646   3.316   0.856
 6054SOL    HW219062   2.579   3.464   0.843
 6055SOL     OW19063   4.603   0.770   4.956
 6055SOL    HW119064   4.559   0.768   5.046
 6055SOL    HW219065   4.604   0.678   4.917
 6056SOL     OW19066   4.777   3.018   4.586
 6056SOL    HW119067   4.854   3.066   4.628
 6056SOL    HW219068   4.695   3.075   4.589
 6057SOL     OW19069   5.107   2.962   3.878
 6057SOL    HW119070   5.159   2.876   3.880
 6057SOL    HW219071   5.071   2.982   3.969
 6058SOL     OW19072   4.990   2.971   1.151
 6058SOL    HW119073   4.897   3.008   1.154
 6058SOL    HW219074   5.033   2.984   1.241
 6059SOL     OW19075   5.071   5.059   5.173
 6059SOL    HW119076   5.041   5.044   5.079
 6059SOL    HW219077   4.991   5.071   5.232
 6060SOL     OW19078   2.933   4.364   0.105
 6060SOL    HW119079   2.908   4.431   0.035
 6060SOL    HW219080   2.871   4.286   0.100
 6061SOL     OW19081   3.505   2.171   1.212
 6061SOL    HW119082   3.575   2.138   1.149
 6061SOL    HW219083   3.424   2.200   1.160
 6062SOL     OW19084   2.436   1.724   4.775
 6062SOL    HW119085   2.528   1.687   4.760
 6062SOL    HW219086   2.372   1.649   4.794
 6063SOL     OW19087   3.264   2.029   6.405
 6063SOL    HW119088   3.259   2.052   6.502
 6063SOL    HW219089   3.268   1.929   6.394
 6064SOL     OW19090   1.814   5.845   1.039
 6064SOL    HW119091   1.840   5.853   1.135
 6064SOL    HW219092   1.724   5.803   1.032
 6065SOL     OW19093   6.832   6.830   1.985
 6065SOL    HW119094   6.880   6.915   1.962
 6065SOL    HW219095   6.741   6.830   1.944
 6066SOL     OW19096   4.909   1.544   6.217
 6066SOL    HW119097   4.842   1.472   6.200
 6066SOL    HW219098   4.909   1.567   6.315
 6067SOL     OW19099   5.568   1.670   5.784
 6067SOL    HW119100   5.469   1.671   5.802
 6067SOL    HW219101   5.601   1.763   5.771
 6068SOL     OW19102   5.472   2.819   4.398
 6068SOL    HW119103   5.473   2.912   4.363
 6068SOL    HW219104   5.483   2.820   4.497
 6069SOL     OW19105   6.830   3.062   4.838
 6069SOL    HW119106   6.848   2.998   4.763
 6069SOL    HW219107   6.916   3.088   4.881
 6070SOL     OW19108   2.191   3.101   0.518
 6070SOL    HW119109   2.281   3.102   0.476
 6070SOL    HW219110   2.181   3.180   0.578
 6071SOL     OW19111   5.923   5.500   4.303
 6071SOL    HW119112   5.881   5.550   4.227
 6071SOL    HW219113   6.003   5.550   4.334
 6072SOL     OW19114   0.446   0.384   1.698
 6072SOL    HW119115   0.371   0.324   1.725
 6072SOL    HW219116   0.490   0.348   1.617
 6073SOL     OW19117   6.102   3.678   0.317
 6073SOL    HW119118   6.183   3.621   0.321
 6073SOL    HW219119   6.047   3.653   0.237
 6074SOL     OW19120   1.191   6.688   4.524
 6074SOL    HW119121   1.133   6.756   4.480
 6074SOL    HW219122   1.156   6.669   4.616
 6075SOL     OW19123   6.789   1.508   6.584
 6075SOL    HW119124   6.862   1.460   6.632
 6075SOL    HW219125   6.700   1.477   6.619
 6076SOL     OW19126   2.512   5.576   4.329
 6076SOL    HW119127   2.519   5.661   4.383
 6076SOL    HW219128   2.588   5.515   4.353
 6077SOL     OW19129   5.711   5.875   1.564
 6077SOL    HW119130   5.689   5.971   1.582
 6077SOL    HW219131   5.745   5.832   1.648
 6078SOL     OW19132   3.935   4.456   0.739
 6078SOL    HW119133   3.957   4.440   0.835
 6078SOL    HW219134   3.993   4.530   0.704
 6079SOL     OW19135   4.033   3.205   6.372
 6079SOL    HW119136   4.098   3.129   6.370
 6079SOL    HW219137   4.021   3.242   6.280
 6080SOL     OW19138   6.768   1.276   1.681
 6080SOL    HW119139   6.829   1.309   1.609
 6080SOL    HW219140   6.814   1.281   1.769
 6081SOL     OW19141   6.289   3.403   5.912
 6081SOL    HW119142   6.252   3.366   5.827
 6081SOL    HW219143   6.325   3.328   5.967
 6082SOL     OW19144   2.011   1.924   3.705
 6082SOL    HW119145   2.068   2.001   3.732
 6082SOL    HW219146   2.050   1.839   3.743
 6083SOL     OW19147   0.313   5.064   6.834
 6083SOL    HW119148   0.408   5.048   6.809
 6083SOL    HW219149   0.296   5.163   6.835
 6084SOL     OW19150   0.537   6.657   3.585
 6084SOL    HW119151   0.523   6.624   3.491
 6084SOL    HW219152   0.635   6.667   3.602
 6085SOL     OW19153   0.948   4.502   0.358
 6085SOL    HW119154   0.961   4.570   0.430
 6085SOL    HW219155   1.037   4.472   0.324
 6086SOL     OW19156   3.612   1.284   5.967
 6086SOL    HW119157   3.632   1.382   5.963
 6086SOL    HW219158   3.513   1.270   5.956
 6087SOL     OW19159   4.060   5.204   0.971
 6087SOL    HW119160   4.139   5.168   1.020
 6087SOL    HW219161   4.088   5.279   0.911
 6088SOL     OW19162   5.830   5.723   3.902
 6088SOL    HW119163   5.759   5.705   3.834
 6088SOL    HW219164   5.876   5.808   3.880
 6089SOL     OW19165   6.323   3.403   0.694
 6089SOL    HW119166   6.252   3.415   0.764
 6089SOL    HW219167   6.307   3.318   0.645
 6090SOL     OW19168   2.320   5.978   6.164
 6090SOL    HW119169   2.332   5.890   6.210
 6090SOL    HW219170   2.263   5.965   6.083
 6091SOL     OW19171   1.500   1.618   0.950
 6091SOL    HW119172   1.438   1.567   1.010
 6091SOL    HW219173   1.460   1.708   0.931
 6092SOL     OW19174   3.796   6.846   3.050
 6092SOL    HW119175   3.878   6.863   2.995
 6092SOL    HW219176   3.742   6.774   3.007
 6093SOL     OW19177   1.881   3.496   2.842
 6093SOL    HW119178   1.843   3.410   2.876
 6093SOL    HW219179   1.817   3.535   2.776
 6094SOL     OW19180   3.742   0.691   1.828
 6094SOL    HW119181   3.663   0.733   1.872
 6094SOL    HW219182   3.774   0.614   1.884
 6095SOL     OW19183   4.503   3.355   0.439
 6095SOL    HW119184   4.475   3.416   0.513
 6095SOL    HW219185   4.582   3.393   0.392
 6096SOL     OW19186   0.246   0.227   3.490
 6096SOL    HW119187   0.201   0.310   3.457
 6096SOL    HW219188   0.196   0.146   3.460
 6097SOL     OW19189   2.464   6.859   2.106
 6097SOL    HW119190   2.501   6.932   2.162
 6097SOL    HW219191   2.422   6.898   2.024
 6098SOL     OW19192   1.603   2.482   5.839
 6098SOL    HW119193   1.701   2.487   5.817
 6098SOL    HW219194   1.567   2.575   5.847
 6099SOL     OW19195   6.739   6.142   0.792
 6099SOL    HW119196   6.775   6.231   0.821
 6099SOL    HW219197   6.646   6.153   0.757
 6100SOL     OW19198   4.114   4.014   6.937
 6100SOL    HW119199   4.052   4.072   6.885
 6100SOL    HW219200   4.156   3.946   6.876
 6101SOL     OW19201   6.362   2.625   4.710
 6101SOL    HW119202   6.428   2.606   4.782
 6101SOL    HW219203   6.307   2.543   4.692
 6102SOL     OW19204   3.234   6.487   3.335
 6102SOL    HW119205   3.309   6.428   3.364
 6102SOL    HW219206   3.241   6.504   3.237
 6103SOL     OW19207   6.614   2.838   2.349
 6103SOL    HW119208   6.690   2.897   2.322
 6103SOL    HW219209   6.562   2.883   2.421
 6104SOL     OW19210   5.704   1.245   5.487
 6104SOL    HW119211   5.725   1.246   5.389
 6104SOL    HW219212   5.650   1.326   5.510
 6105SOL     OW19213   2.562   0.020   5.762
 6105SOL    HW119214   2.648   0.059   5.730
 6105SOL    HW219215   2.562   6.943   5.745
 6106SOL     OW19216   2.665   4.173   5.953
 6106SOL    HW119217   2.603   4.097   5.936
 6106SOL    HW219218   2.723   4.187   5.873
 6107SOL     OW19219   2.613   4.759   4.862
 6107SOL    HW119220   2.652   4.751   4.954
 6107SOL    HW219221   2.531   4.701   4.855
 6108SOL     OW19222   0.461   2.177   2.188
 6108SOL    HW119223   0.441   2.150   2.282
 6108SOL    HW219224   0.375   2.198   2.141
 6109SOL     OW19225   5.296   2.557   5.623
 6109SOL    HW119226   5.300   2.610   5.538
 6109SOL    HW219227   5.211   2.577   5.672
 6110SOL     OW19228   4.322   3.386   0.203
 6110SOL    HW119229   4.388   3.352   0.270
 6110SOL    HW219230   4.354   3.473   0.167
 6111SOL     OW19231   2.357   4.293   2.244
 6111SOL    HW119232   2.399   4.208   2.274
 6111SOL    HW219233   2.319   4.281   2.152
 6112SOL     OW19234   3.961   0.174   2.557
 6112SOL    HW119235   3.904   0.100   2.521
 6112SOL    HW219236   3.916   0.215   2.636
 6113SOL     OW19237   1.689   1.046   6.444
 6113SOL    HW119238   1.665   1.123   6.502
 6113SOL    HW219239   1.788   1.033   6.444
 6114SOL     OW19240   4.969   5.404   1.314
 6114SOL    HW119241   4.918   5.490   1.305
 6114SOL    HW219242   4.997   5.373   1.223
 6115SOL     OW19243   4.930   0.189   3.888
 6115SOL    HW119244   4.963   0.097   3.906
 6115SOL    HW219245   4.913   0.236   3.975
 6116SOL     OW19246   3.107   6.959   6.769
 6116SOL    HW119247   3.092   6.926   6.676
 6116SOL    HW219248   3.047   6.910   6.832
 6117SOL     OW19249   0.771   1.015   5.234
 6117SOL    HW119250   0.723   1.086   5.181
 6117SOL    HW219251   0.719   0.930   5.231
 6118SOL     OW19252   6.682   0.559   2.301
 6118SOL    HW119253   6.588   0.531   2.281
 6118SOL    HW219254   6.737   0.478   2.323
 6119SOL     OW19255   1.770   3.350   5.772
 6119SOL    HW119256   1.846   3.331   5.834
 6119SOL    HW219257   1.743   3.446   5.782
 6120SOL     OW19258   3.874   6.810   4.882
 6120SOL    HW119259   3.865   6.855   4.971
 6120SOL    HW219260   3.859   6.712   4.892
 6121SOL     OW19261   1.175   2.548   5.611
 6121SOL    HW119262   1.275   2.543   5.615
 6121SOL    HW219263   1.144   2.518   5.521
 6122SOL     OW19264   4.153   6.424   0.608
 6122SOL    HW119265   4.228   6.407   0.545
 6122SOL    HW219266   4.137   6.343   0.664
 6123SOL     OW19267   6.356   0.414   6.662
 6123SOL    HW119268   6.378   0.419   6.565
 6123SOL    HW219269   6.286   0.344   6.678
 6124SOL     OW19270   2.116   0.943   5.888
 6124SOL    HW119271   2.189   0.995   5.843
 6124SOL    HW219272   2.148   0.851   5.909
 6125SOL     OW19273   1.166   5.741   0.186
 6125SOL    HW119274   1.228   5.777   0.256
 6125SOL    HW219275   1.085   5.703   0.230
 6126SOL     OW19276   0.703   0.690   3.620
 6126SOL    HW119277   0.615   0.718   3.582
 6126SOL    HW219278   0.718   0.592   3.601
 6127SOL     OW19279   3.761   0.327   1.751
 6127SOL    HW119280   3.853   0.365   1.763
 6127SOL    HW219281   3.734   0.335   1.656
 6128SOL     OW19282   6.408   3.031   6.687
 6128SOL    HW119283   6.363   3.037   6.776
 6128SOL    HW219284   6.343   2.996   6.619
 6129SOL     OW19285   6.120   3.690   3.622
 6129SOL    HW119286   6.110   3.629   3.542
 6129SOL    HW219287   6.174   3.644   3.692
 6130SOL     OW19288   6.044   2.061   3.913
 6130SOL    HW119289   5.952   2.101   3.907
 6130SOL    HW219290   6.042   1.968   3.878
 6131SOL     OW19291   6.555   0.869   5.268
 6131SOL    HW119292   6.549   0.888   5.366
 6131SOL    HW219293   6.648   0.884   5.237
 6132SOL     OW19294   4.533   1.603   0.404
 6132SOL    HW119295   4.504   1.622   0.310
 6132SOL    HW219296   4.605   1.667   0.430
 6133SOL     OW19297   1.162   2.338   2.742
 6133SOL    HW119298   1.212   2.366   2.824
 6133SOL    HW219299   1.064   2.333   2.763
 6134SOL     OW19300   3.703   4.452   6.343
 6134SOL    HW119301   3.703   4.374   6.280
 6134SOL    HW219302   3.706   4.537   6.291
 6135SOL     OW19303   0.902   0.579   2.195
 6135SOL    HW119304   0.989   0.622   2.222
 6135SOL    HW219305   0.914   0.529   2.110
 6136SOL     OW19306   0.969   2.567   2.455
 6136SOL    HW119307   1.024   2.534   2.378
 6136SOL    HW219308   0.914   2.492   2.491
 6137SOL     OW19309   6.140   2.428   3.740
 6137SOL    HW119310   6.094   2.442   3.828
 6137SOL    HW219311   6.078   2.454   3.666
 6138SOL     OW19312   4.837   6.570   2.933
 6138SOL    HW119313   4.880   6.509   2.866
 6138SOL    HW219314   4.794   6.515   3.005
 6139SOL     OW19315   1.339   1.665   5.916
 6139SOL    HW119316   1.268   1.732   5.894
 6139SOL    HW219317   1.418   1.711   5.955
 6140SOL     OW19318   0.286   6.591   1.550
 6140SOL    HW119319   0.289   6.495   1.525
 6140SOL    HW219320   0.306   6.601   1.647
 6141SOL     OW19321   6.341   5.581   5.915
 6141SOL    HW119322   6.372   5.513   5.848
 6141SOL    HW219323   6.248   5.609   5.893
 6142SOL     OW19324   1.117   5.756   0.823
 6142SOL    HW119325   1.099   5.658   0.820
 6142SOL    HW219326   1.103   5.789   0.916
 6143SOL     OW19327   6.783   3.917   0.951
 6143SOL    HW119328   6.711   3.848   0.962
 6143SOL    HW219329   6.756   3.982   0.879
 6144SOL     OW19330   6.120   4.123   3.344
 6144SOL    HW119331   6.053   4.126   3.419
 6144SOL    HW219332   6.076   4.084   3.263
 6145SOL     OW19333   4.867   5.410   3.417
 6145SOL    HW119334   4.905   5.347   3.485
 6145SOL    HW219335   4.916   5.497   3.420
 6146SOL     OW19336   2.667   6.376   3.703
 6146SOL    HW119337   2.663   6.304   3.772
 6146SOL    HW219338   2.585   6.374   3.646
 6147SOL     OW19339   1.406   3.368   4.417
 6147SOL    HW119340   1.347   3.372   4.498
 6147SOL    HW219341   1.481   3.305   4.434
 6148SOL     OW19342   6.763   0.262   4.226
 6148SOL    HW119343   6.798   0.210   4.148
 6148SOL    HW219344   6.709   0.339   4.193
 6149SOL     OW19345   3.297   5.433   1.525
 6149SOL    HW119346   3.233   5.406   1.597
 6149SOL    HW219347   3.305   5.359   1.459
 6150SOL     OW19348   4.728   4.826   6.810
 6150SOL    HW119349   4.680   4.805   6.725
 6150SOL    HW219350   4.703   4.918   6.841
 6151SOL     OW19351   5.847   4.682   5.435
 6151SOL    HW119352   5.939   4.722   5.439
 6151SOL    HW219353   5.805   4.688   5.526
 6152SOL     OW19354   6.936   5.651   5.079
 6152SOL    HW119355   6.971   5.576   5.022
 6152SOL    HW219356   6.842   5.672   5.051
 6153SOL     OW19357   5.821   3.740   1.460
 6153SOL    HW119358   5.730   3.775   1.482
 6153SOL    HW219359   5.886   3.767   1.531
 6154SOL     OW19360   6.013   2.006   2.430
 6154SOL    HW119361   6.019   1.920   2.481
 6154SOL    HW219362   5.989   1.988   2.335
 6155SOL     OW19363   1.975   2.019   4.640
 6155SOL    HW119364   2.052   1.960   4.664
 6155SOL    HW219365   2.001   2.115   4.655
 6156SOL     OW19366   3.986   4.657   1.658
 6156SOL    HW119367   4.044   4.712   1.597
 6156SOL    HW219368   3.899   4.704   1.671
 6157SOL     OW19369   1.486   0.968   4.399
 6157SOL    HW119370   1.469   0.875   4.431
 6157SOL    HW219371   1.575   0.972   4.353
 6158SOL     OW19372   4.440   1.358   6.100
 6158SOL    HW119373   4.496   1.364   6.017
 6158SOL    HW219374   4.405   1.449   6.123
 6159SOL     OW19375   4.881   2.516   1.584
 6159SOL    HW119376   4.945   2.480   1.652
 6159SOL    HW219377   4.930   2.579   1.523
 6160SOL     OW19378   5.038   0.687   6.454
 6160SOL    HW119379   5.045   0.587   6.457
 6160SOL    HW219380   5.032   0.722   6.547
 6161SOL     OW19381   4.819   1.478   4.792
 6161SOL    HW119382   4.815   1.502   4.889
 6161SOL    HW219383   4.813   1.379   4.782
 6162SOL     OW19384   1.459   6.766   3.203
 6162SOL    HW119385   1.423   6.679   3.238
 6162SOL    HW219386   1.493   6.821   3.280
 6163SOL     OW19387   6.344   6.261   1.105
 6163SOL    HW119388   6.393   6.250   1.192
 6163SOL    HW219389   6.250   6.230   1.116
 6164SOL     OW19390   3.294   2.733   1.735
 6164SOL    HW119391   3.206   2.761   1.696
 6164SOL    HW219392   3.311   2.782   1.820
 6165SOL     OW19393   4.384   0.685   6.384
 6165SOL    HW119394   4.309   0.738   6.425
 6165SOL    HW219395   4.392   0.708   6.288
 6166SOL     OW19396   4.142   0.819   6.566
 6166SOL    HW119397   4.076   0.767   6.620
 6166SOL    HW219398   4.135   0.916   6.590
 6167SOL     OW19399   1.092   4.543   3.691
 6167SOL    HW119400   1.096   4.642   3.698
 6167SOL    HW219401   1.157   4.512   3.621
 6168SOL     OW19402   0.658   3.763   1.093
 6168SOL    HW119403   0.657   3.863   1.103
 6168SOL    HW219404   0.573   3.733   1.051
 6169SOL     OW19405   1.480   2.668   0.953
 6169SOL    HW119406   1.517   2.651   1.044
 6169SOL    HW219407   1.554   2.664   0.886
 6170SOL     OW19408   1.304   3.861   5.477
 6170SOL    HW119409   1.285   3.791   5.408
 6170SOL    HW219410   1.300   3.951   5.435
 6171SOL     OW19411   0.785   3.152   0.916
 6171SOL    HW119412   0.803   3.070   0.863
 6171SOL    HW219413   0.855   3.163   0.987
 6172SOL     OW19414   2.152   2.829   2.148
 6172SOL    HW119415   2.140   2.887   2.068
 6172SOL    HW219416   2.224   2.762   2.131
 6173SOL     OW19417   6.845   5.466   1.908
 6173SOL    HW119418   6.861   5.523   1.989
 6173SOL    HW219419   6.805   5.521   1.835
 6174SOL     OW19420   4.559   5.685   3.759
 6174SOL    HW119421   4.552   5.640   3.670
 6174SOL    HW219422   4.577   5.783   3.746
 6175SOL     OW19423   4.261   0.249   3.299
 6175SOL    HW119424   4.162   0.247   3.312
 6175SOL    HW219425   4.298   0.157   3.310
 6176SOL     OW19426   4.885   4.772   5.249
 6176SOL    HW119427   4.865   4.821   5.164
 6176SOL    HW219428   4.868   4.674   5.235
 6177SOL     OW19429   5.613   1.357   1.121
 6177SOL    HW119430   5.710   1.381   1.129
 6177SOL    HW219431   5.579   1.325   1.210
 6178SOL     OW19432   5.132   4.211   2.231
 6178SOL    HW119433   5.138   4.259   2.143
 6178SOL    HW219434   5.037   4.187   2.250
 6179SOL     OW19435   6.502   4.815   4.203
 6179SOL    HW119436   6.530   4.781   4.113
 6179SOL    HW219437   6.582   4.845   4.254
 6180SOL     OW19438   2.539   4.207   0.494
 6180SOL    HW119439   2.588   4.277   0.546
 6180SOL    HW219440   2.548   4.119   0.540
 6181SOL     OW19441   4.967   6.631   6.044
 6181SOL    HW119442   4.952   6.729   6.031
 6181SOL    HW219443   4.923   6.580   5.971
 6182SOL     OW19444   4.926   3.075   4.930
 6182SOL    HW119445   4.974   3.091   5.017
 6182SOL    HW219446   4.838   3.030   4.948
 6183SOL     OW19447   1.485   2.354   3.469
 6183SOL    HW119448   1.410   2.374   3.532
 6183SOL    HW219449   1.549   2.291   3.513
 6184SOL     OW19450   2.667   6.314   6.895
 6184SOL    HW119451   2.604   6.255   6.845
 6184SOL    HW219452   2.621   6.398   6.922
 6185SOL     OW19453   0.270   3.897   6.478
 6185SOL    HW119454   0.248   3.995   6.480
 6185SOL    HW219455   0.331   3.878   6.401
 6186SOL     OW19456   6.930   0.890   0.411
 6186SOL    HW119457   7.012   0.893   0.468
 6186SOL    HW219458   6.954   0.855   0.320
 6187SOL     OW19459   5.087   4.420   3.947
 6187SOL    HW119460   5.149   4.393   4.020
 6187SOL    HW219461   5.095   4.518   3.930
 6188SOL     OW19462   1.953   1.733   0.041
 6188SOL    HW119463   1.934   1.784   6.979
 6188SOL    HW219464   1.995   1.645   0.018
 6189SOL     OW19465   4.899   4.552   2.386
 6189SOL    HW119466   4.853   4.487   2.446
 6189SOL    HW219467   4.927   4.505   2.302
 6190SOL     OW19468   0.643   4.044   5.487
 6190SOL    HW119469   0.613   3.959   5.529
 6190SOL    HW219470   0.738   4.061   5.511
 6191SOL     OW19471   2.900   2.584   6.509
 6191SOL    HW119472   2.853   2.659   6.555
 6191SOL    HW219473   2.966   2.543   6.571
 6192SOL     OW19474   3.077   2.213   5.849
 6192SOL    HW119475   3.003   2.161   5.807
 6192SOL    HW219476   3.130   2.153   5.910
 6193SOL     OW19477   4.524   6.212   1.800
 6193SOL    HW119478   4.580   6.170   1.728
 6193SOL    HW219479   4.456   6.146   1.832
 6194SOL     OW19480   0.194   0.743   0.018
 6194SOL    HW119481   0.260   0.669   0.008
 6194SOL    HW219482   0.168   0.778   6.950
 6195SOL     OW19483   4.273   6.148   4.496
 6195SOL    HW119484   4.266   6.049   4.497
 6195SOL    HW219485   4.344   6.176   4.432
 6196SOL     OW19486   5.619   3.715   1.815
 6196SOL    HW119487   5.622   3.616   1.804
 6196SOL    HW219488   5.579   3.756   1.733
 6197SOL     OW19489   3.779   5.078   0.886
 6197SOL    HW119490   3.858   5.095   0.827
 6197SOL    HW219491   3.797   5.116   0.977
 6198SOL     OW19492   4.067   6.869   1.234
 6198SOL    HW119493   4.112   6.791   1.277
 6198SOL    HW219494   4.136   6.929   1.194
 6199SOL     OW19495   0.590   1.053   0.374
 6199SOL    HW119496   0.616   1.000   0.455
 6199SOL    HW219497   0.566   0.991   0.299
 6200SOL     OW19498   0.985   1.495   5.705
 6200SOL    HW119499   0.922   1.569   5.681
 6200SOL    HW219500   1.070   1.506   5.653
 6201SOL     OW19501   0.820   3.990   6.068
 6201SOL    HW119502   0.760   4.067   6.048
 6201SOL    HW219503   0.870   3.964   5.985
 6202SOL     OW19504   5.061   1.433   1.229
 6202SOL    HW119505   4.973   1.404   1.267
 6202SOL    HW219506   5.051   1.522   1.184
 6203SOL     OW19507   6.380   5.534   2.624
 6203SOL    HW119508   6.478   5.512   2.627
 6203SOL    HW219509   6.334   5.474   2.559
 6204SOL     OW19510   0.176   5.693   4.406
 6204SOL    HW119511   0.218   5.606   4.383
 6204SOL    HW219512   0.149   5.693   4.502
 6205SOL     OW19513   6.697   5.656   1.787
 6205SOL    HW119514   6.605   5.634   1.755
 6205SOL    HW219515   6.740   5.720   1.724
 6206SOL     OW19516   5.945   1.922   2.825
 6206SOL    HW119517   5.952   1.877   2.736
 6206SOL    HW219518   5.858   1.972   2.830
 6207SOL     OW19519   1.738   5.617   5.387
 6207SOL    HW119520   1.676   5.655   5.318
 6207SOL    HW219521   1.782   5.692   5.437
 6208SOL     OW19522   4.154   2.834   5.584
 6208SOL    HW119523   4.141   2.888   5.501
 6208SOL    HW219524   4.110   2.880   5.661
 6209SOL     OW19525   3.251   6.038   0.084
 6209SOL    HW119526   3.192   5.964   0.117
 6209SOL    HW219527   3.265   6.104   0.157
 6210SOL     OW19528   4.930   3.475   3.431
 6210SOL    HW119529   4.998   3.413   3.469
 6210SOL    HW219530   4.888   3.433   3.350
 6211SOL     OW19531   2.816   6.141   6.179
 6211SOL    HW119532   2.820   6.054   6.128
 6211SOL    HW219533   2.730   6.187   6.161
 6212SOL     OW19534   2.889   4.811   4.865
 6212SOL    HW119535   2.919   4.753   4.941
 6212SOL    HW219536   2.792   4.794   4.847
 6213SOL     OW19537   5.755   0.521   0.026
 6213SOL    HW119538   5.709   0.588   0.085
 6213SOL    HW219539   5.734   0.429   0.058
 6214SOL     OW19540   5.615   5.517   4.937
 6214SOL    HW119541   5.567   5.593   4.981
 6214SOL    HW219542   5.552   5.440   4.928
 6215SOL     OW19543   3.575   1.946   6.631
 6215SOL    HW119544   3.609   1.894   6.554
 6215SOL    HW219545   3.606   2.041   6.624
 6216SOL     OW19546   6.150   2.095   3.025
 6216SOL    HW119547   6.060   2.128   2.999
 6216SOL    HW219548   6.158   2.094   3.125
 6217SOL     OW19549   0.893   3.238   1.961
 6217SOL    HW119550   0.930   3.269   1.873
 6217SOL    HW219551   0.962   3.184   2.009
 6218SOL     OW19552   3.714   6.598   6.615
 6218SOL    HW119553   3.698   6.578   6.712
 6218SOL    HW219554   3.775   6.529   6.577
 6219SOL     OW19555   0.773   1.764   4.950
 6219SOL    HW119556   0.856   1.714   4.974
 6219SOL    HW219557   0.783   1.860   4.974
 6220SOL     OW19558   2.401   1.603   5.504
 6220SOL    HW119559   2.338   1.528   5.482
 6220SOL    HW219560   2.423   1.654   5.421
 6221SOL     OW19561   5.753   6.704   0.522
 6221SOL    HW119562   5.839   6.726   0.476
 6221SOL    HW219563   5.677   6.748   0.474
 6222SOL     OW19564   1.289   6.991   1.746
 6222SOL    HW119565   1.262   0.026   1.669
 6222SOL    HW219566   1.318   0.027   1.822
 6223SOL     OW19567   1.614   5.343   3.308
 6223SOL    HW119568   1.559   5.321   3.228
 6223SOL    HW219569   1.574   5.423   3.355
 6224SOL     OW19570   3.687   1.549   6.010
 6224SOL    HW119571   3.762   1.578   5.951
 6224SOL    HW219572   3.618   1.622   6.013
 6225SOL     OW19573   3.785   2.777   6.427
 6225SOL    HW119574   3.776   2.865   6.380
 6225SOL    HW219575   3.739   2.782   6.516
 6226SOL     OW19576   1.000   1.219   4.660
 6226SOL    HW119577   1.019   1.145   4.595
 6226SOL    HW219578   1.001   1.182   4.753
 6227SOL     OW19579   3.364   5.005   5.372
 6227SOL    HW119580   3.387   5.001   5.275
 6227SOL    HW219581   3.299   4.932   5.394
 6228SOL     OW19582   0.562   2.961   2.458
 6228SOL    HW119583   0.650   2.936   2.418
 6228SOL    HW219584   0.525   2.883   2.509
 6229SOL     OW19585   0.288   2.348   5.122
 6229SOL    HW119586   0.300   2.321   5.218
 6229SOL    HW219587   0.378   2.357   5.080
 6230SOL     OW19588   0.619   1.889   4.301
 6230SOL    HW119589   0.718   1.887   4.285
 6230SOL    HW219590   0.572   1.843   4.227
 6231SOL     OW19591   6.350   5.606   0.347
 6231SOL    HW119592   6.252   5.592   0.339
 6231SOL    HW219593   6.372   5.639   0.439
 6232SOL     OW19594   6.687   1.273   1.122
 6232SOL    HW119595   6.712   1.278   1.219
 6232SOL    HW219596   6.640   1.187   1.103
 6233SOL     OW19597   6.571   3.214   1.511
 6233SOL    HW119598   6.649   3.176   1.461
 6233SOL    HW219599   6.604   3.260   1.593
 6234SOL     OW19600   0.185   6.972   5.407
 6234SOL    HW119601   0.284   6.959   5.420
 6234SOL    HW219602   0.168   0.041   5.370
 6235SOL     OW19603   6.768   0.537   1.679
 6235SOL    HW119604   6.690   0.494   1.633
 6235SOL    HW219605   6.853   0.508   1.634
 6236SOL     OW19606   0.480   4.368   0.722
 6236SOL    HW119607   0.457   4.292   0.783
 6236SOL    HW219608   0.577   4.391   0.731
 6237SOL     OW19609   3.548   0.114   6.503
 6237SOL    HW119610   3.550   0.107   6.403
 6237SOL    HW219611   3.558   0.023   6.543
 6238SOL     OW19612   5.227   5.879   2.837
 6238SOL    HW119613   5.325   5.872   2.855
 6238SOL    HW219614   5.195   5.971   2.858
 6239SOL     OW19615   3.950   1.634   1.311
 6239SOL    HW119616   3.969   1.670   1.220
 6239SOL    HW219617   3.927   1.537   1.304
 6240SOL     OW19618   2.696   3.643   5.270
 6240SOL    HW119619   2.775   3.673   5.216
 6240SOL    HW219620   2.695   3.543   5.276
 6241SOL     OW19621   3.738   0.798   2.181
 6241SOL    HW119622   3.781   0.709   2.160
 6241SOL    HW219623   3.796   0.848   2.245
 6242SOL     OW19624   4.290   0.025   2.894
 6242SOL    HW119625   4.372   0.070   2.860
 6242SOL    HW219626   4.315   6.982   2.966
 6243SOL     OW19627   0.402   6.600   5.480
 6243SOL    HW119628   0.324   6.649   5.519
 6243SOL    HW219629   0.464   6.573   5.554
 6244SOL     OW19630   5.544   3.223   3.681
 6244SOL    HW119631   5.583   3.133   3.663
 6244SOL    HW219632   5.503   3.260   3.598
 6245SOL     OW19633   1.259   3.548   1.724
 6245SOL    HW119634   1.355   3.568   1.704
 6245SOL    HW219635   1.203   3.577   1.646
 6246SOL     OW19636   0.865   1.809   5.292
 6246SOL    HW119637   0.778   1.761   5.288
 6246SOL    HW219638   0.860   1.892   5.235
 6247SOL     OW19639   1.010   5.807   3.698
 6247SOL    HW119640   0.937   5.827   3.763
 6247SOL    HW219641   1.049   5.717   3.718
 6248SOL     OW19642   3.752   3.568   0.310
 6248SOL    HW119643   3.710   3.650   0.348
 6248SOL    HW219644   3.849   3.586   0.292
 6249SOL     OW19645   7.008   3.403   0.533
 6249SOL    HW119646   7.017   3.498   0.502
 6249SOL    HW219647   6.915   3.371   0.516
 6250SOL     OW19648   6.306   6.517   1.377
 6250SOL    HW119649   6.335   6.439   1.322
 6250SOL    HW219650   6.335   6.602   1.333
 6251SOL     OW19651   4.128   5.911   5.283
 6251SOL    HW119652   4.175   5.883   5.367
 6251SOL    HW219653   4.149   6.007   5.264
 6252SOL     OW19654   2.958   5.448   6.639
 6252SOL    HW119655   3.004   5.493   6.562
 6252SOL    HW219656   2.947   5.513   6.714
 6253SOL     OW19657   2.866   5.110   4.276
 6253SOL    HW119658   2.915   5.191   4.244
 6253SOL    HW219659   2.888   5.032   4.218
 6254SOL     OW19660   6.284   1.043   1.289
 6254SOL    HW119661   6.275   1.142   1.301
 6254SOL    HW219662   6.267   0.997   1.376
 6255SOL     OW19663   2.412   1.447   1.249
 6255SOL    HW119664   2.448   1.507   1.178
 6255SOL    HW219665   2.486   1.389   1.285
 6256SOL     OW19666   3.832   5.111   2.132
 6256SOL    HW119667   3.739   5.090   2.099
 6256SOL    HW219668   3.829   5.131   2.229
 6257SOL     OW19669   4.553   3.133   0.303
 6257SOL    HW119670   4.526   3.203   0.370
 6257SOL    HW219671   4.509   3.047   0.327
 6258SOL     OW19672   3.098   6.948   3.920
 6258SOL    HW119673   3.075   0.022   3.902
 6258SOL    HW219674   3.049   6.889   3.856
 6259SOL     OW19675   2.164   0.897   6.539
 6259SOL    HW119676   2.096   0.847   6.485
 6259SOL    HW219677   2.215   0.833   6.597
 6260SOL     OW19678   3.760   6.372   0.037
 6260SOL    HW119679   3.692   6.345   0.105
 6260SOL    HW219680   3.821   6.442   0.076
 6261SOL     OW19681   5.434   0.428   6.606
 6261SOL    HW119682   5.373   0.373   6.663
 6261SOL    HW219683   5.517   0.449   6.657
 6262SOL     OW19684   2.028   6.181   1.693
 6262SOL    HW119685   1.985   6.147   1.777
 6262SOL    HW219686   2.026   6.109   1.623
 6263SOL     OW19687   0.940   6.672   4.921
 6263SOL    HW119688   1.014   6.685   4.854
 6263SOL    HW219689   0.945   6.745   4.989
 6264SOL     OW19690   2.075   0.351   1.829
 6264SOL    HW119691   2.159   0.337   1.880
 6264SOL    HW219692   2.018   0.418   1.876
 6265SOL     OW19693   4.132   3.209   0.256
 6265SOL    HW119694   4.192   3.282   0.223
 6265SOL    HW219695   4.111   3.146   0.181
 6266SOL     OW19696   4.740   0.282   3.524
 6266SOL    HW119697   4.832   0.280   3.563
 6266SOL    HW219698   4.715   0.190   3.494
 6267SOL     OW19699   2.596   6.913   5.065
 6267SOL    HW119700   2.543   6.980   5.013
 6267SOL    HW219701   2.689   6.948   5.079
 6268SOL     OW19702   2.999   0.833   2.191
 6268SOL    HW119703   3.089   0.830   2.149
 6268SOL    HW219704   2.948   0.911   2.154
 6269SOL     OW19705   6.830   0.316   2.326
 6269SOL    HW119706   6.893   0.295   2.401
 6269SOL    HW219707   6.879   0.315   2.239
 6270SOL     OW19708   0.260   0.146   6.312
 6270SOL    HW119709   0.218   0.220   6.364
 6270SOL    HW219710   0.356   0.136   6.341
 6271SOL     OW19711   5.735   2.394   5.778
 6271SOL    HW119712   5.671   2.370   5.850
 6271SOL    HW219713   5.774   2.484   5.796
 6272SOL     OW19714   0.625   2.371   0.784
 6272SOL    HW119715   0.585   2.283   0.809
 6272SOL    HW219716   0.669   2.363   0.694
 6273SOL     OW19717   0.484   6.295   2.620
 6273SOL    HW119718   0.398   6.337   2.648
 6273SOL    HW219719   0.470   6.242   2.536
 6274SOL     OW19720   3.496   6.951   4.327
 6274SOL    HW119721   3.420   6.887   4.334
 6274SOL    HW219722   3.580   6.908   4.360
 6275SOL     OW19723   2.320   6.240   0.025
 6275SOL    HW119724   2.251   6.169   0.012
 6275SOL    HW219725   2.404   6.213   6.998
 6276SOL     OW19726   1.813   5.576   3.276
 6276SOL    HW119727   1.776   5.623   3.195
 6276SOL    HW219728   1.751   5.503   3.303
 6277SOL     OW19729   4.306   3.289   0.940
 6277SOL    HW119730   4.400   3.324   0.938
 6277SOL    HW219731   4.248   3.353   0.991
 6278SOL     OW19732   4.308   0.005   4.788
 6278SOL    HW119733   4.370   6.996   4.716
 6278SOL    HW219734   4.264   6.947   4.831
 6279SOL     OW19735   3.267   6.202   0.377
 6279SOL    HW119736   3.341   6.253   0.420
 6279SOL    HW219737   3.247   6.119   0.430
 6280SOL     OW19738   0.418   0.823   6.487
 6280SOL    HW119739   0.366   0.839   6.571
 6280SOL    HW219740   0.516   0.822   6.508
 6281SOL     OW19741   6.866   4.763   4.483
 6281SOL    HW119742   6.933   4.711   4.431
 6281SOL    HW219743   6.911   4.808   4.560
 6282SOL     OW19744   6.521   4.950   5.751
 6282SOL    HW119745   6.447   4.978   5.689
 6282SOL    HW219746   6.482   4.900   5.829
 6283SOL     OW19747   0.153   4.038   3.986
 6283SOL    HW119748   0.098   4.115   4.020
 6283SOL    HW219749   0.205   3.998   4.062
 6284SOL     OW19750   2.288   4.805   5.312
 6284SOL    HW119751   2.370   4.847   5.275
 6284SOL    HW219752   2.253   4.737   5.247
 6285SOL     OW19753   1.076   3.265   3.518
 6285SOL    HW119754   1.116   3.261   3.426
 6285SOL    HW219755   0.978   3.249   3.511
 6286SOL     OW19756   6.966   2.029   3.949
 6286SOL    HW119757   7.013   1.962   4.007
 6286SOL    HW219758   0.007   2.105   3.929
 6287SOL     OW19759   3.222   4.933   5.055
 6287SOL    HW119760   3.185   4.848   5.093
 6287SOL    HW219761   3.150   4.981   5.006
 6288SOL     OW19762   5.405   4.720   2.077
 6288SOL    HW119763   5.320   4.709   2.128
 6288SOL    HW219764   5.475   4.659   2.116
 6289SOL     OW19765   1.905   5.307   6.886
 6289SOL    HW119766   1.910   5.208   6.901
 6289SOL    HW219767   1.971   5.333   6.815
 6290SOL     OW19768   5.987   4.990   6.331
 6290SOL    HW119769   5.974   5.062   6.399
 6290SOL    HW219770   5.910   4.927   6.335
 6291SOL     OW19771   3.986   3.905   3.559
 6291SOL    HW119772   3.928   3.973   3.604
 6291SOL    HW219773   4.053   3.870   3.625
 6292SOL     OW19774   2.158   2.594   5.483
 6292SOL    HW119775   2.226   2.615   5.553
 6292SOL    HW219776   2.118   2.679   5.449
 6293SOL     OW19777   4.225   1.920   0.907
 6293SOL    HW119778   4.200   1.832   0.868
 6293SOL    HW219779   4.238   1.987   0.834
 6294SOL     OW19780   4.151   0.645   3.410
 6294SOL    HW119781   4.249   0.643   3.390
 6294SOL    HW219782   4.133   0.593   3.493
 6295SOL     OW19783   5.541   4.735   4.338
 6295SOL    HW119784   5.570   4.815   4.285
 6295SOL    HW219785   5.525   4.762   4.433
 6296SOL     OW19786   6.901   4.822   5.859
 6296SOL    HW119787   6.853   4.906   5.885
 6296SOL    HW219788   6.912   4.763   5.939
 6297SOL     OW19789   5.763   0.508   5.526
 6297SOL    HW119790   5.687   0.542   5.581
 6297SOL    HW219791   5.748   0.411   5.505
 6298SOL     OW19792   1.237   3.306   6.547
 6298SOL    HW119793   1.219   3.388   6.491
 6298SOL    HW219794   1.292   3.242   6.495
 6299SOL     OW19795   5.802   2.593   2.128
 6299SOL    HW119796   5.738   2.632   2.195
 6299SOL    HW219797   5.765   2.506   2.094
 6300SOL     OW19798   6.012   0.999   0.076
 6300SOL    HW119799   6.048   0.980   0.167
 6300SOL    HW219800   5.913   0.980   0.074
 6301SOL     OW19801   2.887   6.637   0.064
 6301SOL    HW119802   2.935   6.554   0.035
 6301SOL    HW219803   2.792   6.616   0.084
 6302SOL     OW19804   1.977   2.369   5.125
 6302SOL    HW119805   1.943   2.281   5.094
 6302SOL    HW219806   1.952   2.382   5.221
 6303SOL     OW19807   0.255   0.764   5.465
 6303SOL    HW119808   0.338   0.709   5.456
 6303SOL    HW219809   0.182   0.707   5.504
 6304SOL     OW19810   3.916   0.920   1.910
 6304SOL    HW119811   3.861   0.838   1.895
 6304SOL    HW219812   3.868   1.000   1.873
 6305SOL     OW19813   5.906   6.386   0.591
 6305SOL    HW119814   5.836   6.366   0.523
 6305SOL    HW219815   5.936   6.481   0.582
 6306SOL     OW19816   6.880   3.791   4.358
 6306SOL    HW119817   6.822   3.753   4.430
 6306SOL    HW219818   6.955   3.728   4.340
 6307SOL     OW19819   3.411   3.617   3.556
 6307SOL    HW119820   3.491   3.579   3.509
 6307SOL    HW219821   3.328   3.592   3.507
 6308SOL     OW19822   1.736   2.485   4.480
 6308SOL    HW119823   1.800   2.534   4.539
 6308SOL    HW219824   1.784   2.451   4.399
 6309SOL     OW19825   6.908   6.479   4.482
 6309SOL    HW119826   6.829   6.418   4.484
 6309SOL    HW219827   6.896   6.552   4.549
 6310SOL     OW19828   1.397   6.708   2.705
 6310SOL    HW119829   1.491   6.688   2.679
 6310SOL    HW219830   1.392   6.725   2.804
 6311SOL     OW19831   4.530   1.992   5.584
 6311SOL    HW119832   4.617   1.943   5.591
 6311SOL    HW219833   4.456   1.927   5.568
 6312SOL     OW19834   0.490   0.210   5.125
 6312SOL    HW119835   0.446   0.177   5.042
 6312SOL    HW219836   0.434   0.282   5.166
 6313SOL     OW19837   6.327   5.936   3.734
 6313SOL    HW119838   6.273   5.957   3.816
 6313SOL    HW219839   6.355   5.840   3.736
 6314SOL     OW19840   3.637   6.527   1.762
 6314SOL    HW119841   3.600   6.618   1.744
 6314SOL    HW219842   3.650   6.478   1.676
 6315SOL     OW19843   3.047   1.818   6.142
 6315SOL    HW119844   3.003   1.906   6.162
 6315SOL    HW219845   3.059   1.808   6.044
 6316SOL     OW19846   5.146   2.108   5.747
 6316SOL    HW119847   5.122   2.015   5.775
 6316SOL    HW219848   5.062   2.162   5.735
 6317SOL     OW19849   4.795   4.620   1.860
 6317SOL    HW119850   4.860   4.687   1.897
 6317SOL    HW219851   4.840   4.568   1.787
 6318SOL     OW19852   4.339   0.144   6.456
 6318SOL    HW119853   4.370   0.189   6.540
 6318SOL    HW219854   4.334   0.212   6.382
 6319SOL     OW19855   6.223   2.666   5.593
 6319SOL    HW119856   6.321   2.687   5.596
 6319SOL    HW219857   6.208   2.587   5.533
 6320SOL     OW19858   0.001   6.762   4.781
 6320SOL    HW119859   6.982   6.836   4.835
 6320SOL    HW219860   0.097   6.783   4.762
 6321SOL     OW19861   4.382   3.073   0.546
 6321SOL    HW119862   4.414   3.007   0.614
 6321SOL    HW219863   4.371   3.163   0.589
 6322SOL     OW19864   2.224   2.419   0.781
 6322SOL    HW119865   2.288   2.391   0.853
 6322SOL    HW219866   2.168   2.495   0.815
 6323SOL     OW19867   1.137   2.327   2.394
 6323SOL    HW119868   1.151   2.311   2.297
 6323SOL    HW219869   1.124   2.240   2.441
 6324SOL     OW19870   4.132   0.884   0.757
 6324SOL    HW119871   4.142   0.970   0.807
 6324SOL    HW219872   4.206   0.875   0.690
 6325SOL     OW19873   2.069   3.165   2.736
 6325SOL    HW119874   1.971   3.160   2.716
 6325SOL    HW219875   2.099   3.261   2.729
 6326SOL     OW19876   5.413   5.644   0.314
 6326SOL    HW119877   5.357   5.593   0.380
 6326SOL    HW219878   5.371   5.639   0.224
 6327SOL     OW19879   0.129   1.685   4.374
 6327SOL    HW119880   0.032   1.665   4.379
 6327SOL    HW219881   0.148   1.772   4.419
 6328SOL     OW19882   4.432   3.569   0.002
 6328SOL    HW119883   4.392   3.605   6.939
 6328SOL    HW219884   4.524   3.533   7.003
 6329SOL     OW19885   1.399   2.960   4.575
 6329SOL    HW119886   1.353   2.956   4.486
 6329SOL    HW219887   1.437   2.870   4.597
 6330SOL     OW19888   5.974   6.503   2.059
 6330SOL    HW119889   5.942   6.570   1.992
 6330SOL    HW219890   5.896   6.459   2.103
 6331SOL     OW19891   0.023   3.437   4.791
 6331SOL    HW119892   6.976   3.452   4.720
 6331SOL    HW219893   0.051   3.342   4.790
 6332SOL     OW19894   0.345   2.577   1.554
 6332SOL    HW119895   0.309   2.638   1.625
 6332SOL    HW219896   0.342   2.624   1.465
 6333SOL     OW19897   4.903   0.315   5.694
 6333SOL    HW119898   4.990   0.277   5.725
 6333SOL    HW219899   4.828   0.255   5.725
 6334SOL     OW19900   3.412   1.100   2.274
 6334SOL    HW119901   3.450   1.174   2.328
 6334SOL    HW219902   3.476   1.075   2.201
 6335SOL     OW19903   3.709   0.344   0.370
 6335SOL    HW119904   3.805   0.359   0.346
 6335SOL    HW219905   3.677   0.259   0.328
 6336SOL     OW19906   0.539   1.989   6.257
 6336SOL    HW119907   0.576   2.000   6.349
 6336SOL    HW219908   0.599   1.928   6.204
 6337SOL     OW19909   4.011   5.194   4.939
 6337SOL    HW119910   4.037   5.230   5.029
 6337SOL    HW219911   4.094   5.179   4.885
 6338SOL     OW19912   2.895   2.257   4.281
 6338SOL    HW119913   2.820   2.321   4.266
 6338SOL    HW219914   2.905   2.239   4.379
 6339SOL     OW19915   0.614   2.826   4.306
 6339SOL    HW119916   0.539   2.876   4.263
 6339SOL    HW219917   0.645   2.754   4.244
 6340SOL     OW19918   2.336   4.687   1.038
 6340SOL    HW119919   2.377   4.778   1.032
 6340SOL    HW219920   2.323   4.650   0.946
 6341SOL     OW19921   6.655   3.244   4.714
 6341SOL    HW119922   6.557   3.228   4.714
 6341SOL    HW219923   6.700   3.175   4.772
 6342SOL     OW19924   2.635   1.730   1.062
 6342SOL    HW119925   2.691   1.647   1.066
 6342SOL    HW219926   2.555   1.714   1.003
 6343SOL     OW19927   3.764   0.827   6.354
 6343SOL    HW119928   3.686   0.876   6.316
 6343SOL    HW219929   3.748   0.810   6.452
 6344SOL     OW19930   4.870   2.547   4.230
 6344SOL    HW119931   4.848   2.475   4.295
 6344SOL    HW219932   4.918   2.621   4.277
 6345SOL     OW19933   5.084   2.894   1.988
 6345SOL    HW119934   5.071   2.876   2.086
 6345SOL    HW219935   5.121   2.986   1.976
 6346SOL     OW19936   6.673   5.408   4.432
 6346SOL    HW119937   6.633   5.353   4.506
 6346SOL    HW219938   6.687   5.350   4.352
 6347SOL     OW19939   1.960   1.158   0.522
 6347SOL    HW119940   1.972   1.093   0.596
 6347SOL    HW219941   1.973   1.251   0.556
 6348SOL     OW19942   1.566   2.407   6.878
 6348SOL    HW119943   1.551   2.449   6.789
 6348SOL    HW219944   1.485   2.422   6.936
 6349SOL     OW19945   1.614   0.890   0.660
 6349SOL    HW119946   1.671   0.833   0.601
 6349SOL    HW219947   1.616   0.985   0.628
 6350SOL     OW19948   0.357   5.093   4.276
 6350SOL    HW119949   0.455   5.072   4.282
 6350SOL    HW219950   0.305   5.007   4.271
 6351SOL     OW19951   6.038   3.541   3.886
 6351SOL    HW119952   6.136   3.559   3.881
 6351SOL    HW219953   6.007   3.499   3.800
 6352SOL     OW19954   3.148   0.126   4.872
 6352SOL    HW119955   3.077   0.134   4.802
 6352SOL    HW219956   3.118   0.175   4.954
 6353SOL     OW19957   0.768   6.009   5.687
 6353SOL    HW119958   0.805   5.978   5.600
 6353SOL    HW219959   0.839   6.059   5.737
 6354SOL     OW19960   3.789   5.555   2.989
 6354SOL    HW119961   3.845   5.624   3.035
 6354SOL    HW219962   3.806   5.466   3.031
 6355SOL     OW19963   2.347   5.561   6.736
 6355SOL    HW119964   2.271   5.552   6.672
 6355SOL    HW219965   2.402   5.478   6.734
 6356SOL     OW19966   5.161   4.969   0.954
 6356SOL    HW119967   5.195   4.899   0.891
 6356SOL    HW219968   5.063   4.985   0.938
 6357SOL     OW19969   6.197   3.430   3.115
 6357SOL    HW119970   6.130   3.482   3.062
 6357SOL    HW219971   6.184   3.449   3.213
 6358SOL     OW19972   0.510   1.804   6.004
 6358SOL    HW119973   0.594   1.817   6.057
 6358SOL    HW219974   0.439   1.765   6.063
 6359SOL     OW19975   6.257   6.905   0.187
 6359SOL    HW119976   6.218   6.912   0.279
 6359SOL    HW219977   6.183   6.911   0.120
 6360SOL     OW19978   1.227   3.678   5.305
 6360SOL    HW119979   1.144   3.717   5.265
 6360SOL    HW219980   1.252   3.595   5.255
 6361SOL     OW19981   0.891   0.584   0.971
 6361SOL    HW119982   0.834   0.642   1.029
 6361SOL    HW219983   0.937   0.515   1.026
 6362SOL     OW19984   0.284   5.655   5.831
 6362SOL    HW119985   0.278   5.718   5.910
 6362SOL    HW219986   0.215   5.681   5.763
 6363SOL     OW19987   2.267   5.724   3.434
 6363SOL    HW119988   2.194   5.760   3.492
 6363SOL    HW219989   2.259   5.762   3.342
 6364SOL     OW19990   2.944   2.018   5.400
 6364SOL    HW119991   2.859   1.972   5.376
 6364SOL    HW219992   2.922   2.099   5.455
 6365SOL     OW19993   4.900   6.652   3.955
 6365SOL    HW119994   4.878   6.568   4.006
 6365SOL    HW219995   4.842   6.656   3.873
 6366SOL     OW19996   1.022   5.669   5.348
 6366SOL    HW119997   1.116   5.665   5.380
 6366SOL    HW219998   0.964   5.612   5.407
 6367SOL     OW19999   3.814   1.528   3.399
 6367SOL    HW120000   3.857   1.560   3.484
 6367SOL    HW220001   3.729   1.481   3.421
 6368SOL     OW20002   3.703   5.110   4.153
 6368SOL    HW120003   3.703   5.031   4.093
 6368SOL    HW220004   3.757   5.184   4.112
 6369SOL     OW20005   1.802   0.835   5.035
 6369SOL    HW120006   1.753   0.759   4.993
 6369SOL    HW220007   1.858   0.882   4.967
 6370SOL     OW20008   5.313   3.494   3.794
 6370SOL    HW120009   5.404   3.459   3.816
 6370SOL    HW220010   5.297   3.485   3.695
 6371SOL     OW20011   5.587   4.497   3.192
 6371SOL    HW120012   5.641   4.578   3.216
 6371SOL    HW220013   5.491   4.512   3.216
 6372SOL     OW20014   1.442   1.428   1.749
 6372SOL    HW120015   1.496   1.482   1.814
 6372SOL    HW220016   1.360   1.480   1.723
 6373SOL     OW20017   5.018   4.339   2.847
 6373SOL    HW120018   4.967   4.422   2.826
 6373SOL    HW220019   5.079   4.355   2.924
 6374SOL     OW20020   4.171   3.036   1.443
 6374SOL    HW120021   4.138   3.037   1.537
 6374SOL    HW220022   4.174   3.129   1.407
 6375SOL     OW20023   0.035   2.011   2.555
 6375SOL    HW120024   6.990   1.937   2.549
 6375SOL    HW220025   0.002   2.081   2.619
 6376SOL     OW20026   4.891   2.073   6.567
 6376SOL    HW120027   4.899   2.091   6.469
 6376SOL    HW220028   4.876   1.976   6.582
 6377SOL     OW20029   6.505   1.141   5.151
 6377SOL    HW120030   6.489   1.042   5.157
 6377SOL    HW220031   6.500   1.181   5.242
 6378SOL     OW20032   4.949   4.635   3.734
 6378SOL    HW120033   4.924   4.651   3.830
 6378SOL    HW220034   5.046   4.657   3.721
 6379SOL     OW20035   0.358   4.043   5.018
 6379SOL    HW120036   0.356   3.944   5.004
 6379SOL    HW220037   0.365   4.090   4.930
 6380SOL     OW20038   6.989   1.625   4.896
 6380SOL    HW120039   0.062   1.594   4.886
 6380SOL    HW220040   6.939   1.606   4.812
 6381SOL     OW20041   4.290   2.996   1.058
 6381SOL    HW120042   4.342   2.916   1.029
 6381SOL    HW220043   4.323   3.077   1.010
 6382SOL     OW20044   3.549   1.588   0.517
 6382SOL    HW120045   3.574   1.669   0.571
 6382SOL    HW220046   3.451   1.591   0.496
 6383SOL     OW20047   2.612   2.360   2.845
 6383SOL    HW120048   2.551   2.398   2.915
 6383SOL    HW220049   2.594   2.404   2.758
 6384SOL     OW20050   5.818   3.855   3.288
 6384SOL    HW120051   5.789   3.910   3.366
 6384SOL    HW220052   5.749   3.786   3.268
 6385SOL     OW20053   6.900   3.384   3.791
 6385SOL    HW120054   6.852   3.300   3.767
 6385SOL    HW220055   6.835   3.452   3.824
 6386SOL     OW20056   3.285   3.344   6.756
 6386SOL    HW120057   3.241   3.308   6.838
 6386SOL    HW220058   3.259   3.440   6.743
 6387SOL     OW20059   6.667   1.680   6.919
 6387SOL    HW120060   6.670   1.672   6.819
 6387SOL    HW220061   6.701   1.596   6.960
 6388SOL     OW20062   4.902   6.085   1.396
 6388SOL    HW120063   4.895   6.059   1.492
 6388SOL    HW220064   4.886   6.183   1.387
 6389SOL     OW20065   0.474   6.680   0.544
 6389SOL    HW120066   0.483   6.600   0.604
 6389SOL    HW220067   0.412   6.658   0.469
 6390SOL     OW20068   6.664   0.325   5.315
 6390SOL    HW120069   6.728   0.270   5.369
 6390SOL    HW220070   6.688   0.422   5.324
 6391SOL     OW20071   1.755   0.642   6.384
 6391SOL    HW120072   1.703   0.653   6.299
 6391SOL    HW220073   1.713   0.698   6.456
 6392SOL     OW20074   2.802   5.066   2.913
 6392SOL    HW120075   2.834   5.025   2.999
 6392SOL    HW220076   2.719   5.019   2.883
 6393SOL     OW20077   0.286   6.273   2.186
 6393SOL    HW120078   0.384   6.271   2.165
 6393SOL    HW220079   0.267   6.217   2.266
 6394SOL     OW20080   1.519   5.825   0.752
 6394SOL    HW120081   1.457   5.787   0.821
 6394SOL    HW220082   1.539   5.755   0.683
 6395SOL     OW20083   0.324   3.180   1.932
 6395SOL    HW120084   0.301   3.083   1.922
 6395SOL    HW220085   0.419   3.195   1.903
 6396SOL     OW20086   6.516   3.228   6.380
 6396SOL    HW120087   6.601   3.190   6.415
 6396SOL    HW220088   6.531   3.322   6.350
 6397SOL     OW20089   5.753   1.106   1.549
 6397SOL    HW120090   5.679   1.076   1.610
 6397SOL    HW220091   5.730   1.081   1.455
 6398SOL     OW20092   2.815   6.786   2.084
 6398SOL    HW120093   2.802   6.785   1.984
 6398SOL    HW220094   2.826   6.881   2.115
 6399SOL     OW20095   1.558   0.167   6.906
 6399SOL    HW120096   1.556   0.267   6.901
 6399SOL    HW220097   1.635   0.132   6.852
 6400SOL     OW20098   2.089   4.974   2.801
 6400SOL    HW120099   2.090   5.054   2.861
 6400SOL    HW220100   1.997   4.961   2.763
 6401SOL     OW20101   5.617   5.706   3.052
 6401SOL    HW120102   5.608   5.775   3.124
 6401SOL    HW220103   5.660   5.624   3.091
 6402SOL     OW20104   2.174   3.202   3.799
 6402SOL    HW120105   2.078   3.191   3.827
 6402SOL    HW220106   2.215   3.277   3.850
 6403SOL     OW20107   6.030   5.971   5.916
 6403SOL    HW120108   6.003   6.023   5.835
 6403SOL    HW220109   5.962   5.982   5.988
 6404SOL     OW20110   4.507   1.254   2.709
 6404SOL    HW120111   4.486   1.326   2.776
 6404SOL    HW220112   4.567   1.291   2.639
 6405SOL     OW20113   3.954   0.880   3.951
 6405SOL    HW120114   3.914   0.972   3.941
 6405SOL    HW220115   3.884   0.811   3.932
 6406SOL     OW20116   0.642   2.432   3.026
 6406SOL    HW120117   0.736   2.442   2.994
 6406SOL    HW220118   0.639   2.446   3.125
 6407SOL     OW20119   2.532   0.190   4.483
 6407SOL    HW120120   2.596   0.207   4.407
 6407SOL    HW220121   2.565   0.113   4.537
 6408SOL     OW20122   5.286   1.112   0.893
 6408SOL    HW120123   5.379   1.145   0.878
 6408SOL    HW220124   5.226   1.149   0.822
 6409SOL     OW20125   6.807   4.161   3.825
 6409SOL    HW120126   6.760   4.249   3.834
 6409SOL    HW220127   6.742   4.087   3.839
 6410SOL     OW20128   1.827   1.517   5.915
 6410SOL    HW120129   1.841   1.592   5.851
 6410SOL    HW220130   1.837   1.430   5.867
 6411SOL     OW20131   0.519   2.688   2.999
 6411SOL    HW120132   0.481   2.688   2.907
 6411SOL    HW220133   0.574   2.605   3.012
 6412SOL     OW20134   1.898   1.208   5.374
 6412SOL    HW120135   1.979   1.230   5.319
 6412SOL    HW220136   1.889   1.275   5.448
 6413SOL     OW20137   3.698   4.941   3.939
 6413SOL    HW120138   3.680   4.952   3.841
 6413SOL    HW220139   3.772   4.876   3.952
 6414SOL     OW20140   5.259   1.124   0.131
 6414SOL    HW120141   5.215   1.213   0.119
 6414SOL    HW220142   5.269   1.078   0.043
 6415SOL     OW20143   1.499   3.174   3.880
 6415SOL    HW120144   1.432   3.190   3.807
 6415SOL    HW220145   1.468   3.098   3.937
 6416SOL     OW20146   2.314   6.960   6.382
 6416SOL    HW120147   2.340   0.028   6.418
 6416SOL    HW220148   2.306   6.895   6.457
 6417SOL     OW20149   5.695   4.460   0.370
 6417SOL    HW120150   5.790   4.440   0.392
 6417SOL    HW220151   5.674   4.555   0.397
 6418SOL     OW20152   4.962   4.060   3.007
 6418SOL    HW120153   5.039   4.092   2.952
 6418SOL    HW220154   4.884   4.121   2.994
 6419SOL     OW20155   1.198   5.083   2.953
 6419SOL    HW120156   1.115   5.119   2.995
 6419SOL    HW220157   1.260   5.050   3.025
 6420SOL     OW20158   2.392   0.435   4.361
 6420SOL    HW120159   2.434   0.368   4.422
 6420SOL    HW220160   2.374   0.393   4.272
 6421SOL     OW20161   4.756   0.614   1.952
 6421SOL    HW120162   4.774   0.560   1.870
 6421SOL    HW220163   4.770   0.711   1.932
 6422SOL     OW20164   6.639   0.588   5.120
 6422SOL    HW120165   6.648   0.659   5.191
 6422SOL    HW220166   6.710   0.601   5.051
 6423SOL     OW20167   4.694   5.292   3.966
 6423SOL    HW120168   4.698   5.216   3.901
 6423SOL    HW220169   4.730   5.375   3.924
 6424SOL     OW20170   0.434   4.009   4.630
 6424SOL    HW120171   0.409   4.104   4.648
 6424SOL    HW220172   0.382   3.974   4.552
 6425SOL     OW20173   6.573   6.482   3.113
 6425SOL    HW120174   6.503   6.473   3.184
 6425SOL    HW220175   6.612   6.392   3.093
 6426SOL     OW20176   0.351   5.327   3.041
 6426SOL    HW120177   0.351   5.255   3.111
 6426SOL    HW220178   0.324   5.414   3.083
 6427SOL     OW20179   3.804   4.050   3.680
 6427SOL    HW120180   3.756   4.087   3.601
 6427SOL    HW220181   3.753   3.972   3.717
 6428SOL     OW20182   5.991   3.190   7.007
 6428SOL    HW120183   6.021   3.098   6.982
 6428SOL    HW220184   5.938   3.229   6.931
 6429SOL     OW20185   0.082   0.974   6.037
 6429SOL    HW120186   0.162   1.000   5.983
 6429SOL    HW220187   0.084   0.875   6.054
 6430SOL     OW20188   6.315   1.185   3.863
 6430SOL    HW120189   6.411   1.161   3.876
 6430SOL    HW220190   6.278   1.219   3.949
 6431SOL     OW20191   4.083   5.920   3.786
 6431SOL    HW120192   4.042   5.902   3.696
 6431SOL    HW220193   4.031   5.993   3.831
 6432SOL     OW20194   4.826   4.853   5.930
 6432SOL    HW120195   4.841   4.754   5.934
 6432SOL    HW220196   4.848   4.886   5.838
 6433SOL     OW20197   2.229   5.123   6.140
 6433SOL    HW120198   2.299   5.149   6.073
 6433SOL    HW220199   2.142   5.107   6.092
 6434SOL     OW20200   3.017   6.512   6.244
 6434SOL    HW120201   2.941   6.541   6.185
 6434SOL    HW220202   2.987   6.516   6.340
 6435SOL     OW20203   5.968   6.737   0.359
 6435SOL    HW120204   6.015   6.825   0.367
 6435SOL    HW220205   6.029   6.669   0.319
 6436SOL     OW20206   1.383   3.178   2.384
 6436SOL    HW120207   1.478   3.166   2.354
 6436SOL    HW220208   1.382   3.194   2.483
 6437SOL     OW20209   1.503   2.321   0.282
 6437SOL    HW120210   1.507   2.382   0.360
 6437SOL    HW220211   1.594   2.314   0.240
 6438SOL     OW20212   0.592   4.356   5.487
 6438SOL    HW120213   0.532   4.277   5.500
 6438SOL    HW220214   0.629   4.355   5.394
 6439SOL     OW20215   5.344   0.883   2.242
 6439SOL    HW120216   5.434   0.860   2.281
 6439SOL    HW220217   5.315   0.972   2.277
 6440SOL     OW20218   2.529   1.473   5.923
 6440SOL    HW120219   2.628   1.469   5.931
 6440SOL    HW220220   2.488   1.451   6.012
 6441SOL     OW20221   0.420   0.474   1.286
 6441SOL    HW120222   0.499   0.483   1.225
 6441SOL    HW220223   0.443   0.414   1.362
 6442SOL     OW20224   2.620   1.785   5.078
 6442SOL    HW120225   2.583   1.850   5.012
 6442SOL    HW220226   2.686   1.725   5.033
 6443SOL     OW20227   3.422   2.784   5.688
 6443SOL    HW120228   3.463   2.859   5.636
 6443SOL    HW220229   3.325   2.778   5.667
 6444SOL     OW20230   5.588   2.940   5.058
 6444SOL    HW120231   5.576   2.998   5.138
 6444SOL    HW220232   5.555   2.989   4.977
 6445SOL     OW20233   4.118   3.758   3.998
 6445SOL    HW120234   4.126   3.745   4.097
 6445SOL    HW220235   4.061   3.838   3.980
 6446SOL     OW20236   0.887   1.664   7.004
 6446SOL    HW120237   0.899   1.570   0.017
 6446SOL    HW220238   0.829   1.715   0.047
 6447SOL     OW20239   6.722   4.603   2.824
 6447SOL    HW120240   6.811   4.579   2.862
 6447SOL    HW220241   6.735   4.642   2.733
 6448SOL     OW20242   5.195   5.187   1.387
 6448SOL    HW120243   5.153   5.276   1.368
 6448SOL    HW220244   5.134   5.114   1.358
 6449SOL     OW20245   3.547   5.787   1.319
 6449SOL    HW120246   3.540   5.882   1.350
 6449SOL    HW220247   3.455   5.751   1.305
 6450SOL     OW20248   1.682   2.690   0.763
 6450SOL    HW120249   1.715   2.596   0.774
 6450SOL    HW220250   1.760   2.753   0.765
 6451SOL     OW20251   2.355   0.434   5.888
 6451SOL    HW120252   2.284   0.382   5.840
 6451SOL    HW220253   2.393   0.378   5.962
 6452SOL     OW20254   4.706   4.216   2.942
 6452SOL    HW120255   4.653   4.301   2.933
 6452SOL    HW220256   4.751   4.195   2.856
 6453SOL     OW20257   2.289   0.075   1.575
 6453SOL    HW120258   2.196   0.112   1.575
 6453SOL    HW220259   2.342   0.118   1.648
 6454SOL     OW20260   0.874   1.440   2.850
 6454SOL    HW120261   0.866   1.477   2.757
 6454SOL    HW220262   0.803   1.479   2.908
 6455SOL     OW20263   0.105   3.126   4.332
 6455SOL    HW120264   0.138   3.167   4.247
 6455SOL    HW220265   0.166   3.052   4.359
 6456SOL     OW20266   1.395   1.427   3.573
 6456SOL    HW120267   1.481   1.382   3.550
 6456SOL    HW220268   1.341   1.440   3.490
 6457SOL     OW20269   4.991   0.782   1.558
 6457SOL    HW120270   4.937   0.857   1.596
 6457SOL    HW220271   4.930   0.715   1.515
 6458SOL     OW20272   0.963   5.630   4.234
 6458SOL    HW120273   0.873   5.598   4.204
 6458SOL    HW220274   0.958   5.726   4.260
 6459SOL     OW20275   6.327   3.310   1.997
 6459SOL    HW120276   6.312   3.213   1.977
 6459SOL    HW220277   6.333   3.361   1.912
 6460SOL     OW20278   5.966   6.058   6.502
 6460SOL    HW120279   6.027   6.003   6.559
 6460SOL    HW220280   5.872   6.026   6.515
 6461SOL     OW20281   2.494   4.314   0.034
 6461SOL    HW120282   2.466   4.407   0.009
 6461SOL    HW220283   2.477   4.253   6.978
 6462SOL     OW20284   1.911   3.171   4.905
 6462SOL    HW120285   2.003   3.182   4.867
 6462SOL    HW220286   1.848   3.232   4.857
 6463SOL     OW20287   5.834   1.323   0.349
 6463SOL    HW120288   5.862   1.250   0.411
 6463SOL    HW220289   5.902   1.333   0.276
 6464SOL     OW20290   1.741   5.209   5.331
 6464SOL    HW120291   1.658   5.209   5.276
 6464SOL    HW220292   1.741   5.128   5.391
 6465SOL     OW20293   6.483   2.885   2.582
 6465SOL    HW120294   6.444   2.830   2.657
 6465SOL    HW220295   6.552   2.947   2.619
 6466SOL     OW20296   6.179   1.594   6.157
 6466SOL    HW120297   6.095   1.647   6.165
 6466SOL    HW220298   6.236   1.633   6.085
 6467SOL     OW20299   3.860   0.108   0.494
 6467SOL    HW120300   3.894   0.080   0.405
 6467SOL    HW220301   3.902   0.195   0.520
 6468SOL     OW20302   3.125   5.858   1.281
 6468SOL    HW120303   3.188   5.856   1.203
 6468SOL    HW220304   3.146   5.936   1.339
 6469SOL     OW20305   4.494   2.341   3.498
 6469SOL    HW120306   4.493   2.441   3.499
 6469SOL    HW220307   4.569   2.307   3.554
 6470SOL     OW20308   5.433   2.982   0.853
 6470SOL    HW120309   5.444   2.886   0.827
 6470SOL    HW220310   5.516   3.012   0.901
 6471SOL     OW20311   0.226   6.176   5.720
 6471SOL    HW120312   0.205   6.183   5.817
 6471SOL    HW220313   0.147   6.206   5.666
 6472SOL     OW20314   0.034   5.707   1.933
 6472SOL    HW120315   6.984   5.767   1.968
 6472SOL    HW220316   7.017   5.644   1.866
 6473SOL     OW20317   2.959   1.935   4.890
 6473SOL    HW120318   2.983   1.983   4.975
 6473SOL    HW220319   3.040   1.892   4.852
 6474SOL     OW20320   4.004   5.622   6.193
 6474SOL    HW120321   4.053   5.650   6.275
 6474SOL    HW220322   3.912   5.660   6.194
 6475SOL     OW20323   6.168   4.738   3.687
 6475SOL    HW120324   6.069   4.757   3.688
 6475SOL    HW220325   6.215   4.804   3.746
 6476SOL     OW20326   5.097   3.168   0.684
 6476SOL    HW120327   5.188   3.195   0.717
 6476SOL    HW220328   5.072   3.225   0.605
 6477SOL     OW20329   6.409   5.020   0.721
 6477SOL    HW120330   6.406   4.994   0.624
 6477SOL    HW220331   6.502   5.013   0.755
 6478SOL     OW20332   4.073   6.791   2.172
 6478SOL    HW120333   3.986   6.745   2.154
 6478SOL    HW220334   4.082   6.808   2.270
 6479SOL     OW20335   4.085   5.603   3.870
 6479SOL    HW120336   4.118   5.652   3.790
 6479SOL    HW220337   4.145   5.623   3.948
 6480SOL     OW20338   2.399   1.181   7.010
 6480SOL    HW120339   2.307   1.217   0.006
 6480SOL    HW220340   2.464   1.225   0.050
 6481SOL     OW20341   3.260   2.140   2.060
 6481SOL    HW120342   3.301   2.058   2.102
 6481SOL    HW220343   3.196   2.181   2.125
 6482SOL     OW20344   6.287   1.919   5.990
 6482SOL    HW120345   6.339   2.000   5.963
 6482SOL    HW220346   6.348   1.855   6.037
 6483SOL     OW20347   0.425   0.218   3.292
 6483SOL    HW120348   0.466   0.127   3.306
 6483SOL    HW220349   0.367   0.241   3.370
 6484SOL     OW20350   3.365   0.158   2.017
 6484SOL    HW120351   3.362   0.193   1.924
 6484SOL    HW220352   3.301   0.211   2.074
 6485SOL     OW20353   1.766   5.264   3.720
 6485SOL    HW120354   1.801   5.196   3.784
 6485SOL    HW220355   1.804   5.353   3.742
 6486SOL     OW20356   0.406   4.721   2.374
 6486SOL    HW120357   0.348   4.711   2.454
 6486SOL    HW220358   0.437   4.816   2.367
 6487SOL     OW20359   0.999   6.545   5.325
 6487SOL    HW120360   0.988   6.644   5.317
 6487SOL    HW220361   1.016   6.521   5.420
 6488SOL     OW20362   3.937   6.197   4.641
 6488SOL    HW120363   4.023   6.248   4.643
 6488SOL    HW220364   3.878   6.235   4.570
 6489SOL     OW20365   3.260   3.663   6.020
 6489SOL    HW120366   3.172   3.648   5.975
 6489SOL    HW220367   3.254   3.631   6.115
 6490SOL     OW20368   4.075   1.496   6.409
 6490SOL    HW120369   4.156   1.540   6.371
 6490SOL    HW220370   4.046   1.422   6.349
 6491SOL     OW20371   2.923   0.718   0.975
 6491SOL    HW120372   2.961   0.772   0.900
 6491SOL    HW220373   2.970   0.630   0.980
 6492SOL     OW20374   3.767   4.173   5.850
 6492SOL    HW120375   3.760   4.120   5.766
 6492SOL    HW220376   3.676   4.209   5.874
 6493SOL     OW20377   1.799   4.332   6.407
 6493SOL    HW120378   1.895   4.334   6.435
 6493SOL    HW220379   1.751   4.259   6.456
 6494SOL     OW20380   6.704   0.484   3.290
 6494SOL    HW120381   6.746   0.572   3.269
 6494SOL    HW220382   6.604   0.495   3.292
 6495SOL     OW20383   6.686   0.444   4.853
 6495SOL    HW120384   6.699   0.506   4.776
 6495SOL    HW220385   6.589   0.437   4.875
 6496SOL     OW20386   5.932   0.796   3.011
 6496SOL    HW120387   5.970   0.735   2.942
 6496SOL    HW220388   5.961   0.890   2.993
 6497SOL     OW20389   1.055   0.754   1.375
 6497SOL    HW120390   1.017   0.826   1.432
 6497SOL    HW220391   1.047   0.666   1.422
 6498SOL     OW20392   1.780   2.981   4.625
 6498SOL    HW120393   1.863   2.942   4.665
 6498SOL    HW220394   1.701   2.923   4.648
 6499SOL     OW20395   5.358   4.232   5.442
 6499SOL    HW120396   5.333   4.219   5.347
 6499SOL    HW220397   5.302   4.173   5.501
 6500SOL     OW20398   6.714   3.643   4.537
 6500SOL    HW120399   6.773   3.564   4.557
 6500SOL    HW220400   6.658   3.623   4.457
 6501SOL     OW20401   6.408   0.952   6.897
 6501SOL    HW120402   6.357   0.867   6.910
 6501SOL    HW220403   6.416   0.972   6.800
 6502SOL     OW20404   6.777   3.727   2.801
 6502SOL    HW120405   6.870   3.763   2.788
 6502SOL    HW220406   6.762   3.650   2.739
 6503SOL     OW20407   5.387   1.181   3.614
 6503SOL    HW120408   5.321   1.188   3.539
 6503SOL    HW220409   5.472   1.227   3.589
 6504SOL     OW20410   4.020   6.744   5.698
 6504SOL    HW120411   4.018   6.769   5.795
 6504SOL    HW220412   4.090   6.799   5.652
 6505SOL     OW20413   5.376   5.924   6.263
 6505SOL    HW120414   5.437   5.848   6.284
 6505SOL    HW220415   5.397   6.001   6.324
 6506SOL     OW20416   6.991   3.123   3.162
 6506SOL    HW120417   6.999   3.219   3.136
 6506SOL    HW220418   0.011   3.109   3.252
 6507SOL     OW20419   2.327   5.704   6.305
 6507SOL    HW120420   2.381   5.712   6.389
 6507SOL    HW220421   2.230   5.720   6.326
 6508SOL     OW20422   1.709   0.932   2.387
 6508SOL    HW120423   1.744   0.849   2.431
 6508SOL    HW220424   1.673   0.994   2.456
 6509SOL     OW20425   4.545   1.914   4.866
 6509SOL    HW120426   4.447   1.928   4.860
 6509SOL    HW220427   4.580   1.953   4.951
 6510SOL     OW20428   6.348   5.096   0.172
 6510SOL    HW120429   6.442   5.131   0.173
 6510SOL    HW220430   6.298   5.132   0.250
 6511SOL     OW20431   3.870   0.792   4.784
 6511SOL    HW120432   3.802   0.851   4.741
 6511SOL    HW220433   3.901   0.723   4.718
 6512SOL     OW20434   3.797   6.265   2.238
 6512SOL    HW120435   3.745   6.189   2.275
 6512SOL    HW220436   3.754   6.298   2.154
 6513SOL     OW20437   2.401   5.053   3.167
 6513SOL    HW120438   2.313   5.036   3.212
 6513SOL    HW220439   2.386   5.109   3.085
 6514SOL     OW20440   6.053   1.420   4.099
 6514SOL    HW120441   6.068   1.322   4.106
 6514SOL    HW220442   5.959   1.442   4.124
 6515SOL     OW20443   0.907   4.106   3.393
 6515SOL    HW120444   0.861   4.098   3.481
 6515SOL    HW220445   0.908   4.016   3.348
 6516SOL     OW20446   0.770   3.204   2.192
 6516SOL    HW120447   0.674   3.231   2.193
 6516SOL    HW220448   0.807   3.216   2.099
 6517SOL     OW20449   0.041   1.180   2.146
 6517SOL    HW120450   0.118   1.115   2.145
 6517SOL    HW220451   6.980   1.133   2.178
 6518SOL     OW20452   6.972   0.203   0.865
 6518SOL    HW120453   0.035   0.238   0.907
 6518SOL    HW220454   6.964   0.105   0.884
 6519SOL     OW20455   0.817   1.975   2.746
 6519SOL    HW120456   0.859   1.885   2.753
 6519SOL    HW220457   0.802   1.998   2.650
 6520SOL     OW20458   0.018   5.491   0.537
 6520SOL    HW120459   0.018   5.407   0.593
 6520SOL    HW220460   0.111   5.507   0.502
 6521SOL     OW20461   2.105   2.731   3.730
 6521SOL    HW120462   2.197   2.750   3.766
 6521SOL    HW220463   2.110   2.721   3.630
 6522SOL     OW20464   3.024   4.998   5.622
 6522SOL    HW120465   3.044   4.901   5.627
 6522SOL    HW220466   3.104   5.051   5.651
 6523SOL     OW20467   3.244   0.919   6.884
 6523SOL    HW120468   3.182   0.997   6.881
 6523SOL    HW220469   3.260   0.886   6.791
 6524SOL     OW20470   2.496   3.373   1.409
 6524SOL    HW120471   2.403   3.407   1.427
 6524SOL    HW220472   2.561   3.449   1.414
 6525SOL     OW20473   1.770   5.180   3.441
 6525SOL    HW120474   1.763   5.203   3.538
 6525SOL    HW220475   1.699   5.228   3.390
 6526SOL     OW20476   1.929   0.942   1.500
 6526SOL    HW120477   1.872   0.894   1.433
 6526SOL    HW220478   1.962   1.028   1.461
 6527SOL     OW20479   6.923   1.634   5.867
 6527SOL    HW120480   6.903   1.669   5.776
 6527SOL    HW220481   6.937   1.535   5.862
 6528SOL     OW20482   5.282   1.306   5.064
 6528SOL    HW120483   5.306   1.211   5.088
 6528SOL    HW220484   5.183   1.311   5.046
 6529SOL     OW20485   2.112   0.471   2.685
 6529SOL    HW120486   2.081   0.504   2.596
 6529SOL    HW220487   2.166   0.388   2.672
 6530SOL     OW20488   6.511   1.973   0.818
 6530SOL    HW120489   6.584   2.012   0.874
 6530SOL    HW220490   6.469   1.896   0.866
 6531SOL     OW20491   5.101   3.427   4.937
 6531SOL    HW120492   5.163   3.497   4.901
 6531SOL    HW220493   5.086   3.443   5.034
 6532SOL     OW20494   0.213   1.003   1.329
 6532SOL    HW120495   0.211   1.017   1.428
 6532SOL    HW220496   0.126   1.032   1.289
 6533SOL     OW20497   4.738   6.713   0.182
 6533SOL    HW120498   4.650   6.760   0.175
 6533SOL    HW220499   4.794   6.736   0.102
 6534SOL     OW20500   4.942   4.502   1.666
 6534SOL    HW120501   4.918   4.414   1.625
 6534SOL    HW220502   5.030   4.532   1.629
 6535SOL     OW20503   6.561   4.446   4.113
 6535SOL    HW120504   6.561   4.542   4.086
 6535SOL    HW220505   6.619   4.434   4.194
 6536SOL     OW20506   0.367   1.675   5.515
 6536SOL    HW120507   0.432   1.674   5.592
 6536SOL    HW220508   0.308   1.595   5.520
 6537SOL     OW20509   7.002   4.561   0.020
 6537SOL    HW120510   0.014   4.605   0.104
 6537SOL    HW220511   6.921   4.610   7.009
 6538SOL     OW20512   2.285   3.306   6.241
 6538SOL    HW120513   2.293   3.230   6.306
 6538SOL    HW220514   2.270   3.270   6.149
 6539SOL     OW20515   5.180   1.064   6.893
 6539SOL    HW120516   5.234   1.064   6.809
 6539SOL    HW220517   5.092   1.109   6.877
 6540SOL     OW20518   4.125   2.111   6.838
 6540SOL    HW120519   4.058   2.042   6.811
 6540SOL    HW220520   4.192   2.069   6.900
 6541SOL     OW20521   4.824   1.520   5.323
 6541SOL    HW120522   4.768   1.438   5.336
 6541SOL    HW220523   4.853   1.555   5.412
 6542SOL     OW20524   6.981   2.635   4.007
 6542SOL    HW120525   7.013   2.724   3.975
 6542SOL    HW220526   6.933   2.647   4.094
 6543SOL     OW20527   4.266   3.138   5.470
 6543SOL    HW120528   4.210   3.211   5.511
 6543SOL    HW220529   4.208   3.082   5.411
 6544SOL     OW20530   1.083   6.723   3.125
 6544SOL    HW120531   1.082   6.739   3.224
 6544SOL    HW220532   1.132   6.797   3.079
 6545SOL     OW20533   4.280   0.310   0.838
 6545SOL    HW120534   4.329   0.229   0.871
 6545SOL    HW220535   4.344   0.386   0.829
 6546SOL     OW20536   2.624   4.445   6.781
 6546SOL    HW120537   2.666   4.520   6.730
 6546SOL    HW220538   2.650   4.358   6.739
 6547SOL     OW20539   4.568   0.938   6.633
 6547SOL    HW120540   4.511   0.861   6.662
 6547SOL    HW220541   4.587   0.998   6.711
 6548SOL     OW20542   0.575   3.932   0.829
 6548SOL    HW120543   0.674   3.915   0.834
 6548SOL    HW220544   0.556   4.028   0.848
 6549SOL     OW20545   4.332   0.888   1.902
 6549SOL    HW120546   4.237   0.870   1.928
 6549SOL    HW220547   4.391   0.873   1.981
 6550SOL     OW20548   0.004   7.015   3.855
 6550SOL    HW120549   0.010   0.010   3.757
 6550SOL    HW220550   0.086   6.968   3.887
 6551SOL     OW20551   1.725   4.072   1.452
 6551SOL    HW120552   1.770   4.087   1.540
 6551SOL    HW220553   1.793   4.073   1.379
 6552SOL     OW20554   1.433   0.397   0.581
 6552SOL    HW120555   1.511   0.338   0.600
 6552SOL    HW220556   1.357   0.343   0.547
 6553SOL     OW20557   0.140   1.929   3.539
 6553SOL    HW120558   0.052   1.954   3.498
 6553SOL    HW220559   0.202   2.007   3.534
 6554SOL     OW20560   0.950   0.724   4.361
 6554SOL    HW120561   0.918   0.694   4.271
 6554SOL    HW220562   1.038   0.682   4.380
 6555SOL     OW20563   5.324   1.860   3.154
 6555SOL    HW120564   5.349   1.952   3.125
 6555SOL    HW220565   5.328   1.855   3.254
 6556SOL     OW20566   5.577   4.561   3.931
 6556SOL    HW120567   5.664   4.555   3.883
 6556SOL    HW220568   5.590   4.537   4.027
 6557SOL     OW20569   3.310   6.978   2.734
 6557SOL    HW120570   3.244   6.911   2.771
 6557SOL    HW220571   3.303   0.041   2.786
 6558SOL     OW20572   0.342   5.072   0.373
 6558SOL    HW120573   0.365   5.131   0.295
 6558SOL    HW220574   0.426   5.031   0.409
 6559SOL     OW20575   1.230   4.575   0.103
 6559SOL    HW120576   1.273   4.648   0.156
 6559SOL    HW220577   1.226   4.491   0.159
 6560SOL     OW20578   4.589   4.781   1.604
 6560SOL    HW120579   4.685   4.764   1.580
 6560SOL    HW220580   4.576   4.879   1.621
 6561SOL     OW20581   3.226   4.232   1.722
 6561SOL    HW120582   3.171   4.159   1.761
 6561SOL    HW220583   3.169   4.312   1.706
 6562SOL     OW20584   6.763   2.745   0.668
 6562SOL    HW120585   6.785   2.751   0.765
 6562SOL    HW220586   6.802   2.660   0.631
 6563SOL     OW20587   5.116   5.861   6.345
 6563SOL    HW120588   5.055   5.901   6.277
 6563SOL    HW220589   5.211   5.882   6.321
 6564SOL     OW20590   6.837   3.629   3.055
 6564SOL    HW120591   6.773   3.691   3.100
 6564SOL    HW220592   6.833   3.644   2.956
 6565SOL     OW20593   5.386   1.864   2.560
 6565SOL    HW120594   5.378   1.807   2.642
 6565SOL    HW220595   5.482   1.887   2.543
 6566SOL     OW20596   4.127   6.048   1.746
 6566SOL    HW120597   4.113   6.140   1.784
 6566SOL    HW220598   4.105   5.980   1.816
 6567SOL     OW20599   4.657   0.876   2.380
 6567SOL    HW120600   4.698   0.941   2.316
 6567SOL    HW220601   4.683   0.783   2.355
 6568SOL     OW20602   3.328   1.380   4.133
 6568SOL    HW120603   3.278   1.322   4.069
 6568SOL    HW220604   3.334   1.335   4.222
 6569SOL     OW20605   2.612   3.371   0.346
 6569SOL    HW120606   2.644   3.384   0.252
 6569SOL    HW220607   2.652   3.440   0.405
 6570SOL     OW20608   3.414   0.686   2.477
 6570SOL    HW120609   3.315   0.689   2.493
 6570SOL    HW220610   3.459   0.757   2.532
 6571SOL     OW20611   3.046   4.848   1.766
 6571SOL    HW120612   3.058   4.935   1.718
 6571SOL    HW220613   2.949   4.824   1.769
 6572SOL     OW20614   0.086   4.493   4.679
 6572SOL    HW120615   0.042   4.431   4.614
 6572SOL    HW220616   0.020   4.520   4.749
 6573SOL     OW20617   1.103   1.848   2.194
 6573SOL    HW120618   1.143   1.760   2.167
 6573SOL    HW220619   1.006   1.849   2.171
 6574SOL     OW20620   2.632   5.901   2.093
 6574SOL    HW120621   2.696   5.868   2.162
 6574SOL    HW220622   2.683   5.938   2.016
 6575SOL     OW20623   0.440   6.976   3.400
 6575SOL    HW120624   0.454   6.882   3.369
 6575SOL    HW220625   0.342   6.998   3.399
 6576SOL     OW20626   2.012   6.196   6.895
 6576SOL    HW120627   1.914   6.178   6.886
 6576SOL    HW220628   2.027   6.267   6.964
 6577SOL     OW20629   0.799   1.824   3.992
 6577SOL    HW120630   0.767   1.729   3.992
 6577SOL    HW220631   0.851   1.841   3.909
 6578SOL     OW20632   0.886   6.055   2.876
 6578SOL    HW120633   0.896   5.960   2.906
 6578SOL    HW220634   0.800   6.065   2.826
 6579SOL     OW20635   0.284   3.244   4.116
 6579SOL    HW120636   0.335   3.322   4.152
 6579SOL    HW220637   0.209   3.277   4.058
 6580SOL     OW20638   0.801   1.492   0.745
 6580SOL    HW120639   0.795   1.503   0.844
 6580SOL    HW220640   0.815   1.396   0.723
 6581SOL     OW20641   2.557   0.494   0.182
 6581SOL    HW120642   2.472   0.448   0.159
 6581SOL    HW220643   2.625   0.426   0.211
 6582SOL     OW20644   0.401   1.326   2.975
 6582SOL    HW120645   0.346   1.243   2.984
 6582SOL    HW220646   0.420   1.343   2.878
 6583SOL     OW20647   4.496   0.533   5.733
 6583SOL    HW120648   4.521   0.612   5.678
 6583SOL    HW220649   4.521   0.449   5.684
 6584SOL     OW20650   4.370   2.746   0.996
 6584SOL    HW120651   4.451   2.711   1.043
 6584SOL    HW220652   4.288   2.702   1.034
 6585SOL     OW20653   6.026   6.217   0.280
 6585SOL    HW120654   6.070   6.270   0.353
 6585SOL    HW220655   6.021   6.121   0.307
 6586SOL     OW20656   5.478   0.886   5.789
 6586SOL    HW120657   5.435   0.976   5.796
 6586SOL    HW220658   5.420   0.826   5.734
 6587SOL     OW20659   2.049   5.155   5.399
 6587SOL    HW120660   2.006   5.213   5.329
 6587SOL    HW220661   2.133   5.199   5.431
 6588SOL     OW20662   0.379   2.973   2.217
 6588SOL    HW120663   0.427   2.990   2.302
 6588SOL    HW220664   0.310   2.902   2.231
 6589SOL     OW20665   4.889   0.311   1.027
 6589SOL    HW120666   4.822   0.292   1.099
 6589SOL    HW220667   4.862   0.394   0.978
 6590SOL     OW20668   0.398   1.075   6.381
 6590SOL    HW120669   0.419   0.981   6.409
 6590SOL    HW220670   0.451   1.139   6.437
 6591SOL     OW20671   6.220   5.947   2.794
 6591SOL    HW120672   6.274   5.980   2.872
 6591SOL    HW220673   6.221   5.847   2.792
 6592SOL     OW20674   4.998   0.436   3.248
 6592SOL    HW120675   5.050   0.354   3.273
 6592SOL    HW220676   4.947   0.468   3.328
 6593SOL     OW20677   1.886   2.386   2.744
 6593SOL    HW120678   1.880   2.322   2.820
 6593SOL    HW220679   1.798   2.387   2.695
 6594SOL     OW20680   3.821   1.436   6.561
 6594SOL    HW120681   3.774   1.485   6.634
 6594SOL    HW220682   3.850   1.500   6.490
 6595SOL     OW20683   1.342   4.687   6.890
 6595SOL    HW120684   1.318   4.784   6.886
 6595SOL    HW220685   1.294   4.644   6.967
 6596SOL     OW20686   3.122   6.959   4.207
 6596SOL    HW120687   3.126   6.973   4.108
 6596SOL    HW220688   3.196   6.898   4.236
 6597SOL     OW20689   1.077   5.256   1.269
 6597SOL    HW120690   1.126   5.187   1.322
 6597SOL    HW220691   0.980   5.253   1.292
 6598SOL     OW20692   1.715   5.384   4.457
 6598SOL    HW120693   1.714   5.391   4.556
 6598SOL    HW220694   1.727   5.288   4.430
 6599SOL     OW20695   4.073   6.315   6.550
 6599SOL    HW120696   4.031   6.255   6.618
 6599SOL    HW220697   4.153   6.270   6.511
 6600SOL     OW20698   4.162   5.760   5.524
 6600SOL    HW120699   4.071   5.722   5.535
 6600SOL    HW220700   4.179   5.829   5.594
 6601SOL     OW20701   1.552   1.949   4.471
 6601SOL    HW120702   1.581   1.978   4.562
 6601SOL    HW220703   1.564   1.850   4.462
 6602SOL     OW20704   2.017   1.275   2.220
 6602SOL    HW120705   1.944   1.324   2.269
 6602SOL    HW220706   2.054   1.204   2.280
 6603SOL     OW20707   6.916   2.579   3.589
 6603SOL    HW120708   6.874   2.521   3.659
 6603SOL    HW220709   7.003   2.539   3.560
 6604SOL     OW20710   0.979   0.369   1.115
 6604SOL    HW120711   1.070   0.387   1.078
 6604SOL    HW220712   0.967   0.270   1.125
 6605SOL     OW20713   5.788   5.313   1.634
 6605SOL    HW120714   5.757   5.405   1.656
 6605SOL    HW220715   5.765   5.292   1.539
 6606SOL     OW20716   0.881   5.789   2.072
 6606SOL    HW120717   0.964   5.733   2.079
 6606SOL    HW220718   0.801   5.731   2.062
 6607SOL     OW20719   1.944   3.838   1.980
 6607SOL    HW120720   1.962   3.924   1.932
 6607SOL    HW220721   1.970   3.761   1.921
 6608SOL     OW20722   6.712   5.810   0.919
 6608SOL    HW120723   6.704   5.865   0.836
 6608SOL    HW220724   6.621   5.781   0.948
 6609SOL     OW20725   4.879   0.916   0.037
 6609SOL    HW120726   4.878   0.832   0.091
 6609SOL    HW220727   4.959   0.971   0.061
 6610SOL     OW20728   2.455   6.095   0.493
 6610SOL    HW120729   2.383   6.165   0.500
 6610SOL    HW220730   2.542   6.140   0.472
 6611SOL     OW20731   4.778   2.850   3.043
 6611SOL    HW120732   4.846   2.921   3.021
 6611SOL    HW220733   4.740   2.813   2.958
 6612SOL     OW20734   6.191   1.934   6.605
 6612SOL    HW120735   6.155   1.879   6.681
 6612SOL    HW220736   6.288   1.911   6.591
 6613SOL     OW20737   0.055   6.496   5.386
 6613SOL    HW120738   0.117   6.570   5.413
 6613SOL    HW220739   0.100   6.408   5.402
 6614SOL     OW20740   4.434   5.340   6.927
 6614SOL    HW120741   4.499   5.414   6.947
 6614SOL    HW220742   4.468   5.254   6.965
 6615SOL     OW20743   1.555   5.767   1.083
 6615SOL    HW120744   1.480   5.710   1.047
 6615SOL    HW220745   1.518   5.829   1.153
 6616SOL     OW20746   4.648   0.848   6.365
 6616SOL    HW120747   4.593   0.885   6.440
 6616SOL    HW220748   4.591   0.790   6.307
 6617SOL     OW20749   4.680   5.238   3.321
 6617SOL    HW120750   4.723   5.154   3.352
 6617SOL    HW220751   4.747   5.312   3.322
 6618SOL     OW20752   1.552   1.995   2.526
 6618SOL    HW120753   1.612   1.973   2.603
 6618SOL    HW220754   1.478   2.054   2.557
 6619SOL     OW20755   5.432   0.639   4.203
 6619SOL    HW120756   5.518   0.589   4.214
 6619SOL    HW220757   5.414   0.653   4.106
 6620SOL     OW20758   1.386   2.958   5.571
 6620SOL    HW120759   1.414   2.991   5.481
 6620SOL    HW220760   1.294   2.918   5.564
 6621SOL     OW20761   3.303   3.233   6.109
 6621SOL    HW120762   3.402   3.215   6.108
 6621SOL    HW220763   3.279   3.281   6.194
 6622SOL     OW20764   5.720   6.400   2.135
 6622SOL    HW120765   5.712   6.331   2.207
 6622SOL    HW220766   5.630   6.441   2.118
 6623SOL     OW20767   3.680   3.234   5.029
 6623SOL    HW120768   3.608   3.245   4.960
 6623SOL    HW220769   3.760   3.287   5.002
 6624SOL     OW20770   0.243   4.539   5.966
 6624SOL    HW120771   0.309   4.612   5.947
 6624SOL    HW220772   0.284   4.473   6.029
 6625SOL     OW20773   5.330   1.986   5.152
 6625SOL    HW120774   5.411   1.960   5.100
 6625SOL    HW220775   5.250   1.938   5.116
 6626SOL     OW20776   3.784   5.616   5.296
 6626SOL    HW120777   3.829   5.687   5.242
 6626SOL    HW220778   3.790   5.638   5.393
 6627SOL     OW20779   2.280   6.745   5.625
 6627SOL    HW120780   2.277   6.768   5.722
 6627SOL    HW220781   2.218   6.805   5.574
 6628SOL     OW20782   5.644   5.296   4.378
 6628SOL    HW120783   5.724   5.279   4.435
 6628SOL    HW220784   5.561   5.285   4.432
 6629SOL     OW20785   4.629   6.580   6.598
 6629SOL    HW120786   4.634   6.533   6.686
 6629SOL    HW220787   4.634   6.679   6.613
 6630SOL     OW20788   3.651   1.196   0.966
 6630SOL    HW120789   3.687   1.205   1.058
 6630SOL    HW220790   3.554   1.221   0.966
 6631SOL     OW20791   2.333   5.574   3.832
 6631SOL    HW120792   2.385   5.504   3.784
 6631SOL    HW220793   2.370   5.585   3.924
 6632SOL     OW20794   0.647   0.386   1.099
 6632SOL    HW120795   0.741   0.372   1.129
 6632SOL    HW220796   0.595   0.301   1.110
 6633SOL     OW20797   1.652   4.771   6.507
 6633SOL    HW120798   1.655   4.782   6.408
 6633SOL    HW220799   1.608   4.685   6.530
 6634SOL     OW20800   4.888   1.905   5.047
 6634SOL    HW120801   4.885   2.001   5.073
 6634SOL    HW220802   4.916   1.898   4.951
 6635SOL     OW20803   4.595   4.504   2.945
 6635SOL    HW120804   4.557   4.559   3.019
 6635SOL    HW220805   4.553   4.530   2.858
 6636SOL     OW20806   4.833   1.819   6.691
 6636SOL    HW120807   4.879   1.805   6.779
 6636SOL    HW220808   4.738   1.844   6.707
 6637SOL     OW20809   0.504   6.969   0.008
 6637SOL    HW120810   0.470   0.037   7.002
 6637SOL    HW220811   0.452   6.936   0.087
 6638SOL     OW20812   3.102   3.784   2.796
 6638SOL    HW120813   3.105   3.697   2.845
 6638SOL    HW220814   3.188   3.799   2.748
 6639SOL     OW20815   5.104   4.707   6.614
 6639SOL    HW120816   5.146   4.662   6.693
 6639SOL    HW220817   5.175   4.729   6.547
 6640SOL     OW20818   0.322   1.842   4.940
 6640SOL    HW120819   0.254   1.900   4.895
 6640SOL    HW220820   0.363   1.892   5.016
 6641SOL     OW20821   2.524   1.277   6.493
 6641SOL    HW120822   2.465   1.210   6.539
 6641SOL    HW220823   2.595   1.308   6.557
 6642SOL     OW20824   1.745   6.135   6.856
 6642SOL    HW120825   1.758   6.059   6.792
 6642SOL    HW220826   1.671   6.194   6.823
 6643SOL     OW20827   5.865   5.850   0.315
 6643SOL    HW120828   5.789   5.808   0.364
 6643SOL    HW220829   5.840   5.943   0.287
 6644SOL     OW20830   2.130   5.146   1.582
 6644SOL    HW120831   2.202   5.082   1.559
 6644SOL    HW220832   2.066   5.154   1.506
 6645SOL     OW20833   6.116   4.076   0.562
 6645SOL    HW120834   6.042   4.017   0.528
 6645SOL    HW220835   6.202   4.026   0.559
 6646SOL     OW20836   4.227   0.479   5.159
 6646SOL    HW120837   4.186   0.415   5.093
 6646SOL    HW220838   4.327   0.477   5.149
 6647SOL     OW20839   5.287   0.882   1.012
 6647SOL    HW120840   5.287   0.978   0.983
 6647SOL    HW220841   5.283   0.877   1.112
 6648SOL     OW20842   3.169   6.219   3.856
 6648SOL    HW120843   3.118   6.303   3.875
 6648SOL    HW220844   3.130   6.144   3.908
 6649SOL     OW20845   5.527   1.431   6.690
 6649SOL    HW120846   5.488   1.430   6.782
 6649SOL    HW220847   5.510   1.521   6.648
 6650SOL     OW20848   3.916   1.493   5.667
 6650SOL    HW120849   3.955   1.568   5.614
 6650SOL    HW220850   3.929   1.511   5.765
 6651SOL     OW20851   2.824   0.687   5.784
 6651SOL    HW120852   2.923   0.689   5.766
 6651SOL    HW220853   2.785   0.604   5.745
 6652SOL     OW20854   0.354   4.049   6.765
 6652SOL    HW120855   0.373   3.951   6.775
 6652SOL    HW220856   0.260   4.061   6.731
 6653SOL     OW20857   4.154   3.701   1.130
 6653SOL    HW120858   4.159   3.611   1.087
 6653SOL    HW220859   4.246   3.730   1.158
 6654SOL     OW20860   1.641   5.068   0.739
 6654SOL    HW120861   1.587   5.114   0.669
 6654SOL    HW220862   1.588   5.062   0.823
 6655SOL     OW20863   0.926   6.676   3.918
 6655SOL    HW120864   0.884   6.599   3.968
 6655SOL    HW220865   0.860   6.714   3.854
 6656SOL     OW20866   4.918   1.876   4.043
 6656SOL    HW120867   4.865   1.791   4.043
 6656SOL    HW220868   4.862   1.951   4.008
 6657SOL     OW20869   6.046   4.566   6.027
 6657SOL    HW120870   6.050   4.624   5.945
 6657SOL    HW220871   6.136   4.567   6.071
 6658SOL     OW20872   6.167   1.129   4.589
 6658SOL    HW120873   6.074   1.129   4.627
 6658SOL    HW220874   6.232   1.151   4.661
 6659SOL     OW20875   2.125   3.382   7.017
 6659SOL    HW120876   2.034   3.377   0.036
 6659SOL    HW220877   2.117   3.397   6.918
 6660SOL     OW20878   1.224   4.936   1.231
 6660SOL    HW120879   1.175   4.858   1.192
 6660SOL    HW220880   1.321   4.913   1.243
 6661SOL     OW20881   1.686   0.366   5.222
 6661SOL    HW120882   1.741   0.338   5.144
 6661SOL    HW220883   1.660   0.462   5.212
 6662SOL     OW20884   0.970   0.181   7.005
 6662SOL    HW120885   0.899   0.185   6.936
 6662SOL    HW220886   1.022   0.266   7.005
 6663SOL     OW20887   6.496   5.947   4.449
 6663SOL    HW120888   6.446   6.014   4.394
 6663SOL    HW220889   6.490   5.857   4.407
 6664SOL     OW20890   2.257   6.690   0.553
 6664SOL    HW120891   2.301   6.632   0.622
 6664SOL    HW220892   2.161   6.664   0.544
 6665SOL     OW20893   1.577   6.176   4.523
 6665SOL    HW120894   1.543   6.082   4.524
 6665SOL    HW220895   1.545   6.225   4.604
 6666SOL     OW20896   6.307   6.499   6.252
 6666SOL    HW120897   6.389   6.445   6.272
 6666SOL    HW220898   6.226   6.445   6.273
 6667SOL     OW20899   6.185   6.705   6.147
 6667SOL    HW120900   6.232   6.790   6.170
 6667SOL    HW220901   6.238   6.627   6.180
 6668SOL     OW20902   6.695   5.376   0.313
 6668SOL    HW120903   6.707   5.447   0.383
 6668SOL    HW220904   6.641   5.413   0.237
 6669SOL     OW20905   2.150   2.078   2.688
 6669SOL    HW120906   2.081   2.031   2.633
 6669SOL    HW220907   2.159   2.172   2.655
 6670SOL     OW20908   3.210   1.825   5.111
 6670SOL    HW120909   3.259   1.906   5.144
 6670SOL    HW220910   3.114   1.831   5.138
 6671SOL     OW20911   5.006   6.602   0.530
 6671SOL    HW120912   5.065   6.602   0.449
 6671SOL    HW220913   4.929   6.663   0.515
 6672SOL     OW20914   6.599   2.832   6.612
 6672SOL    HW120915   6.587   2.862   6.518
 6672SOL    HW220916   6.531   2.878   6.671
 6673SOL     OW20917   4.590   4.400   4.329
 6673SOL    HW120918   4.498   4.439   4.317
 6673SOL    HW220919   4.615   4.402   4.426
 6674SOL     OW20920   0.646   3.866   6.685
 6674SOL    HW120921   0.596   3.826   6.609
 6674SOL    HW220922   0.611   3.830   6.771
 6675SOL     OW20923   5.817   3.337   0.169
 6675SOL    HW120924   5.831   3.267   0.239
 6675SOL    HW220925   5.875   3.317   0.090
 6676SOL     OW20926   1.254   4.287   5.793
 6676SOL    HW120927   1.289   4.232   5.870
 6676SOL    HW220928   1.323   4.290   5.721
 6677SOL     OW20929   1.597   1.447   6.068
 6677SOL    HW120930   1.692   1.444   6.037
 6677SOL    HW220931   1.591   1.501   6.152
 6678SOL     OW20932   3.159   3.296   6.989
 6678SOL    HW120933   3.190   3.215   0.018
 6678SOL    HW220934   3.171   3.377   0.026
 6679SOL     OW20935   3.240   1.037   3.868
 6679SOL    HW120936   3.246   0.952   3.814
 6679SOL    HW220937   3.316   1.040   3.933
 6680SOL     OW20938   5.117   6.822   6.469
 6680SOL    HW120939   5.033   6.838   6.522
 6680SOL    HW220940   5.158   6.735   6.497
 6681SOL     OW20941   4.067   5.090   1.268
 6681SOL    HW120942   4.073   5.154   1.345
 6681SOL    HW220943   3.975   5.052   1.265
 6682SOL     OW20944   1.358   4.489   1.764
 6682SOL    HW120945   1.265   4.469   1.797
 6682SOL    HW220946   1.420   4.417   1.795
 6683SOL     OW20947   5.971   3.748   5.107
 6683SOL    HW120948   5.992   3.733   5.204
 6683SOL    HW220949   5.875   3.773   5.098
 6684SOL     OW20950   2.884   6.670   1.659
 6684SOL    HW120951   2.873   6.667   1.560
 6684SOL    HW220952   2.797   6.694   1.702
 6685SOL     OW20953   5.933   2.654   5.556
 6685SOL    HW120954   6.030   2.665   5.578
 6685SOL    HW220955   5.878   2.703   5.623
 6686SOL     OW20956   4.924   6.193   3.969
 6686SOL    HW120957   5.024   6.193   3.969
 6686SOL    HW220958   4.891   6.115   3.916
 6687SOL     OW20959   1.156   3.273   1.311
 6687SOL    HW120960   1.241   3.235   1.274
 6687SOL    HW220961   1.098   3.200   1.345
 6688SOL     OW20962   6.266   4.845   2.394
 6688SOL    HW120963   6.250   4.754   2.433
 6688SOL    HW220964   6.201   4.910   2.434
 6689SOL     OW20965   3.779   3.382   6.646
 6689SOL    HW120966   3.705   3.446   6.662
 6689SOL    HW220967   3.772   3.346   6.552
 6690SOL     OW20968   0.714   1.114   0.981
 6690SOL    HW120969   0.741   1.099   0.886
 6690SOL    HW220970   0.733   1.209   1.006
 6691SOL     OW20971   2.716   6.488   2.584
 6691SOL    HW120972   2.757   6.531   2.503
 6691SOL    HW220973   2.682   6.397   2.559
 6692SOL     OW20974   3.440   3.212   3.959
 6692SOL    HW120975   3.505   3.267   4.012
 6692SOL    HW220976   3.475   3.119   3.951
 6693SOL     OW20977   3.720   2.670   5.273
 6693SOL    HW120978   3.708   2.763   5.236
 6693SOL    HW220979   3.630   2.631   5.294
 6694SOL     OW20980   4.534   5.373   1.166
 6694SOL    HW120981   4.522   5.418   1.254
 6694SOL    HW220982   4.463   5.304   1.154
 6695SOL     OW20983   3.084   2.131   6.922
 6695SOL    HW120984   3.059   2.222   6.955
 6695SOL    HW220985   3.005   2.070   6.930
 6696SOL     OW20986   2.916   3.249   5.159
 6696SOL    HW120987   2.915   3.221   5.063
 6696SOL    HW220988   3.011   3.256   5.191
 6697SOL     OW20989   4.730   2.088   2.652
 6697SOL    HW120990   4.731   2.011   2.716
 6697SOL    HW220991   4.727   2.054   2.558
 6698SOL     OW20992   2.939   2.223   0.618
 6698SOL    HW120993   2.868   2.233   0.548
 6698SOL    HW220994   2.952   2.311   0.664
 6699SOL     OW20995   2.521   5.598   5.394
 6699SOL    HW120996   2.562   5.673   5.341
 6699SOL    HW220997   2.441   5.563   5.346
 6700SOL     OW20998   0.790   0.847   1.473
 6700SOL    HW120999   0.790   0.941   1.441
 6700SOL    HW221000   0.735   0.791   1.410
 6701SOL     OW21001   5.797   4.852   2.548
 6701SOL    HW121002   5.751   4.914   2.612
 6701SOL    HW221003   5.844   4.905   2.478
 6702SOL     OW21004   3.061   2.226   1.691
 6702SOL    HW121005   2.981   2.276   1.658
 6702SOL    HW221006   3.039   2.181   1.778
 6703SOL     OW21007   6.313   1.403   7.003
 6703SOL    HW121008   6.328   1.502   7.007
 6703SOL    HW221009   6.394   1.356   0.016
 6704SOL     OW21010   3.680   1.642   3.691
 6704SOL    HW121011   3.760   1.700   3.676
 6704SOL    HW221012   3.647   1.653   3.784
 6705SOL     OW21013   6.731   3.797   1.688
 6705SOL    HW121014   6.644   3.845   1.684
 6705SOL    HW221015   6.728   3.730   1.762
 6706SOL     OW21016   1.116   4.542   1.554
 6706SOL    HW121017   1.059   4.520   1.633
 6706SOL    HW221018   1.170   4.624   1.573
 6707SOL     OW21019   6.361   6.369   3.683
 6707SOL    HW121020   6.347   6.289   3.625
 6707SOL    HW221021   6.455   6.369   3.717
 6708SOL     OW21022   0.123   4.872   0.490
 6708SOL    HW121023   0.122   4.844   0.586
 6708SOL    HW221024   0.173   4.959   0.481
 6709SOL     OW21025   2.683   6.018   2.634
 6709SOL    HW121026   2.625   5.953   2.586
 6709SOL    HW221027   2.696   5.989   2.729
 6710SOL     OW21028   3.541   1.761   6.006
 6710SOL    HW121029   3.514   1.849   5.966
 6710SOL    HW221030   3.578   1.776   6.097
 6711SOL     OW21031   4.586   5.898   5.742
 6711SOL    HW121032   4.642   5.826   5.783
 6711SOL    HW221033   4.640   5.948   5.674
 6712SOL     OW21034   5.374   4.242   0.673
 6712SOL    HW121035   5.317   4.205   0.599
 6712SOL    HW221036   5.319   4.248   0.757
 6713SOL     OW21037   2.249   0.240   2.618
 6713SOL    HW121038   2.342   0.266   2.647
 6713SOL    HW221039   2.250   0.215   2.521
 6714SOL     OW21040   6.810   0.873   5.860
 6714SOL    HW121041   6.881   0.894   5.794
 6714SOL    HW221042   6.825   0.925   5.944
 6715SOL     OW21043   0.276   0.105   0.294
 6715SOL    HW121044   0.363   0.058   0.309
 6715SOL    HW221045   0.280   0.157   0.209
 6716SOL     OW21046   0.136   5.640   2.200
 6716SOL    HW121047   0.117   5.631   2.103
 6716SOL    HW221048   0.050   5.660   2.249
 6717SOL     OW21049   4.045   2.698   6.709
 6717SOL    HW121050   3.970   2.682   6.774
 6717SOL    HW221051   4.109   2.621   6.713
 6718SOL     OW21052   6.050   1.025   1.126
 6718SOL    HW121053   6.143   1.029   1.163
 6718SOL    HW221054   5.987   0.999   1.199
 6719SOL     OW21055   2.304   6.547   6.167
 6719SOL    HW121056   2.309   6.534   6.266
 6719SOL    HW221057   2.277   6.642   6.147
 6720SOL     OW21058   1.860   0.651   4.696
 6720SOL    HW121059   1.809   0.730   4.731
 6720SOL    HW221060   1.883   0.667   4.600
 6721SOL     OW21061   6.601   0.112   0.471
 6721SOL    HW121062   6.530   0.112   0.400
 6721SOL    HW221063   6.601   0.025   0.519
 6722SOL     OW21064   0.224   2.926   1.937
 6722SOL    HW121065   0.144   2.982   1.921
 6722SOL    HW221066   0.252   2.934   2.032
 6723SOL     OW21067   1.771   6.679   3.391
 6723SOL    HW121068   1.746   6.776   3.382
 6723SOL    HW221069   1.867   6.667   3.365
 6724SOL     OW21070   1.908   3.255   6.118
 6724SOL    HW121071   1.866   3.225   6.204
 6724SOL    HW221072   1.915   3.355   6.118
 6725SOL     OW21073   0.169   3.361   1.773
 6725SOL    HW121074   0.234   3.418   1.722
 6725SOL    HW221075   0.220   3.299   1.834
 6726SOL     OW21076   0.635   2.541   5.270
 6726SOL    HW121077   0.626   2.581   5.361
 6726SOL    HW221078   0.547   2.544   5.223
 6727SOL     OW21079   0.165   4.649   5.186
 6727SOL    HW121080   0.074   4.685   5.205
 6727SOL    HW221081   0.234   4.719   5.204
 6728SOL     OW21082   3.541   2.019   2.409
 6728SOL    HW121083   3.620   2.041   2.352
 6728SOL    HW221084   3.572   1.971   2.491
 6729SOL     OW21085   6.774   1.046   2.862
 6729SOL    HW121086   6.747   1.098   2.943
 6729SOL    HW221087   6.702   1.052   2.793
 6730SOL     OW21088   2.050   6.742   1.292
 6730SOL    HW121089   2.093   6.664   1.247
 6730SOL    HW221090   2.120   6.796   1.340
 6731SOL     OW21091   0.685   6.347   0.954
 6731SOL    HW121092   0.707   6.394   1.040
 6731SOL    HW221093   0.586   6.334   0.948
 6732SOL     OW21094   5.690   4.934   4.630
 6732SOL    HW121095   5.627   5.005   4.661
 6732SOL    HW221096   5.782   4.972   4.624
 6733SOL     OW21097   3.725   5.381   6.703
 6733SOL    HW121098   3.820   5.401   6.730
 6733SOL    HW221099   3.663   5.408   6.777
 6734SOL     OW21100   5.983   2.627   4.239
 6734SOL    HW121101   5.912   2.652   4.173
 6734SOL    HW221102   6.035   2.708   4.264
 6735SOL     OW21103   6.308   4.008   5.090
 6735SOL    HW121104   6.345   4.101   5.089
 6735SOL    HW221105   6.279   3.983   4.997
 6736SOL     OW21106   3.417   3.921   0.481
 6736SOL    HW121107   3.356   3.975   0.540
 6736SOL    HW221108   3.422   3.827   0.515
 6737SOL     OW21109   1.322   2.397   0.910
 6737SOL    HW121110   1.231   2.430   0.936
 6737SOL    HW221111   1.392   2.451   0.956
 6738SOL     OW21112   1.605   6.070   3.012
 6738SOL    HW121113   1.522   6.047   2.961
 6738SOL    HW221114   1.631   6.164   2.992
 6739SOL     OW21115   3.900   6.096   4.898
 6739SOL    HW121116   3.915   6.129   4.804
 6739SOL    HW221117   3.808   6.058   4.906
 6740SOL     OW21118   1.084   0.761   4.810
 6740SOL    HW121119   1.011   0.740   4.746
 6740SOL    HW221120   1.162   0.799   4.760
 6741SOL     OW21121   4.112   1.767   5.036
 6741SOL    HW121122   4.043   1.743   5.104
 6741SOL    HW221123   4.183   1.698   5.035
 6742SOL     OW21124   5.660   6.193   2.551
 6742SOL    HW121125   5.634   6.145   2.635
 6742SOL    HW221126   5.674   6.290   2.571
 6743SOL     OW21127   3.533   5.408   6.905
 6743SOL    HW121128   3.479   5.469   6.847
 6743SOL    HW221129   3.515   5.429   7.002
 6744SOL     OW21130   5.879   4.107   6.160
 6744SOL    HW121131   5.976   4.085   6.170
 6744SOL    HW221132   5.841   4.056   6.083
 6745SOL     OW21133   6.828   6.909   3.303
 6745SOL    HW121134   6.873   6.947   3.222
 6745SOL    HW221135   6.805   6.813   3.286
 6746SOL     OW21136   1.053   1.263   3.302
 6746SOL    HW121137   1.047   1.190   3.370
 6746SOL    HW221138   0.977   1.254   3.237
 6747SOL     OW21139   5.322   1.431   4.642
 6747SOL    HW121140   5.222   1.432   4.635
 6747SOL    HW221141   5.355   1.522   4.670
 6748SOL     OW21142   3.128   1.303   3.977
 6748SOL    HW121143   3.108   1.262   3.888
 6748SOL    HW221144   3.061   1.271   4.044
 6749SOL     OW21145   3.078   5.083   0.491
 6749SOL    HW121146   3.174   5.065   0.513
 6749SOL    HW221147   3.039   5.002   0.447
 6750SOL     OW21148   4.259   1.925   4.841
 6750SOL    HW121149   4.214   2.009   4.871
 6750SOL    HW221150   4.197   1.848   4.851
 6751SOL     OW21151   4.176   6.631   3.409
 6751SOL    HW121152   4.083   6.621   3.375
 6751SOL    HW221153   4.232   6.676   3.339
 6752SOL     OW21154   0.953   1.500   3.160
 6752SOL    HW121155   0.904   1.545   3.234
 6752SOL    HW221156   0.993   1.415   3.194
 6753SOL     OW21157   2.932   0.370   6.763
 6753SOL    HW121158   2.860   0.333   6.822
 6753SOL    HW221159   3.011   0.309   6.765
 6754SOL     OW21160   0.092   2.026   0.608
 6754SOL    HW121161   0.019   1.960   0.627
 6754SOL    HW221162   0.133   2.056   0.694
 6755SOL     OW21163   4.456   0.611   3.003
 6755SOL    HW121164   4.500   0.629   3.091
 6755SOL    HW221165   4.525   0.580   2.937
 6756SOL     OW21166   3.716   5.491   4.922
 6756SOL    HW121167   3.751   5.447   5.004
 6756SOL    HW221168   3.616   5.492   4.923
 6757SOL     OW21169   4.268   2.075   1.123
 6757SOL    HW121170   4.214   2.136   1.065
 6757SOL    HW221171   4.278   1.986   1.079
 6758SOL     OW21172   6.148   1.761   1.887
 6758SOL    HW121173   6.175   1.679   1.937
 6758SOL    HW221174   6.221   1.828   1.891
 6759SOL     OW21175   0.932   3.870   4.685
 6759SOL    HW121176   0.875   3.949   4.705
 6759SOL    HW221177   0.889   3.814   4.615
 6760SOL     OW21178   6.728   4.007   2.620
 6760SOL    HW121179   6.668   4.088   2.621
 6760SOL    HW221180   6.703   3.946   2.695
 6761SOL     OW21181   6.464   2.270   5.657
 6761SOL    HW121182   6.523   2.301   5.731
 6761SOL    HW221183   6.485   2.320   5.574
 6762SOL     OW21184   0.855   5.427   4.656
 6762SOL    HW121185   0.945   5.466   4.676
 6762SOL    HW221186   0.787   5.468   4.717
 6763SOL     OW21187   1.055   4.812   2.883
 6763SOL    HW121188   1.146   4.854   2.886
 6763SOL    HW221189   0.985   4.884   2.886
 6764SOL     OW21190   1.387   5.569   1.019
 6764SOL    HW121191   1.403   5.477   0.984
 6764SOL    HW221192   1.313   5.566   1.087
 6765SOL     OW21193   5.779   4.216   3.935
 6765SOL    HW121194   5.823   4.202   4.024
 6765SOL    HW221195   5.768   4.314   3.918
 6766SOL     OW21196   4.897   6.907   6.016
 6766SOL    HW121197   4.833   6.918   6.093
 6766SOL    HW221198   4.988   6.936   6.045
 6767SOL     OW21199   1.644   2.293   1.068
 6767SOL    HW121200   1.726   2.240   1.092
 6767SOL    HW221201   1.605   2.333   1.151
 6768SOL     OW21202   1.402   6.447   3.535
 6768SOL    HW121203   1.303   6.453   3.520
 6768SOL    HW221204   1.434   6.356   3.510
 6769SOL     OW21205   3.049   1.003   5.478
 6769SOL    HW121206   3.046   1.017   5.577
 6769SOL    HW221207   3.097   1.080   5.436
 6770SOL     OW21208   4.961   1.994   3.377
 6770SOL    HW121209   4.944   2.005   3.279
 6770SOL    HW221210   5.012   2.072   3.412
 6771SOL     OW21211   3.853   1.516   2.151
 6771SOL    HW121212   3.943   1.506   2.193
 6771SOL    HW221213   3.804   1.591   2.196
 6772SOL     OW21214   4.683   2.674   2.043
 6772SOL    HW121215   4.707   2.769   2.025
 6772SOL    HW221216   4.741   2.637   2.116
 6773SOL     OW21217   0.730   6.068   1.845
 6773SOL    HW121218   0.710   6.028   1.756
 6773SOL    HW221219   0.828   6.067   1.861
 6774SOL     OW21220   1.961   3.928   5.667
 6774SOL    HW121221   1.993   3.855   5.607
 6774SOL    HW221222   1.861   3.928   5.668
 6775SOL     OW21223   2.064   2.478   2.955
 6775SOL    HW121224   2.005   2.449   2.880
 6775SOL    HW221225   2.158   2.486   2.923
 6776SOL     OW21226   4.706   3.333   0.175
 6776SOL    HW121227   4.668   3.243   0.196
 6776SOL    HW221228   4.742   3.375   0.258
 6777SOL     OW21229   4.932   4.648   0.780
 6777SOL    HW121230   4.981   4.719   0.730
 6777SOL    HW221231   4.973   4.559   0.759
 6778SOL     OW21232   0.255   5.701   1.516
 6778SOL    HW121233   0.269   5.722   1.419
 6778SOL    HW221234   0.201   5.773   1.559
 6779SOL     OW21235   5.779   5.336   6.233
 6779SOL    HW121236   5.732   5.303   6.315
 6779SOL    HW221237   5.854   5.274   6.211
 6780SOL     OW21238   1.300   3.237   2.675
 6780SOL    HW121239   1.331   3.301   2.745
 6780SOL    HW221240   1.256   3.159   2.719
 6781SOL     OW21241   6.122   1.966   4.883
 6781SOL    HW121242   6.181   2.037   4.845
 6781SOL    HW221243   6.171   1.918   4.955
 6782SOL     OW21244   0.781   0.984   3.263
 6782SOL    HW121245   0.800   1.080   3.239
 6782SOL    HW221246   0.683   0.967   3.254
 6783SOL     OW21247   0.106   1.562   6.098
 6783SOL    HW121248   0.043   1.505   6.151
 6783SOL    HW221249   0.074   1.567   6.003
 6784SOL     OW21250   1.889   3.626   0.570
 6784SOL    HW121251   1.922   3.639   0.664
 6784SOL    HW221252   1.865   3.715   0.531
 6785SOL     OW21253   6.140   6.015   5.000
 6785SOL    HW121254   6.236   6.003   5.022
 6785SOL    HW221255   6.130   6.090   4.934
 6786SOL     OW21256   1.545   1.969   0.701
 6786SOL    HW121257   1.622   2.030   0.720
 6786SOL    HW221258   1.498   1.947   0.786
 6787SOL     OW21259   2.977   2.772   0.346
 6787SOL    HW121260   2.997   2.772   0.248
 6787SOL    HW221261   2.890   2.820   0.361
 6788SOL     OW21262   0.566   4.648   1.295
 6788SOL    HW121263   0.550   4.604   1.206
 6788SOL    HW221264   0.585   4.578   1.364
 6789SOL     OW21265   0.855   4.561   4.039
 6789SOL    HW121266   0.914   4.640   4.022
 6789SOL    HW221267   0.817   4.528   3.953
 6790SOL     OW21268   1.084   3.853   0.218
 6790SOL    HW121269   1.058   3.810   0.132
 6790SOL    HW221270   1.143   3.932   0.199
 6791SOL     OW21271   3.748   2.077   2.223
 6791SOL    HW121272   3.729   2.146   2.153
 6791SOL    HW221273   3.843   2.045   2.214
 6792SOL     OW21274   5.032   0.036   5.406
 6792SOL    HW121275   5.019   0.070   5.312
 6792SOL    HW221276   5.126   0.004   5.417
 6793SOL     OW21277   1.652   1.344   0.091
 6793SOL    HW121278   1.665   1.364   0.189
 6793SOL    HW221279   1.662   1.428   0.039
 6794SOL     OW21280   5.129   1.566   5.213
 6794SOL    HW121281   5.129   1.501   5.137
 6794SOL    HW221282   5.048   1.552   5.270
 6795SOL     OW21283   1.254   6.861   1.260
 6795SOL    HW121284   1.254   6.959   1.241
 6795SOL    HW221285   1.286   6.812   1.179
 6796SOL     OW21286   5.787   0.946   3.425
 6796SOL    HW121287   5.812   0.883   3.352
 6796SOL    HW221288   5.797   1.040   3.393
 6797SOL     OW21289   6.771   2.326   1.946
 6797SOL    HW121290   6.676   2.351   1.929
 6797SOL    HW221291   6.822   2.326   1.859
 6798SOL     OW21292   5.924   6.200   1.618
 6798SOL    HW121293   5.971   6.212   1.530
 6798SOL    HW221294   5.969   6.127   1.670
 6799SOL     OW21295   6.408   0.876   2.355
 6799SOL    HW121296   6.331   0.893   2.416
 6799SOL    HW221297   6.388   0.795   2.299
 6800SOL     OW21298   2.410   2.675   2.175
 6800SOL    HW121299   2.389   2.647   2.081
 6800SOL    HW221300   2.497   2.723   2.176
 6801SOL     OW21301   1.544   0.743   3.302
 6801SOL    HW121302   1.581   0.832   3.276
 6801SOL    HW221303   1.513   0.746   3.397
 6802SOL     OW21304   3.533   5.160   1.300
 6802SOL    HW121305   3.618   5.196   1.337
 6802SOL    HW221306   3.509   5.075   1.347
 6803SOL     OW21307   4.430   3.915   5.743
 6803SOL    HW121308   4.475   3.907   5.654
 6803SOL    HW221309   4.492   3.958   5.808
 6804SOL     OW21310   4.097   4.762   3.827
 6804SOL    HW121311   4.023   4.754   3.893
 6804SOL    HW221312   4.059   4.770   3.735
 6805SOL     OW21313   0.230   4.629   6.308
 6805SOL    HW121314   0.151   4.598   6.254
 6805SOL    HW221315   0.216   4.608   6.404
 6806SOL     OW21316   6.300   1.467   3.347
 6806SOL    HW121317   6.306   1.491   3.250
 6806SOL    HW221318   6.327   1.371   3.358
 6807SOL     OW21319   3.235   3.070   1.220
 6807SOL    HW121320   3.264   3.001   1.287
 6807SOL    HW221321   3.149   3.041   1.178
 6808SOL     OW21322   6.852   1.892   6.045
 6808SOL    HW121323   6.851   1.829   5.968
 6808SOL    HW221324   6.886   1.844   6.126
 6809SOL     OW21325   0.398   3.439   1.251
 6809SOL    HW121326   0.335   3.367   1.224
 6809SOL    HW221327   0.347   3.525   1.262
 6810SOL     OW21328   2.919   0.619   2.360
 6810SOL    HW121329   2.962   0.689   2.304
 6810SOL    HW221330   2.919   0.531   2.312
 6811SOL     OW21331   5.760   4.101   1.602
 6811SOL    HW121332   5.786   4.193   1.573
 6811SOL    HW221333   5.830   4.064   1.664
 6812SOL     OW21334   3.643   4.009   4.587
 6812SOL    HW121335   3.643   3.921   4.634
 6812SOL    HW221336   3.553   4.027   4.549
 6813SOL     OW21337   5.743   3.464   3.083
 6813SOL    HW121338   5.765   3.367   3.077
 6813SOL    HW221339   5.712   3.486   3.175
 6814SOL     OW21340   4.024   2.506   6.249
 6814SOL    HW121341   4.060   2.462   6.167
 6814SOL    HW221342   4.053   2.454   6.330
 6815SOL     OW21343   2.581   5.934   0.146
 6815SOL    HW121344   2.502   5.942   0.208
 6815SOL    HW221345   2.606   5.837   0.137
 6816SOL     OW21346   6.549   0.920   5.815
 6816SOL    HW121347   6.644   0.890   5.811
 6816SOL    HW221348   6.511   0.898   5.905
 6817SOL     OW21349   2.441   2.680   3.279
 6817SOL    HW121350   2.467   2.705   3.373
 6817SOL    HW221351   2.366   2.739   3.249
 6818SOL     OW21352   2.126   6.403   0.803
 6818SOL    HW121353   2.184   6.398   0.722
 6818SOL    HW221354   2.030   6.398   0.776
 6819SOL     OW21355   4.205   1.393   2.907
 6819SOL    HW121356   4.164   1.477   2.944
 6819SOL    HW221357   4.155   1.314   2.942
 6820SOL     OW21358   2.002   6.319   1.202
 6820SOL    HW121359   2.083   6.374   1.179
 6820SOL    HW221360   2.031   6.231   1.239
 6821SOL     OW21361   4.005   2.294   5.269
 6821SOL    HW121362   4.032   2.345   5.188
 6821SOL    HW221363   3.963   2.356   5.335
 6822SOL     OW21364   5.563   2.077   5.925
 6822SOL    HW121365   5.510   1.993   5.911
 6822SOL    HW221366   5.500   2.154   5.936
 6823SOL     OW21367   5.703   3.962   5.693
 6823SOL    HW121368   5.789   4.009   5.669
 6823SOL    HW221369   5.629   4.028   5.697
 6824SOL     OW21370   1.414   1.726   0.610
 6824SOL    HW121371   1.362   1.718   0.694
 6824SOL    HW221372   1.479   1.802   0.617
 6825SOL     OW21373   6.313   0.182   0.461
 6825SOL    HW121374   6.327   0.281   0.474
 6825SOL    HW221375   6.316   0.161   0.364
 6826SOL     OW21376   2.137   3.313   3.475
 6826SOL    HW121377   2.188   3.240   3.429
 6826SOL    HW221378   2.149   3.398   3.424
 6827SOL     OW21379   4.763   5.216   6.122
 6827SOL    HW121380   4.830   5.258   6.061
 6827SOL    HW221381   4.805   5.136   6.166
 6828SOL     OW21382   3.507   1.445   1.361
 6828SOL    HW121383   3.503   1.512   1.435
 6828SOL    HW221384   3.424   1.453   1.305
 6829SOL     OW21385   5.339   5.887   5.403
 6829SOL    HW121386   5.316   5.931   5.316
 6829SOL    HW221387   5.434   5.856   5.400
 6830SOL     OW21388   5.235   0.737   3.129
 6830SOL    HW121389   5.184   0.733   3.215
 6830SOL    HW221390   5.314   0.677   3.134
 6831SOL     OW21391   1.385   0.857   6.584
 6831SOL    HW121392   1.443   0.906   6.518
 6831SOL    HW221393   1.434   0.849   6.671
 6832SOL     OW21394   2.169   4.324   0.944
 6832SOL    HW121395   2.264   4.295   0.928
 6832SOL    HW221396   2.116   4.311   0.860
 6833SOL     OW21397   3.074   4.684   7.010
 6833SOL    HW121398   3.009   4.649   6.942
 6833SOL    HW221399   3.167   4.667   6.979
 6834SOL     OW21400   5.993   0.644   0.277
 6834SOL    HW121401   6.003   0.554   0.319
 6834SOL    HW221402   5.897   0.670   0.276
 6835SOL     OW21403   4.161   0.968   4.653
 6835SOL    HW121404   4.180   0.976   4.555
 6835SOL    HW221405   4.164   0.871   4.679
 6836SOL     OW21406   3.553   4.163   0.326
 6836SOL    HW121407   3.516   4.223   0.254
 6836SOL    HW221408   3.481   4.138   0.389
 6837SOL     OW21409   1.033   2.105   2.867
 6837SOL    HW121410   1.104   2.079   2.802
 6837SOL    HW221411   0.945   2.071   2.834
 6838SOL     OW21412   3.738   6.132   6.580
 6838SOL    HW121413   3.715   6.153   6.485
 6838SOL    HW221414   3.655   6.110   6.630
 6839SOL     OW21415   5.391   1.156   5.766
 6839SOL    HW121416   5.335   1.213   5.826
 6839SOL    HW221417   5.381   1.187   5.671
 6840SOL     OW21418   3.427   0.091   4.112
 6840SOL    HW121419   3.410   0.049   4.023
 6840SOL    HW221420   3.497   0.039   4.161
 6841SOL     OW21421   3.791   4.289   0.593
 6841SOL    HW121422   3.852   4.338   0.655
 6841SOL    HW221423   3.709   4.343   0.576
 6842SOL     OW21424   2.541   3.633   0.793
 6842SOL    HW121425   2.458   3.644   0.739
 6842SOL    HW221426   2.547   3.707   0.860
 6843SOL     OW21427   6.092   6.837   2.004
 6843SOL    HW121428   6.130   6.748   2.030
 6843SOL    HW221429   6.008   6.854   2.054
 6844SOL     OW21430   5.008   0.296   3.608
 6844SOL    HW121431   5.005   0.234   3.687
 6844SOL    HW221432   5.103   0.313   3.583
 6845SOL     OW21433   6.203   5.400   3.267
 6845SOL    HW121434   6.156   5.488   3.273
 6845SOL    HW221435   6.276   5.406   3.199
 6846SOL     OW21436   3.994   2.936   0.748
 6846SOL    HW121437   4.081   2.984   0.743
 6846SOL    HW221438   3.938   2.961   0.669
 6847SOL     OW21439   0.080   4.758   3.674
 6847SOL    HW121440   0.126   4.670   3.690
 6847SOL    HW221441   0.023   4.751   3.592
 6848SOL     OW21442   3.775   6.603   3.861
 6848SOL    HW121443   3.722   6.531   3.906
 6848SOL    HW221444   3.810   6.666   3.930
 6849SOL     OW21445   3.743   5.291   5.517
 6849SOL    HW121446   3.704   5.284   5.425
 6849SOL    HW221447   3.768   5.200   5.549
 6850SOL     OW21448   6.188   3.661   2.402
 6850SOL    HW121449   6.241   3.722   2.462
 6850SOL    HW221450   6.147   3.714   2.328
 6851SOL     OW21451   0.853   3.110   3.716
 6851SOL    HW121452   0.829   3.146   3.625
 6851SOL    HW221453   0.940   3.062   3.710
 6852SOL     OW21454   2.356   5.159   0.572
 6852SOL    HW121455   2.421   5.092   0.535
 6852SOL    HW221456   2.263   5.129   0.552
 6853SOL     OW21457   6.780   3.838   0.623
 6853SOL    HW121458   6.811   3.769   0.557
 6853SOL    HW221459   6.788   3.801   0.716
 6854SOL     OW21460   4.541   1.736   6.363
 6854SOL    HW121461   4.607   1.686   6.418
 6854SOL    HW221462   4.498   1.807   6.420
 6855SOL     OW21463   3.218   5.582   3.235
 6855SOL    HW121464   3.148   5.510   3.241
 6855SOL    HW221465   3.219   5.635   3.319
 6856SOL     OW21466   5.407   3.539   5.100
 6856SOL    HW121467   5.477   3.469   5.086
 6856SOL    HW221468   5.394   3.591   5.015
 6857SOL     OW21469   2.746   2.346   7.007
 6857SOL    HW121470   2.653   2.318   6.986
 6857SOL    HW221471   2.805   2.329   6.928
 6858SOL     OW21472   3.659   3.805   3.695
 6858SOL    HW121473   3.587   3.751   3.737
 6858SOL    HW221474   3.742   3.750   3.688
 6859SOL     OW21475   0.615   0.765   0.805
 6859SOL    HW121476   0.533   0.821   0.804
 6859SOL    HW221477   0.590   0.668   0.812
 6860SOL     OW21478   6.681   5.200   0.876
 6860SOL    HW121479   6.714   5.144   0.800
 6860SOL    HW221480   6.749   5.269   0.899
 6861SOL     OW21481   4.743   4.653   0.210
 6861SOL    HW121482   4.795   4.613   0.286
 6861SOL    HW221483   4.668   4.592   0.186
 6862SOL     OW21484   1.774   4.291   5.596
 6862SOL    HW121485   1.858   4.338   5.624
 6862SOL    HW221486   1.746   4.323   5.505
 6863SOL     OW21487   5.523   0.090   5.872
 6863SOL    HW121488   5.502   0.064   5.966
 6863SOL    HW221489   5.562   0.182   5.870
 6864SOL     OW21490   3.093   5.967   3.699
 6864SOL    HW121491   3.099   5.986   3.601
 6864SOL    HW221492   3.166   5.905   3.726
 6865SOL     OW21493   0.970   5.858   3.089
 6865SOL    HW121494   1.042   5.903   3.142
 6865SOL    HW221495   1.006   5.773   3.050
 6866SOL     OW21496   6.172   5.042   3.192
 6866SOL    HW121497   6.267   5.070   3.177
 6866SOL    HW221498   6.111   5.115   3.163
 6867SOL     OW21499   2.295   4.581   1.515
 6867SOL    HW121500   2.391   4.568   1.490
 6867SOL    HW221501   2.254   4.648   1.454
 6868SOL     OW21502   1.138   5.599   6.199
 6868SOL    HW121503   1.135   5.499   6.202
 6868SOL    HW221504   1.193   5.628   6.120
 6869SOL     OW21505   5.350   1.254   5.507
 6869SOL    HW121506   5.397   1.341   5.492
 6869SOL    HW221507   5.354   1.200   5.423
 6870SOL     OW21508   6.865   4.926   1.971
 6870SOL    HW121509   6.775   4.904   2.007
 6870SOL    HW221510   6.898   5.011   2.013
 6871SOL     OW21511   6.513   4.559   3.361
 6871SOL    HW121512   6.423   4.563   3.317
 6871SOL    HW221513   6.503   4.525   3.455
 6872SOL     OW21514   0.408   3.056   1.187
 6872SOL    HW121515   0.500   3.095   1.185
 6872SOL    HW221516   0.393   3.002   1.104
 6873SOL     OW21517   0.083   3.454   5.061
 6873SOL    HW121518   0.059   3.456   4.964
 6873SOL    HW221519   0.182   3.468   5.071
 6874SOL     OW21520   0.707   6.085   2.132
 6874SOL    HW121521   0.661   6.000   2.159
 6874SOL    HW221522   0.738   6.077   2.037
 6875SOL     OW21523   2.275   2.313   3.291
 6875SOL    HW121524   2.287   2.255   3.372
 6875SOL    HW221525   2.347   2.382   3.290
 6876SOL     OW21526   3.578   6.605   3.678
 6876SOL    HW121527   3.578   6.673   3.604
 6876SOL    HW221528   3.647   6.630   3.746
 6877SOL     OW21529   2.565   3.984   1.340
 6877SOL    HW121530   2.499   3.943   1.402
 6877SOL    HW221531   2.521   4.057   1.288
 6878SOL     OW21532   3.212   1.193   5.310
 6878SOL    HW121533   3.303   1.233   5.325
 6878SOL    HW221534   3.145   1.267   5.303
 6879SOL     OW21535   0.918   1.916   0.644
 6879SOL    HW121536   0.818   1.918   0.640
 6879SOL    HW221537   0.950   1.822   0.633
 6880SOL     OW21538   1.684   4.579   5.091
 6880SOL    HW121539   1.779   4.569   5.123
 6880SOL    HW221540   1.678   4.547   4.996
 6881SOL     OW21541   1.079   4.210   1.479
 6881SOL    HW121542   1.129   4.130   1.447
 6881SOL    HW221543   1.143   4.286   1.493
 6882SOL     OW21544   3.169   0.209   6.789
 6882SOL    HW121545   3.265   0.223   6.814
 6882SOL    HW221546   3.157   0.119   6.749
 6883SOL     OW21547   4.331   0.886   0.599
 6883SOL    HW121548   4.388   0.957   0.639
 6883SOL    HW221549   4.387   0.806   0.575
 6884SOL     OW21550   2.584   4.598   4.384
 6884SOL    HW121551   2.598   4.652   4.467
 6884SOL    HW221552   2.520   4.524   4.404
 6885SOL     OW21553   3.958   5.050   3.752
 6885SOL    HW121554   3.984   5.145   3.733
 6885SOL    HW221555   3.896   5.017   3.680
 6886SOL     OW21556   6.769   0.651   4.665
 6886SOL    HW121557   6.772   0.741   4.709
 6886SOL    HW221558   6.814   0.656   4.576
 6887SOL     OW21559   5.400   5.448   6.309
 6887SOL    HW121560   5.352   5.477   6.391
 6887SOL    HW221561   5.486   5.403   6.335
 6888SOL     OW21562   5.402   6.187   0.064
 6888SOL    HW121563   5.358   6.178   0.153
 6888SOL    HW221564   5.410   6.098   0.021
 6889SOL     OW21565   1.699   2.043   5.176
 6889SOL    HW121566   1.665   2.133   5.149
 6889SOL    HW221567   1.794   2.032   5.145
 6890SOL     OW21568   3.981   6.368   1.406
 6890SOL    HW121569   4.023   6.402   1.490
 6890SOL    HW221570   4.050   6.322   1.350
 6891SOL     OW21571   2.283   4.455   3.553
 6891SOL    HW121572   2.192   4.434   3.518
 6891SOL    HW221573   2.351   4.438   3.481
 6892SOL     OW21574   3.154   2.182   3.597
 6892SOL    HW121575   3.181   2.103   3.652
 6892SOL    HW221576   3.123   2.255   3.658
 6893SOL     OW21577   4.406   4.135   6.997
 6893SOL    HW121578   4.460   4.118   6.914
 6893SOL    HW221579   4.312   4.107   6.982
 6894SOL     OW21580   6.202   4.858   0.810
 6894SOL    HW121581   6.204   4.758   0.799
 6894SOL    HW221582   6.294   4.895   0.794
 6895SOL     OW21583   2.572   5.227   0.107
 6895SOL    HW121584   2.577   5.179   0.020
 6895SOL    HW221585   2.663   5.234   0.147
 6896SOL     OW21586   2.031   0.054   3.617
 6896SOL    HW121587   2.028   6.995   3.675
 6896SOL    HW221588   2.032   0.027   3.521
 6897SOL     OW21589   4.155   4.004   5.809
 6897SOL    HW121590   4.115   3.992   5.899
 6897SOL    HW221591   4.252   3.981   5.812
 6898SOL     OW21592   4.128   1.573   1.523
 6898SOL    HW121593   4.077   1.609   1.445
 6898SOL    HW221594   4.063   1.550   1.597
 6899SOL     OW21595   5.450   6.642   1.173
 6899SOL    HW121596   5.429   6.709   1.244
 6899SOL    HW221597   5.532   6.592   1.198
 6900SOL     OW21598   6.633   6.634   5.737
 6900SOL    HW121599   6.634   6.568   5.812
 6900SOL    HW221600   6.721   6.634   5.690
 6901SOL     OW21601   0.034   5.930   6.327
 6901SOL    HW121602   0.128   5.927   6.360
 6901SOL    HW221603   0.004   5.837   6.305
 6902SOL     OW21604   5.618   6.069   6.753
 6902SOL    HW121605   5.654   6.009   6.683
 6902SOL    HW221606   5.607   6.019   6.839
 6903SOL     OW21607   3.159   5.550   4.397
 6903SOL    HW121608   3.116   5.474   4.348
 6903SOL    HW221609   3.226   5.513   4.462
 6904SOL     OW21610   5.917   0.631   4.689
 6904SOL    HW121611   5.926   0.551   4.630
 6904SOL    HW221612   5.842   0.688   4.656
 6905SOL     OW21613   5.939   6.604   6.243
 6905SOL    HW121614   5.955   6.518   6.292
 6905SOL    HW221615   6.027   6.642   6.213
 6906SOL     OW21616   4.831   1.318   3.831
 6906SOL    HW121617   4.756   1.364   3.879
 6906SOL    HW221618   4.884   1.265   3.896
 6907SOL     OW21619   5.453   2.744   1.324
 6907SOL    HW121620   5.426   2.815   1.389
 6907SOL    HW221621   5.551   2.750   1.307
 6908SOL     OW21622   0.631   5.358   6.142
 6908SOL    HW121623   0.637   5.449   6.184
 6908SOL    HW221624   0.548   5.352   6.087
 6909SOL     OW21625   5.992   4.549   1.370
 6909SOL    HW121626   6.030   4.587   1.454
 6909SOL    HW221627   5.944   4.621   1.320
 6910SOL     OW21628   6.634   2.162   3.458
 6910SOL    HW121629   6.577   2.081   3.444
 6910SOL    HW221630   6.586   2.229   3.514
 6911SOL     OW21631   4.228   5.903   4.003
 6911SOL    HW121632   4.170   5.903   3.922
 6911SOL    HW221633   4.235   5.810   4.040
 6912SOL     OW21634   3.324   4.721   0.232
 6912SOL    HW121635   3.305   4.647   0.298
 6912SOL    HW221636   3.238   4.766   0.208
 6913SOL     OW21637   4.600   5.198   4.604
 6913SOL    HW121638   4.510   5.196   4.560
 6913SOL    HW221639   4.631   5.293   4.611
 6914SOL     OW21640   6.071   3.967   5.515
 6914SOL    HW121641   6.164   3.930   5.515
 6914SOL    HW221642   6.056   4.019   5.431
 6915SOL     OW21643   6.080   3.474   1.617
 6915SOL    HW121644   6.015   3.424   1.561
 6915SOL    HW221645   6.035   3.508   1.699
 6916SOL     OW21646   0.029   2.871   0.018
 6916SOL    HW121647   7.003   2.916   6.964
 6916SOL    HW221648   0.029   2.772   0.004
 6917SOL     OW21649   2.707   5.790   1.499
 6917SOL    HW121650   2.628   5.737   1.467
 6917SOL    HW221651   2.700   5.883   1.463
 6918SOL     OW21652   6.887   2.874   4.341
 6918SOL    HW121653   6.954   2.806   4.372
 6918SOL    HW221654   6.797   2.831   4.335
 6919SOL     OW21655   0.204   6.280   2.683
 6919SOL    HW121656   0.148   6.304   2.603
 6919SOL    HW221657   0.209   6.180   2.691
 6920SOL     OW21658   4.362   5.297   5.277
 6920SOL    HW121659   4.415   5.254   5.204
 6920SOL    HW221660   4.395   5.265   5.365
 6921SOL     OW21661   5.182   5.489   3.338
 6921SOL    HW121662   5.120   5.561   3.307
 6921SOL    HW221663   5.246   5.527   3.406
 6922SOL     OW21664   2.271   5.789   5.705
 6922SOL    HW121665   2.365   5.767   5.681
 6922SOL    HW221666   2.224   5.706   5.736
 6923SOL     OW21667   4.817   5.726   3.451
 6923SOL    HW121668   4.720   5.742   3.434
 6923SOL    HW221669   4.865   5.814   3.459
 6924SOL     OW21670   2.618   3.976   6.375
 6924SOL    HW121671   2.642   4.073   6.380
 6924SOL    HW221672   2.675   3.924   6.439
 6925SOL     OW21673   4.498   6.013   4.619
 6925SOL    HW121674   4.437   6.092   4.625
 6925SOL    HW221675   4.477   5.949   4.693
 6926SOL     OW21676   3.335   2.682   0.992
 6926SOL    HW121677   3.417   2.668   1.048
 6926SOL    HW221678   3.345   2.632   0.906
 6927SOL     OW21679   4.718   2.594   6.282
 6927SOL    HW121680   4.638   2.652   6.268
 6927SOL    HW221681   4.757   2.611   6.372
 6928SOL     OW21682   6.133   6.240   0.906
 6928SOL    HW121683   6.076   6.218   0.826
 6928SOL    HW221684   6.159   6.336   0.903
 6929SOL     OW21685   5.645   5.420   1.109
 6929SOL    HW121686   5.682   5.347   1.051
 6929SOL    HW221687   5.587   5.379   1.179
 6930SOL     OW21688   0.330   6.570   2.608
 6930SOL    HW121689   0.399   6.583   2.679
 6930SOL    HW221690   0.375   6.544   2.522
 6931SOL     OW21691   2.203   0.528   2.131
 6931SOL    HW121692   2.174   0.616   2.170
 6931SOL    HW221693   2.190   0.456   2.198
 6932SOL     OW21694   4.279   6.692   0.587
 6932SOL    HW121695   4.212   6.632   0.632
 6932SOL    HW221696   4.231   6.759   0.530
 6933SOL     OW21697   2.851   6.455   4.366
 6933SOL    HW121698   2.827   6.538   4.416
 6933SOL    HW221699   2.899   6.480   4.282
 6934SOL     OW21700   5.288   3.500   5.952
 6934SOL    HW121701   5.223   3.552   6.007
 6934SOL    HW221702   5.260   3.404   5.949
 6935SOL     OW21703   4.190   4.716   3.333
 6935SOL    HW121704   4.163   4.775   3.256
 6935SOL    HW221705   4.279   4.674   3.313
 6936SOL     OW21706   6.466   2.015   3.760
 6936SOL    HW121707   6.395   2.082   3.736
 6936SOL    HW221708   6.516   2.047   3.840
 6937SOL     OW21709   7.007   6.191   0.072
 6937SOL    HW121710   0.079   6.215   0.045
 6937SOL    HW221711   6.951   6.182   7.011
 6938SOL     OW21712   5.279   3.609   5.551
 6938SOL    HW121713   5.350   3.667   5.511
 6938SOL    HW221714   5.252   3.539   5.485
 6939SOL     OW21715   0.760   4.967   2.030
 6939SOL    HW121716   0.665   4.995   2.043
 6939SOL    HW221717   0.815   4.998   2.107
 6940SOL     OW21718   4.264   1.048   6.991
 6940SOL    HW121719   4.363   1.053   7.009
 6940SOL    HW221720   4.245   0.971   6.930
 6941SOL     OW21721   3.706   3.658   1.750
 6941SOL    HW121722   3.782   3.607   1.710
 6941SOL    HW221723   3.650   3.697   1.677
 6942SOL     OW21724   5.057   0.384   1.512
 6942SOL    HW121725   5.141   0.389   1.460
 6942SOL    HW221726   4.984   0.433   1.464
 6943SOL     OW21727   4.462   6.436   0.161
 6943SOL    HW121728   4.556   6.446   0.194
 6943SOL    HW221729   4.460   6.371   0.085
 6944SOL     OW21730   0.499   4.227   6.610
 6944SOL    HW121731   0.487   4.199   6.516
 6944SOL    HW221732   0.451   4.164   6.671
 6945SOL     OW21733   6.331   1.700   6.380
 6945SOL    HW121734   6.331   1.629   6.451
 6945SOL    HW221735   6.271   1.673   6.305
 6946SOL     OW21736   5.844   6.134   1.296
 6946SOL    HW121737   5.804   6.164   1.210
 6946SOL    HW221738   5.782   6.157   1.371
 6947SOL     OW21739   3.857   6.447   6.469
 6947SOL    HW121740   3.937   6.402   6.508
 6947SOL    HW221741   3.809   6.384   6.408
 6948SOL     OW21742   6.994   0.577   0.499
 6948SOL    HW121743   6.901   0.570   0.462
 6948SOL    HW221744   6.990   0.581   0.599
 6949SOL     OW21745   4.982   6.699   2.646
 6949SOL    HW121746   4.892   6.717   2.687
 6949SOL    HW221747   4.987   6.742   2.556
 6950SOL     OW21748   2.034   1.462   4.536
 6950SOL    HW121749   1.985   1.533   4.486
 6950SOL    HW221750   1.994   1.450   4.626
 6951SOL     OW21751   6.733   5.867   5.486
 6951SOL    HW121752   6.785   5.950   5.507
 6951SOL    HW221753   6.685   5.836   5.568
 6952SOL     OW21754   0.613   6.295   3.534
 6952SOL    HW121755   0.585   6.360   3.465
 6952SOL    HW221756   0.532   6.256   3.578
 6953SOL     OW21757   4.723   6.449   0.206
 6953SOL    HW121758   4.739   6.400   0.121
 6953SOL    HW221759   4.750   6.545   0.195
 6954SOL     OW21760   0.351   3.511   3.481
 6954SOL    HW121761   0.342   3.413   3.462
 6954SOL    HW221762   0.432   3.527   3.538
 6955SOL     OW21763   6.147   0.027   2.440
 6955SOL    HW121764   6.207   0.042   2.518
 6955SOL    HW221765   6.160   6.956   2.405
 6956SOL     OW21766   5.272   5.244   3.479
 6956SOL    HW121767   5.278   5.153   3.440
 6956SOL    HW221768   5.240   5.309   3.409
 6957SOL     OW21769   6.673   4.950   0.747
 6957SOL    HW121770   6.706   4.905   0.665
 6957SOL    HW221771   6.702   4.899   0.828
 6958SOL     OW21772   3.198   2.998   4.521
 6958SOL    HW121773   3.276   3.060   4.508
 6958SOL    HW221774   3.176   2.954   4.434
 6959SOL     OW21775   2.114   1.742   3.986
 6959SOL    HW121776   2.124   1.682   3.907
 6959SOL    HW221777   2.167   1.826   3.972
 6960SOL     OW21778   2.189   4.850   1.410
 6960SOL    HW121779   2.173   4.853   1.508
 6960SOL    HW221780   2.255   4.921   1.385
 6961SOL     OW21781   5.602   1.998   3.458
 6961SOL    HW121782   5.522   2.022   3.403
 6961SOL    HW221783   5.599   1.900   3.481
 6962SOL     OW21784   4.741   5.867   1.688
 6962SOL    HW121785   4.739   5.774   1.651
 6962SOL    HW221786   4.653   5.912   1.670
 6963SOL     OW21787   5.167   5.981   1.017
 6963SOL    HW121788   5.094   5.957   1.081
 6963SOL    HW221789   5.129   5.991   0.925
 6964SOL     OW21790   3.636   0.482   5.184
 6964SOL    HW121791   3.540   0.477   5.155
 6964SOL    HW221792   3.694   0.441   5.113
 6965SOL     OW21793   0.959   2.596   1.747
 6965SOL    HW121794   0.879   2.542   1.774
 6965SOL    HW221795   1.040   2.561   1.794
 6966SOL     OW21796   0.159   2.291   3.182
 6966SOL    HW121797   0.258   2.297   3.191
 6966SOL    HW221798   0.133   2.302   3.085
 6967SOL     OW21799   2.309   6.866   5.164
 6967SOL    HW121800   2.397   6.846   5.121
 6967SOL    HW221801   2.290   6.798   5.234
 6968SOL     OW21802   4.753   6.546   2.428
 6968SOL    HW121803   4.686   6.598   2.481
 6968SOL    HW221804   4.782   6.466   2.480
 6969SOL     OW21805   2.875   2.491   1.105
 6969SOL    HW121806   2.874   2.451   1.197
 6969SOL    HW221807   2.937   2.438   1.047
 6970SOL     OW21808   3.796   3.982   6.363
 6970SOL    HW121809   3.708   3.958   6.404
 6970SOL    HW221810   3.787   3.981   6.263
 6971SOL     OW21811   6.548   4.132   2.292
 6971SOL    HW121812   6.481   4.093   2.355
 6971SOL    HW221813   6.622   4.066   2.279
 6972SOL     OW21814   4.843   3.979   3.239
 6972SOL    HW121815   4.902   3.990   3.158
 6972SOL    HW221816   4.796   4.066   3.257
 6973SOL     OW21817   0.707   3.054   4.695
 6973SOL    HW121818   0.718   3.004   4.609
 6973SOL    HW221819   0.610   3.059   4.718
 6974SOL     OW21820   3.265   4.035   2.571
 6974SOL    HW121821   3.274   3.942   2.606
 6974SOL    HW221822   3.306   4.099   2.637
 6975SOL     OW21823   2.436   6.511   5.902
 6975SOL    HW121824   2.384   6.522   5.987
 6975SOL    HW221825   2.373   6.494   5.826
 6976SOL     OW21826   5.298   5.465   4.386
 6976SOL    HW121827   5.199   5.457   4.369
 6976SOL    HW221828   5.317   5.554   4.426
 6977SOL     OW21829   4.052   2.733   1.588
 6977SOL    HW121830   4.084   2.678   1.665
 6977SOL    HW221831   4.103   2.708   1.506
 6978SOL     OW21832   5.185   1.461   2.573
 6978SOL    HW121833   5.168   1.365   2.597
 6978SOL    HW221834   5.219   1.467   2.480
 6979SOL     OW21835   0.925   3.854   1.079
 6979SOL    HW121836   0.845   3.793   1.078
 6979SOL    HW221837   0.913   3.923   1.150
 6980SOL     OW21838   1.699   0.940   4.215
 6980SOL    HW121839   1.773   1.006   4.229
 6980SOL    HW221840   1.675   0.937   4.118
 6981SOL     OW21841   3.460   2.506   5.561
 6981SOL    HW121842   3.463   2.595   5.605
 6981SOL    HW221843   3.369   2.466   5.572
 6982SOL     OW21844   1.438   0.644   4.828
 6982SOL    HW121845   1.421   0.547   4.806
 6982SOL    HW221846   1.534   0.657   4.851
 6983SOL     OW21847   3.987   2.131   3.721
 6983SOL    HW121848   4.084   2.140   3.699
 6983SOL    HW221849   3.977   2.099   3.816
 6984SOL     OW21850   2.596   1.989   3.427
 6984SOL    HW121851   2.516   1.964   3.372
 6984SOL    HW221852   2.614   2.087   3.418
 6985SOL     OW21853   5.364   4.959   1.949
 6985SOL    HW121854   5.340   4.878   2.002
 6985SOL    HW221855   5.327   5.040   1.995
 6986SOL     OW21856   1.987   6.638   5.639
 6986SOL    HW121857   1.998   6.733   5.608
 6986SOL    HW221858   1.933   6.637   5.723
 6987SOL     OW21859   5.986   1.494   5.805
 6987SOL    HW121860   5.952   1.412   5.758
 6987SOL    HW221861   6.086   1.496   5.802
 6988SOL     OW21862   0.316   0.963   5.291
 6988SOL    HW121863   0.262   0.909   5.355
 6988SOL    HW221864   0.407   0.922   5.281
 6989SOL     OW21865   0.786   3.872   2.999
 6989SOL    HW121866   0.886   3.874   3.011
 6989SOL    HW221867   0.753   3.965   2.980
 6990SOL     OW21868   4.633   2.687   1.584
 6990SOL    HW121869   4.646   2.597   1.626
 6990SOL    HW221870   4.718   2.739   1.590
 6991SOL     OW21871   3.794   4.880   3.414
 6991SOL    HW121872   3.708   4.908   3.369
 6991SOL    HW221873   3.859   4.849   3.345
 6992SOL     OW21874   5.287   6.286   6.238
 6992SOL    HW121875   5.354   6.223   6.278
 6992SOL    HW221876   5.326   6.378   6.235
 6993SOL     OW21877   5.902   0.831   2.647
 6993SOL    HW121878   5.956   0.762   2.695
 6993SOL    HW221879   5.923   0.921   2.684
 6994SOL     OW21880   0.702   2.204   4.540
 6994SOL    HW121881   0.762   2.127   4.562
 6994SOL    HW221882   0.655   2.186   4.454
 6995SOL     OW21883   6.785   4.495   6.078
 6995SOL    HW121884   6.726   4.470   6.001
 6995SOL    HW221885   6.761   4.586   6.110
 6996SOL     OW21886   1.613   6.778   6.935
 6996SOL    HW121887   1.608   6.686   6.974
 6996SOL    HW221888   1.579   6.844   7.001
 6997SOL     OW21889   0.097   6.145   4.929
 6997SOL    HW121890   0.120   6.076   4.998
 6997SOL    HW221891   0.017   6.115   4.877
 6998SOL     OW21892   2.160   0.768   1.630
 6998SOL    HW121893   2.180   0.850   1.576
 6998SOL    HW221894   2.109   0.793   1.711
 6999SOL     OW21895   2.293   2.036   6.351
 6999SOL    HW121896   2.319   1.941   6.332
 6999SOL    HW221897   2.335   2.097   6.284
 7000SOL     OW21898   5.037   6.416   1.036
 7000SOL    HW121899   5.076   6.439   0.947
 7000SOL    HW221900   5.107   6.374   1.093
 7001SOL     OW21901   1.749   2.728   5.577
 7001SOL    HW121902   1.741   2.783   5.494
 7001SOL    HW221903   1.844   2.728   5.607
 7002SOL     OW21904   1.847   5.598   4.333
 7002SOL    HW121905   1.785   5.529   4.369
 7002SOL    HW221906   1.803   5.649   4.260
 7003SOL     OW21907   4.382   4.767   0.280
 7003SOL    HW121908   4.377   4.832   0.204
 7003SOL    HW221909   4.330   4.685   0.257
 7004SOL     OW21910   0.986   4.802   2.504
 7004SOL    HW121911   0.993   4.852   2.418
 7004SOL    HW221912   0.912   4.734   2.498
 7005SOL     OW21913   1.568   0.475   0.841
 7005SOL    HW121914   1.499   0.459   0.770
 7005SOL    HW221915   1.635   0.401   0.838
 7006SOL     OW21916   5.202   4.673   3.656
 7006SOL    HW121917   5.200   4.691   3.557
 7006SOL    HW221918   5.284   4.620   3.678
 7007SOL     OW21919   4.822   0.556   3.471
 7007SOL    HW121920   4.765   0.475   3.485
 7007SOL    HW221921   4.869   0.579   3.556
 7008SOL     OW21922   0.688   3.525   4.649
 7008SOL    HW121923   0.629   3.604   4.666
 7008SOL    HW221924   0.688   3.466   4.729
 7009SOL     OW21925   5.521   6.161   2.119
 7009SOL    HW121926   5.486   6.078   2.074
 7009SOL    HW221927   5.524   6.236   2.053
 7010SOL     OW21928   5.567   4.065   4.238
 7010SOL    HW121929   5.497   4.135   4.230
 7010SOL    HW221930   5.575   4.015   4.152
 7011SOL     OW21931   3.213   6.924   6.302
 7011SOL    HW121932   3.215   6.870   6.386
 7011SOL    HW221933   3.123   6.916   6.260
 7012SOL     OW21934   0.887   1.770   1.508
 7012SOL    HW121935   0.925   1.826   1.581
 7012SOL    HW221936   0.896   1.673   1.531
 7013SOL     OW21937   0.278   0.325   0.114
 7013SOL    HW121938   0.343   0.396   0.142
 7013SOL    HW221939   0.186   0.363   0.110
 7014SOL     OW21940   4.081   3.427   1.032
 7014SOL    HW121941   4.029   3.502   0.993
 7014SOL    HW221942   4.044   3.340   0.999
 7015SOL     OW21943   6.032   5.043   2.793
 7015SOL    HW121944   6.031   4.943   2.788
 7015SOL    HW221945   6.115   5.077   2.749
 7016SOL     OW21946   3.481   4.887   1.678
 7016SOL    HW121947   3.551   4.817   1.693
 7016SOL    HW221948   3.394   4.856   1.718
 7017SOL     OW21949   2.169   4.881   2.517
 7017SOL    HW121950   2.088   4.841   2.475
 7017SOL    HW221951   2.163   4.873   2.616
 7018SOL     OW21952   5.208   3.622   4.403
 7018SOL    HW121953   5.270   3.643   4.478
 7018SOL    HW221954   5.115   3.651   4.428
 7019SOL     OW21955   3.744   4.006   0.252
 7019SOL    HW121956   3.726   3.992   0.154
 7019SOL    HW221957   3.665   4.052   0.294
 7020SOL     OW21958   6.931   5.203   6.789
 7020SOL    HW121959   6.908   5.168   6.879
 7020SOL    HW221960   6.886   5.148   6.718
 7021SOL     OW21961   1.091   1.783   5.476
 7021SOL    HW121962   1.173   1.839   5.470
 7021SOL    HW221963   1.042   1.788   5.389
 7022SOL     OW21964   4.656   6.904   5.864
 7022SOL    HW121965   4.749   6.887   5.896
 7022SOL    HW221966   4.597   6.829   5.893
 7023SOL     OW21967   0.272   1.972   4.249
 7023SOL    HW121968   0.288   2.062   4.208
 7023SOL    HW221969   0.197   1.926   4.202
 7024SOL     OW21970   2.650   4.036   5.321
 7024SOL    HW121971   2.588   3.975   5.271
 7024SOL    HW221972   2.744   4.021   5.291
 7025SOL     OW21973   2.812   1.042   0.510
 7025SOL    HW121974   2.844   0.949   0.490
 7025SOL    HW221975   2.880   1.108   0.478
 7026SOL     OW21976   3.387   1.609   2.316
 7026SOL    HW121977   3.453   1.620   2.390
 7026SOL    HW221978   3.435   1.611   2.228
 7027SOL     OW21979   2.621   5.373   4.122
 7027SOL    HW121980   2.630   5.283   4.079
 7027SOL    HW221981   2.653   5.368   4.216
 7028SOL     OW21982   3.578   1.525   4.279
 7028SOL    HW121983   3.670   1.542   4.243
 7028SOL    HW221984   3.523   1.481   4.208
 7029SOL     OW21985   5.088   5.040   5.549
 7029SOL    HW121986   5.180   5.070   5.522
 7029SOL    HW221987   5.057   4.970   5.486
 7030SOL     OW21988   1.228   0.991   5.362
 7030SOL    HW121989   1.194   0.986   5.456
 7030SOL    HW221990   1.156   1.025   5.302
 7031SOL     OW21991   3.144   5.826   5.011
 7031SOL    HW121992   3.221   5.880   5.044
 7031SOL    HW221993   3.144   5.827   4.911
 7032SOL     OW21994   3.960   0.556   3.218
 7032SOL    HW121995   4.042   0.572   3.274
 7032SOL    HW221996   3.980   0.578   3.123
 7033SOL     OW21997   1.755   2.495   3.520
 7033SOL    HW121998   1.734   2.453   3.608
 7033SOL    HW221999   1.740   2.429   3.447
 7034SOL     OW22000   6.440   0.408   3.830
 7034SOL    HW122001   6.390   0.332   3.872
 7034SOL    HW222002   6.376   0.473   3.790
 7035SOL     OW22003   1.584   6.535   1.083
 7035SOL    HW122004   1.623   6.460   1.136
 7035SOL    HW222005   1.655   6.577   1.027
 7036SOL     OW22006   0.564   0.462   2.789
 7036SOL    HW122007   0.574   0.519   2.708
 7036SOL    HW222008   0.473   0.475   2.829
 7037SOL     OW22009   1.614   1.217   6.668
 7037SOL    HW122010   1.563   1.285   6.616
 7037SOL    HW222011   1.564   1.196   6.752
 7038SOL     OW22012   2.595   3.152   5.381
 7038SOL    HW122013   2.519   3.167   5.445
 7038SOL    HW222014   2.564   3.095   5.306
 7039SOL     OW22015   2.373   5.252   2.068
 7039SOL    HW122016   2.299   5.288   2.125
 7039SOL    HW222017   2.334   5.213   1.984
 7040SOL     OW22018   6.312   1.824   5.694
 7040SOL    HW122019   6.232   1.800   5.639
 7040SOL    HW222020   6.284   1.831   5.790
 7041SOL     OW22021   6.627   1.599   1.887
 7041SOL    HW122022   6.645   1.562   1.979
 7041SOL    HW222023   6.648   1.696   1.885
 7042SOL     OW22024   4.470   4.941   4.938
 7042SOL    HW122025   4.481   4.921   5.035
 7042SOL    HW222026   4.376   4.919   4.910
 7043SOL     OW22027   2.103   3.862   3.085
 7043SOL    HW122028   2.012   3.896   3.063
 7043SOL    HW222029   2.103   3.762   3.079
 7044SOL     OW22030   4.868   4.724   3.967
 7044SOL    HW122031   4.892   4.817   3.993
 7044SOL    HW222032   4.894   4.661   4.041
 7045SOL     OW22033   5.016   5.678   3.233
 7045SOL    HW122034   4.957   5.718   3.303
 7045SOL    HW222035   5.037   5.746   3.163
 7046SOL     OW22036   2.912   0.953   3.348
 7046SOL    HW122037   2.883   0.859   3.331
 7046SOL    HW222038   2.906   1.005   3.263
 7047SOL     OW22039   6.248   1.526   2.031
 7047SOL    HW122040   6.298   1.441   2.017
 7047SOL    HW222041   6.153   1.505   2.053
 7048SOL     OW22042   5.252   6.825   3.285
 7048SOL    HW122043   5.236   6.822   3.186
 7048SOL    HW222044   5.350   6.833   3.302
 7049SOL     OW22045   3.506   1.363   0.715
 7049SOL    HW122046   3.526   1.427   0.641
 7049SOL    HW222047   3.581   1.297   0.723
 7050SOL     OW22048   4.157   3.332   1.356
 7050SOL    HW122049   4.255   3.344   1.375
 7050SOL    HW222050   4.142   3.334   1.257
 7051SOL     OW22051   6.048   0.018   1.357
 7051SOL    HW122052   6.079   0.084   1.288
 7051SOL    HW222053   6.115   0.014   1.431
 7052SOL     OW22054   5.774   2.466   3.378
 7052SOL    HW122055   5.867   2.500   3.362
 7052SOL    HW222056   5.708   2.530   3.340
 7053SOL     OW22057   1.124   3.450   5.428
 7053SOL    HW122058   1.035   3.469   5.387
 7053SOL    HW222059   1.176   3.535   5.436
 7054SOL     OW22060   0.261   6.304   0.120
 7054SOL    HW122061   0.341   6.283   0.176
 7054SOL    HW222062   0.284   6.377   0.055
 7055SOL     OW22063   3.073   0.097   5.840
 7055SOL    HW122064   3.007   0.024   5.861
 7055SOL    HW222065   3.050   0.137   5.752
 7056SOL     OW22066   6.606   4.547   2.202
 7056SOL    HW122067   6.620   4.469   2.141
 7056SOL    HW222068   6.510   4.576   2.198
 7057SOL     OW22069   2.035   5.297   4.301
 7057SOL    HW122070   1.957   5.315   4.361
 7057SOL    HW222071   2.114   5.350   4.333
 7058SOL     OW22072   5.705   4.973   5.308
 7058SOL    HW122073   5.711   4.875   5.328
 7058SOL    HW222074   5.683   5.022   5.392
 7059SOL     OW22075   0.067   1.316   3.795
 7059SOL    HW122076   0.057   1.317   3.894
 7059SOL    HW222077   0.147   1.370   3.769
 7060SOL     OW22078   3.621   0.213   1.020
 7060SOL    HW122079   3.553   0.238   1.089
 7060SOL    HW222080   3.575   0.178   0.939
 7061SOL     OW22081   0.576   3.114   3.834
 7061SOL    HW122082   0.644   3.181   3.866
 7061SOL    HW222083   0.620   3.051   3.770
 7062SOL     OW22084   4.474   0.747   5.219
 7062SOL    HW122085   4.415   0.822   5.250
 7062SOL    HW222086   4.476   0.675   5.288
 7063SOL     OW22087   1.414   0.542   1.867
 7063SOL    HW122088   1.394   0.638   1.846
 7063SOL    HW222089   1.423   0.530   1.965
 7064SOL     OW22090   3.678   1.933   0.367
 7064SOL    HW122091   3.665   1.845   0.321
 7064SOL    HW222092   3.775   1.944   0.390
 7065SOL     OW22093   4.952   3.745   5.819
 7065SOL    HW122094   4.929   3.794   5.903
 7065SOL    HW222095   4.915   3.794   5.740
 7066SOL     OW22096   4.699   0.354   6.834
 7066SOL    HW122097   4.709   0.454   6.834
 7066SOL    HW222098   4.765   0.314   6.897
 7067SOL     OW22099   1.613   2.539   5.405
 7067SOL    HW122100   1.519   2.569   5.388
 7067SOL    HW222101   1.661   2.609   5.458
 7068SOL     OW22102   6.340   4.273   5.055
 7068SOL    HW122103   6.266   4.339   5.041
 7068SOL    HW222104   6.427   4.314   5.029
 7069SOL     OW22105   5.241   2.002   4.552
 7069SOL    HW122106   5.274   1.958   4.469
 7069SOL    HW222107   5.157   1.958   4.583
 7070SOL     OW22108   0.227   0.079   4.993
 7070SOL    HW122109   0.237   7.001   5.004
 7070SOL    HW222110   0.156   0.112   5.056
 7071SOL     OW22111   3.239   6.155   5.721
 7071SOL    HW122112   3.198   6.073   5.681
 7071SOL    HW222113   3.301   6.197   5.655
 7072SOL     OW22114   1.610   6.404   0.081
 7072SOL    HW122115   1.637   6.391   7.007
 7072SOL    HW222116   1.534   6.468   0.087
 7073SOL     OW22117   5.294   0.139   4.517
 7073SOL    HW122118   5.256   0.166   4.429
 7073SOL    HW222119   5.383   0.096   4.504
 7074SOL     OW22120   5.538   2.813   1.608
 7074SOL    HW122121   5.577   2.804   1.700
 7074SOL    HW222122   5.524   2.721   1.569
 7075SOL     OW22123   1.937   4.248   5.246
 7075SOL    HW122124   1.978   4.200   5.168
 7075SOL    HW222125   1.855   4.199   5.276
 7076SOL     OW22126   5.685   2.418   6.082
 7076SOL    HW122127   5.668   2.473   6.164
 7076SOL    HW222128   5.599   2.396   6.038
 7077SOL     OW22129   2.670   4.659   3.857
 7077SOL    HW122130   2.655   4.601   3.937
 7077SOL    HW222131   2.722   4.740   3.883
 7078SOL     OW22132   6.793   6.681   1.525
 7078SOL    HW122133   6.760   6.638   1.609
 7078SOL    HW222134   6.878   6.637   1.497
 7079SOL     OW22135   0.139   5.778   4.663
 7079SOL    HW122136   0.148   5.723   4.747
 7079SOL    HW222137   0.085   5.860   4.683
 7080SOL     OW22138   3.597   1.106   4.866
 7080SOL    HW122139   3.669   1.169   4.898
 7080SOL    HW222140   3.511   1.129   4.912
 7081SOL     OW22141   2.500   6.533   6.914
 7081SOL    HW122142   2.514   6.544   7.012
 7081SOL    HW222143   2.402   6.544   6.893
 7082SOL     OW22144   6.542   4.060   0.277
 7082SOL    HW122145   6.454   4.020   0.250
 7082SOL    HW222146   6.612   3.989   0.275
 7083SOL     OW22147   2.101   6.724   0.860
 7083SOL    HW122148   2.109   6.625   0.850
 7083SOL    HW222149   2.172   6.758   0.922
 7084SOL     OW22150   0.096   5.256   5.398
 7084SOL    HW122151   0.141   5.272   5.486
 7084SOL    HW222152   7.019   5.252   5.412
 7085SOL     OW22153   1.292   1.125   1.704
 7085SOL    HW122154   1.359   1.199   1.716
 7085SOL    HW222155   1.255   1.127   1.611
 7086SOL     OW22156   5.778   6.962   5.870
 7086SOL    HW122157   5.857   0.001   5.883
 7086SOL    HW222158   5.696   7.017   5.858
 7087SOL     OW22159   6.210   3.884   4.552
 7087SOL    HW122160   6.211   3.978   4.587
 7087SOL    HW222161   6.249   3.883   4.460
 7088SOL     OW22162   4.796   2.856   3.915
 7088SOL    HW122163   4.733   2.864   3.838
 7088SOL    HW222164   4.827   2.761   3.923
 7089SOL     OW22165   3.007   2.153   4.541
 7089SOL    HW122166   3.088   2.142   4.484
 7089SOL    HW222167   2.991   2.068   4.591
 7090SOL     OW22168   1.805   0.604   0.032
 7090SOL    HW122169   1.892   0.601   0.082
 7090SOL    HW222170   1.729   0.592   0.095
 7091SOL     OW22171   0.335   2.344   0.941
 7091SOL    HW122172   0.339   2.362   0.842
 7091SOL    HW222173   0.427   2.320   0.973
 7092SOL     OW22174   3.717   3.355   6.135
 7092SOL    HW122175   3.810   3.319   6.125
 7092SOL    HW222176   3.671   3.357   6.046
 7093SOL     OW22177   3.065   3.876   1.984
 7093SOL    HW122178   3.050   3.933   2.064
 7093SOL    HW222179   3.116   3.794   2.009
 7094SOL     OW22180   0.140   5.677   5.584
 7094SOL    HW122181   0.196   5.756   5.560
 7094SOL    HW222182   0.098   5.639   5.501
 7095SOL     OW22183   3.844   4.454   5.795
 7095SOL    HW122184   3.755   4.493   5.771
 7095SOL    HW222185   3.832   4.357   5.818
 7096SOL     OW22186   6.725   1.230   3.315
 7096SOL    HW122187   6.766   1.150   3.358
 7096SOL    HW222188   6.779   1.311   3.338
 7097SOL     OW22189   5.155   1.773   1.651
 7097SOL    HW122190   5.099   1.855   1.652
 7097SOL    HW222191   5.234   1.787   1.591
 7098SOL     OW22192   1.687   5.207   5.767
 7098SOL    HW122193   1.690   5.268   5.688
 7098SOL    HW222194   1.766   5.146   5.765
 7099SOL     OW22195   3.735   1.642   5.108
 7099SOL    HW122196   3.671   1.713   5.138
 7099SOL    HW222197   3.741   1.643   5.008
 7100SOL     OW22198   6.553   3.715   0.117
 7100SOL    HW122199   6.615   3.765   0.178
 7100SOL    HW222200   6.576   3.734   0.022
 7101SOL     OW22201   2.082   1.731   5.439
 7101SOL    HW122202   2.086   1.696   5.532
 7101SOL    HW222203   2.154   1.799   5.425
 7102SOL     OW22204   5.260   0.018   0.711
 7102SOL    HW122205   5.262   0.089   0.781
 7102SOL    HW222206   5.296   0.055   0.625
 7103SOL     OW22207   5.258   5.031   2.813
 7103SOL    HW122208   5.182   5.096   2.817
 7103SOL    HW222209   5.309   5.046   2.729
 7104SOL     OW22210   6.983   3.284   3.519
 7104SOL    HW122211   6.914   3.331   3.464
 7104SOL    HW222212   6.938   3.229   3.589
 7105SOL     OW22213   2.974   3.409   5.536
 7105SOL    HW122214   3.017   3.495   5.562
 7105SOL    HW222215   3.002   3.337   5.599
 7106SOL     OW22216   3.547   3.563   2.372
 7106SOL    HW122217   3.495   3.496   2.320
 7106SOL    HW222218   3.499   3.651   2.371
 7107SOL     OW22219   4.457   0.667   0.572
 7107SOL    HW122220   4.437   0.620   0.658
 7107SOL    HW222221   4.475   0.599   0.500
 7108SOL     OW22222   3.006   6.429   2.901
 7108SOL    HW122223   3.009   6.341   2.948
 7108SOL    HW222224   2.987   6.414   2.804
 7109SOL     OW22225   2.504   6.945   6.119
 7109SOL    HW122226   2.560   7.021   6.151
 7109SOL    HW222227   2.550   6.899   6.043
 7110SOL     OW22228   3.127   5.812   3.949
 7110SOL    HW122229   3.037   5.811   3.906
 7110SOL    HW222230   3.135   5.735   4.012
 7111SOL     OW22231   1.350   2.575   5.313
 7111SOL    HW122232   1.284   2.533   5.251
 7111SOL    HW222233   1.348   2.674   5.301
 7112SOL     OW22234   1.986   4.865   4.668
 7112SOL    HW122235   2.001   4.948   4.613
 7112SOL    HW222236   1.890   4.858   4.693
 7113SOL     OW22237   3.921   4.011   4.607
 7113SOL    HW122238   3.822   4.021   4.609
 7113SOL    HW222239   3.953   4.008   4.512
 7114SOL     OW22240   5.474   5.710   1.179
 7114SOL    HW122241   5.546   5.681   1.115
 7114SOL    HW222242   5.479   5.809   1.192
 7115SOL     OW22243   5.364   3.138   0.454
 7115SOL    HW122244   5.382   3.164   0.549
 7115SOL    HW222245   5.266   3.138   0.437
 7116SOL     OW22246   6.011   4.165   2.724
 7116SOL    HW122247   6.084   4.126   2.781
 7116SOL    HW222248   5.922   4.148   2.768
 7117SOL     OW22249   0.563   6.835   5.059
 7117SOL    HW122250   0.626   6.883   4.998
 7117SOL    HW222251   0.584   6.737   5.058
 7118SOL     OW22252   3.098   4.788   0.833
 7118SOL    HW122253   3.160   4.806   0.910
 7118SOL    HW222254   3.003   4.796   0.865
 7119SOL     OW22255   4.776   1.647   4.073
 7119SOL    HW122256   4.744   1.575   4.011
 7119SOL    HW222257   4.714   1.654   4.150
 7120SOL     OW22258   3.275   2.061   2.410
 7120SOL    HW122259   3.375   2.065   2.411
 7120SOL    HW222260   3.245   1.980   2.359
 7121SOL     OW22261   0.820   0.048   3.201
 7121SOL    HW122262   0.786   6.977   3.185
 7121SOL    HW222263   0.859   0.085   3.117
 7122SOL     OW22264   1.826   0.660   5.793
 7122SOL    HW122265   1.888   0.583   5.801
 7122SOL    HW222266   1.825   0.712   5.879
 7123SOL     OW22267   1.630   4.681   3.146
 7123SOL    HW122268   1.589   4.719   3.229
 7123SOL    HW222269   1.561   4.677   3.073
 7124SOL     OW22270   6.515   2.363   1.283
 7124SOL    HW122271   6.481   2.270   1.268
 7124SOL    HW222272   6.613   2.367   1.261
 7125SOL     OW22273   0.575   6.877   0.726
 7125SOL    HW122274   0.563   6.810   0.652
 7125SOL    HW222275   0.501   6.944   0.721
 7126SOL     OW22276   3.513   5.164   0.452
 7126SOL    HW122277   3.488   5.103   0.377
 7126SOL    HW222278   3.445   5.237   0.460
 7127SOL     OW22279   1.951   5.361   6.048
 7127SOL    HW122280   1.983   5.296   5.979
 7127SOL    HW222281   1.940   5.314   6.136
 7128SOL     OW22282   3.019   4.577   6.753
 7128SOL    HW122283   3.080   4.648   6.718
 7128SOL    HW222284   3.073   4.502   6.791
 7129SOL     OW22285   2.213   1.667   0.427
 7129SOL    HW122286   2.224   1.575   0.388
 7129SOL    HW222287   2.252   1.668   0.519
 7130SOL     OW22288   3.965   5.938   4.571
 7130SOL    HW122289   3.978   6.027   4.614
 7130SOL    HW222290   3.883   5.941   4.513
 7131SOL     OW22291   2.523   0.850   1.408
 7131SOL    HW122292   2.575   0.935   1.414
 7131SOL    HW222293   2.429   0.866   1.439
 7132SOL     OW22294   4.035   3.569   0.261
 7132SOL    HW122295   4.084   3.584   0.347
 7132SOL    HW222296   4.057   3.643   0.197
 7133SOL     OW22297   4.992   5.342   5.964
 7133SOL    HW122298   4.971   5.324   5.868
 7133SOL    HW222299   5.021   5.437   5.974
 7134SOL     OW22300   4.919   6.651   1.262
 7134SOL    HW122301   5.017   6.637   1.251
 7134SOL    HW222302   4.877   6.667   1.172
 7135SOL     OW22303   1.805   2.633   3.231
 7135SOL    HW122304   1.780   2.645   3.135
 7135SOL    HW222305   1.877   2.564   3.239
 7136SOL     OW22306   2.364   1.880   0.350
 7136SOL    HW122307   2.372   1.952   0.420
 7136SOL    HW222308   2.299   1.811   0.381
 7137SOL     OW22309   3.200   0.377   6.489
 7137SOL    HW122310   3.150   0.347   6.571
 7137SOL    HW222311   3.255   0.301   6.455
 7138SOL     OW22312   2.524   2.189   6.952
 7138SOL    HW122313   2.527   2.091   6.936
 7138SOL    HW222314   2.478   2.208   0.016
 7139SOL     OW22315   6.494   3.914   1.765
 7139SOL    HW122316   6.500   4.014   1.771
 7139SOL    HW222317   6.440   3.888   1.685
 7140SOL     OW22318   6.522   3.569   2.263
 7140SOL    HW122319   6.440   3.531   2.220
 7140SOL    HW222320   6.587   3.495   2.281
 7141SOL     OW22321   3.766   6.130   0.685
 7141SOL    HW122322   3.809   6.101   0.599
 7141SOL    HW222323   3.752   6.229   0.683
 7142SOL     OW22324   3.905   0.148   3.004
 7142SOL    HW122325   3.990   0.200   3.008
 7142SOL    HW222326   3.921   0.061   2.958
 7143SOL     OW22327   1.887   2.689   6.397
 7143SOL    HW122328   1.821   2.618   6.424
 7143SOL    HW222329   1.863   2.724   6.307
 7144SOL     OW22330   1.954   1.922   2.568
 7144SOL    HW122331   1.874   1.924   2.628
 7144SOL    HW222332   1.954   1.837   2.516
 7145SOL     OW22333   4.273   0.471   6.599
 7145SOL    HW122334   4.215   0.486   6.519
 7145SOL    HW222335   4.358   0.523   6.589
 7146SOL     OW22336   1.896   6.651   0.081
 7146SOL    HW122337   1.842   6.664   7.020
 7146SOL    HW222338   1.934   6.738   0.111
 7147SOL     OW22339   0.009   6.803   3.082
 7147SOL    HW122340   6.949   6.808   3.024
 7147SOL    HW222341   0.058   6.719   3.061
 7148SOL     OW22342   0.232   6.795   1.360
 7148SOL    HW122343   0.317   6.800   1.308
 7148SOL    HW222344   0.232   6.715   1.419
 7149SOL     OW22345   6.542   6.895   3.815
 7149SOL    HW122346   6.520   6.847   3.730
 7149SOL    HW222347   6.640   6.887   3.833
 7150SOL     OW22348   3.627   2.677   1.117
 7150SOL    HW122349   3.613   2.625   1.032
 7150SOL    HW222350   3.603   2.619   1.195
 7151SOL     OW22351   3.032   6.790   0.586
 7151SOL    HW122352   3.109   6.753   0.533
 7151SOL    HW222353   3.054   6.787   0.683
 7152SOL     OW22354   6.783   0.835   5.510
 7152SOL    HW122355   6.881   0.849   5.523
 7152SOL    HW222356   6.736   0.922   5.514
 7153SOL     OW22357   4.136   5.246   1.472
 7153SOL    HW122358   4.120   5.265   1.569
 7153SOL    HW222359   4.171   5.328   1.427
 7154SOL     OW22360   4.911   6.721   3.232
 7154SOL    HW122361   4.812   6.729   3.237
 7154SOL    HW222362   4.946   6.783   3.161
 7155SOL     OW22363   2.071   3.353   0.836
 7155SOL    HW122364   2.136   3.329   0.764
 7155SOL    HW222365   2.118   3.352   0.924
 7156SOL     OW22366   6.756   2.993   4.076
 7156SOL    HW122367   6.659   2.969   4.086
 7156SOL    HW222368   6.782   3.057   4.147
 7157SOL     OW22369   0.663   4.034   1.101
 7157SOL    HW122370   0.620   4.074   1.182
 7157SOL    HW222371   0.738   4.093   1.071
 7158SOL     OW22372   0.798   0.531   4.138
 7158SOL    HW122373   0.766   0.583   4.059
 7158SOL    HW222374   0.720   0.506   4.195
 7159SOL     OW22375   0.673   4.264   3.325
 7159SOL    HW122376   0.650   4.316   3.407
 7159SOL    HW222377   0.754   4.208   3.343
 7160SOL     OW22378   5.469   0.621   3.119
 7160SOL    HW122379   5.513   0.655   3.202
 7160SOL    HW222380   5.538   0.583   3.057
 7161SOL     OW22381   3.378   4.134   3.275
 7161SOL    HW122382   3.284   4.170   3.277
 7161SOL    HW222383   3.412   4.127   3.369
 7162SOL     OW22384   0.979   5.311   6.307
 7162SOL    HW122385   0.979   5.262   6.220
 7162SOL    HW222386   0.892   5.296   6.354
 7163SOL     OW22387   2.753   6.777   2.475
 7163SOL    HW122388   2.655   6.755   2.472
 7163SOL    HW222389   2.765   6.870   2.508
 7164SOL     OW22390   2.999   0.578   3.977
 7164SOL    HW122391   3.014   0.641   4.053
 7164SOL    HW222392   3.084   0.530   3.955
 7165SOL     OW22393   6.499   0.296   2.782
 7165SOL    HW122394   6.528   0.298   2.686
 7165SOL    HW222395   6.579   0.303   2.841
 7166SOL     OW22396   4.923   1.915   0.827
 7166SOL    HW122397   4.863   1.837   0.812
 7166SOL    HW222398   4.951   1.918   0.923
 7167SOL     OW22399   5.354   3.173   4.536
 7167SOL    HW122400   5.267   3.173   4.488
 7167SOL    HW222401   5.366   3.085   4.583
 7168SOL     OW22402   1.955   2.744   2.702
 7168SOL    HW122403   1.966   2.693   2.617
 7168SOL    HW222404   2.036   2.800   2.718
 7169SOL     OW22405   0.159   3.492   5.613
 7169SOL    HW122406   0.200   3.424   5.674
 7169SOL    HW222407   0.063   3.470   5.599
 7170SOL     OW22408   5.163   0.240   3.358
 7170SOL    HW122409   5.120   0.157   3.393
 7170SOL    HW222410   5.252   0.217   3.319
 7171SOL     OW22411   6.149   3.730   6.662
 7171SOL    HW122412   6.155   3.708   6.759
 7171SOL    HW222413   6.186   3.822   6.646
 7172SOL     OW22414   1.386   0.220   4.897
 7172SOL    HW122415   1.367   0.131   4.855
 7172SOL    HW222416   1.398   0.289   4.825
 7173SOL     OW22417   6.503   4.492   6.762
 7173SOL    HW122418   6.532   4.413   6.817
 7173SOL    HW222419   6.491   4.571   6.821
 7174SOL     OW22420   1.446   3.420   0.781
 7174SOL    HW122421   1.511   3.390   0.851
 7174SOL    HW222422   1.473   3.383   0.692
 7175SOL     OW22423   5.818   3.132   6.072
 7175SOL    HW122424   5.734   3.186   6.082
 7175SOL    HW222425   5.897   3.190   6.088
 7176SOL     OW22426   6.803   1.207   3.719
 7176SOL    HW122427   6.781   1.279   3.653
 7176SOL    HW222428   6.883   1.156   3.687
 7177SOL     OW22429   1.464   4.963   5.184
 7177SOL    HW122430   1.410   5.042   5.214
 7177SOL    HW222431   1.442   4.884   5.240
 7178SOL     OW22432   6.988   1.378   5.866
 7178SOL    HW122433   0.027   1.306   5.833
 7178SOL    HW222434   6.977   1.369   5.965
 7179SOL     OW22435   2.218   3.153   4.170
 7179SOL    HW122436   2.205   3.054   4.163
 7179SOL    HW222437   2.237   3.177   4.265
 7180SOL     OW22438   1.814   5.574   6.838
 7180SOL    HW122439   1.823   5.475   6.830
 7180SOL    HW222440   1.844   5.603   6.929
 7181SOL     OW22441   1.850   0.217   0.412
 7181SOL    HW122442   1.909   0.296   0.398
 7181SOL    HW222443   1.806   0.193   0.325
 7182SOL     OW22444   0.180   3.204   4.579
 7182SOL    HW122445   0.132   3.181   4.495
 7182SOL    HW222446   0.278   3.206   4.562
 7183SOL     OW22447   1.467   5.475   1.361
 7183SOL    HW122448   1.492   5.534   1.438
 7183SOL    HW222449   1.397   5.519   1.305
 7184SOL     OW22450   6.482   1.029   3.609
 7184SOL    HW122451   6.413   0.985   3.667
 7184SOL    HW222452   6.572   0.994   3.632
 7185SOL     OW22453   5.737   0.473   5.121
 7185SOL    HW122454   5.785   0.457   5.035
 7185SOL    HW222455   5.764   0.562   5.158
 7186SOL     OW22456   6.560   1.797   1.647
 7186SOL    HW122457   6.616   1.721   1.680
 7186SOL    HW222458   6.532   1.779   1.553
 7187SOL     OW22459   3.300   4.412   5.571
 7187SOL    HW122460   3.298   4.413   5.471
 7187SOL    HW222461   3.222   4.359   5.606
 7188SOL     OW22462   5.592   0.153   6.610
 7188SOL    HW122463   5.516   0.149   6.675
 7188SOL    HW222464   5.589   0.239   6.560
 7189SOL     OW22465   5.864   1.143   5.247
 7189SOL    HW122466   5.947   1.107   5.290
 7189SOL    HW222467   5.887   1.222   5.191
 7190SOL     OW22468   6.679   4.323   2.050
 7190SOL    HW122469   6.747   4.253   2.073
 7190SOL    HW222470   6.589   4.282   2.046
 7191SOL     OW22471   1.546   5.312   2.413
 7191SOL    HW122472   1.515   5.232   2.464
 7191SOL    HW222473   1.600   5.371   2.473
 7192SOL     OW22474   2.802   4.219   6.191
 7192SOL    HW122475   2.882   4.160   6.190
 7192SOL    HW222476   2.757   4.216   6.101
 7193SOL     OW22477   1.265   2.974   2.945
 7193SOL    HW122478   1.176   2.958   2.989
 7193SOL    HW222479   1.291   2.894   2.891
 7194SOL     OW22480   2.154   2.692   0.840
 7194SOL    HW122481   2.174   2.708   0.743
 7194SOL    HW222482   2.228   2.730   0.896
 7195SOL     OW22483   1.129   4.122   0.072
 7195SOL    HW122484   1.110   4.219   0.053
 7195SOL    HW222485   1.140   4.073   7.007
 7196SOL     OW22486   2.468   3.740   1.716
 7196SOL    HW122487   2.567   3.745   1.730
 7196SOL    HW222488   2.434   3.654   1.755
 7197SOL     OW22489   0.459   2.503   5.925
 7197SOL    HW122490   0.426   2.598   5.917
 7197SOL    HW222491   0.542   2.502   5.980
 7198SOL     OW22492   0.266   0.704   0.677
 7198SOL    HW122493   0.244   0.787   0.625
 7198SOL    HW222494   0.294   0.632   0.613
 7199SOL     OW22495   2.017   0.767   2.154
 7199SOL    HW122496   1.989   0.671   2.163
 7199SOL    HW222497   1.992   0.800   2.063
 7200SOL     OW22498   2.523   2.637   6.815
 7200SOL    HW122499   2.465   2.713   6.843
 7200SOL    HW222500   2.499   2.556   6.869
 7201SOL     OW22501   0.661   6.379   4.429
 7201SOL    HW122502   0.677   6.293   4.478
 7201SOL    HW222503   0.634   6.359   4.334
 7202SOL     OW22504   5.555   0.061   0.300
 7202SOL    HW122505   5.612   0.002   0.242
 7202SOL    HW222506   5.587   0.054   0.395
 7203SOL     OW22507   0.100   1.171   0.661
 7203SOL    HW122508   0.182   1.209   0.617
 7203SOL    HW222509   0.037   1.245   0.682
 7204SOL     OW22510   0.431   0.199   5.611
 7204SOL    HW122511   0.443   0.179   5.514
 7204SOL    HW222512   0.456   0.119   5.665
 7205SOL     OW22513   1.244   3.785   4.347
 7205SOL    HW122514   1.238   3.859   4.280
 7205SOL    HW222515   1.294   3.708   4.307
 7206SOL     OW22516   1.687   0.471   1.838
 7206SOL    HW122517   1.594   0.442   1.860
 7206SOL    HW222518   1.752   0.417   1.891
 7207SOL     OW22519   3.526   7.005   2.586
 7207SOL    HW122520   3.438   7.004   2.633
 7207SOL    HW222521   3.543   0.074   2.549
 7208SOL     OW22522   4.273   7.020   3.579
 7208SOL    HW122523   4.281   6.964   3.662
 7208SOL    HW222524   4.184   7.006   3.537
 7209SOL     OW22525   2.610   3.449   1.676
 7209SOL    HW122526   2.529   3.476   1.728
 7209SOL    HW222527   2.582   3.396   1.595
 7210SOL     OW22528   4.274   1.058   2.858
 7210SOL    HW122529   4.352   1.038   2.918
 7210SOL    HW222530   4.301   1.127   2.791
 7211SOL     OW22531   2.418   6.873   4.696
 7211SOL    HW122532   2.508   6.910   4.670
 7211SOL    HW222533   2.349   6.945   4.686
 7212SOL     OW22534   0.379   6.483   5.234
 7212SOL    HW122535   0.387   6.540   5.316
 7212SOL    HW222536   0.319   6.528   5.168
 7213SOL     OW22537   4.425   5.801   6.875
 7213SOL    HW122538   4.375   5.884   6.853
 7213SOL    HW222539   4.451   5.802   6.972
 7214SOL     OW22540   6.515   0.181   5.014
 7214SOL    HW122541   6.512   0.123   4.932
 7214SOL    HW222542   6.588   0.150   5.075
 7215SOL     OW22543   6.949   3.317   4.359
 7215SOL    HW122544   7.022   3.248   4.357
 7215SOL    HW222545   6.896   3.311   4.274
 7216SOL     OW22546   3.173   0.036   0.035
 7216SOL    HW122547   3.142   7.019   6.970
 7216SOL    HW222548   3.161   6.990   0.108
 7217SOL     OW22549   2.093   3.898   3.725
 7217SOL    HW122550   2.008   3.933   3.686
 7217SOL    HW222551   2.112   3.807   3.689
 7218SOL     OW22552   5.735   2.604   5.203
 7218SOL    HW122553   5.723   2.604   5.104
 7218SOL    HW222554   5.717   2.695   5.239
 7219SOL     OW22555   4.506   0.344   3.294
 7219SOL    HW122556   4.407   0.337   3.298
 7219SOL    HW222557   4.532   0.438   3.271
 7220SOL     OW22558   0.859   4.301   5.189
 7220SOL    HW122559   0.879   4.376   5.126
 7220SOL    HW222560   0.760   4.290   5.198
 7221SOL     OW22561   3.385   5.975   4.164
 7221SOL    HW122562   3.292   6.000   4.136
 7221SOL    HW222563   3.393   5.982   4.264
 7222SOL     OW22564   6.072   6.918   3.422
 7222SOL    HW122565   6.109   6.954   3.507
 7222SOL    HW222566   6.038   6.825   3.437
 7223SOL     OW22567   2.806   1.377   0.786
 7223SOL    HW122568   2.744   1.299   0.781
 7223SOL    HW222569   2.900   1.344   0.800
 7224SOL     OW22570   5.417   1.747   3.948
 7224SOL    HW122571   5.319   1.753   3.929
 7224SOL    HW222572   5.451   1.837   3.978
 7225SOL     OW22573   1.006   5.576   0.533
 7225SOL    HW122574   0.971   5.590   0.441
 7225SOL    HW222575   0.960   5.638   0.597
 7226SOL     OW22576   5.991   1.455   2.047
 7226SOL    HW122577   6.013   1.464   1.950
 7226SOL    HW222578   5.970   1.545   2.085
 7227SOL     OW22579   2.406   2.298   0.961
 7227SOL    HW122580   2.442   2.207   0.981
 7227SOL    HW222581   2.375   2.341   1.046
 7228SOL     OW22582   1.038   2.269   3.354
 7228SOL    HW122583   0.966   2.324   3.397
 7228SOL    HW222584   1.042   2.291   3.256
 7229SOL     OW22585   1.361   6.326   5.512
 7229SOL    HW122586   1.426   6.309   5.586
 7229SOL    HW222587   1.340   6.424   5.508
 7230SOL     OW22588   3.235   5.219   4.201
 7230SOL    HW122589   3.326   5.250   4.228
 7230SOL    HW222590   3.226   5.226   4.101
 7231SOL     OW22591   3.813   0.958   6.652
 7231SOL    HW122592   3.719   0.940   6.682
 7231SOL    HW222593   3.812   1.028   6.581
 7232SOL     OW22594   5.078   6.551   3.345
 7232SOL    HW122595   5.134   6.514   3.271
 7232SOL    HW222596   5.020   6.624   3.309
 7233SOL     OW22597   0.849   1.957   3.401
 7233SOL    HW122598   0.943   1.943   3.434
 7233SOL    HW222599   0.829   1.891   3.329
 7234SOL     OW22600   4.885   2.593   3.947
 7234SOL    HW122601   4.849   2.577   4.039
 7234SOL    HW222602   4.879   2.508   3.893
 7235SOL     OW22603   6.931   5.275   2.619
 7235SOL    HW122604   6.977   5.232   2.697
 7235SOL    HW222605   6.976   5.362   2.598
 7236SOL     OW22606   2.428   2.115   1.690
 7236SOL    HW122607   2.516   2.150   1.659
 7236SOL    HW222608   2.412   2.025   1.649
 7237SOL     OW22609   4.236   0.080   5.084
 7237SOL    HW122610   4.284   0.030   5.012
 7237SOL    HW222611   4.155   0.028   5.112
 7238SOL     OW22612   3.578   1.554   0.004
 7238SOL    HW122613   3.504   1.493   6.997
 7238SOL    HW222614   3.539   1.634   0.049
 7239SOL     OW22615   1.398   2.209   2.660
 7239SOL    HW122616   1.399   2.154   2.743
 7239SOL    HW222617   1.304   2.237   2.640
 7240SOL     OW22618   1.349   0.476   5.816
 7240SOL    HW122619   1.353   0.434   5.725
 7240SOL    HW222620   1.437   0.519   5.836
 7241SOL     OW22621   1.278   0.766   0.997
 7241SOL    HW122622   1.192   0.806   1.029
 7241SOL    HW222623   1.307   0.695   1.061
 7242SOL     OW22624   6.778   5.842   0.492
 7242SOL    HW122625   6.716   5.863   0.417
 7242SOL    HW222626   6.773   5.745   0.513
 7243SOL     OW22627   6.542   4.291   6.169
 7243SOL    HW122628   6.508   4.378   6.205
 7243SOL    HW222629   6.491   4.267   6.087
 7244SOL     OW22630   6.178   1.184   1.860
 7244SOL    HW122631   6.167   1.090   1.827
 7244SOL    HW222632   6.089   1.229   1.862
 7245SOL     OW22633   1.156   2.641   6.038
 7245SOL    HW122634   1.224   2.696   5.989
 7245SOL    HW222635   1.099   2.592   5.972
 7246SOL     OW22636   0.661   0.035   4.073
 7246SOL    HW122637   0.622   0.125   4.094
 7246SOL    HW222638   0.760   0.037   4.084
 7247SOL     OW22639   2.617   1.088   4.265
 7247SOL    HW122640   2.591   1.165   4.207
 7247SOL    HW222641   2.596   1.002   4.219
 7248SOL     OW22642   2.601   1.528   3.304
 7248SOL    HW122643   2.585   1.520   3.205
 7248SOL    HW222644   2.699   1.521   3.322
 7249SOL     OW22645   6.779   4.715   2.567
 7249SOL    HW122646   6.765   4.792   2.629
 7249SOL    HW222647   6.735   4.735   2.479
 7250SOL     OW22648   4.463   6.664   5.966
 7250SOL    HW122649   4.434   6.570   5.986
 7250SOL    HW222650   4.496   6.707   6.050
 7251SOL     OW22651   0.681   6.464   5.601
 7251SOL    HW122652   0.688   6.439   5.505
 7251SOL    HW222653   0.610   6.409   5.645
 7252SOL     OW22654   3.757   3.519   2.586
 7252SOL    HW122655   3.790   3.614   2.591
 7252SOL    HW222656   3.687   3.512   2.515
 7253SOL     OW22657   1.445   6.214   6.687
 7253SOL    HW122658   1.535   6.218   6.644
 7253SOL    HW222659   1.381   6.168   6.626
 7254SOL     OW22660   4.411   5.027   4.232
 7254SOL    HW122661   4.399   5.120   4.265
 7254SOL    HW222662   4.322   4.982   4.225
 7255SOL     OW22663   2.740   4.484   1.503
 7255SOL    HW122664   2.698   4.439   1.424
 7255SOL    HW222665   2.785   4.415   1.560
 7256SOL     OW22666   2.999   5.368   4.212
 7256SOL    HW122667   3.071   5.299   4.218
 7256SOL    HW222668   2.988   5.396   4.117
 7257SOL     OW22669   6.004   2.691   3.617
 7257SOL    HW122670   6.095   2.667   3.583
 7257SOL    HW222671   5.965   2.763   3.560
 7258SOL     OW22672   3.888   1.825   3.626
 7258SOL    HW122673   3.955   1.838   3.553
 7258SOL    HW222674   3.840   1.911   3.644
 7259SOL     OW22675   2.395   3.697   1.289
 7259SOL    HW122676   2.378   3.753   1.370
 7259SOL    HW222677   2.351   3.608   1.301
 7260SOL     OW22678   3.892   2.042   1.637
 7260SOL    HW122679   3.950   2.101   1.581
 7260SOL    HW222680   3.807   2.090   1.659
 7261SOL     OW22681   1.169   2.513   1.897
 7261SOL    HW122682   1.246   2.474   1.848
 7261SOL    HW222683   1.197   2.599   1.941
 7262SOL     OW22684   5.048   1.681   5.485
 7262SOL    HW122685   5.087   1.605   5.536
 7262SOL    HW222686   5.122   1.733   5.440
 7263SOL     OW22687   0.530   0.905   0.151
 7263SOL    HW122688   0.610   0.849   0.130
 7263SOL    HW222689   0.481   0.927   0.066
 7264SOL     OW22690   5.706   2.179   6.512
 7264SOL    HW122691   5.636   2.108   6.519
 7264SOL    HW222692   5.796   2.136   6.500
 7265SOL     OW22693   5.705   5.680   5.771
 7265SOL    HW122694   5.705   5.606   5.704
 7265SOL    HW222695   5.732   5.765   5.727
 7266SOL     OW22696   5.205   6.960   1.790
 7266SOL    HW122697   5.170   7.013   1.713
 7266SOL    HW222698   5.139   6.964   1.866
 7267SOL     OW22699   6.531   6.110   5.000
 7267SOL    HW122700   6.484   6.138   5.083
 7267SOL    HW222701   6.527   6.010   4.991
 7268SOL     OW22702   5.683   5.016   3.346
 7268SOL    HW122703   5.764   4.957   3.351
 7268SOL    HW222704   5.709   5.110   3.367
 7269SOL     OW22705   0.275   6.713   6.713
 7269SOL    HW122706   0.367   6.746   6.692
 7269SOL    HW222707   0.209   6.759   6.654
 7270SOL     OW22708   1.415   3.583   5.558
 7270SOL    HW122709   1.396   3.681   5.548
 7270SOL    HW222710   1.443   3.565   5.652
 7271SOL     OW22711   0.719   5.884   3.188
 7271SOL    HW122712   0.725   5.867   3.287
 7271SOL    HW222713   0.806   5.861   3.145
 7272SOL     OW22714   5.488   5.903   2.001
 7272SOL    HW122715   5.479   5.955   1.916
 7272SOL    HW222716   5.585   5.887   2.020
 7273SOL     OW22717   5.874   5.163   2.313
 7273SOL    HW122718   5.845   5.201   2.224
 7273SOL    HW222719   5.863   5.064   2.312
 7274SOL     OW22720   0.876   5.584   6.465
 7274SOL    HW122721   0.960   5.546   6.503
 7274SOL    HW222722   0.813   5.511   6.440
 7275SOL     OW22723   6.773   6.695   3.005
 7275SOL    HW122724   6.820   6.609   3.023
 7275SOL    HW222725   6.698   6.679   2.940
 7276SOL     OW22726   4.000   1.474   2.567
 7276SOL    HW122727   3.946   1.391   2.553
 7276SOL    HW222728   3.948   1.537   2.624
 7277SOL     OW22729   4.553   0.606   3.249
 7277SOL    HW122730   4.472   0.635   3.300
 7277SOL    HW222731   4.628   0.669   3.267
 7278SOL     OW22732   3.179   2.719   1.252
 7278SOL    HW122733   3.081   2.705   1.269
 7278SOL    HW222734   3.199   2.697   1.156
 7279SOL     OW22735   3.891   3.941   5.643
 7279SOL    HW122736   3.947   3.903   5.569
 7279SOL    HW222737   3.950   3.988   5.709
 7280SOL     OW22738   0.536   1.971   3.839
 7280SOL    HW122739   0.522   1.898   3.907
 7280SOL    HW222740   0.602   1.940   3.770
 7281SOL     OW22741   1.395   0.726   0.571
 7281SOL    HW122742   1.451   0.796   0.615
 7281SOL    HW222743   1.454   0.664   0.519
 7282SOL     OW22744   6.096   6.094   1.809
 7282SOL    HW122745   6.154   6.072   1.731
 7282SOL    HW222746   6.118   6.186   1.843
 7283SOL     OW22747   4.468   0.811   2.117
 7283SOL    HW122748   4.566   0.824   2.135
 7283SOL    HW222749   4.424   0.773   2.198
 7284SOL     OW22750   6.808   2.125   5.873
 7284SOL    HW122751   6.783   2.067   5.951
 7284SOL    HW222752   6.883   2.082   5.823
 7285SOL     OW22753   5.652   3.239   2.330
 7285SOL    HW122754   5.614   3.147   2.325
 7285SOL    HW222755   5.682   3.268   2.239
 7286SOL     OW22756   1.100   1.128   1.087
 7286SOL    HW122757   1.199   1.142   1.090
 7286SOL    HW222758   1.079   1.031   1.096
 7287SOL     OW22759   6.824   2.603   5.709
 7287SOL    HW122760   6.844   2.505   5.705
 7287SOL    HW222761   6.872   2.650   5.635
 7288SOL     OW22762   1.658   2.083   1.669
 7288SOL    HW122763   1.569   2.091   1.715
 7288SOL    HW222764   1.678   2.168   1.620
 7289SOL     OW22765   5.237   2.709   3.879
 7289SOL    HW122766   5.215   2.623   3.834
 7289SOL    HW222767   5.217   2.702   3.977
 7290SOL     OW22768   2.378   1.270   5.108
 7290SOL    HW122769   2.330   1.351   5.143
 7290SOL    HW222770   2.454   1.299   5.051
 7291SOL     OW22771   1.251   0.315   6.940
 7291SOL    HW122772   1.263   0.259   6.858
 7291SOL    HW222773   1.309   0.280   7.013
 7292SOL     OW22774   3.409   6.908   3.068
 7292SOL    HW122775   3.487   6.859   3.029
 7292SOL    HW222776   3.441   6.965   3.144
 7293SOL     OW22777   1.078   1.367   4.907
 7293SOL    HW122778   1.115   1.422   4.982
 7293SOL    HW222779   1.153   1.337   4.847
 7294SOL     OW22780   3.194   4.396   0.127
 7294SOL    HW122781   3.204   4.430   0.033
 7294SOL    HW222782   3.097   4.384   0.147
 7295SOL     OW22783   6.138   4.542   0.804
 7295SOL    HW122784   6.173   4.539   0.898
 7295SOL    HW222785   6.163   4.458   0.757
 7296SOL     OW22786   3.747   6.035   1.369
 7296SOL    HW122787   3.832   6.005   1.412
 7296SOL    HW222788   3.676   6.045   1.440
 7297SOL     OW22789   3.288   6.313   1.448
 7297SOL    HW122790   3.338   6.320   1.534
 7297SOL    HW222791   3.342   6.354   1.374
 7298SOL     OW22792   5.011   5.673   6.075
 7298SOL    HW122793   5.086   5.618   6.110
 7298SOL    HW222794   4.924   5.638   6.111
 7299SOL     OW22795   1.171   2.057   1.186
 7299SOL    HW122796   1.264   2.059   1.224
 7299SOL    HW222797   1.139   1.963   1.181
 7300SOL     OW22798   0.406   6.856   2.329
 7300SOL    HW122799   0.325   6.818   2.372
 7300SOL    HW222800   0.478   6.786   2.324
 7301SOL     OW22801   5.551   2.216   5.066
 7301SOL    HW122802   5.629   2.277   5.055
 7301SOL    HW222803   5.549   2.181   5.160
 7302SOL     OW22804   6.914   2.441   6.099
 7302SOL    HW122805   6.950   2.509   6.034
 7302SOL    HW222806   6.817   2.458   6.114
 7303SOL     OW22807   3.725   1.046   0.194
 7303SOL    HW122808   3.766   0.961   0.228
 7303SOL    HW222809   3.770   1.073   0.109
 7304SOL     OW22810   2.946   5.014   1.369
 7304SOL    HW122811   2.900   5.093   1.410
 7304SOL    HW222812   2.903   4.930   1.401
 7305SOL     OW22813   4.980   1.711   1.200
 7305SOL    HW122814   5.012   1.795   1.157
 7305SOL    HW222815   4.938   1.732   1.288
 7306SOL     OW22816   3.853   1.894   1.237
 7306SOL    HW122817   3.888   1.863   1.326
 7306SOL    HW222818   3.757   1.919   1.247
 7307SOL     OW22819   3.428   6.470   2.244
 7307SOL    HW122820   3.492   6.491   2.318
 7307SOL    HW222821   3.403   6.555   2.197
 7308SOL     OW22822   6.430   1.729   4.723
 7308SOL    HW122823   6.456   1.797   4.792
 7308SOL    HW222824   6.372   1.772   4.654
 7309SOL     OW22825   3.588   5.721   0.866
 7309SOL    HW122826   3.565   5.815   0.842
 7309SOL    HW222827   3.684   5.715   0.892
 7310SOL     OW22828   1.964   3.569   6.632
 7310SOL    HW122829   1.909   3.650   6.652
 7310SOL    HW222830   1.915   3.510   6.568
 7311SOL     OW22831   1.908   1.818   1.300
 7311SOL    HW122832   1.855   1.760   1.238
 7311SOL    HW222833   1.936   1.901   1.253
 7312SOL     OW22834   0.937   2.722   4.923
 7312SOL    HW122835   0.864   2.742   4.858
 7312SOL    HW222836   1.024   2.756   4.888
 7313SOL     OW22837   2.072   1.006   0.712
 7313SOL    HW122838   2.128   1.058   0.776
 7313SOL    HW222839   2.056   0.914   0.748
 7314SOL     OW22840   0.160   4.131   6.392
 7314SOL    HW122841   0.119   4.136   6.301
 7314SOL    HW222842   0.159   4.221   6.435
 7315SOL     OW22843   5.147   5.406   2.121
 7315SOL    HW122844   5.133   5.473   2.047
 7315SOL    HW222845   5.059   5.381   2.161
 7316SOL     OW22846   3.517   3.529   6.710
 7316SOL    HW122847   3.496   3.606   6.770
 7316SOL    HW222848   3.465   3.449   6.739
 7317SOL     OW22849   4.271   1.735   1.176
 7317SOL    HW122850   4.251   1.647   1.219
 7317SOL    HW222851   4.317   1.795   1.242
 7318SOL     OW22852   3.229   0.312   2.186
 7318SOL    HW122853   3.271   0.347   2.270
 7318SOL    HW222854   3.193   0.388   2.132
 7319SOL     OW22855   6.255   3.680   6.944
 7319SOL    HW122856   6.346   3.718   6.959
 7319SOL    HW222857   6.257   3.581   6.955
 7320SOL     OW22858   0.607   3.981   2.025
 7320SOL    HW122859   0.556   3.896   2.033
 7320SOL    HW222860   0.669   3.976   1.947
 7321SOL     OW22861   2.211   6.482   5.760
 7321SOL    HW122862   2.120   6.441   5.760
 7321SOL    HW222863   2.206   6.575   5.722
 7322SOL     OW22864   6.586   2.842   3.217
 7322SOL    HW122865   6.649   2.873   3.145
 7322SOL    HW222866   6.492   2.844   3.182
 7323SOL     OW22867   2.339   3.008   1.590
 7323SOL    HW122868   2.428   2.983   1.552
 7323SOL    HW222869   2.326   3.106   1.582
 7324SOL     OW22870   5.289   5.539   1.593
 7324SOL    HW122871   5.349   5.501   1.664
 7324SOL    HW222872   5.309   5.495   1.506
 7325SOL     OW22873   2.348   0.153   6.068
 7325SOL    HW122874   2.250   0.137   6.050
 7325SOL    HW222875   2.392   0.066   6.089
 7326SOL     OW22876   3.418   5.840   6.518
 7326SOL    HW122877   3.487   5.840   6.446
 7326SOL    HW222878   3.328   5.852   6.477
 7327SOL     OW22879   6.009   2.256   5.810
 7327SOL    HW122880   6.009   2.160   5.839
 7327SOL    HW222881   5.926   2.301   5.844
 7328SOL     OW22882   4.627   6.853   6.643
 7328SOL    HW122883   4.533   6.836   6.612
 7328SOL    HW222884   4.628   6.935   6.701
 7329SOL     OW22885   0.854   4.268   0.529
 7329SOL    HW122886   0.895   4.333   0.464
 7329SOL    HW222887   0.892   4.285   0.620
 7330SOL     OW22888   1.871   3.398   0.136
 7330SOL    HW122889   1.811   3.475   0.160
 7330SOL    HW222890   1.816   3.316   0.123
 7331SOL     OW22891   6.056   6.707   0.848
 7331SOL    HW122892   6.008   6.641   0.905
 7331SOL    HW222893   6.152   6.711   0.874
 7332SOL     OW22894   3.544   5.794   0.132
 7332SOL    HW122895   3.538   5.791   0.032
 7332SOL    HW222896   3.457   5.762   0.171
 7333SOL     OW22897   6.172   3.156   3.579
 7333SOL    HW122898   6.215   3.243   3.557
 7333SOL    HW222899   6.074   3.170   3.593
 7334SOL     OW22900   1.960   6.089   6.217
 7334SOL    HW122901   2.037   6.152   6.209
 7334SOL    HW222902   1.960   6.026   6.139
 7335SOL     OW22903   0.317   2.594   3.122
 7335SOL    HW122904   0.261   2.672   3.151
 7335SOL    HW222905   0.400   2.627   3.078
 7336SOL     OW22906   2.210   6.875   2.371
 7336SOL    HW122907   2.180   6.837   2.284
 7336SOL    HW222908   2.140   6.858   2.441
 7337SOL     OW22909   1.383   2.543   2.143
 7337SOL    HW122910   1.317   2.616   2.160
 7337SOL    HW222911   1.342   2.455   2.164
 7338SOL     OW22912   4.982   1.556   1.788
 7338SOL    HW122913   4.885   1.537   1.801
 7338SOL    HW222914   5.003   1.556   1.690
 7339SOL     OW22915   5.881   0.419   4.909
 7339SOL    HW122916   5.910   0.479   4.834
 7339SOL    HW222917   5.840   0.336   4.871
 7340SOL     OW22918   3.000   1.407   0.132
 7340SOL    HW122919   2.907   1.418   0.098
 7340SOL    HW222920   3.035   1.496   0.162
 7341SOL     OW22921   1.034   4.095   5.071
 7341SOL    HW122922   1.074   4.097   4.980
 7341SOL    HW222923   0.992   4.183   5.092
 7342SOL     OW22924   0.373   6.813   5.955
 7342SOL    HW122925   0.327   6.823   6.043
 7342SOL    HW222926   0.432   6.732   5.957
 7343SOL     OW22927   5.739   4.539   1.696
 7343SOL    HW122928   5.834   4.559   1.719
 7343SOL    HW222929   5.697   4.485   1.769
 7344SOL     OW22930   1.067   0.658   5.952
 7344SOL    HW122931   1.030   0.661   6.044
 7344SOL    HW222932   1.120   0.741   5.934
 7345SOL     OW22933   4.930   5.773   5.585
 7345SOL    HW122934   4.877   5.749   5.667
 7345SOL    HW222935   5.002   5.838   5.610
 7346SOL     OW22936   5.145   4.310   1.276
 7346SOL    HW122937   5.153   4.408   1.290
 7346SOL    HW222938   5.234   4.271   1.255
 7347SOL     OW22939   0.516   3.310   1.017
 7347SOL    HW122940   0.583   3.243   1.050
 7347SOL    HW222941   0.478   3.360   1.094
 7348SOL     OW22942   1.289   4.016   3.660
 7348SOL    HW122943   1.218   4.038   3.727
 7348SOL    HW222944   1.253   4.033   3.568
 7349SOL     OW22945   4.840   1.953   0.299
 7349SOL    HW122946   4.787   1.992   0.375
 7349SOL    HW222947   4.783   1.889   0.248
 7350SOL     OW22948   1.446   3.104   5.330
 7350SOL    HW122949   1.445   3.177   5.261
 7350SOL    HW222950   1.538   3.098   5.370
 7351SOL     OW22951   5.009   6.173   5.139
 7351SOL    HW122952   4.913   6.178   5.113
 7351SOL    HW222953   5.059   6.250   5.100
 7352SOL     OW22954   2.045   2.497   3.235
 7352SOL    HW122955   2.053   2.483   3.136
 7352SOL    HW222956   2.086   2.419   3.283
 7353SOL     OW22957   0.974   0.294   5.723
 7353SOL    HW122958   0.998   0.197   5.727
 7353SOL    HW222959   0.877   0.303   5.701
 7354SOL     OW22960   0.332   1.671   6.168
 7354SOL    HW122961   0.392   1.608   6.218
 7354SOL    HW222962   0.243   1.629   6.154
 7355SOL     OW22963   2.360   0.919   0.462
 7355SOL    HW122964   2.356   0.851   0.389
 7355SOL    HW222965   2.374   0.872   0.550
 7356SOL     OW22966   3.916   3.681   6.066
 7356SOL    HW122967   3.877   3.630   6.142
 7356SOL    HW222968   3.940   3.618   5.992
 7357SOL     OW22969   4.578   6.501   1.665
 7357SOL    HW122970   4.675   6.515   1.686
 7357SOL    HW222971   4.554   6.405   1.679
 7358SOL     OW22972   6.431   3.597   3.237
 7358SOL    HW122973   6.426   3.515   3.293
 7358SOL    HW222974   6.521   3.640   3.248
 7359SOL     OW22975   2.513   2.195   6.008
 7359SOL    HW122976   2.592   2.251   6.033
 7359SOL    HW222977   2.436   2.217   6.068
 7360SOL     OW22978   3.677   4.118   5.554
 7360SOL    HW122979   3.732   4.036   5.567
 7360SOL    HW222980   3.728   4.184   5.499
 7361SOL     OW22981   4.755   0.071   1.360
 7361SOL    HW122982   4.701   0.028   1.431
 7361SOL    HW222983   4.731   0.032   1.271
 7362SOL     OW22984   1.355   4.969   4.750
 7362SOL    HW122985   1.284   4.943   4.816
 7362SOL    HW222986   1.312   5.010   4.669
 7363SOL     OW22987   4.016   1.725   1.064
 7363SOL    HW122988   3.955   1.794   1.103
 7363SOL    HW222989   4.111   1.754   1.077
 7364SOL     OW22990   4.538   0.900   1.453
 7364SOL    HW122991   4.448   0.926   1.419
 7364SOL    HW222992   4.544   0.920   1.551
 7365SOL     OW22993   1.349   6.485   1.859
 7365SOL    HW122994   1.385   6.436   1.938
 7365SOL    HW222995   1.400   6.569   1.845
 7366SOL     OW22996   2.173   5.995   6.804
 7366SOL    HW122997   2.213   5.940   6.877
 7366SOL    HW222998   2.108   6.061   6.843
 7367SOL     OW22999   5.330   3.324   1.064
 7367SOL    HW123000   5.389   3.381   1.120
 7367SOL    HW223001   5.249   3.377   1.037
 7368SOL     OW23002   3.831   2.983   3.249
 7368SOL    HW123003   3.892   3.060   3.269
 7368SOL    HW223004   3.761   2.977   3.319
 7369SOL     OW23005   4.042   3.074   6.644
 7369SOL    HW123006   4.100   2.994   6.656
 7369SOL    HW223007   4.068   3.122   6.560
 7370SOL     OW23008   2.188   0.719   4.586
 7370SOL    HW123009   2.138   0.663   4.521
 7370SOL    HW223010   2.182   0.679   4.677
 7371SOL     OW23011   2.063   6.191   3.516
 7371SOL    HW123012   1.996   6.194   3.442
 7371SOL    HW223013   2.152   6.163   3.480
 7372SOL     OW23014   3.995   1.127   5.087
 7372SOL    HW123015   3.960   1.221   5.090
 7372SOL    HW223016   4.071   1.118   5.152
 7373SOL     OW23017   5.669   1.809   4.485
 7373SOL    HW123018   5.661   1.710   4.503
 7373SOL    HW223019   5.708   1.854   4.565
 7374SOL     OW23020   2.867   1.673   4.955
 7374SOL    HW123021   2.909   1.759   4.927
 7374SOL    HW223022   2.878   1.606   4.882
 7375SOL     OW23023   2.143   3.612   3.635
 7375SOL    HW123024   2.210   3.538   3.631
 7375SOL    HW223025   2.066   3.591   3.576
 7376SOL     OW23026   3.155   1.788   0.481
 7376SOL    HW123027   3.081   1.780   0.414
 7376SOL    HW223028   3.174   1.698   0.520
 7377SOL     OW23029   5.374   4.522   0.539
 7377SOL    HW123030   5.416   4.454   0.599
 7377SOL    HW223031   5.379   4.491   0.444
 7378SOL     OW23032   0.169   1.173   5.708
 7378SOL    HW123033   0.198   1.078   5.724
 7378SOL    HW223034   0.220   1.210   5.630
 7379SOL     OW23035   3.410   1.383   3.062
 7379SOL    HW123036   3.323   1.396   3.014
 7379SOL    HW223037   3.400   1.410   3.158
 7380SOL     OW23038   0.061   4.199   4.897
 7380SOL    HW123039   0.134   4.235   4.839
 7380SOL    HW223040   0.033   4.109   4.863
 7381SOL     OW23041   4.365   3.883   1.743
 7381SOL    HW123042   4.428   3.953   1.709
 7381SOL    HW223043   4.274   3.922   1.755
 7382SOL     OW23044   6.922   5.693   6.286
 7382SOL    HW123045   6.881   5.665   6.200
 7382SOL    HW223046   6.859   5.676   6.362
 7383SOL     OW23047   1.035   6.956   1.369
 7383SOL    HW123048   1.103   6.895   1.328
 7383SOL    HW223049   1.067   6.984   1.460
 7384SOL     OW23050   5.486   0.954   3.353
 7384SOL    HW123051   5.513   0.955   3.450
 7384SOL    HW223052   5.494   1.046   3.315
 7385SOL     OW23053   3.939   5.584   1.510
 7385SOL    HW123054   3.951   5.598   1.608
 7385SOL    HW223055   4.025   5.602   1.462
 7386SOL     OW23056   0.325   2.140   5.660
 7386SOL    HW123057   0.379   2.093   5.730
 7386SOL    HW223058   0.263   2.205   5.704
 7387SOL     OW23059   4.958   6.479   4.728
 7387SOL    HW123060   5.020   6.477   4.806
 7387SOL    HW223061   4.867   6.450   4.758
 7388SOL     OW23062   0.215   5.238   2.438
 7388SOL    HW123063   0.167   5.161   2.396
 7388SOL    HW223064   0.276   5.279   2.371
 7389SOL     OW23065   0.100   3.351   6.490
 7389SOL    HW123066   0.189   3.314   6.463
 7389SOL    HW223067   0.095   3.448   6.466
 7390SOL     OW23068   1.642   1.743   0.251
 7390SOL    HW123069   1.718   1.731   0.314
 7390SOL    HW223070   1.580   1.813   0.286
 7391SOL     OW23071   3.897   3.361   4.879
 7391SOL    HW123072   3.986   3.407   4.883
 7391SOL    HW223073   3.909   3.265   4.853
 7392SOL     OW23074   2.837   5.967   0.233
 7392SOL    HW123075   2.740   5.949   0.216
 7392SOL    HW223076   2.870   6.037   0.170
 7393SOL     OW23077   5.745   5.014   2.782
 7393SOL    HW123078   5.713   5.106   2.758
 7393SOL    HW223079   5.844   5.015   2.792
 7394SOL     OW23080   2.887   2.231   5.573
 7394SOL    HW123081   2.828   2.181   5.636
 7394SOL    HW223082   2.926   2.311   5.620
 7395SOL     OW23083   1.752   2.389   0.055
 7395SOL    HW123084   1.684   2.388   7.003
 7395SOL    HW223085   1.816   2.464   0.039
 7396SOL     OW23086   1.115   0.041   0.152
 7396SOL    HW123087   1.069   0.076   0.070
 7396SOL    HW223088   1.204   0.004   0.126
 7397SOL     OW23089   4.291   5.439   4.718
 7397SOL    HW123090   4.198   5.402   4.708
 7397SOL    HW223091   4.318   5.433   4.814
 7398SOL     OW23092   2.231   4.855   4.158
 7398SOL    HW123093   2.221   4.761   4.190
 7398SOL    HW223094   2.327   4.882   4.164
 7399SOL     OW23095   1.010   2.270   5.180
 7399SOL    HW123096   1.011   2.317   5.268
 7399SOL    HW223097   0.986   2.335   5.107
 7400SOL     OW23098   4.041   2.570   5.949
 7400SOL    HW123099   4.090   2.486   5.975
 7400SOL    HW223100   4.062   2.642   6.015
 7401SOL     OW23101   1.840   1.410   4.758
 7401SOL    HW123102   1.789   1.363   4.687
 7401SOL    HW223103   1.812   1.376   4.848
 7402SOL     OW23104   2.844   5.904   5.989
 7402SOL    HW123105   2.896   5.846   6.052
 7402SOL    HW223106   2.750   5.871   5.984
 7403SOL     OW23107   2.123   4.024   2.237
 7403SOL    HW123108   2.163   3.935   2.212
 7403SOL    HW223109   2.180   4.067   2.307
 7404SOL     OW23110   2.414   5.254   1.528
 7404SOL    HW123111   2.468   5.307   1.463
 7404SOL    HW223112   2.363   5.315   1.588
 7405SOL     OW23113   3.493   4.986   4.317
 7405SOL    HW123114   3.482   5.004   4.415
 7405SOL    HW223115   3.571   5.038   4.283
 7406SOL     OW23116   0.176   2.782   3.253
 7406SOL    HW123117   0.232   2.745   3.328
 7406SOL    HW223118   0.079   2.773   3.277
 7407SOL     OW23119   0.645   6.761   4.279
 7407SOL    HW123120   0.695   6.736   4.195
 7407SOL    HW223121   0.694   6.726   4.358
 7408SOL     OW23122   2.973   4.172   6.824
 7408SOL    HW123123   2.878   4.203   6.823
 7408SOL    HW223124   3.007   4.168   6.730
 7409SOL     OW23125   6.953   1.828   6.278
 7409SOL    HW123126   6.958   1.887   6.359
 7409SOL    HW223127   6.960   1.733   6.305
 7410SOL     OW23128   0.162   6.743   0.646
 7410SOL    HW123129   0.208   6.756   0.734
 7410SOL    HW223130   0.133   6.832   0.610
 7411SOL     OW23131   2.545   0.204   5.161
 7411SOL    HW123132   2.549   0.272   5.088
 7411SOL    HW223133   2.449   0.180   5.178
 7412SOL     OW23134   4.993   6.982   1.978
 7412SOL    HW123135   4.942   0.025   1.921
 7412SOL    HW223136   4.952   6.891   1.969
 7413SOL     OW23137   5.024   6.296   4.517
 7413SOL    HW123138   4.945   6.258   4.468
 7413SOL    HW223139   4.994   6.369   4.578
 7414SOL     OW23140   0.028   0.318   3.906
 7414SOL    HW123141   0.013   0.360   3.816
 7414SOL    HW223142   6.965   0.278   3.939
 7415SOL     OW23143   2.007   4.462   4.443
 7415SOL    HW123144   1.919   4.439   4.485
 7415SOL    HW223145   2.040   4.548   4.482
 7416SOL     OW23146   2.178   1.241   3.119
 7416SOL    HW123147   2.129   1.286   3.194
 7416SOL    HW223148   2.212   1.310   3.055
 7417SOL     OW23149   1.402   0.550   0.143
 7417SOL    HW123150   1.408   0.562   0.044
 7417SOL    HW223151   1.397   0.453   0.165
 7418SOL     OW23152   3.069   5.598   1.069
 7418SOL    HW123153   3.012   5.664   1.118
 7418SOL    HW223154   3.161   5.597   1.110
 7419SOL     OW23155   5.808   2.794   4.986
 7419SOL    HW123156   5.717   2.833   4.999
 7419SOL    HW223157   5.866   2.816   5.064
 7420SOL     OW23158   0.575   6.794   1.783
 7420SOL    HW123159   0.494   6.736   1.790
 7420SOL    HW223160   0.559   6.868   1.718
 7421SOL     OW23161   3.805   4.058   0.747
 7421SOL    HW123162   3.890   4.077   0.795
 7421SOL    HW223163   3.785   4.133   0.684
 7422SOL     OW23164   0.060   3.023   2.850
 7422SOL    HW123165   0.115   3.075   2.915
 7422SOL    HW223166   0.006   2.954   2.898
 7423SOL     OW23167   5.602   4.085   5.404
 7423SOL    HW123168   5.535   4.157   5.421
 7423SOL    HW223169   5.611   4.070   5.306
 7424SOL     OW23170   6.968   6.714   6.059
 7424SOL    HW123171   6.911   6.687   6.137
 7424SOL    HW223172   6.965   6.813   6.048
 7425SOL     OW23173   4.012   5.207   6.907
 7425SOL    HW123174   4.067   5.248   6.979
 7425SOL    HW223175   3.951   5.138   6.946
 7426SOL     OW23176   2.469   1.268   5.747
 7426SOL    HW123177   2.493   1.333   5.819
 7426SOL    HW223178   2.550   1.245   5.694
 7427SOL     OW23179   4.132   0.110   3.977
 7427SOL    HW123180   4.142   0.165   4.060
 7427SOL    HW223181   4.071   0.156   3.913
 7428SOL     OW23182   3.929   1.634   5.905
 7428SOL    HW123183   4.009   1.584   5.939
 7428SOL    HW223184   3.942   1.732   5.922
 7429SOL     OW23185   0.391   6.677   4.198
 7429SOL    HW123186   0.468   6.687   4.261
 7429SOL    HW223187   0.407   6.731   4.116
 7430SOL     OW23188   0.894   2.551   0.226
 7430SOL    HW123189   0.832   2.569   0.303
 7430SOL    HW223190   0.893   2.630   0.164
 7431SOL     OW23191   1.365   2.782   3.194
 7431SOL    HW123192   1.436   2.728   3.239
 7431SOL    HW223193   1.395   2.805   3.102
 7432SOL     OW23194   0.960   0.866   2.766
 7432SOL    HW123195   0.955   0.791   2.832
 7432SOL    HW223196   1.024   0.935   2.799
 7433SOL     OW23197   4.630   5.907   6.444
 7433SOL    HW123198   4.664   5.864   6.528
 7433SOL    HW223199   4.602   6.001   6.465
 7434SOL     OW23200   5.540   6.363   5.972
 7434SOL    HW123201   5.468   6.357   6.040
 7434SOL    HW223202   5.500   6.380   5.881
 7435SOL     OW23203   4.098   5.372   0.731
 7435SOL    HW123204   4.031   5.446   0.739
 7435SOL    HW223205   4.178   5.404   0.680
 7436SOL     OW23206   5.636   3.573   6.200
 7436SOL    HW123207   5.713   3.606   6.253
 7436SOL    HW223208   5.632   3.621   6.112
 7437SOL     OW23209   1.171   6.177   6.848
 7437SOL    HW123210   1.252   6.207   6.898
 7437SOL    HW223211   1.198   6.113   6.775
 7438SOL     OW23212   1.414   5.983   6.984
 7438SOL    HW123213   1.513   5.970   6.981
 7438SOL    HW223214   1.393   6.075   7.016
 7439SOL     OW23215   1.784   5.610   5.758
 7439SOL    HW123216   1.777   5.530   5.698
 7439SOL    HW223217   1.797   5.692   5.703
 7440SOL     OW23218   0.031   3.575   4.352
 7440SOL    HW123219   0.042   3.571   4.253
 7440SOL    HW223220   6.996   3.499   4.383
 7441SOL     OW23221   5.728   6.131   3.668
 7441SOL    HW123222   5.642   6.122   3.618
 7441SOL    HW223223   5.800   6.161   3.606
 7442SOL     OW23224   6.200   1.233   5.802
 7442SOL    HW123225   6.113   1.234   5.753
 7442SOL    HW223226   6.183   1.215   5.899
 7443SOL     OW23227   0.079   6.474   2.119
 7443SOL    HW123228   0.128   6.561   2.120
 7443SOL    HW223229   0.145   6.399   2.129
 7444SOL     OW23230   5.611   2.632   5.519
 7444SOL    HW123231   5.710   2.622   5.520
 7444SOL    HW223232   5.568   2.544   5.500
 7445SOL     OW23233   3.729   0.845   1.190
 7445SOL    HW123234   3.722   0.814   1.285
 7445SOL    HW223235   3.640   0.833   1.145
 7446SOL     OW23236   5.856   3.178   0.800
 7446SOL    HW123237   5.870   3.176   0.701
 7446SOL    HW223238   5.941   3.153   0.847
 7447SOL     OW23239   0.361   3.197   6.489
 7447SOL    HW123240   0.428   3.250   6.541
 7447SOL    HW223241   0.333   3.117   6.543
 7448SOL     OW23242   6.587   6.202   5.317
 7448SOL    HW123243   6.680   6.215   5.282
 7448SOL    HW223244   6.591   6.175   5.413
 7449SOL     OW23245   0.040   3.763   1.967
 7449SOL    HW123246   0.114   3.781   2.032
 7449SOL    HW223247   6.975   3.754   2.017
 7450SOL     OW23248   5.267   2.256   4.451
 7450SOL    HW123249   5.283   2.227   4.357
 7450SOL    HW223250   5.268   2.176   4.511
 7451SOL     OW23251   6.945   0.134   3.019
 7451SOL    HW123252   6.879   0.086   2.962
 7451SOL    HW223253   0.016   0.103   2.996
 7452SOL     OW23254   0.385   6.547   4.701
 7452SOL    HW123255   0.358   6.644   4.698
 7452SOL    HW223256   0.309   6.493   4.737
 7453SOL     OW23257   4.597   0.386   6.019
 7453SOL    HW123258   4.674   0.423   5.969
 7453SOL    HW223259   4.516   0.443   6.004
 7454SOL     OW23260   0.278   2.171   2.560
 7454SOL    HW123261   0.212   2.097   2.553
 7454SOL    HW223262   0.235   2.257   2.533
 7455SOL     OW23263   6.874   1.557   2.519
 7455SOL    HW123264   6.924   1.492   2.462
 7455SOL    HW223265   6.876   1.526   2.614
 7456SOL     OW23266   0.863   1.559   4.443
 7456SOL    HW123267   0.835   1.469   4.475
 7456SOL    HW223268   0.938   1.593   4.500
 7457SOL     OW23269   3.859   0.009   5.975
 7457SOL    HW123270   3.958   0.028   5.977
 7457SOL    HW223271   3.809   0.093   5.997
 7458SOL     OW23272   1.827   6.488   5.448
 7458SOL    HW123273   1.909   6.542   5.465
 7458SOL    HW223274   1.749   6.531   5.492
 7459SOL     OW23275   4.620   0.370   1.568
 7459SOL    HW123276   4.610   0.351   1.470
 7459SOL    HW223277   4.568   0.452   1.591
 7460SOL     OW23278   1.113   5.483   0.915
 7460SOL    HW123279   1.132   5.489   1.013
 7460SOL    HW223280   1.019   5.450   0.901
 7461SOL     OW23281   5.705   1.195   5.978
 7461SOL    HW123282   5.753   1.176   6.064
 7461SOL    HW223283   5.722   1.290   5.951
 7462SOL     OW23284   2.150   3.773   2.749
 7462SOL    HW123285   2.196   3.861   2.763
 7462SOL    HW223286   2.160   3.744   2.654
 7463SOL     OW23287   2.168   4.502   1.135
 7463SOL    HW123288   2.224   4.583   1.122
 7463SOL    HW223289   2.177   4.443   1.054
 7464SOL     OW23290   5.276   0.755   6.780
 7464SOL    HW123291   5.305   0.825   6.715
 7464SOL    HW223292   5.182   0.726   6.758
 7465SOL     OW23293   1.082   5.804   6.917
 7465SOL    HW123294   1.155   5.765   6.861
 7465SOL    HW223295   1.109   5.803   7.013
 7466SOL     OW23296   6.671   0.587   5.444
 7466SOL    HW123297   6.681   0.557   5.539
 7466SOL    HW223298   6.704   0.681   5.436
 7467SOL     OW23299   0.375   1.461   1.055
 7467SOL    HW123300   0.465   1.450   1.095
 7467SOL    HW223301   0.345   1.556   1.065
 7468SOL     OW23302   5.718   2.719   3.569
 7468SOL    HW123303   5.778   2.780   3.517
 7468SOL    HW223304   5.670   2.657   3.506
 7469SOL     OW23305   0.092   0.997   0.936
 7469SOL    HW123306   0.119   1.060   0.863
 7469SOL    HW223307   7.015   1.002   0.950
 7470SOL     OW23308   6.450   3.428   3.946
 7470SOL    HW123309   6.481   3.347   3.895
 7470SOL    HW223310   6.410   3.400   4.033
 7471SOL     OW23311   6.191   6.392   6.599
 7471SOL    HW123312   6.207   6.487   6.624
 7471SOL    HW223313   6.101   6.383   6.555
 7472SOL     OW23314   6.656   6.816   5.008
 7472SOL    HW123315   6.661   6.735   5.065
 7472SOL    HW223316   6.567   6.820   4.962
 7473SOL     OW23317   5.945   4.908   3.323
 7473SOL    HW123318   6.022   4.910   3.259
 7473SOL    HW223319   5.964   4.969   3.400
 7474SOL     OW23320   1.008   1.475   5.322
 7474SOL    HW123321   0.981   1.461   5.417
 7474SOL    HW223322   0.934   1.445   5.262
 7475SOL     OW23323   4.710   1.992   2.391
 7475SOL    HW123324   4.683   2.066   2.330
 7475SOL    HW223325   4.712   1.906   2.341
 7476SOL     OW23326   3.527   0.365   4.077
 7476SOL    HW123327   3.531   0.394   3.981
 7476SOL    HW223328   3.491   0.272   4.082
 7477SOL     OW23329   0.214   0.958   5.047
 7477SOL    HW123330   0.250   0.962   5.140
 7477SOL    HW223331   0.238   0.870   5.005
 7478SOL     OW23332   4.657   5.284   6.413
 7478SOL    HW123333   4.748   5.257   6.447
 7478SOL    HW223334   4.658   5.282   6.313
 7479SOL     OW23335   4.346   2.510   1.818
 7479SOL    HW123336   4.345   2.556   1.730
 7479SOL    HW223337   4.271   2.444   1.823
 7480SOL     OW23338   0.718   4.285   2.354
 7480SOL    HW123339   0.633   4.245   2.387
 7480SOL    HW223340   0.725   4.380   2.385
 7481SOL     OW23341   6.095   5.386   1.640
 7481SOL    HW123342   6.101   5.347   1.548
 7481SOL    HW223343   6.074   5.484   1.633
 7482SOL     OW23344   4.916   2.367   2.967
 7482SOL    HW123345   4.826   2.361   3.010
 7482SOL    HW223346   4.958   2.276   2.964
 7483SOL     OW23347   4.674   2.746   4.492
 7483SOL    HW123348   4.698   2.837   4.526
 7483SOL    HW223349   4.642   2.754   4.397
 7484SOL     OW23350   1.319   0.138   4.042
 7484SOL    HW123351   1.413   0.142   4.075
 7484SOL    HW223352   1.312   0.068   3.971
 7485SOL     OW23353   3.348   6.920   4.627
 7485SOL    HW123354   3.440   6.915   4.665
 7485SOL    HW223355   3.343   6.862   4.545
 7486SOL     OW23356   1.932   6.833   0.664
 7486SOL    HW123357   1.985   6.812   0.747
 7486SOL    HW223358   1.990   6.881   0.598
 7487SOL     OW23359   2.005   6.772   2.942
 7487SOL    HW123360   1.932   6.750   2.876
 7487SOL    HW223361   1.975   6.849   2.999
 7488SOL     OW23362   2.645   0.272   3.700
 7488SOL    HW123363   2.673   0.346   3.639
 7488SOL    HW223364   2.722   0.210   3.715
 7489SOL     OW23365   5.087   2.591   5.385
 7489SOL    HW123366   5.184   2.578   5.367
 7489SOL    HW223367   5.071   2.596   5.484
 7490SOL     OW23368   1.272   1.038   2.087
 7490SOL    HW123369   1.275   0.939   2.079
 7490SOL    HW223370   1.344   1.078   2.031
 7491SOL     OW23371   5.387   2.271   6.284
 7491SOL    HW123372   5.440   2.328   6.347
 7491SOL    HW223373   5.290   2.278   6.306
 7492SOL     OW23374   2.093   0.340   3.098
 7492SOL    HW123375   2.030   0.335   3.021
 7492SOL    HW223376   2.186   0.355   3.065
 7493SOL     OW23377   0.565   3.380   6.569
 7493SOL    HW123378   0.610   3.419   6.489
 7493SOL    HW223379   0.581   3.439   6.648
 7494SOL     OW23380   5.494   0.828   2.623
 7494SOL    HW123381   5.445   0.793   2.702
 7494SOL    HW223382   5.433   0.885   2.568
 7495SOL     OW23383   2.040   1.980   0.286
 7495SOL    HW123384   2.059   1.966   0.189
 7495SOL    HW223385   2.030   1.892   0.332
 7496SOL     OW23386   6.086   3.466   5.331
 7496SOL    HW123387   6.098   3.399   5.405
 7496SOL    HW223388   6.051   3.551   5.369
 7497SOL     OW23389   2.703   4.219   6.444
 7497SOL    HW123390   2.729   4.214   6.348
 7497SOL    HW223391   2.775   4.265   6.496
 7498SOL     OW23392   3.246   0.654   5.238
 7498SOL    HW123393   3.340   0.668   5.267
 7498SOL    HW223394   3.199   0.742   5.233
 7499SOL     OW23395   3.371   1.448   2.658
 7499SOL    HW123396   3.346   1.378   2.591
 7499SOL    HW223397   3.298   1.515   2.664
 7500SOL     OW23398   3.297   5.261   2.963
 7500SOL    HW123399   3.374   5.210   2.924
 7500SOL    HW223400   3.211   5.227   2.924
 7501SOL     OW23401   5.128   4.139   4.803
 7501SOL    HW123402   5.096   4.057   4.850
 7501SOL    HW223403   5.062   4.163   4.731
 7502SOL     OW23404   2.093   0.523   4.427
 7502SOL    HW123405   2.180   0.483   4.398
 7502SOL    HW223406   2.037   0.543   4.347
 7503SOL     OW23407   2.355   0.322   1.439
 7503SOL    HW123408   2.284   0.391   1.452
 7503SOL    HW223409   2.324   0.235   1.479
 7504SOL     OW23410   1.549   0.088   2.847
 7504SOL    HW123411   1.458   0.059   2.816
 7504SOL    HW223412   1.557   0.071   2.946
 7505SOL     OW23413   1.815   2.044   5.486
 7505SOL    HW123414   1.740   2.109   5.471
 7505SOL    HW223415   1.801   1.965   5.426
 7506SOL     OW23416   5.600   0.686   3.344
 7506SOL    HW123417   5.697   0.709   3.337
 7506SOL    HW223418   5.548   0.768   3.365
 7507SOL     OW23419   0.550   1.203   2.398
 7507SOL    HW123420   0.601   1.121   2.372
 7507SOL    HW223421   0.542   1.264   2.320
 7508SOL     OW23422   0.995   0.097   1.669
 7508SOL    HW123423   0.899   0.101   1.697
 7508SOL    HW223424   1.049   0.160   1.725
 7509SOL     OW23425   5.902   4.657   0.632
 7509SOL    HW123426   5.966   4.619   0.699
 7509SOL    HW223427   5.853   4.734   0.673
 7510SOL     OW23428   3.976   3.598   5.741
 7510SOL    HW123429   4.037   3.664   5.698
 7510SOL    HW223430   3.884   3.637   5.746
 7511SOL     OW23431   2.312   6.530   3.521
 7511SOL    HW123432   2.391   6.577   3.482
 7511SOL    HW223433   2.239   6.525   3.453
 7512SOL     OW23434   2.879   6.296   6.688
 7512SOL    HW123435   2.967   6.252   6.705
 7512SOL    HW223436   2.825   6.296   6.772
 7513SOL     OW23437   2.606   0.662   1.571
 7513SOL    HW123438   2.686   0.692   1.624
 7513SOL    HW223439   2.568   0.739   1.521
 7514SOL     OW23440   2.693   6.122   1.873
 7514SOL    HW123441   2.683   6.220   1.853
 7514SOL    HW223442   2.602   6.079   1.871
 7515SOL     OW23443   6.922   5.063   3.058
 7515SOL    HW123444   6.928   5.162   3.064
 7515SOL    HW223445   7.012   5.025   3.038
 7516SOL     OW23446   0.145   6.729   5.537
 7516SOL    HW123447   0.135   6.815   5.486
 7516SOL    HW223448   0.118   6.742   5.632
 7517SOL     OW23449   0.285   2.932   0.917
 7517SOL    HW123450   0.312   3.024   0.889
 7517SOL    HW223451   0.361   2.869   0.904
 7518SOL     OW23452   4.429   4.866   4.015
 7518SOL    HW123453   4.481   4.921   4.081
 7518SOL    HW223454   4.370   4.927   3.961
 7519SOL     OW23455   0.232   6.133   3.378
 7519SOL    HW123456   0.166   6.199   3.416
 7519SOL    HW223457   0.210   6.041   3.410
 7520SOL     OW23458   2.557   0.045   2.300
 7520SOL    HW123459   2.604   6.988   2.342
 7520SOL    HW223460   2.599   0.130   2.333
 7521SOL     OW23461   5.075   4.489   5.811
 7521SOL    HW123462   5.084   4.400   5.767
 7521SOL    HW223463   5.166   4.527   5.829
 7522SOL     OW23464   1.515   1.170   6.084
 7522SOL    HW123465   1.544   1.264   6.102
 7522SOL    HW223466   1.432   1.171   6.027
 7523SOL     OW23467   5.948   0.474   5.891
 7523SOL    HW123468   5.957   0.560   5.841
 7523SOL    HW223469   5.858   0.435   5.875
 7524SOL     OW23470   1.377   2.268   5.349
 7524SOL    HW123471   1.357   2.366   5.351
 7524SOL    HW223472   1.298   2.217   5.384
 7525SOL     OW23473   3.483   0.970   5.993
 7525SOL    HW123474   3.527   0.991   5.906
 7525SOL    HW223475   3.385   0.990   5.986
 7526SOL     OW23476   2.992   3.343   1.979
 7526SOL    HW123477   2.947   3.414   2.033
 7526SOL    HW223478   3.064   3.385   1.923
 7527SOL     OW23479   2.778   5.968   3.175
 7527SOL    HW123480   2.875   5.953   3.195
 7527SOL    HW223481   2.725   5.887   3.200
 7528SOL     OW23482   5.824   2.720   0.361
 7528SOL    HW123483   5.823   2.816   0.390
 7528SOL    HW223484   5.827   2.661   0.441
 7529SOL     OW23485   4.738   1.172   4.775
 7529SOL    HW123486   4.706   1.214   4.690
 7529SOL    HW223487   4.659   1.150   4.833
 7530SOL     OW23488   6.926   2.880   3.065
 7530SOL    HW123489   6.955   2.962   3.115
 7530SOL    HW223490   6.837   2.896   3.022
 7531SOL     OW23491   5.424   3.399   4.686
 7531SOL    HW123492   5.415   3.304   4.658
 7531SOL    HW223493   5.404   3.459   4.608
 7532SOL     OW23494   4.921   5.603   6.813
 7532SOL    HW123495   4.966   5.551   6.741
 7532SOL    HW223496   4.952   5.698   6.811
 7533SOL     OW23497   2.784   1.204   1.830
 7533SOL    HW123498   2.854   1.244   1.889
 7533SOL    HW223499   2.696   1.248   1.849
 7534SOL     OW23500   4.707   6.491   5.412
 7534SOL    HW123501   4.734   6.550   5.336
 7534SOL    HW223502   4.772   6.501   5.486
 7535SOL     OW23503   2.010   0.488   5.072
 7535SOL    HW123504   1.966   0.400   5.053
 7535SOL    HW223505   1.946   0.547   5.121
 7536SOL     OW23506   4.806   4.815   4.507
 7536SOL    HW123507   4.842   4.739   4.561
 7536SOL    HW223508   4.728   4.855   4.553
 7537SOL     OW23509   2.918   5.612   1.983
 7537SOL    HW123510   2.859   5.693   1.982
 7537SOL    HW223511   3.009   5.638   1.950
 7538SOL     OW23512   1.828   2.937   1.850
 7538SOL    HW123513   1.927   2.945   1.860
 7538SOL    HW223514   1.795   2.863   1.908
 7539SOL     OW23515   1.756   3.933   3.803
 7539SOL    HW123516   1.658   3.914   3.807
 7539SOL    HW223517   1.805   3.865   3.858
 7540SOL     OW23518   4.097   0.678   4.595
 7540SOL    HW123519   4.017   0.647   4.544
 7540SOL    HW223520   4.110   0.619   4.675
 7541SOL     OW23521   0.536   4.712   5.257
 7541SOL    HW123522   0.519   4.648   5.332
 7541SOL    HW223523   0.459   4.776   5.249
 7542SOL     OW23524   1.255   5.009   6.341
 7542SOL    HW123525   1.266   5.055   6.253
 7542SOL    HW223526   1.186   4.937   6.332
 7543SOL     OW23527   4.107   1.738   6.223
 7543SOL    HW123528   4.020   1.689   6.226
 7543SOL    HW223529   4.100   1.820   6.280
 7544SOL     OW23530   6.866   2.258   3.053
 7544SOL    HW123531   6.838   2.325   3.121
 7544SOL    HW223532   6.965   2.246   3.055
 7545SOL     OW23533   0.459   5.786   0.242
 7545SOL    HW123534   0.413   5.871   0.215
 7545SOL    HW223535   0.544   5.809   0.289
 7546SOL     OW23536   3.577   2.200   1.688
 7546SOL    HW123537   3.487   2.200   1.731
 7546SOL    HW223538   3.634   2.270   1.731
 7547SOL     OW23539   5.346   1.694   0.403
 7547SOL    HW123540   5.283   1.654   0.470
 7547SOL    HW223541   5.313   1.785   0.377
 7548SOL     OW23542   4.410   1.325   6.692
 7548SOL    HW123543   4.442   1.267   6.618
 7548SOL    HW223544   4.318   1.359   6.672
 7549SOL     OW23545   4.309   2.822   0.178
 7549SOL    HW123546   4.308   2.908   0.126
 7549SOL    HW223547   4.374   2.830   0.253
 7550SOL     OW23548   2.353   5.209   2.950
 7550SOL    HW123549   2.255   5.223   2.934
 7550SOL    HW223550   2.403   5.224   2.866
 7551SOL     OW23551   5.072   3.601   6.141
 7551SOL    HW123552   5.109   3.535   6.206
 7551SOL    HW223553   5.035   3.679   6.191
 7552SOL     OW23554   1.168   6.336   2.851
 7552SOL    HW123555   1.251   6.316   2.799
 7552SOL    HW223556   1.088   6.309   2.798
 7553SOL     OW23557   4.597   6.242   5.644
 7553SOL    HW123558   4.687   6.200   5.651
 7553SOL    HW223559   4.607   6.342   5.644
 7554SOL     OW23560   4.664   1.032   0.398
 7554SOL    HW123561   4.638   1.068   0.487
 7554SOL    HW223562   4.583   1.025   0.340
 7555SOL     OW23563   2.309   4.741   5.884
 7555SOL    HW123564   2.396   4.789   5.872
 7555SOL    HW223565   2.294   4.725   5.982
 7556SOL     OW23566   1.754   3.143   0.178
 7556SOL    HW123567   1.827   3.169   0.241
 7556SOL    HW223568   1.685   3.089   0.228
 7557SOL     OW23569   4.871   1.048   5.449
 7557SOL    HW123570   4.896   1.027   5.544
 7557SOL    HW223571   4.817   0.973   5.412
 7558SOL     OW23572   1.305   2.436   3.994
 7558SOL    HW123573   1.272   2.530   3.995
 7558SOL    HW223574   1.289   2.395   4.084
 7559SOL     OW23575   5.374   3.666   0.588
 7559SOL    HW123576   5.354   3.605   0.665
 7559SOL    HW223577   5.385   3.612   0.505
 7560SOL     OW23578   5.530   0.126   0.865
 7560SOL    HW123579   5.561   0.031   0.859
 7560SOL    HW223580   5.466   0.135   0.941
 7561SOL     OW23581   0.902   3.179   6.947
 7561SOL    HW123582   0.942   3.214   6.863
 7561SOL    HW223583   0.802   3.180   6.939
 7562SOL     OW23584   0.152   6.094   4.117
 7562SOL    HW123585   0.095   6.026   4.163
 7562SOL    HW223586   0.228   6.120   4.177
 7563SOL     OW23587   3.121   0.270   1.672
 7563SOL    HW123588   3.041   0.235   1.623
 7563SOL    HW223589   3.093   0.298   1.764
 7564SOL     OW23590   4.167   0.252   3.030
 7564SOL    HW123591   4.237   0.188   3.000
 7564SOL    HW223592   4.175   0.267   3.129
 7565SOL     OW23593   5.348   3.235   0.736
 7565SOL    HW123594   5.382   3.320   0.777
 7565SOL    HW223595   5.399   3.158   0.773
 7566SOL     OW23596   6.488   4.534   2.976
 7566SOL    HW123597   6.578   4.546   2.933
 7566SOL    HW223598   6.484   4.443   3.018
 7567SOL     OW23599   2.023   2.274   4.714
 7567SOL    HW123600   1.933   2.298   4.748
 7567SOL    HW223601   2.092   2.291   4.785
 7568SOL     OW23602   5.142   6.196   3.386
 7568SOL    HW123603   5.073   6.259   3.351
 7568SOL    HW223604   5.233   6.237   3.374
 7569SOL     OW23605   3.935   4.933   5.812
 7569SOL    HW123606   3.959   4.862   5.746
 7569SOL    HW223607   3.840   4.961   5.798
 7570SOL     OW23608   5.482   3.807   5.433
 7570SOL    HW123609   5.540   3.742   5.384
 7570SOL    HW223610   5.539   3.880   5.470
 7571SOL     OW23611   4.103   5.159   3.114
 7571SOL    HW123612   4.190   5.133   3.071
 7571SOL    HW223613   4.041   5.080   3.115
 7572SOL     OW23614   4.535   1.275   1.271
 7572SOL    HW123615   4.574   1.184   1.285
 7572SOL    HW223616   4.447   1.282   1.317
 7573SOL     OW23617   0.034   0.628   5.520
 7573SOL    HW123618   6.970   0.674   5.544
 7573SOL    HW223619   0.041   0.624   5.420
 7574SOL     OW23620   5.198   0.326   5.497
 7574SOL    HW123621   5.133   0.250   5.498
 7574SOL    HW223622   5.253   0.322   5.414
 7575SOL     OW23623   5.138   0.553   6.110
 7575SOL    HW123624   5.051   0.595   6.083
 7575SOL    HW223625   5.121   0.473   6.168
 7576SOL     OW23626   4.527   3.755   0.173
 7576SOL    HW123627   4.609   3.797   0.134
 7576SOL    HW223628   4.500   3.677   0.117
 7577SOL     OW23629   0.742   0.196   6.610
 7577SOL    HW123630   0.710   0.128   6.544
 7577SOL    HW223631   0.836   0.223   6.588
 7578SOL     OW23632   1.799   5.068   1.487
 7578SOL    HW123633   1.717   5.112   1.449
 7578SOL    HW223634   1.870   5.065   1.417
 7579SOL     OW23635   0.431   1.031   2.091
 7579SOL    HW123636   0.351   1.025   2.152
 7579SOL    HW223637   0.412   0.980   2.007
 7580SOL     OW23638   0.685   4.036   4.466
 7580SOL    HW123639   0.638   4.116   4.428
 7580SOL    HW223640   0.621   3.987   4.526
 7581SOL     OW23641   6.931   1.284   1.896
 7581SOL    HW123642   0.008   1.289   1.913
 7581SOL    HW223643   6.888   1.229   1.967
 7582SOL     OW23644   3.973   1.173   1.357
 7582SOL    HW123645   4.038   1.146   1.429
 7582SOL    HW223646   3.965   1.100   1.290
 7583SOL     OW23647   5.814   3.009   2.012
 7583SOL    HW123648   5.901   2.964   2.034
 7583SOL    HW223649   5.828   3.073   1.936
 7584SOL     OW23650   3.438   6.981   1.785
 7584SOL    HW123651   3.537   6.988   1.800
 7584SOL    HW223652   3.412   6.884   1.781
 7585SOL     OW23653   1.847   2.705   6.977
 7585SOL    HW123654   1.788   2.780   6.947
 7585SOL    HW223655   1.879   2.722   0.049
 7586SOL     OW23656   3.071   0.204   3.800
 7586SOL    HW123657   3.081   0.298   3.832
 7586SOL    HW223658   3.136   0.188   3.725
 7587SOL     OW23659   2.292   2.702   0.078
 7587SOL    HW123660   2.316   2.708   0.175
 7587SOL    HW223661   2.236   2.780   0.052
 7588SOL     OW23662   1.667   3.143   3.574
 7588SOL    HW123663   1.753   3.186   3.599
 7588SOL    HW223664   1.653   3.061   3.631
 7589SOL     OW23665   0.646   0.615   2.582
 7589SOL    HW123666   0.607   0.685   2.523
 7589SOL    HW223667   0.727   0.652   2.629
 7590SOL     OW23668   3.682   2.055   6.290
 7590SOL    HW123669   3.715   2.119   6.359
 7590SOL    HW223670   3.605   2.096   6.240
 7591SOL     OW23671   7.020   3.576   0.912
 7591SOL    HW123672   0.040   3.506   0.854
 7591SOL    HW223673   6.960   3.532   0.979
 7592SOL     OW23674   6.451   5.074   4.619
 7592SOL    HW123675   6.416   4.985   4.650
 7592SOL    HW223676   6.388   5.112   4.550
 7593SOL     OW23677   6.427   3.180   0.551
 7593SOL    HW123678   6.388   3.089   0.541
 7593SOL    HW223679   6.479   3.204   0.469
 7594SOL     OW23680   0.976   4.964   2.278
 7594SOL    HW123681   1.072   4.942   2.262
 7594SOL    HW223682   0.962   5.062   2.270
 7595SOL     OW23683   6.241   2.975   5.955
 7595SOL    HW123684   6.288   2.991   5.869
 7595SOL    HW223685   6.152   2.933   5.938
 7596SOL     OW23686   3.769   5.910   3.781
 7596SOL    HW123687   3.773   5.955   3.692
 7596SOL    HW223688   3.705   5.960   3.840
 7597SOL     OW23689   2.364   6.444   2.987
 7597SOL    HW123690   2.372   6.536   2.947
 7597SOL    HW223691   2.452   6.397   2.980
 7598SOL     OW23692   0.381   1.036   3.034
 7598SOL    HW123693   0.441   0.993   3.102
 7598SOL    HW223694   0.319   0.968   2.996
 7599SOL     OW23695   5.669   2.394   2.001
 7599SOL    HW123696   5.715   2.351   1.923
 7599SOL    HW223697   5.609   2.327   2.045
 7600SOL     OW23698   1.565   1.640   3.063
 7600SOL    HW123699   1.585   1.582   3.142
 7600SOL    HW223700   1.574   1.736   3.090
 7601SOL     OW23701   1.744   5.013   2.259
 7601SOL    HW123702   1.723   4.945   2.189
 7601SOL    HW223703   1.725   4.975   2.349
 7602SOL     OW23704   2.338   3.893   6.358
 7602SOL    HW123705   2.317   3.797   6.380
 7602SOL    HW223706   2.437   3.907   6.364
 7603SOL     OW23707   1.391   5.699   5.830
 7603SOL    HW123708   1.413   5.793   5.804
 7603SOL    HW223709   1.306   5.698   5.884
 7604SOL     OW23710   2.223   4.029   4.756
 7604SOL    HW123711   2.262   3.989   4.838
 7604SOL    HW223712   2.282   4.102   4.722
 7605SOL     OW23713   1.406   0.521   1.377
 7605SOL    HW123714   1.423   0.577   1.296
 7605SOL    HW223715   1.490   0.515   1.432
 7606SOL     OW23716   6.041   4.109   5.003
 7606SOL    HW123717   6.086   4.020   5.015
 7606SOL    HW223718   5.947   4.095   4.970
 7607SOL     OW23719   3.767   5.653   0.198
 7607SOL    HW123720   3.837   5.689   0.260
 7607SOL    HW223721   3.705   5.726   0.171
 7608SOL     OW23722   4.007   3.941   1.536
 7608SOL    HW123723   4.027   3.977   1.627
 7608SOL    HW223724   4.015   4.014   1.468
 7609SOL     OW23725   1.001   3.099   4.311
 7609SOL    HW123726   1.024   3.160   4.236
 7609SOL    HW223727   1.033   3.006   4.290
 7610SOL     OW23728   4.657   4.794   6.203
 7610SOL    HW123729   4.674   4.746   6.289
 7610SOL    HW223730   4.717   4.873   6.196
 7611SOL     OW23731   5.929   3.444   2.084
 7611SOL    HW123732   5.829   3.453   2.085
 7611SOL    HW223733   5.963   3.464   1.992
 7612SOL     OW23734   4.781   2.936   2.665
 7612SOL    HW123735   4.729   2.877   2.727
 7612SOL    HW223736   4.789   2.892   2.576
 7613SOL     OW23737   0.015   2.928   0.863
 7613SOL    HW123738   0.110   2.898   0.869
 7613SOL    HW223739   0.005   2.993   0.787
 7614SOL     OW23740   5.104   3.720   0.861
 7614SOL    HW123741   5.060   3.795   0.911
 7614SOL    HW223742   5.050   3.637   0.872
 7615SOL     OW23743   3.680   5.203   0.154
 7615SOL    HW123744   3.618   5.282   0.152
 7615SOL    HW223745   3.714   5.189   0.247
 7616SOL     OW23746   5.960   6.231   4.349
 7616SOL    HW123747   5.910   6.308   4.389
 7616SOL    HW223748   6.034   6.265   4.292
 7617SOL     OW23749   3.979   5.884   2.493
 7617SOL    HW123750   4.058   5.859   2.548
 7617SOL    HW223751   3.899   5.896   2.553
 7618SOL     OW23752   6.713   1.705   5.192
 7618SOL    HW123753   6.691   1.611   5.217
 7618SOL    HW223754   6.702   1.764   5.273
 7619SOL     OW23755   6.079   2.594   5.238
 7619SOL    HW123756   6.111   2.609   5.145
 7619SOL    HW223757   5.986   2.631   5.248
 7620SOL     OW23758   4.407   5.864   1.038
 7620SOL    HW123759   4.411   5.870   0.938
 7620SOL    HW223760   4.321   5.824   1.066
 7621SOL     OW23761   6.767   1.560   1.426
 7621SOL    HW123762   6.780   1.519   1.336
 7621SOL    HW223763   6.853   1.559   1.476
 7622SOL     OW23764   4.520   5.206   0.224
 7622SOL    HW123765   4.556   5.140   0.290
 7622SOL    HW223766   4.433   5.173   0.188
 7623SOL     OW23767   5.326   3.997   0.052
 7623SOL    HW123768   5.349   3.980   6.978
 7623SOL    HW223769   5.243   4.053   0.057
 7624SOL     OW23770   0.115   3.191   4.829
 7624SOL    HW123771   0.123   3.196   4.730
 7624SOL    HW223772   0.203   3.213   4.871
 7625SOL     OW23773   4.897   0.558   1.372
 7625SOL    HW123774   4.830   0.485   1.359
 7625SOL    HW223775   4.872   0.637   1.316
 7626SOL     OW23776   5.918   0.140   4.332
 7626SOL    HW123777   5.929   0.066   4.399
 7626SOL    HW223778   6.007   0.178   4.309
 7627SOL     OW23779   4.858   3.268   6.927
 7627SOL    HW123780   4.868   3.235   7.021
 7627SOL    HW223781   4.772   3.319   6.918
 7628SOL     OW23782   3.565   2.000   1.963
 7628SOL    HW123783   3.619   2.084   1.973
 7628SOL    HW223784   3.470   2.020   1.989
 7629SOL     OW23785   0.119   5.706   3.309
 7629SOL    HW123786   0.131   5.759   3.393
 7629SOL    HW223787   0.026   5.669   3.306
 7630SOL     OW23788   0.694   6.974   1.361
 7630SOL    HW123789   0.704   6.911   1.283
 7630SOL    HW223790   0.781   0.000   1.376
 7631SOL     OW23791   1.131   1.503   5.971
 7631SOL    HW123792   1.065   1.499   5.896
 7631SOL    HW223793   1.204   1.568   5.947
 7632SOL     OW23794   4.725   3.826   1.531
 7632SOL    HW123795   4.664   3.881   1.588
 7632SOL    HW223796   4.737   3.871   1.442
 7633SOL     OW23797   5.125   0.567   1.186
 7633SOL    HW123798   5.044   0.576   1.245
 7633SOL    HW223799   5.096   0.544   1.093
 7634SOL     OW23800   2.098   1.711   2.406
 7634SOL    HW123801   2.077   1.727   2.309
 7634SOL    HW223802   2.156   1.785   2.439
 7635SOL     OW23803   3.340   5.335   5.125
 7635SOL    HW123804   3.405   5.387   5.180
 7635SOL    HW223805   3.262   5.308   5.182
 7636SOL     OW23806   1.572   2.771   4.140
 7636SOL    HW123807   1.589   2.852   4.197
 7636SOL    HW223808   1.550   2.693   4.200
 7637SOL     OW23809   2.300   5.674   2.543
 7637SOL    HW123810   2.344   5.764   2.549
 7637SOL    HW223811   2.322   5.632   2.455
 7638SOL     OW23812   2.809   6.024   1.153
 7638SOL    HW123813   2.761   6.090   1.094
 7638SOL    HW223814   2.861   5.961   1.096
 7639SOL     OW23815   0.553   2.111   0.879
 7639SOL    HW123816   0.561   2.116   0.978
 7639SOL    HW223817   0.563   2.016   0.849
 7640SOL     OW23818   2.802   0.873   6.061
 7640SOL    HW123819   2.780   0.969   6.051
 7640SOL    HW223820   2.763   0.821   5.985
 7641SOL     OW23821   1.839   3.610   2.411
 7641SOL    HW123822   1.749   3.573   2.433
 7641SOL    HW223823   1.894   3.539   2.367
 7642SOL     OW23824   3.709   1.964   3.024
 7642SOL    HW123825   3.676   2.015   2.945
 7642SOL    HW223826   3.637   1.959   3.093
 7643SOL     OW23827   4.552   2.550   2.695
 7643SOL    HW123828   4.460   2.540   2.657
 7643SOL    HW223829   4.616   2.575   2.622
 7644SOL     OW23830   5.392   1.843   1.524
 7644SOL    HW123831   5.414   1.818   1.430
 7644SOL    HW223832   5.476   1.845   1.579
 7645SOL     OW23833   4.766   3.930   5.594
 7645SOL    HW123834   4.828   3.892   5.526
 7645SOL    HW223835   4.682   3.961   5.549
 7646SOL     OW23836   1.404   3.532   3.653
 7646SOL    HW123837   1.461   3.533   3.735
 7646SOL    HW223838   1.447   3.475   3.583
 7647SOL     OW23839   6.261   2.695   3.496
 7647SOL    HW123840   6.309   2.745   3.569
 7647SOL    HW223841   6.306   2.713   3.409
 7648SOL     OW23842   3.232   1.317   2.864
 7648SOL    HW123843   3.265   1.224   2.881
 7648SOL    HW223844   3.284   1.358   2.789
 7649SOL     OW23845   0.921   0.727   3.428
 7649SOL    HW123846   0.880   0.707   3.517
 7649SOL    HW223847   0.875   0.805   3.387
 7650SOL     OW23848   5.328   1.427   0.585
 7650SOL    HW123849   5.332   1.328   0.594
 7650SOL    HW223850   5.253   1.452   0.522
 7651SOL     OW23851   1.707   0.561   3.753
 7651SOL    HW123852   1.761   0.559   3.669
 7651SOL    HW223853   1.619   0.517   3.738
 7652SOL     OW23854   5.591   3.412   5.387
 7652SOL    HW123855   5.539   3.340   5.432
 7652SOL    HW223856   5.601   3.390   5.290
 7653SOL     OW23857   1.114   1.793   6.846
 7653SOL    HW123858   1.069   1.882   6.833
 7653SOL    HW223859   1.074   1.747   6.925
 7654SOL     OW23860   4.947   2.996   4.374
 7654SOL    HW123861   4.876   3.014   4.441
 7654SOL    HW223862   5.020   3.064   4.384
 7655SOL     OW23863   4.572   6.338   3.160
 7655SOL    HW123864   4.582   6.254   3.214
 7655SOL    HW223865   4.580   6.417   3.220
 7656SOL     OW23866   3.339   3.907   6.142
 7656SOL    HW123867   3.320   3.875   6.235
 7656SOL    HW223868   3.292   3.849   6.076
 7657SOL     OW23869   1.578   2.335   4.007
 7657SOL    HW123870   1.593   2.260   4.071
 7657SOL    HW223871   1.485   2.368   4.016
 7658SOL     OW23872   3.466   6.834   6.608
 7658SOL    HW123873   3.444   6.818   6.705
 7658SOL    HW223874   3.550   6.785   6.585
 7659SOL     OW23875   5.798   5.024   6.553
 7659SOL    HW123876   5.791   5.118   6.586
 7659SOL    HW223877   5.715   4.974   6.579
 7660SOL     OW23878   0.087   5.804   3.881
 7660SOL    HW123879   0.133   5.763   3.803
 7660SOL    HW223880   0.121   5.762   3.966
 7661SOL     OW23881   5.941   2.590   4.844
 7661SOL    HW123882   5.891   2.675   4.863
 7661SOL    HW223883   5.877   2.513   4.849
 7662SOL     OW23884   1.322   3.165   3.667
 7662SOL    HW123885   1.296   3.083   3.618
 7662SOL    HW223886   1.270   3.243   3.633
 7663SOL     OW23887   6.637   5.498   5.541
 7663SOL    HW123888   6.701   5.489   5.617
 7663SOL    HW223889   6.586   5.583   5.551
 7664SOL     OW23890   4.001   0.306   1.264
 7664SOL    HW123891   3.916   0.357   1.279
 7664SOL    HW223892   4.056   0.352   1.196
 7665SOL     OW23893   6.236   0.394   4.535
 7665SOL    HW123894   6.220   0.491   4.554
 7665SOL    HW223895   6.155   0.341   4.559
 7666SOL     OW23896   0.746   5.541   1.943
 7666SOL    HW123897   0.788   5.450   1.948
 7666SOL    HW223898   0.771   5.584   1.856
 7667SOL     OW23899   4.362   6.882   1.896
 7667SOL    HW123900   4.308   6.962   1.919
 7667SOL    HW223901   4.455   6.910   1.871
 7668SOL     OW23902   3.281   4.643   0.669
 7668SOL    HW123903   3.365   4.644   0.724
 7668SOL    HW223904   3.207   4.687   0.721
 7669SOL     OW23905   4.511   1.494   4.650
 7669SOL    HW123906   4.508   1.516   4.748
 7669SOL    HW223907   4.573   1.418   4.635
 7670SOL     OW23908   0.808   4.751   0.327
 7670SOL    HW123909   0.848   4.795   0.408
 7670SOL    HW223910   0.710   4.739   0.340
 7671SOL     OW23911   4.323   1.279   1.411
 7671SOL    HW123912   4.279   1.334   1.482
 7671SOL    HW223913   4.287   1.186   1.413
 7672SOL     OW23914   0.341   6.541   2.313
 7672SOL    HW123915   0.325   6.444   2.298
 7672SOL    HW223916   0.439   6.558   2.327
 7673SOL     OW23917   1.145   6.650   0.900
 7673SOL    HW123918   1.208   6.678   0.828
 7673SOL    HW223919   1.098   6.566   0.874
 7674SOL     OW23920   5.233   0.785   3.417
 7674SOL    HW123921   5.210   0.692   3.445
 7674SOL    HW223922   5.331   0.801   3.430
 7675SOL     OW23923   6.472   6.765   2.350
 7675SOL    HW123924   6.512   6.677   2.323
 7675SOL    HW223925   6.526   6.805   2.423
 7676SOL     OW23926   2.766   2.226   0.404
 7676SOL    HW123927   2.761   2.194   0.309
 7676SOL    HW223928   2.710   2.308   0.414
 7677SOL     OW23929   0.691   5.283   1.264
 7677SOL    HW123930   0.743   5.354   1.313
 7677SOL    HW223931   0.753   5.209   1.238
 7678SOL     OW23932   2.035   3.384   5.219
 7678SOL    HW123933   2.097   3.458   5.189
 7678SOL    HW223934   2.087   3.299   5.228
 7679SOL     OW23935   3.562   6.393   5.938
 7679SOL    HW123936   3.570   6.491   5.951
 7679SOL    HW223937   3.467   6.364   5.951
 7680SOL     OW23938   0.771   1.236   0.256
 7680SOL    HW123939   0.710   1.182   0.314
 7680SOL    HW223940   0.829   1.175   0.203
 7681SOL     OW23941   2.641   0.836   1.003
 7681SOL    HW123942   2.736   0.861   1.019
 7681SOL    HW223943   2.627   0.817   0.905
 7682SOL     OW23944   3.520   0.471   1.778
 7682SOL    HW123945   3.610   0.442   1.745
 7682SOL    HW223946   3.466   0.391   1.801
 7683SOL     OW23947   5.877   2.213   4.801
 7683SOL    HW123948   5.924   2.184   4.718
 7683SOL    HW223949   5.945   2.241   4.869
 7684SOL     OW23950   3.215   1.753   1.791
 7684SOL    HW123951   3.232   1.655   1.797
 7684SOL    HW223952   3.172   1.775   1.703
 7685SOL     OW23953   2.559   2.091   5.761
 7685SOL    HW123954   2.480   2.096   5.700
 7685SOL    HW223955   2.532   2.116   5.854
 7686SOL     OW23956   6.711   6.665   3.287
 7686SOL    HW123957   6.707   6.620   3.198
 7686SOL    HW223958   6.652   6.618   3.352
 7687SOL     OW23959   5.997   5.101   3.817
 7687SOL    HW123960   6.064   5.033   3.845
 7687SOL    HW223961   5.992   5.174   3.885
 7688SOL     OW23962   1.068   6.094   5.252
 7688SOL    HW123963   1.117   6.134   5.329
 7688SOL    HW223964   0.997   6.156   5.221
 7689SOL     OW23965   5.486   6.499   2.089
 7689SOL    HW123966   5.429   6.582   2.085
 7689SOL    HW223967   5.464   6.440   2.011
 7690SOL     OW23968   5.380   4.915   0.316
 7690SOL    HW123969   5.451   4.984   0.300
 7690SOL    HW223970   5.385   4.884   0.411
 7691SOL     OW23971   5.189   3.972   4.465
 7691SOL    HW123972   5.145   3.890   4.502
 7691SOL    HW223973   5.272   3.991   4.517
 7692SOL     OW23974   0.887   6.247   1.594
 7692SOL    HW123975   0.903   6.294   1.681
 7692SOL    HW223976   0.892   6.148   1.608
 7693SOL     OW23977   3.385   6.705   1.850
 7693SOL    HW123978   3.330   6.637   1.803
 7693SOL    HW223979   3.365   6.702   1.948
 7694SOL     OW23980   5.395   3.752   4.604
 7694SOL    HW123981   5.444   3.822   4.552
 7694SOL    HW223982   5.446   3.730   4.687
 7695SOL     OW23983   5.007   0.264   0.674
 7695SOL    HW123984   5.046   0.206   0.745
 7695SOL    HW223985   5.037   0.232   0.584
 7696SOL     OW23986   0.468   0.654   6.121
 7696SOL    HW123987   0.555   0.697   6.143
 7696SOL    HW223988   0.406   0.662   6.199
 7697SOL     OW23989   2.416   6.721   2.765
 7697SOL    HW123990   2.326   6.683   2.787
 7697SOL    HW223991   2.407   6.790   2.694
 7698SOL     OW23992   5.847   1.722   4.121
 7698SOL    HW123993   5.783   1.719   4.197
 7698SOL    HW223994   5.825   1.651   4.055
 7699SOL     OW23995   3.490   5.450   6.455
 7699SOL    HW123996   3.583   5.420   6.434
 7699SOL    HW223997   3.451   5.496   6.375
 7700SOL     OW23998   4.573   5.987   2.896
 7700SOL    HW123999   4.533   5.918   2.956
 7700SOL    HW224000   4.543   5.971   2.802
 7701SOL     OW24001   6.256   2.268   0.388
 7701SOL    HW124002   6.178   2.252   0.328
 7701SOL    HW224003   6.249   2.359   0.428
 7702SOL     OW24004   3.315   6.649   4.868
 7702SOL    HW124005   3.272   6.739   4.865
 7702SOL    HW224006   3.290   6.602   4.952
 7703SOL     OW24007   6.401   5.712   6.803
 7703SOL    HW124008   6.438   5.803   6.784
 7703SOL    HW224009   6.477   5.646   6.807
 7704SOL     OW24010   6.118   0.241   4.717
 7704SOL    HW124011   6.141   0.262   4.812
 7704SOL    HW224012   6.181   0.172   4.682
 7705SOL     OW24013   2.716   6.242   0.490
 7705SOL    HW124014   2.789   6.307   0.511
 7705SOL    HW224015   2.755   6.161   0.446
 7706SOL     OW24016   3.752   3.807   4.746
 7706SOL    HW124017   3.726   3.710   4.742
 7706SOL    HW224018   3.827   3.818   4.811
 7707SOL     OW24019   0.020   4.981   5.693
 7707SOL    HW124020   6.997   4.906   5.743
 7707SOL    HW224021   0.073   5.037   5.757
 7708SOL     OW24022   1.152   6.731   5.669
 7708SOL    HW124023   1.103   6.643   5.669
 7708SOL    HW224024   1.129   6.782   5.752
 7709SOL     OW24025   6.383   4.002   2.518
 7709SOL    HW124026   6.413   4.066   2.588
 7709SOL    HW224027   6.421   3.911   2.538
 7710SOL     OW24028   3.294   2.003   0.014
 7710SOL    HW124029   3.285   2.045   0.104
 7710SOL    HW224030   3.231   2.047   6.972
 7711SOL     OW24031   5.653   6.109   6.150
 7711SOL    HW124032   5.649   6.152   6.060
 7711SOL    HW224033   5.706   6.024   6.144
 7712SOL     OW24034   6.962   5.094   1.642
 7712SOL    HW124035   6.914   5.103   1.729
 7712SOL    HW224036   0.037   5.076   1.659
 7713SOL     OW24037   1.696   3.893   1.143
 7713SOL    HW124038   1.654   3.954   1.077
 7713SOL    HW224039   1.789   3.924   1.164
 7714SOL     OW24040   0.081   4.045   5.289
 7714SOL    HW124041   0.158   3.996   5.331
 7714SOL    HW224042   0.116   4.125   5.240
 7715SOL     OW24043   2.736   2.035   0.181
 7715SOL    HW124044   2.746   1.959   0.245
 7715SOL    HW224045   2.754   2.002   0.088
 7716SOL     OW24046   6.706   4.946   1.687
 7716SOL    HW124047   6.728   4.849   1.683
 7716SOL    HW224048   6.783   4.999   1.652
 7717SOL     OW24049   2.009   1.012   5.652
 7717SOL    HW124050   2.068   0.932   5.652
 7717SOL    HW224051   2.015   1.058   5.741
 7718SOL     OW24052   7.005   3.548   3.593
 7718SOL    HW124053   0.061   3.500   3.550
 7718SOL    HW224054   6.953   3.482   3.647
 7719SOL     OW24055   0.068   4.366   5.622
 7719SOL    HW124056   0.077   4.340   5.526
 7719SOL    HW224057   0.157   4.399   5.656
 7720SOL     OW24058   6.982   1.329   6.138
 7720SOL    HW124059   6.916   1.323   6.213
 7720SOL    HW224060   0.045   1.283   6.164
 7721SOL     OW24061   0.287   5.445   1.908
 7721SOL    HW124062   0.201   5.437   1.859
 7721SOL    HW224063   0.325   5.536   1.894
 7722SOL     OW24064   1.276   4.336   3.271
 7722SOL    HW124065   1.316   4.346   3.179
 7722SOL    HW224066   1.349   4.318   3.337
 7723SOL     OW24067   4.684   3.848   6.132
 7723SOL    HW124068   4.591   3.848   6.097
 7723SOL    HW224069   4.707   3.758   6.167
 7724SOL     OW24070   3.010   3.751   1.197
 7724SOL    HW124071   3.039   3.661   1.229
 7724SOL    HW224072   2.910   3.754   1.194
 7725SOL     OW24073   6.328   1.800   2.466
 7725SOL    HW124074   6.379   1.881   2.493
 7725SOL    HW224075   6.380   1.749   2.397
 7726SOL     OW24076   1.504   4.989   5.921
 7726SOL    HW124077   1.505   5.065   5.857
 7726SOL    HW224078   1.568   5.006   5.996
 7727SOL     OW24079   0.152   2.401   2.498
 7727SOL    HW124080   0.093   2.422   2.420
 7727SOL    HW224081   0.235   2.458   2.493
 7728SOL     OW24082   2.184   3.600   5.103
 7728SOL    HW124083   2.196   3.687   5.151
 7728SOL    HW224084   2.139   3.616   5.016
 7729SOL     OW24085   6.061   2.305   1.210
 7729SOL    HW124086   6.133   2.369   1.238
 7729SOL    HW224087   5.975   2.329   1.256
 7730SOL     OW24088   6.788   5.579   0.548
 7730SOL    HW124089   6.729   5.531   0.613
 7730SOL    HW224090   6.882   5.549   0.560
 7731SOL     OW24091   6.671   1.172   6.806
 7731SOL    HW124092   6.731   1.217   6.740
 7731SOL    HW224093   6.593   1.130   6.758
 7732SOL     OW24094   5.273   0.054   0.281
 7732SOL    HW124095   5.248   0.015   0.193
 7732SOL    HW224096   5.373   0.060   0.287
 7733SOL     OW24097   5.020   6.111   2.271
 7733SOL    HW124098   5.110   6.152   2.258
 7733SOL    HW224099   5.017   6.067   2.361
 7734SOL     OW24100   1.274   4.990   4.142
 7734SOL    HW124101   1.371   4.966   4.131
 7734SOL    HW224102   1.265   5.089   4.152
 7735SOL     OW24103   4.900   6.491   6.536
 7735SOL    HW124104   4.801   6.475   6.537
 7735SOL    HW224105   4.925   6.538   6.451
 7736SOL     OW24106   3.140   2.939   6.933
 7736SOL    HW124107   3.070   2.977   6.873
 7736SOL    HW224108   3.229   2.976   6.907
 7737SOL     OW24109   2.980   6.334   2.658
 7737SOL    HW124110   2.891   6.309   2.620
 7737SOL    HW224111   3.051   6.323   2.588
 7738SOL     OW24112   3.004   5.369   0.103
 7738SOL    HW124113   3.028   5.436   0.032
 7738SOL    HW224114   3.075   5.299   0.109
 7739SOL     OW24115   6.933   2.327   1.053
 7739SOL    HW124116   6.964   2.237   1.023
 7739SOL    HW224117   6.893   2.320   1.144
 7740SOL     OW24118   2.561   1.412   3.028
 7740SOL    HW124119   2.632   1.421   2.959
 7740SOL    HW224120   2.575   1.328   3.080
 7741SOL     OW24121   7.004   4.943   6.163
 7741SOL    HW124122   0.082   4.944   6.157
 7741SOL    HW224123   6.973   4.851   6.186
 7742SOL     OW24124   4.135   1.614   3.019
 7742SOL    HW124125   4.184   1.701   3.006
 7742SOL    HW224126   4.101   1.608   3.113
 7743SOL     OW24127   5.525   1.659   0.026
 7743SOL    HW124128   5.553   1.747   7.008
 7743SOL    HW224129   5.573   1.644   0.112
 7744SOL     OW24130   0.534   0.277   4.131
 7744SOL    HW124131   0.567   0.370   4.149
 7744SOL    HW224132   0.443   0.281   4.091
 7745SOL     OW24133   3.996   1.261   6.801
 7745SOL    HW124134   3.898   1.242   6.790
 7745SOL    HW224135   4.019   1.257   6.898
 7746SOL     OW24136   1.255   0.194   0.445
 7746SOL    HW124137   1.156   0.203   0.456
 7746SOL    HW224138   1.277   0.101   0.416
 7747SOL     OW24139   5.424   5.794   1.582
 7747SOL    HW124140   5.521   5.811   1.565
 7747SOL    HW224141   5.410   5.698   1.606
 7748SOL     OW24142   2.951   3.541   4.812
 7748SOL    HW124143   2.908   3.582   4.893
 7748SOL    HW224144   3.037   3.498   4.838
 7749SOL     OW24145   3.121   3.645   5.611
 7749SOL    HW124146   3.118   3.723   5.548
 7749SOL    HW224147   3.092   3.674   5.702
 7750SOL     OW24148   6.860   6.082   1.415
 7750SOL    HW124149   6.851   6.040   1.325
 7750SOL    HW224150   6.778   6.136   1.435
 7751SOL     OW24151   1.808   2.915   2.490
 7751SOL    HW124152   1.878   2.940   2.422
 7751SOL    HW224153   1.844   2.845   2.551
 7752SOL     OW24154   5.899   6.455   5.397
 7752SOL    HW124155   5.981   6.421   5.351
 7752SOL    HW224156   5.912   6.451   5.496
 7753SOL     OW24157   2.018   0.215   4.320
 7753SOL    HW124158   2.109   0.172   4.324
 7753SOL    HW224159   2.019   0.287   4.251
 7754SOL     OW24160   4.252   6.417   2.360
 7754SOL    HW124161   4.218   6.501   2.402
 7754SOL    HW224162   4.293   6.359   2.430
 7755SOL     OW24163   1.155   2.239   5.778
 7755SOL    HW124164   1.068   2.205   5.811
 7755SOL    HW224165   1.196   2.299   5.847
 7756SOL     OW24166   2.537   5.834   2.479
 7756SOL    HW124167   2.607   5.770   2.445
 7756SOL    HW224168   2.541   5.918   2.425
 7757SOL     OW24169   6.048   5.276   6.166
 7757SOL    HW124170   6.071   5.332   6.086
 7757SOL    HW224171   6.127   5.222   6.194
 7758SOL     OW24172   1.483   1.298   5.556
 7758SOL    HW124173   1.510   1.352   5.636
 7758SOL    HW224174   1.448   1.358   5.485
 7759SOL     OW24175   0.911   2.066   5.490
 7759SOL    HW124176   0.996   2.115   5.509
 7759SOL    HW224177   0.928   1.968   5.486
 7760SOL     OW24178   5.495   3.286   3.181
 7760SOL    HW124179   5.430   3.238   3.122
 7760SOL    HW224180   5.515   3.231   3.261
 7761SOL     OW24181   0.482   0.563   5.500
 7761SOL    HW124182   0.557   0.508   5.462
 7761SOL    HW224183   0.453   0.524   5.587
 7762SOL     OW24184   4.212   0.297   4.202
 7762SOL    HW124185   4.236   0.393   4.189
 7762SOL    HW224186   4.126   0.291   4.253
 7763SOL     OW24187   1.182   1.008   6.694
 7763SOL    HW124188   1.139   1.040   6.610
 7763SOL    HW224189   1.262   0.953   6.672
 7764SOL     OW24190   3.652   2.994   3.454
 7764SOL    HW124191   3.721   2.996   3.526
 7764SOL    HW224192   3.606   3.082   3.450
 7765SOL     OW24193   6.291   2.839   5.266
 7765SOL    HW124194   6.284   2.867   5.170
 7765SOL    HW224195   6.207   2.793   5.294
 7766SOL     OW24196   6.922   3.540   0.209
 7766SOL    HW124197   6.924   3.441   0.222
 7766SOL    HW224198   6.979   3.565   0.130
 7767SOL     OW24199   4.829   6.002   2.708
 7767SOL    HW124200   4.803   6.043   2.620
 7767SOL    HW224201   4.820   5.903   2.702
 7768SOL     OW24202   4.727   4.388   2.519
 7768SOL    HW124203   4.753   4.321   2.589
 7768SOL    HW224204   4.705   4.340   2.434
 7769SOL     OW24205   4.532   2.620   3.183
 7769SOL    HW124206   4.578   2.687   3.125
 7769SOL    HW224207   4.483   2.554   3.125
 7770SOL     OW24208   1.889   4.609   2.612
 7770SOL    HW124209   1.985   4.592   2.633
 7770SOL    HW224210   1.833   4.586   2.692
 7771SOL     OW24211   3.342   2.207   5.389
 7771SOL    HW124212   3.313   2.258   5.308
 7771SOL    HW224213   3.312   2.256   5.471
 7772SOL     OW24214   5.045   0.457   1.784
 7772SOL    HW124215   5.019   0.441   1.689
 7772SOL    HW224216   5.083   0.549   1.794
 7773SOL     OW24217   2.794   6.070   4.975
 7773SOL    HW124218   2.881   6.120   4.973
 7773SOL    HW224219   2.724   6.124   4.929
 7774SOL     OW24220   5.257   1.837   5.387
 7774SOL    HW124221   5.304   1.881   5.464
 7774SOL    HW224222   5.264   1.895   5.306
 7775SOL     OW24223   4.805   5.424   1.041
 7775SOL    HW124224   4.708   5.403   1.055
 7775SOL    HW224225   4.827   5.511   1.085
 7776SOL     OW24226   1.613   5.258   6.393
 7776SOL    HW124227   1.592   5.253   6.296
 7776SOL    HW224228   1.590   5.170   6.436
 7777SOL     OW24229   6.492   6.666   4.656
 7777SOL    HW124230   6.587   6.674   4.687
 7777SOL    HW224231   6.442   6.748   4.682
 7778SOL     OW24232   5.649   4.222   0.788
 7778SOL    HW124233   5.568   4.189   0.739
 7778SOL    HW224234   5.726   4.161   0.771
 7779SOL     OW24235   2.412   2.623   1.875
 7779SOL    HW124236   2.344   2.558   1.839
 7779SOL    HW224237   2.497   2.574   1.893
 7780SOL     OW24238   0.885   4.554   5.051
 7780SOL    HW124239   0.874   4.626   5.120
 7780SOL    HW224240   0.982   4.538   5.035
 7781SOL     OW24241   1.229   5.154   0.439
 7781SOL    HW124242   1.192   5.074   0.391
 7781SOL    HW224243   1.156   5.198   0.491
 7782SOL     OW24244   5.956   5.204   4.294
 7782SOL    HW124245   5.978   5.299   4.315
 7782SOL    HW224246   5.931   5.195   4.197
 7783SOL     OW24247   0.963   5.935   5.455
 7783SOL    HW124248   0.910   5.862   5.411
 7783SOL    HW224249   1.032   5.968   5.390
 7784SOL     OW24250   3.380   2.004   1.529
 7784SOL    HW124251   3.382   2.104   1.527
 7784SOL    HW224252   3.426   1.972   1.611
 7785SOL     OW24253   2.330   6.331   4.495
 7785SOL    HW124254   2.397   6.260   4.517
 7785SOL    HW224255   2.378   6.416   4.470
 7786SOL     OW24256   3.057   6.404   0.363
 7786SOL    HW124257   3.038   6.416   0.266
 7786SOL    HW224258   3.129   6.336   0.375
 7787SOL     OW24259   2.112   2.493   6.247
 7787SOL    HW124260   2.115   2.512   6.345
 7787SOL    HW224261   2.130   2.578   6.197
 7788SOL     OW24262   2.482   5.377   1.250
 7788SOL    HW124263   2.547   5.445   1.219
 7788SOL    HW224264   2.516   5.285   1.231
 7789SOL     OW24265   1.911   6.492   6.513
 7789SOL    HW124266   1.891   6.582   6.552
 7789SOL    HW224267   1.885   6.491   6.417
 7790SOL     OW24268   5.607   5.423   3.436
 7790SOL    HW124269   5.578   5.376   3.353
 7790SOL    HW224270   5.537   5.412   3.507
 7791SOL     OW24271   2.480   4.806   3.244
 7791SOL    HW124272   2.476   4.896   3.201
 7791SOL    HW224273   2.541   4.810   3.323
 7792SOL     OW24274   1.929   5.340   5.192
 7792SOL    HW124275   1.842   5.301   5.221
 7792SOL    HW224276   1.924   5.440   5.196
 7793SOL     OW24277   2.989   0.891   0.779
 7793SOL    HW124278   3.040   0.818   0.733
 7793SOL    HW224279   3.035   0.978   0.763
 7794SOL     OW24280   6.071   3.741   3.339
 7794SOL    HW124281   5.996   3.805   3.324
 7794SOL    HW224282   6.155   3.777   3.299
 7795SOL     OW24283   2.190   4.133   5.711
 7795SOL    HW124284   2.176   4.175   5.621
 7795SOL    HW224285   2.111   4.077   5.735
 7796SOL     OW24286   4.100   3.299   3.734
 7796SOL    HW124287   4.063   3.209   3.713
 7796SOL    HW224288   4.137   3.340   3.650
 7797SOL     OW24289   1.534   0.214   2.168
 7797SOL    HW124290   1.522   0.117   2.145
 7797SOL    HW224291   1.535   0.225   2.267
 7798SOL     OW24292   1.998   3.871   5.264
 7798SOL    HW124293   1.954   3.782   5.258
 7798SOL    HW224294   2.097   3.860   5.255
 7799SOL     OW24295   1.369   6.369   2.108
 7799SOL    HW124296   1.414   6.280   2.120
 7799SOL    HW224297   1.394   6.429   2.184
 7800SOL     OW24298   0.875   5.446   1.364
 7800SOL    HW124299   0.910   5.465   1.456
 7800SOL    HW224300   0.842   5.531   1.323
 7801SOL     OW24301   2.186   2.085   2.109
 7801SOL    HW124302   2.116   2.081   2.180
 7801SOL    HW224303   2.272   2.119   2.148
 7802SOL     OW24304   6.064   2.906   0.909
 7802SOL    HW124305   6.071   3.004   0.891
 7802SOL    HW224306   6.152   2.873   0.943
 7803SOL     OW24307   4.730   2.080   5.804
 7803SOL    HW124308   4.720   2.101   5.707
 7803SOL    HW224309   4.719   2.163   5.858
 7804SOL     OW24310   4.323   2.057   4.223
 7804SOL    HW124311   4.250   1.993   4.196
 7804SOL    HW224312   4.404   2.040   4.167
 7805SOL     OW24313   5.751   2.766   1.299
 7805SOL    HW124314   5.841   2.759   1.256
 7805SOL    HW224315   5.754   2.833   1.373
 7806SOL     OW24316   6.490   1.805   0.331
 7806SOL    HW124317   6.443   1.885   0.294
 7806SOL    HW224318   6.459   1.789   0.425
 7807SOL     OW24319   1.022   5.074   5.420
 7807SOL    HW124320   1.064   5.044   5.505
 7807SOL    HW224321   0.928   5.104   5.438
 7808SOL     OW24322   6.316   3.538   4.577
 7808SOL    HW124323   6.234   3.481   4.574
 7808SOL    HW224324   6.372   3.521   4.496
 7809SOL     OW24325   2.984   4.810   4.386
 7809SOL    HW124326   3.013   4.715   4.383
 7809SOL    HW224327   3.065   4.870   4.390
 7810SOL     OW24328   3.498   0.398   4.335
 7810SOL    HW124329   3.510   0.320   4.396
 7810SOL    HW224330   3.528   0.373   4.243
 7811SOL     OW24331   1.781   5.685   1.781
 7811SOL    HW124332   1.778   5.625   1.861
 7811SOL    HW224333   1.744   5.775   1.804
 7812SOL     OW24334   0.071   1.724   3.896
 7812SOL    HW124335   0.155   1.748   3.847
 7812SOL    HW224336   0.009   1.676   3.834
 7813SOL     OW24337   4.786   2.511   0.282
 7813SOL    HW124338   4.785   2.591   0.222
 7813SOL    HW224339   4.881   2.487   0.304
 7814SOL     OW24340   0.784   3.495   3.517
 7814SOL    HW124341   0.762   3.478   3.421
 7814SOL    HW224342   0.699   3.497   3.570
 7815SOL     OW24343   5.487   1.472   5.137
 7815SOL    HW124344   5.454   1.514   5.222
 7815SOL    HW224345   5.416   1.413   5.099
 7816SOL     OW24346   1.493   2.412   6.191
 7816SOL    HW124347   1.416   2.413   6.255
 7816SOL    HW224348   1.485   2.333   6.131
 7817SOL     OW24349   4.933   4.572   3.472
 7817SOL    HW124350   4.944   4.617   3.560
 7817SOL    HW224351   5.019   4.577   3.421
 7818SOL     OW24352   4.541   0.919   1.726
 7818SOL    HW124353   4.461   0.898   1.782
 7818SOL    HW224354   4.624   0.908   1.780
 7819SOL     OW24355   6.928   3.934   2.958
 7819SOL    HW124356   6.871   3.994   2.901
 7819SOL    HW224357   6.993   3.885   2.901
 7820SOL     OW24358   0.860   1.715   5.619
 7820SOL    HW124359   0.772   1.762   5.620
 7820SOL    HW224360   0.924   1.764   5.560
 7821SOL     OW24361   5.688   5.659   0.395
 7821SOL    HW124362   5.590   5.663   0.376
 7821SOL    HW224363   5.734   5.609   0.321
 7822SOL     OW24364   1.467   1.903   6.450
 7822SOL    HW124365   1.401   1.851   6.505
 7822SOL    HW224366   1.533   1.839   6.409
 7823SOL     OW24367   3.010   3.873   4.709
 7823SOL    HW124368   2.944   3.829   4.649
 7823SOL    HW224369   3.047   3.955   4.665
 7824SOL     OW24370   6.068   0.632   4.063
 7824SOL    HW124371   6.028   0.707   4.010
 7824SOL    HW224372   6.167   0.645   4.069
 7825SOL     OW24373   1.037   2.953   0.754
 7825SOL    HW124374   1.108   3.008   0.710
 7825SOL    HW224375   0.957   2.948   0.694
 7826SOL     OW24376   6.203   1.274   0.381
 7826SOL    HW124377   6.155   1.196   0.341
 7826SOL    HW224378   6.291   1.244   0.418
 7827SOL     OW24379   3.024   4.929   1.115
 7827SOL    HW124380   2.952   4.949   1.048
 7827SOL    HW224381   2.990   4.947   1.207
 7828SOL     OW24382   1.055   4.891   6.733
 7828SOL    HW124383   1.005   4.809   6.759
 7828SOL    HW224384   1.014   4.931   6.652
 7829SOL     OW24385   1.992   3.074   1.488
 7829SOL    HW124386   2.022   3.148   1.549
 7829SOL    HW224387   2.057   2.998   1.493
 7830SOL     OW24388   2.730   4.058   5.573
 7830SOL    HW124389   2.731   4.144   5.623
 7830SOL    HW224390   2.701   4.075   5.478
 7831SOL     OW24391   1.475   5.948   1.271
 7831SOL    HW124392   1.450   5.894   1.351
 7831SOL    HW224393   1.393   5.981   1.225
 7832SOL     OW24394   4.912   1.487   3.328
 7832SOL    HW124395   4.953   1.415   3.272
 7832SOL    HW224396   4.978   1.561   3.341
 7833SOL     OW24397   1.024   0.689   6.220
 7833SOL    HW124398   1.061   0.739   6.299
 7833SOL    HW224399   0.952   0.627   6.251
 7834SOL     OW24400   6.612   1.499   3.938
 7834SOL    HW124401   6.643   1.550   4.018
 7834SOL    HW224402   6.618   1.558   3.857
 7835SOL     OW24403   2.933   1.671   5.214
 7835SOL    HW124404   2.902   1.761   5.244
 7835SOL    HW224405   2.890   1.649   5.126
 7836SOL     OW24406   3.478   3.298   4.874
 7836SOL    HW124407   3.466   3.241   4.792
 7836SOL    HW224408   3.415   3.266   4.945
 7837SOL     OW24409   6.237   5.962   0.903
 7837SOL    HW124410   6.223   6.057   0.875
 7837SOL    HW224411   6.175   5.940   0.978
 7838SOL     OW24412   4.471   6.885   0.245
 7838SOL    HW124413   4.432   6.793   0.239
 7838SOL    HW224414   4.413   6.949   0.194
 7839SOL     OW24415   6.020   4.602   5.191
 7839SOL    HW124416   5.949   4.597   5.261
 7839SOL    HW224417   6.004   4.681   5.132
 7840SOL     OW24418   6.228   2.875   3.986
 7840SOL    HW124419   6.156   2.814   3.954
 7840SOL    HW224420   6.274   2.834   4.065
 7841SOL     OW24421   3.694   1.603   6.735
 7841SOL    HW124422   3.620   1.669   6.724
 7841SOL    HW224423   3.743   1.623   6.820
 7842SOL     OW24424   2.096   1.983   2.937
 7842SOL    HW124425   2.036   1.905   2.922
 7842SOL    HW224426   2.121   2.023   2.850
 7843SOL     OW24427   6.040   5.560   2.942
 7843SOL    HW124428   5.959   5.614   2.920
 7843SOL    HW224429   6.029   5.519   3.032
 7844SOL     OW24430   4.070   6.245   2.307
 7844SOL    HW124431   3.981   6.285   2.286
 7844SOL    HW224432   4.138   6.318   2.315
 7845SOL     OW24433   5.084   1.546   3.857
 7845SOL    HW124434   5.093   1.537   3.956
 7845SOL    HW224435   5.072   1.642   3.833
 7846SOL     OW24436   1.067   1.204   2.591
 7846SOL    HW124437   1.124   1.232   2.669
 7846SOL    HW224438   0.971   1.223   2.612
 7847SOL     OW24439   6.946   1.453   2.757
 7847SOL    HW124440   6.929   1.361   2.723
 7847SOL    HW224441   0.023   1.466   2.772
 7848SOL     OW24442   3.495   3.207   0.542
 7848SOL    HW124443   3.492   3.301   0.508
 7848SOL    HW224444   3.430   3.198   0.618
 7849SOL     OW24445   5.442   4.140   3.581
 7849SOL    HW124446   5.425   4.137   3.680
 7849SOL    HW224447   5.528   4.093   3.561
 7850SOL     OW24448   0.185   2.247   5.402
 7850SOL    HW124449   0.142   2.220   5.488
 7850SOL    HW224450   0.137   2.327   5.365
 7851SOL     OW24451   6.499   1.163   2.279
 7851SOL    HW124452   6.455   1.206   2.201
 7851SOL    HW224453   6.466   1.069   2.289
 7852SOL     OW24454   2.431   1.670   5.763
 7852SOL    HW124455   2.453   1.596   5.827
 7852SOL    HW224456   2.425   1.634   5.670
 7853SOL     OW24457   4.524   2.169   1.283
 7853SOL    HW124458   4.506   2.263   1.313
 7853SOL    HW224459   4.439   2.127   1.253
 7854SOL     OW24460   3.673   3.672   0.026
 7854SOL    HW124461   3.669   3.585   0.075
 7854SOL    HW224462   3.758   3.678   6.996
 7855SOL     OW24463   4.514   5.210   5.062
 7855SOL    HW124464   4.472   5.283   5.008
 7855SOL    HW224465   4.514   5.125   5.009
 7856SOL     OW24466   6.310   4.658   5.456
 7856SOL    HW124467   6.270   4.654   5.364
 7856SOL    HW224468   6.405   4.629   5.452
 7857SOL     OW24469   5.648   1.889   5.361
 7857SOL    HW124470   5.595   1.834   5.297
 7857SOL    HW224471   5.633   1.986   5.341
 7858SOL     OW24472   5.362   5.844   3.768
 7858SOL    HW124473   5.306   5.920   3.732
 7858SOL    HW224474   5.340   5.830   3.865
 7859SOL     OW24475   5.121   2.472   6.265
 7859SOL    HW124476   5.097   2.395   6.326
 7859SOL    HW224477   5.066   2.552   6.290
 7860SOL     OW24478   4.163   0.315   2.434
 7860SOL    HW124479   4.198   0.235   2.384
 7860SOL    HW224480   4.084   0.288   2.489
 7861SOL     OW24481   3.882   4.854   2.055
 7861SOL    HW124482   3.867   4.951   2.071
 7861SOL    HW224483   3.797   4.813   2.019
 7862SOL     OW24484   2.662   3.609   1.415
 7862SOL    HW124485   2.626   3.678   1.352
 7862SOL    HW224486   2.659   3.644   1.508
 7863SOL     OW24487   0.754   5.411   4.075
 7863SOL    HW124488   0.666   5.433   4.117
 7863SOL    HW224489   0.784   5.321   4.107
 7864SOL     OW24490   0.410   5.533   5.278
 7864SOL    HW124491   0.506   5.519   5.252
 7864SOL    HW224492   0.376   5.615   5.233
 7865SOL     OW24493   5.912   6.545   4.381
 7865SOL    HW124494   5.917   6.500   4.471
 7865SOL    HW224495   5.870   6.635   4.392
 7866SOL     OW24496   1.740   1.515   6.339
 7866SOL    HW124497   1.825   1.503   6.286
 7866SOL    HW224498   1.727   1.613   6.357
 7867SOL     OW24499   5.562   6.653   3.342
 7867SOL    HW124500   5.480   6.596   3.352
 7867SOL    HW224501   5.565   6.721   3.415
 7868SOL     OW24502   5.547   6.684   1.754
 7868SOL    HW124503   5.487   6.744   1.806
 7868SOL    HW224504   5.491   6.614   1.707
 7869SOL     OW24505   6.399   3.631   0.331
 7869SOL    HW124506   6.395   3.664   0.425
 7869SOL    HW224507   6.479   3.669   0.285
 7870SOL     OW24508   3.922   4.826   4.065
 7870SOL    HW124509   3.937   4.787   4.156
 7870SOL    HW224510   3.935   4.925   4.069
 7871SOL     OW24511   5.020   2.846   2.473
 7871SOL    HW124512   5.091   2.838   2.404
 7871SOL    HW224513   5.007   2.942   2.498
 7872SOL     OW24514   2.504   4.482   3.374
 7872SOL    HW124515   2.576   4.506   3.440
 7872SOL    HW224516   2.516   4.535   3.291
 7873SOL     OW24517   5.186   0.281   5.943
 7873SOL    HW124518   5.196   0.360   5.882
 7873SOL    HW224519   5.199   0.197   5.892
 7874SOL     OW24520   5.635   1.957   0.387
 7874SOL    HW124521   5.605   2.026   0.321
 7874SOL    HW224522   5.680   2.002   0.463
 7875SOL     OW24523   5.398   2.488   6.710
 7875SOL    HW124524   5.422   2.467   6.615
 7875SOL    HW224525   5.472   2.457   6.770
 7876SOL     OW24526   1.055   0.092   4.793
 7876SOL    HW124527   1.121   0.165   4.776
 7876SOL    HW224528   1.047   0.034   4.711
 7877SOL     OW24529   0.976   2.279   3.099
 7877SOL    HW124530   1.017   2.231   3.022
 7877SOL    HW224531   0.947   2.371   3.070
 7878SOL     OW24532   5.695   5.203   4.116
 7878SOL    HW124533   5.656   5.223   4.205
 7878SOL    HW224534   5.737   5.286   4.078
 7879SOL     OW24535   4.681   5.036   4.197
 7879SOL    HW124536   4.583   5.016   4.208
 7879SOL    HW224537   4.735   4.956   4.224
 7880SOL     OW24538   1.921   5.262   1.089
 7880SOL    HW124539   1.915   5.197   1.013
 7880SOL    HW224540   1.938   5.353   1.053
 7881SOL     OW24541   5.947   4.636   4.599
 7881SOL    HW124542   5.925   4.569   4.670
 7881SOL    HW224543   5.886   4.622   4.521
 7882SOL     OW24544   0.968   3.227   2.524
 7882SOL    HW124545   0.893   3.280   2.564
 7882SOL    HW224546   1.048   3.232   2.583
 7883SOL     OW24547   0.813   0.397   0.776
 7883SOL    HW124548   0.830   0.476   0.835
 7883SOL    HW224549   0.753   0.425   0.700
 7884SOL     OW24550   2.053   3.943   4.028
 7884SOL    HW124551   2.079   3.941   3.931
 7884SOL    HW224552   1.971   3.887   4.041
 7885SOL     OW24553   6.299   4.942   2.025
 7885SOL    HW124554   6.329   4.973   2.115
 7885SOL    HW224555   6.371   4.958   1.958
 7886SOL     OW24556   3.321   5.327   0.324
 7886SOL    HW124557   3.250   5.324   0.395
 7886SOL    HW224558   3.287   5.281   0.242
 7887SOL     OW24559   3.413   2.614   5.302
 7887SOL    HW124560   3.432   2.558   5.383
 7887SOL    HW224561   3.346   2.567   5.244
 7888SOL     OW24562   6.277   6.878   4.935
 7888SOL    HW124563   6.272   6.918   5.027
 7888SOL    HW224564   6.198   6.817   4.922
 7889SOL     OW24565   1.808   5.063   0.522
 7889SOL    HW124566   1.750   5.018   0.455
 7889SOL    HW224567   1.758   5.077   0.607
 7890SOL     OW24568   0.811   3.206   3.460
 7890SOL    HW124569   0.804   3.302   3.486
 7890SOL    HW224570   0.749   3.187   3.384
 7891SOL     OW24571   2.519   4.605   4.113
 7891SOL    HW124572   2.561   4.595   4.203
 7891SOL    HW224573   2.458   4.528   4.096
 7892SOL     OW24574   2.213   1.047   3.550
 7892SOL    HW124575   2.124   1.009   3.577
 7892SOL    HW224576   2.223   1.039   3.451
 7893SOL     OW24577   6.713   6.095   1.865
 7893SOL    HW124578   6.698   6.140   1.777
 7893SOL    HW224579   6.701   6.162   1.938
 7894SOL     OW24580   3.842   6.433   0.300
 7894SOL    HW124581   3.839   6.533   0.301
 7894SOL    HW224582   3.750   6.397   0.285
 7895SOL     OW24583   5.543   0.576   5.714
 7895SOL    HW124584   5.580   0.620   5.795
 7895SOL    HW224585   5.457   0.622   5.688
 7896SOL     OW24586   3.922   3.519   1.321
 7896SOL    HW124587   3.922   3.583   1.244
 7896SOL    HW224588   4.013   3.478   1.330
 7897SOL     OW24589   2.952   3.236   0.638
 7897SOL    HW124590   2.859   3.222   0.672
 7897SOL    HW224591   2.950   3.301   0.562
 7898SOL     OW24592   4.059   1.905   3.404
 7898SOL    HW124593   4.153   1.941   3.408
 7898SOL    HW224594   4.003   1.967   3.349
 7899SOL     OW24595   5.643   7.021   1.408
 7899SOL    HW124596   5.637   6.934   1.457
 7899SOL    HW224597   5.703   0.062   1.459
 7900SOL     OW24598   1.327   5.319   2.030
 7900SOL    HW124599   1.360   5.407   2.066
 7900SOL    HW224600   1.404   5.261   2.006
 7901SOL     OW24601   4.772   1.347   6.092
 7901SOL    HW124602   4.702   1.381   6.029
 7901SOL    HW224603   4.743   1.260   6.132
 7902SOL     OW24604   5.978   6.710   1.232
 7902SOL    HW124605   5.955   6.801   1.198
 7902SOL    HW224606   6.061   6.715   1.287
 7903SOL     OW24607   5.216   1.187   1.154
 7903SOL    HW124608   5.226   1.166   1.057
 7903SOL    HW224609   5.171   1.275   1.165
 7904SOL     OW24610   5.525   0.130   3.845
 7904SOL    HW124611   5.612   0.099   3.885
 7904SOL    HW224612   5.452   0.068   3.873
 7905SOL     OW24613   5.503   2.157   0.244
 7905SOL    HW124614   5.432   2.124   0.307
 7905SOL    HW224615   5.483   2.126   0.151
 7906SOL     OW24616   0.854   5.693   0.700
 7906SOL    HW124617   0.778   5.733   0.752
 7906SOL    HW224618   0.933   5.754   0.705
 7907SOL     OW24619   5.102   1.927   2.548
 7907SOL    HW124620   5.079   1.866   2.624
 7907SOL    HW224621   5.199   1.920   2.528
 7908SOL     OW24622   1.663   1.092   5.630
 7908SOL    HW124623   1.631   1.031   5.703
 7908SOL    HW224624   1.589   1.154   5.604
 7909SOL     OW24625   5.176   4.630   4.510
 7909SOL    HW124626   5.235   4.606   4.432
 7909SOL    HW224627   5.094   4.573   4.508
 7910SOL     OW24628   3.022   3.711   5.865
 7910SOL    HW124629   3.009   3.794   5.919
 7910SOL    HW224630   2.949   3.705   5.797
 7911SOL     OW24631   2.061   3.944   6.987
 7911SOL    HW124632   2.136   4.006   7.012
 7911SOL    HW224633   2.005   3.988   6.916
 7912SOL     OW24634   7.009   5.166   1.134
 7912SOL    HW124635   6.993   5.108   1.215
 7912SOL    HW224636   6.921   5.195   1.096
 7913SOL     OW24637   1.286   4.583   1.062
 7913SOL    HW124638   1.210   4.648   1.055
 7913SOL    HW224639   1.278   4.533   1.149
 7914SOL     OW24640   0.344   4.084   0.015
 7914SOL    HW124641   0.443   4.099   0.017
 7914SOL    HW224642   0.317   4.053   6.945
 7915SOL     OW24643   5.030   2.378   1.782
 7915SOL    HW124644   5.035   2.453   1.849
 7915SOL    HW224645   5.040   2.291   1.829
 7916SOL     OW24646   1.193   4.958   4.996
 7916SOL    HW124647   1.141   4.959   5.081
 7916SOL    HW224648   1.260   5.032   4.996
 7917SOL     OW24649   3.600   3.428   4.497
 7917SOL    HW124650   3.678   3.441   4.558
 7917SOL    HW224651   3.633   3.406   4.405
 7918SOL     OW24652   0.085   1.287   5.258
 7918SOL    HW124653   0.079   1.262   5.162
 7918SOL    HW224654   0.041   1.376   5.272
 7919SOL     OW24655   2.374   4.279   3.271
 7919SOL    HW124656   2.323   4.221   3.336
 7919SOL    HW224657   2.439   4.336   3.321
 7920SOL     OW24658   6.942   6.447   0.241
 7920SOL    HW124659   6.987   6.371   0.193
 7920SOL    HW224660   6.971   6.534   0.202
 7921SOL     OW24661   5.188   6.219   1.128
 7921SOL    HW124662   5.230   6.184   1.212
 7921SOL    HW224663   5.183   6.146   1.060
 7922SOL     OW24664   6.807   6.389   0.710
 7922SOL    HW124665   6.757   6.461   0.758
 7922SOL    HW224666   6.778   6.386   0.615
 7923SOL     OW24667   3.183   7.009   1.573
 7923SOL    HW124668   3.144   6.983   1.661
 7923SOL    HW224669   3.220   0.080   1.579
 7924SOL     OW24670   4.847   6.799   1.697
 7924SOL    HW124671   4.813   6.810   1.603
 7924SOL    HW224672   4.944   6.775   1.694
 7925SOL     OW24673   1.273   1.224   5.952
 7925SOL    HW124674   1.217   1.142   5.945
 7925SOL    HW224675   1.221   1.297   5.996
 7926SOL     OW24676   4.564   1.684   5.473
 7926SOL    HW124677   4.652   1.731   5.460
 7926SOL    HW224678   4.553   1.613   5.404
 7927SOL     OW24679   4.630   5.441   2.366
 7927SOL    HW124680   4.713   5.498   2.365
 7927SOL    HW224681   4.620   5.396   2.278
 7928SOL     OW24682   0.983   1.673   5.094
 7928SOL    HW124683   1.049   1.599   5.107
 7928SOL    HW224684   0.967   1.720   5.181
 7929SOL     OW24685   4.365   4.524   5.598
 7929SOL    HW124686   4.374   4.501   5.694
 7929SOL    HW224687   4.271   4.509   5.568
 7930SOL     OW24688   4.314   5.735   4.696
 7930SOL    HW124689   4.339   5.638   4.702
 7930SOL    HW224690   4.337   5.780   4.783
 7931SOL     OW24691   2.574   2.789   0.111
 7931SOL    HW124692   2.563   2.842   0.195
 7931SOL    HW224693   2.492   2.736   0.094
 7932SOL     OW24694   1.176   6.252   6.503
 7932SOL    HW124695   1.167   6.164   6.550
 7932SOL    HW224696   1.173   6.239   6.404
 7933SOL     OW24697   0.403   6.010   6.070
 7933SOL    HW124698   0.483   6.020   6.131
 7933SOL    HW224699   0.432   5.967   5.985
 7934SOL     OW24700   2.202   4.959   6.856
 7934SOL    HW124701   2.103   4.962   6.870
 7934SOL    HW224702   2.247   5.008   6.930
 7935SOL     OW24703   5.857   5.935   0.800
 7935SOL    HW124704   5.921   6.001   0.760
 7935SOL    HW224705   5.790   5.985   0.855
 7936SOL     OW24706   3.848   5.907   2.797
 7936SOL    HW124707   3.833   6.005   2.811
 7936SOL    HW224708   3.760   5.861   2.787
 7937SOL     OW24709   6.557   6.526   3.481
 7937SOL    HW124710   6.531   6.589   3.554
 7937SOL    HW224711   6.624   6.461   3.516
 7938SOL     OW24712   6.668   5.218   3.984
 7938SOL    HW124713   6.756   5.266   3.985
 7938SOL    HW224714   6.599   5.275   3.940
 7939SOL     OW24715   1.358   2.896   4.956
 7939SOL    HW124716   1.437   2.920   4.899
 7939SOL    HW224717   1.384   2.825   5.021
 7940SOL     OW24718   1.535   3.541   1.660
 7940SOL    HW124719   1.546   3.499   1.570
 7940SOL    HW224720   1.532   3.469   1.730
 7941SOL     OW24721   5.615   1.016   1.188
 7941SOL    HW124722   5.523   1.038   1.221
 7941SOL    HW224723   5.649   1.091   1.131
 7942SOL     OW24724   6.585   5.959   2.615
 7942SOL    HW124725   6.582   5.939   2.713
 7942SOL    HW224726   6.643   6.038   2.598
 7943SOL     OW24727   6.272   3.401   0.179
 7943SOL    HW124728   6.319   3.428   0.263
 7943SOL    HW224729   6.339   3.379   0.109
 7944SOL     OW24730   0.543   2.202   1.757
 7944SOL    HW124731   0.597   2.286   1.755
 7944SOL    HW224732   0.595   2.128   1.716
 7945SOL     OW24733   5.784   5.216   1.356
 7945SOL    HW124734   5.819   5.305   1.327
 7945SOL    HW224735   5.772   5.157   1.276
 7946SOL     OW24736   2.737   0.921   5.629
 7946SOL    HW124737   2.752   0.844   5.691
 7946SOL    HW224738   2.777   0.900   5.540
 7947SOL     OW24739   3.785   2.099   5.793
 7947SOL    HW124740   3.699   2.050   5.809
 7947SOL    HW224741   3.784   2.185   5.843
 7948SOL     OW24742   0.724   0.133   0.837
 7948SOL    HW124743   0.774   0.219   0.850
 7948SOL    HW224744   0.689   0.102   0.925
 7949SOL     OW24745   4.420   4.619   4.726
 7949SOL    HW124746   4.363   4.690   4.684
 7949SOL    HW224747   4.376   4.585   4.809
 7950SOL     OW24748   5.304   5.221   3.992
 7950SOL    HW124749   5.314   5.199   3.895
 7950SOL    HW224750   5.376   5.284   4.020
 7951SOL     OW24751   2.044   4.075   1.897
 7951SOL    HW124752   2.109   4.024   1.840
 7951SOL    HW224753   2.083   4.164   1.921
 7952SOL     OW24754   0.761   3.480   0.258
 7952SOL    HW124755   0.776   3.551   0.326
 7952SOL    HW224756   0.824   3.404   0.274
 7953SOL     OW24757   2.310   2.294   3.960
 7953SOL    HW124758   2.365   2.220   3.998
 7953SOL    HW224759   2.371   2.365   3.923
 7954SOL     OW24760   4.079   3.962   6.342
 7954SOL    HW124761   4.138   4.040   6.362
 7954SOL    HW224762   3.984   3.985   6.363
 7955SOL     OW24763   1.409   6.801   6.732
 7955SOL    HW124764   1.413   6.879   6.670
 7955SOL    HW224765   1.483   6.807   6.799
 7956SOL     OW24766   3.550   6.155   2.642
 7956SOL    HW124767   3.530   6.073   2.590
 7956SOL    HW224768   3.466   6.191   2.682
 7957SOL     OW24769   1.144   1.164   1.458
 7957SOL    HW124770   1.190   1.082   1.425
 7957SOL    HW224771   1.045   1.154   1.446
 7958SOL     OW24772   3.446   4.952   4.576
 7958SOL    HW124773   3.367   4.892   4.573
 7958SOL    HW224774   3.509   4.920   4.647
 7959SOL     OW24775   4.447   5.912   0.765
 7959SOL    HW124776   4.537   5.943   0.794
 7959SOL    HW224777   4.430   5.940   0.671
 7960SOL     OW24778   2.434   0.808   6.309
 7960SOL    HW124779   2.469   0.781   6.220
 7960SOL    HW224780   2.496   0.876   6.350
 7961SOL     OW24781   0.345   0.861   0.876
 7961SOL    HW124782   0.312   0.801   0.803
 7961SOL    HW224783   0.268   0.911   0.915
 7962SOL     OW24784   1.151   0.793   6.855
 7962SOL    HW124785   1.121   0.875   6.805
 7962SOL    HW224786   1.177   0.819   6.948
 7963SOL     OW24787   6.520   6.632   4.089
 7963SOL    HW124788   6.516   6.635   4.189
 7963SOL    HW224789   6.589   6.566   4.061
 7964SOL     OW24790   0.648   4.945   3.171
 7964SOL    HW124791   0.606   4.979   3.086
 7964SOL    HW224792   0.658   5.020   3.236
 7965SOL     OW24793   3.643   2.314   5.567
 7965SOL    HW124794   3.562   2.367   5.543
 7965SOL    HW224795   3.642   2.295   5.666
 7966SOL     OW24796   1.354   2.830   5.945
 7966SOL    HW124797   1.315   2.908   5.897
 7966SOL    HW224798   1.441   2.804   5.903
 7967SOL     OW24799   2.843   6.305   3.161
 7967SOL    HW124800   2.750   6.317   3.197
 7967SOL    HW224801   2.909   6.315   3.236
 7968SOL     OW24802   1.940   2.930   3.855
 7968SOL    HW124803   2.012   2.877   3.811
 7968SOL    HW224804   1.940   2.913   3.953
 7969SOL     OW24805   4.407   6.051   0.490
 7969SOL    HW124806   4.391   6.142   0.526
 7969SOL    HW224807   4.438   6.057   0.395
 7970SOL     OW24808   6.372   2.784   2.867
 7970SOL    HW124809   6.312   2.706   2.852
 7970SOL    HW224810   6.407   2.782   2.961
 7971SOL     OW24811   3.537   2.389   0.557
 7971SOL    HW124812   3.583   2.320   0.501
 7971SOL    HW224813   3.570   2.480   0.532
 7972SOL     OW24814   1.794   3.358   0.488
 7972SOL    HW124815   1.695   3.363   0.486
 7972SOL    HW224816   1.833   3.449   0.503
 7973SOL     OW24817   4.050   4.882   4.414
 7973SOL    HW124818   3.968   4.924   4.454
 7973SOL    HW224819   4.091   4.945   4.349
 7974SOL     OW24820   5.948   1.537   5.497
 7974SOL    HW124821   5.895   1.618   5.518
 7974SOL    HW224822   5.940   1.471   5.572
 7975SOL     OW24823   6.088   1.697   2.377
 7975SOL    HW124824   6.167   1.746   2.413
 7975SOL    HW224825   6.079   1.717   2.279
 7976SOL     OW24826   0.636   0.150   6.021
 7976SOL    HW124827   0.710   0.185   6.078
 7976SOL    HW224828   0.559   0.214   6.023
 7977SOL     OW24829   4.707   6.217   2.232
 7977SOL    HW124830   4.669   6.292   2.178
 7977SOL    HW224831   4.708   6.133   2.177
 7978SOL     OW24832   5.949   3.524   6.839
 7978SOL    HW124833   5.937   3.539   6.740
 7978SOL    HW224834   6.023   3.458   6.853
 7979SOL     OW24835   4.546   6.110   5.353
 7979SOL    HW124836   4.608   6.124   5.430
 7979SOL    HW224837   4.571   6.028   5.303
 7980SOL     OW24838   2.686   5.496   6.871
 7980SOL    HW124839   2.763   5.432   6.878
 7980SOL    HW224840   2.602   5.445   6.851
 7981SOL     OW24841   0.759   5.707   1.712
 7981SOL    HW124842   0.822   5.656   1.653
 7981SOL    HW224843   0.763   5.804   1.688
 7982SOL     OW24844   0.354   1.392   6.958
 7982SOL    HW124845   0.383   1.485   6.938
 7982SOL    HW224846   0.424   1.348   7.015
 7983SOL     OW24847   6.363   2.233   1.769
 7983SOL    HW124848   6.367   2.297   1.693
 7983SOL    HW224849   6.405   2.274   1.850
 7984SOL     OW24850   1.630   1.170   0.878
 7984SOL    HW124851   1.685   1.132   0.952
 7984SOL    HW224852   1.533   1.152   0.895
 7985SOL     OW24853   2.915   0.870   4.115
 7985SOL    HW124854   2.865   0.810   4.177
 7985SOL    HW224855   2.851   0.920   4.058
 7986SOL     OW24856   3.042   1.444   6.680
 7986SOL    HW124857   3.073   1.514   6.615
 7986SOL    HW224858   2.942   1.448   6.687
 7987SOL     OW24859   1.453   2.523   6.555
 7987SOL    HW124860   1.465   2.578   6.637
 7987SOL    HW224861   1.429   2.582   6.478
 7988SOL     OW24862   0.941   2.171   3.939
 7988SOL    HW124863   1.023   2.160   3.994
 7988SOL    HW224864   0.864   2.127   3.985
 7989SOL     OW24865   3.630   3.294   5.317
 7989SOL    HW124866   3.543   3.284   5.365
 7989SOL    HW224867   3.617   3.278   5.219
 7990SOL     OW24868   6.845   3.420   4.574
 7990SOL    HW124869   6.785   3.352   4.616
 7990SOL    HW224870   6.887   3.381   4.492
 7991SOL     OW24871   5.765   6.871   3.691
 7991SOL    HW124872   5.802   6.955   3.730
 7991SOL    HW224873   5.834   6.829   3.631
 7992SOL     OW24874   1.566   6.676   1.461
 7992SOL    HW124875   1.481   6.634   1.430
 7992SOL    HW224876   1.639   6.654   1.396
 7993SOL     OW24877   0.511   6.843   6.622
 7993SOL    HW124878   0.578   6.873   6.553
 7993SOL    HW224879   0.553   6.848   6.712
 7994SOL     OW24880   4.388   6.330   3.863
 7994SOL    HW124881   4.477   6.358   3.828
 7994SOL    HW224882   4.388   6.336   3.963
 7995SOL     OW24883   5.014   5.640   3.718
 7995SOL    HW124884   5.065   5.559   3.747
 7995SOL    HW224885   5.022   5.650   3.619
 7996SOL     OW24886   3.347   0.183   4.705
 7996SOL    HW124887   3.306   0.123   4.636
 7996SOL    HW224888   3.308   0.162   4.795
 7997SOL     OW24889   0.134   1.139   1.616
 7997SOL    HW124890   0.057   1.095   1.662
 7997SOL    HW224891   0.186   1.193   1.683
 7998SOL     OW24892   3.231   5.742   1.573
 7998SOL    HW124893   3.236   5.648   1.609
 7998SOL    HW224894   3.193   5.740   1.481
 7999SOL     OW24895   0.469   0.031   5.836
 7999SOL    HW124896   0.410   7.003   5.900
 7999SOL    HW224897   0.551   0.062   5.884
 8000SOL     OW24898   4.963   0.333   6.644
 8000SOL    HW124899   4.964   0.237   6.672
 8000SOL    HW224900   4.906   0.386   6.707
 8001SOL     OW24901   4.017   6.496   0.959
 8001SOL    HW124902   4.054   6.405   0.938
 8001SOL    HW224903   3.944   6.488   1.026
 8002SOL     OW24904   0.772   2.244   6.174
 8002SOL    HW124905   0.734   2.268   6.264
 8002SOL    HW224906   0.867   2.216   6.186
 8003SOL     OW24907   3.048   5.195   2.831
 8003SOL    HW124908   2.953   5.168   2.843
 8003SOL    HW224909   3.073   5.189   2.735
 8004SOL     OW24910   2.154   3.463   3.175
 8004SOL    HW124911   2.163   3.494   3.080
 8004SOL    HW224912   2.186   3.369   3.183
 8005SOL     OW24913   3.379   0.715   1.684
 8005SOL    HW124914   3.413   0.621   1.684
 8005SOL    HW224915   3.312   0.726   1.611
 8006SOL     OW24916   1.667   0.338   6.519
 8006SOL    HW124917   1.572   0.311   6.502
 8006SOL    HW224918   1.693   0.409   6.454
 8007SOL     OW24919   6.604   0.510   4.351
 8007SOL    HW124920   6.600   0.484   4.254
 8007SOL    HW224921   6.628   0.606   4.359
 8008SOL     OW24922   4.342   5.763   6.199
 8008SOL    HW124923   4.331   5.769   6.100
 8008SOL    HW224924   4.334   5.853   6.240
 8009SOL     OW24925   5.501   1.000   3.003
 8009SOL    HW124926   5.405   1.015   3.028
 8009SOL    HW224927   5.528   0.908   3.033
 8010SOL     OW24928   0.877   1.095   6.523
 8010SOL    HW124929   0.816   1.026   6.562
 8010SOL    HW224930   0.861   1.182   6.568
 8011SOL     OW24931   3.407   2.556   0.747
 8011SOL    HW124932   3.420   2.648   0.709
 8011SOL    HW224933   3.387   2.492   0.673
 8012SOL     OW24934   1.443   4.040   1.481
 8012SOL    HW124935   1.537   4.070   1.469
 8012SOL    HW224936   1.432   3.999   1.572
 8013SOL     OW24937   1.277   5.169   3.853
 8013SOL    HW124938   1.286   5.070   3.855
 8013SOL    HW224939   1.367   5.211   3.854
 8014SOL     OW24940   1.368   6.722   5.225
 8014SOL    HW124941   1.462   6.714   5.194
 8014SOL    HW224942   1.309   6.660   5.172
 8015SOL     OW24943   2.471   0.848   0.095
 8015SOL    HW124944   2.426   0.801   0.171
 8015SOL    HW224945   2.403   0.869   0.024
 8016SOL     OW24946   5.189   0.219   6.214
 8016SOL    HW124947   5.261   0.284   6.242
 8016SOL    HW224948   5.173   0.230   6.115
 8017SOL     OW24949   5.596   0.408   0.759
 8017SOL    HW124950   5.686   0.424   0.800
 8017SOL    HW224951   5.550   0.333   0.808
 8018SOL     OW24952   3.237   1.950   5.464
 8018SOL    HW124953   3.285   2.035   5.442
 8018SOL    HW224954   3.139   1.968   5.468
 8019SOL     OW24955   2.446   4.647   6.205
 8019SOL    HW124956   2.470   4.571   6.265
 8019SOL    HW224957   2.355   4.632   6.167
 8020SOL     OW24958   5.749   0.980   0.761
 8020SOL    HW124959   5.841   0.958   0.792
 8020SOL    HW224960   5.686   0.907   0.787
 8021SOL     OW24961   1.083   2.508   1.455
 8021SOL    HW124962   1.088   2.582   1.388
 8021SOL    HW224963   0.988   2.488   1.476
 8022SOL     OW24964   5.326   6.571   2.679
 8022SOL    HW124965   5.332   6.670   2.680
 8022SOL    HW224966   5.270   6.541   2.602
 8023SOL     OW24967   5.838   5.745   2.908
 8023SOL    HW124968   5.826   5.746   2.808
 8023SOL    HW224969   5.751   5.724   2.952
 8024SOL     OW24970   2.631   5.114   6.883
 8024SOL    HW124971   2.628   5.023   6.840
 8024SOL    HW224972   2.726   5.140   6.899
 8025SOL     OW24973   2.251   6.838   0.003
 8025SOL    HW124974   2.333   6.825   0.059
 8025SOL    HW224975   2.232   6.754   6.974
 8026SOL     OW24976   0.952   4.229   6.878
 8026SOL    HW124977   1.021   4.183   6.823
 8026SOL    HW224978   0.861   4.201   6.847
 8027SOL     OW24979   4.889   0.757   5.410
 8027SOL    HW124980   4.844   0.823   5.350
 8027SOL    HW224981   4.987   0.756   5.390
 8028SOL     OW24982   2.755   5.276   4.642
 8028SOL    HW124983   2.842   5.300   4.687
 8028SOL    HW224984   2.761   5.184   4.605
 8029SOL     OW24985   5.099   3.121   1.714
 8029SOL    HW124986   5.176   3.057   1.713
 8029SOL    HW224987   5.048   3.110   1.799
 8030SOL     OW24988   4.190   4.590   0.922
 8030SOL    HW124989   4.133   4.650   0.978
 8030SOL    HW224990   4.157   4.496   0.931
 8031SOL     OW24991   5.648   6.588   2.366
 8031SOL    HW124992   5.642   6.685   2.388
 8031SOL    HW224993   5.630   6.575   2.268
 8032SOL     OW24994   0.018   5.285   0.728
 8032SOL    HW124995   0.020   5.360   0.794
 8032SOL    HW224996   7.010   5.201   0.774
 8033SOL     OW24997   5.080   1.913   5.918
 8033SOL    HW124998   5.022   1.858   5.858
 8033SOL    HW224999   5.060   1.889   6.013
 8034SOL     OW25000   5.393   6.705   4.881
 8034SOL    HW125001   5.485   6.738   4.858
 8034SOL    HW225002   5.336   6.782   4.910
 8035SOL     OW25003   5.115   1.647   4.385
 8035SOL    HW125004   5.062   1.732   4.397
 8035SOL    HW225005   5.108   1.592   4.468
 8036SOL     OW25006   0.513   4.037   3.279
 8036SOL    HW125007   0.559   4.115   3.320
 8036SOL    HW225008   0.568   3.955   3.294
 8037SOL     OW25009   1.254   3.137   0.741
 8037SOL    HW125010   1.330   3.124   0.677
 8037SOL    HW225011   1.273   3.087   0.826
 8038SOL     OW25012   3.866   0.157   2.207
 8038SOL    HW125013   3.937   0.094   2.175
 8038SOL    HW225014   3.791   0.158   2.140
 8039SOL     OW25015   0.750   1.746   4.665
 8039SOL    HW125016   0.772   1.737   4.762
 8039SOL    HW225017   0.826   1.711   4.610
 8040SOL     OW25018   1.490   5.994   0.276
 8040SOL    HW125019   1.469   5.928   0.348
 8040SOL    HW225020   1.425   5.984   0.201
 8041SOL     OW25021   3.058   1.407   2.368
 8041SOL    HW125022   2.963   1.413   2.338
 8041SOL    HW225023   3.084   1.493   2.413
 8042SOL     OW25024   3.060   3.595   3.806
 8042SOL    HW125025   2.997   3.573   3.881
 8042SOL    HW225026   3.008   3.605   3.721
 8043SOL     OW25027   4.241   6.647   2.554
 8043SOL    HW125028   4.179   6.723   2.534
 8043SOL    HW225029   4.204   6.593   2.629
 8044SOL     OW25030   3.947   2.623   1.259
 8044SOL    HW125031   4.045   2.604   1.270
 8044SOL    HW225032   3.895   2.576   1.330
 8045SOL     OW25033   5.027   1.084   2.181
 8045SOL    HW125034   5.117   1.053   2.150
 8045SOL    HW225035   5.000   1.165   2.129
 8046SOL     OW25036   0.442   5.231   0.877
 8046SOL    HW125037   0.417   5.313   0.825
 8046SOL    HW225038   0.492   5.168   0.818
 8047SOL     OW25039   4.021   5.827   4.222
 8047SOL    HW125040   3.942   5.834   4.284
 8047SOL    HW225041   3.990   5.793   4.133
 8048SOL     OW25042   4.889   1.045   5.734
 8048SOL    HW125043   4.914   1.135   5.768
 8048SOL    HW225044   4.798   1.020   5.767
 8049SOL     OW25045   0.687   0.166   6.860
 8049SOL    HW125046   0.608   0.107   6.877
 8049SOL    HW225047   0.705   0.171   6.762
 8050SOL     OW25048   1.577   3.876   2.949
 8050SOL    HW125049   1.513   3.948   2.975
 8050SOL    HW225050   1.574   3.863   2.850
 8051SOL     OW25051   4.615   5.882   3.180
 8051SOL    HW125052   4.709   5.874   3.147
 8051SOL    HW225053   4.559   5.809   3.142
 8052SOL     OW25054   4.677   1.565   1.749
 8052SOL    HW125055   4.610   1.617   1.804
 8052SOL    HW225056   4.641   1.553   1.656
 8053SOL     OW25057   2.956   3.828   3.110
 8053SOL    HW125058   2.964   3.795   3.016
 8053SOL    HW225059   2.889   3.772   3.159
 8054SOL     OW25060   4.978   0.091   4.629
 8054SOL    HW125061   5.016   0.016   4.682
 8054SOL    HW225062   5.052   0.149   4.593
 8055SOL     OW25063   6.942   0.437   5.301
 8055SOL    HW125064   6.862   0.412   5.246
 8055SOL    HW225065   6.944   0.379   5.383
 8056SOL     OW25066   3.036   1.657   4.386
 8056SOL    HW125067   3.072   1.750   4.383
 8056SOL    HW225068   3.093   1.600   4.446
 8057SOL     OW25069   3.008   1.404   3.200
 8057SOL    HW125070   3.011   1.362   3.109
 8057SOL    HW225071   2.984   1.500   3.191
 8058SOL     OW25072   4.315   0.664   1.736
 8058SOL    HW125073   4.328   0.584   1.795
 8058SOL    HW225074   4.330   0.747   1.790
 8059SOL     OW25075   3.663   1.781   4.620
 8059SOL    HW125076   3.680   1.703   4.680
 8059SOL    HW225077   3.668   1.865   4.674
 8060SOL     OW25078   6.497   2.492   3.932
 8060SOL    HW125079   6.420   2.513   3.871
 8060SOL    HW225080   6.541   2.577   3.961
 8061SOL     OW25081   0.620   1.496   3.076
 8061SOL    HW125082   0.576   1.537   3.156
 8061SOL    HW225083   0.555   1.434   3.032
 8062SOL     OW25084   3.494   5.303   4.160
 8062SOL    HW125085   3.553   5.223   4.173
 8062SOL    HW225086   3.509   5.341   4.069
 8063SOL     OW25087   0.829   2.413   1.455
 8063SOL    HW125088   0.870   2.322   1.454
 8063SOL    HW225089   0.737   2.407   1.493
 8064SOL     OW25090   0.246   4.261   2.174
 8064SOL    HW125091   0.289   4.287   2.087
 8064SOL    HW225092   0.181   4.332   2.201
 8065SOL     OW25093   2.476   5.720   3.622
 8065SOL    HW125094   2.437   5.676   3.703
 8065SOL    HW225095   2.409   5.720   3.548
 8066SOL     OW25096   6.892   2.352   5.708
 8066SOL    HW125097   6.863   2.276   5.766
 8066SOL    HW225098   6.863   2.335   5.613
 8067SOL     OW25099   4.440   2.903   1.706
 8067SOL    HW125100   4.530   2.938   1.734
 8067SOL    HW225101   4.447   2.805   1.685
 8068SOL     OW25102   0.008   3.987   1.061
 8068SOL    HW125103   0.070   3.918   1.023
 8068SOL    HW225104   6.941   3.980   1.016
 8069SOL     OW25105   1.782   6.649   1.285
 8069SOL    HW125106   1.881   6.665   1.290
 8069SOL    HW225107   1.765   6.553   1.264
 8070SOL     OW25108   3.476   3.066   0.104
 8070SOL    HW125109   3.382   3.095   0.123
 8070SOL    HW225110   3.531   3.072   0.188
 8071SOL     OW25111   2.595   6.205   4.825
 8071SOL    HW125112   2.500   6.186   4.849
 8071SOL    HW225113   2.615   6.168   4.734
 8072SOL     OW25114   3.178   0.822   0.185
 8072SOL    HW125115   3.086   0.810   0.148
 8072SOL    HW225116   3.202   0.919   0.181
 8073SOL     OW25117   3.339   5.465   4.574
 8073SOL    HW125118   3.421   5.478   4.518
 8073SOL    HW225119   3.325   5.368   4.590
 8074SOL     OW25120   3.882   2.087   0.542
 8074SOL    HW125121   3.907   2.169   0.594
 8074SOL    HW225122   3.911   2.006   0.593
 8075SOL     OW25123   0.252   0.641   1.111
 8075SOL    HW125124   0.261   0.738   1.133
 8075SOL    HW225125   0.305   0.587   1.177
 8076SOL     OW25126   5.832   2.361   5.279
 8076SOL    HW125127   5.803   2.451   5.244
 8076SOL    HW225128   5.906   2.373   5.345
 8077SOL     OW25129   2.863   5.908   1.886
 8077SOL    HW125130   2.810   5.990   1.864
 8077SOL    HW225131   2.956   5.935   1.911
 8078SOL     OW25132   6.785   1.415   6.931
 8078SOL    HW125133   6.810   1.398   0.005
 8078SOL    HW225134   6.839   1.355   6.871
 8079SOL     OW25135   4.615   1.521   3.387
 8079SOL    HW125136   4.592   1.470   3.470
 8079SOL    HW225137   4.714   1.533   3.382
 8080SOL     OW25138   0.393   2.660   0.698
 8080SOL    HW125139   0.419   2.719   0.622
 8080SOL    HW225140   0.450   2.682   0.778
 8081SOL     OW25141   5.155   6.365   4.985
 8081SOL    HW125142   5.254   6.370   4.976
 8081SOL    HW225143   5.121   6.453   5.021
 8082SOL     OW25144   4.811   6.486   1.798
 8082SOL    HW125145   4.833   6.581   1.820
 8082SOL    HW225146   4.763   6.444   1.876
 8083SOL     OW25147   5.021   3.591   2.501
 8083SOL    HW125148   5.013   3.687   2.474
 8083SOL    HW225149   5.027   3.585   2.601
 8084SOL     OW25150   5.085   0.229   0.410
 8084SOL    HW125151   5.028   0.296   0.363
 8084SOL    HW225152   5.125   0.166   0.343
 8085SOL     OW25153   6.440   6.148   2.119
 8085SOL    HW125154   6.417   6.094   2.038
 8085SOL    HW225155   6.439   6.088   2.200
 8086SOL     OW25156   4.981   1.302   3.591
 8086SOL    HW125157   4.933   1.326   3.507
 8086SOL    HW225158   4.923   1.320   3.670
 8087SOL     OW25159   2.533   1.507   0.518
 8087SOL    HW125160   2.515   1.562   0.437
 8087SOL    HW225161   2.575   1.563   0.589
 8088SOL     OW25162   5.033   2.657   1.364
 8088SOL    HW125163   5.015   2.755   1.360
 8088SOL    HW225164   5.119   2.637   1.317
 8089SOL     OW25165   5.200   2.276   0.413
 8089SOL    HW125166   5.133   2.259   0.341
 8089SOL    HW225167   5.220   2.191   0.462
 8090SOL     OW25168   5.036   1.743   0.252
 8090SOL    HW125169   4.975   1.723   0.176
 8090SOL    HW225170   4.996   1.816   0.308
 8091SOL     OW25171   2.554   3.457   5.538
 8091SOL    HW125172   2.642   3.458   5.490
 8091SOL    HW225173   2.482   3.487   5.477
 8092SOL     OW25174   6.207   2.434   5.403
 8092SOL    HW125175   6.137   2.366   5.425
 8092SOL    HW225176   6.167   2.504   5.343
 8093SOL     OW25177   3.972   5.244   2.756
 8093SOL    HW125178   3.949   5.252   2.853
 8093SOL    HW225179   4.011   5.153   2.739
 8094SOL     OW25180   1.565   3.821   5.240
 8094SOL    HW125181   1.614   3.806   5.154
 8094SOL    HW225182   1.477   3.865   5.221
 8095SOL     OW25183   6.677   4.343   5.474
 8095SOL    HW125184   6.712   4.305   5.388
 8095SOL    HW225185   6.724   4.299   5.550
 8096SOL     OW25186   2.543   6.110   3.035
 8096SOL    HW125187   2.622   6.048   3.034
 8096SOL    HW225188   2.570   6.199   2.999
 8097SOL     OW25189   4.248   6.814   3.760
 8097SOL    HW125190   4.314   6.789   3.830
 8097SOL    HW225191   4.166   6.757   3.768
 8098SOL     OW25192   1.695   0.221   3.358
 8098SOL    HW125193   1.739   0.311   3.352
 8098SOL    HW225194   1.598   0.231   3.333
 8099SOL     OW25195   3.956   0.223   4.285
 8099SOL    HW125196   3.925   0.235   4.379
 8099SOL    HW225197   3.888   0.261   4.222
 8100SOL     OW25198   5.786   0.653   0.597
 8100SOL    HW125199   5.732   0.580   0.556
 8100SOL    HW225200   5.731   0.736   0.601
 8101SOL     OW25201   1.840   0.565   3.514
 8101SOL    HW125202   1.807   0.536   3.425
 8101SOL    HW225203   1.864   0.662   3.511
 8102SOL     OW25204   0.643   4.717   4.528
 8102SOL    HW125205   0.731   4.676   4.551
 8102SOL    HW225206   0.580   4.705   4.605
 8103SOL     OW25207   3.945   0.022   1.425
 8103SOL    HW125208   3.995   0.105   1.402
 8103SOL    HW225209   3.982   6.967   1.374
 8104SOL     OW25210   2.938   0.416   6.024
 8104SOL    HW125211   2.903   0.338   5.973
 8104SOL    HW225212   3.008   0.463   5.971
 8105SOL     OW25213   0.711   2.148   3.091
 8105SOL    HW125214   0.804   2.180   3.109
 8105SOL    HW225215   0.669   2.205   3.020
 8106SOL     OW25216   2.182   6.061   2.770
 8106SOL    HW125217   2.126   5.980   2.755
 8106SOL    HW225218   2.202   6.105   2.683
 8107SOL     OW25219   0.425   5.251   4.501
 8107SOL    HW125220   0.525   5.249   4.514
 8107SOL    HW225221   0.395   5.164   4.463
 8108SOL     OW25222   6.102   3.166   5.461
 8108SOL    HW125223   6.104   3.097   5.533
 8108SOL    HW225224   6.016   3.160   5.410
 8109SOL     OW25225   1.644   3.925   4.296
 8109SOL    HW125226   1.688   3.835   4.284
 8109SOL    HW225227   1.711   3.997   4.277
 8110SOL     OW25228   3.399   6.270   0.778
 8110SOL    HW125229   3.299   6.268   0.773
 8110SOL    HW225230   3.430   6.213   0.854
 8111SOL     OW25231   4.387   0.620   4.729
 8111SOL    HW125232   4.361   0.706   4.772
 8111SOL    HW225233   4.309   0.557   4.729
 8112SOL     OW25234   2.636   2.393   4.674
 8112SOL    HW125235   2.556   2.449   4.698
 8112SOL    HW225236   2.718   2.435   4.711
 8113SOL     OW25237   3.013   3.395   0.866
 8113SOL    HW125238   2.951   3.335   0.918
 8113SOL    HW225239   3.025   3.359   0.774
 8114SOL     OW25240   1.954   3.800   1.666
 8114SOL    HW125241   1.957   3.713   1.717
 8114SOL    HW225242   1.859   3.826   1.650
 8115SOL     OW25243   3.438   6.935   0.341
 8115SOL    HW125244   3.477   6.940   0.433
 8115SOL    HW225245   3.386   7.019   0.323
 8116SOL     OW25246   4.288   5.774   5.914
 8116SOL    HW125247   4.195   5.737   5.920
 8116SOL    HW225248   4.293   5.841   5.840
 8117SOL     OW25249   1.925   0.913   3.811
 8117SOL    HW125250   2.007   0.908   3.868
 8117SOL    HW225251   1.892   1.007   3.810
 8118SOL     OW25252   6.156   4.074   6.200
 8118SOL    HW125253   6.187   4.000   6.140
 8118SOL    HW225254   6.234   4.131   6.226
 8119SOL     OW25255   6.155   6.180   5.594
 8119SOL    HW125256   6.191   6.241   5.523
 8119SOL    HW225257   6.192   6.088   5.580
 8120SOL     OW25258   2.172   5.095   0.331
 8120SOL    HW125259   2.154   5.194   0.331
 8120SOL    HW225260   2.224   5.071   0.249
 8121SOL     OW25261   0.391   4.402   1.982
 8121SOL    HW125262   0.472   4.364   2.026
 8121SOL    HW225263   0.360   4.482   2.034
 8122SOL     OW25264   1.287   5.949   2.286
 8122SOL    HW125265   1.318   5.870   2.339
 8122SOL    HW225266   1.365   6.009   2.267
 8123SOL     OW25267   6.603   0.637   7.015
 8123SOL    HW125268   6.592   0.736   7.016
 8123SOL    HW225269   6.684   0.612   0.047
 8124SOL     OW25270   6.630   6.363   1.073
 8124SOL    HW125271   6.559   6.302   1.039
 8124SOL    HW225272   6.600   6.458   1.065
 8125SOL     OW25273   1.322   0.910   4.144
 8125SOL    HW125274   1.411   0.934   4.182
 8125SOL    HW225275   1.321   0.812   4.123
 8126SOL     OW25276   5.561   4.599   2.657
 8126SOL    HW125277   5.518   4.599   2.567
 8126SOL    HW225278   5.656   4.570   2.649
 8127SOL     OW25279   3.184   6.119   6.374
 8127SOL    HW125280   3.122   6.165   6.310
 8127SOL    HW225281   3.272   6.103   6.330
 8128SOL     OW25282   2.723   2.135   1.674
 8128SOL    HW125283   2.782   2.098   1.745
 8128SOL    HW225284   2.756   2.225   1.645
 8129SOL     OW25285   4.141   0.802   6.033
 8129SOL    HW125286   4.144   0.778   6.130
 8129SOL    HW225287   4.199   0.882   6.016
 8130SOL     OW25288   0.118   3.608   6.479
 8130SOL    HW125289   0.154   3.701   6.470
 8130SOL    HW225290   0.166   3.562   6.554
 8131SOL     OW25291   3.312   1.757   0.851
 8131SOL    HW125292   3.344   1.808   0.772
 8131SOL    HW225293   3.385   1.753   0.920
 8132SOL     OW25294   5.797   6.384   5.867
 8132SOL    HW125295   5.707   6.394   5.909
 8132SOL    HW225296   5.861   6.345   5.933
 8133SOL     OW25297   2.809   4.755   1.449
 8133SOL    HW125298   2.868   4.690   1.402
 8133SOL    HW225299   2.789   4.721   1.541
 8134SOL     OW25300   0.882   2.869   5.439
 8134SOL    HW125301   0.796   2.849   5.485
 8134SOL    HW225302   0.879   2.835   5.345
 8135SOL     OW25303   2.649   6.125   0.965
 8135SOL    HW125304   2.662   6.059   0.891
 8135SOL    HW225305   2.582   6.194   0.937
 8136SOL     OW25306   4.468   4.894   3.137
 8136SOL    HW125307   4.567   4.903   3.128
 8136SOL    HW225308   4.437   4.943   3.218
 8137SOL     OW25309   3.436   1.462   4.859
 8137SOL    HW125310   3.418   1.374   4.902
 8137SOL    HW225311   3.365   1.527   4.884
 8138SOL     OW25312   6.272   2.006   0.290
 8138SOL    HW125313   6.176   2.013   0.264
 8138SOL    HW225314   6.293   2.075   0.359
 8139SOL     OW25315   1.341   1.616   4.093
 8139SOL    HW125316   1.300   1.591   4.005
 8139SOL    HW225317   1.441   1.618   4.084
 8140SOL     OW25318   4.469   0.096   0.838
 8140SOL    HW125319   4.562   0.072   0.864
 8140SOL    HW225320   4.406   0.026   0.871
 8141SOL     OW25321   4.468   6.358   5.294
 8141SOL    HW125322   4.552   6.413   5.291
 8141SOL    HW225323   4.491   6.264   5.322
 8142SOL     OW25324   1.673   5.167   0.210
 8142SOL    HW125325   1.618   5.106   0.268
 8142SOL    HW225326   1.640   5.261   0.220
 8143SOL     OW25327   6.604   4.349   0.267
 8143SOL    HW125328   6.594   4.250   0.256
 8143SOL    HW225329   6.623   4.370   0.363
 8144SOL     OW25330   0.758   6.203   6.150
 8144SOL    HW125331   0.726   6.218   6.056
 8144SOL    HW225332   0.695   6.141   6.197
 8145SOL     OW25333   5.403   5.234   1.181
 8145SOL    HW125334   5.341   5.171   1.226
 8145SOL    HW225335   5.476   5.182   1.135
 8146SOL     OW25336   5.092   0.703   5.213
 8146SOL    HW125337   5.166   0.671   5.154
 8146SOL    HW225338   5.008   0.712   5.160
 8147SOL     OW25339   6.689   1.355   2.295
 8147SOL    HW125340   6.607   1.299   2.310
 8147SOL    HW225341   6.663   1.451   2.292
 8148SOL     OW25342   5.033   4.414   0.695
 8148SOL    HW125343   5.000   4.336   0.642
 8148SOL    HW225344   5.117   4.389   0.743
 8149SOL     OW25345   2.206   6.102   3.282
 8149SOL    HW125346   2.190   6.180   3.220
 8149SOL    HW225347   2.213   6.018   3.228
 8150SOL     OW25348   1.696   3.547   1.037
 8150SOL    HW125349   1.660   3.617   0.976
 8150SOL    HW225350   1.679   3.457   0.997
 8151SOL     OW25351   5.654   4.763   2.934
 8151SOL    HW125352   5.670   4.672   2.893
 8151SOL    HW225353   5.657   4.832   2.862
 8152SOL     OW25354   6.116   2.177   3.347
 8152SOL    HW125355   6.025   2.218   3.353
 8152SOL    HW225356   6.176   2.221   3.414
 8153SOL     OW25357   1.466   2.012   3.789
 8153SOL    HW125358   1.428   1.964   3.868
 8153SOL    HW225359   1.426   1.975   3.705
 8154SOL     OW25360   3.989   6.469   2.482
 8154SOL    HW125361   3.914   6.405   2.465
 8154SOL    HW225362   3.952   6.561   2.495
 8155SOL     OW25363   1.552   3.178   1.643
 8155SOL    HW125364   1.532   3.084   1.668
 8155SOL    HW225365   1.487   3.239   1.688
 8156SOL     OW25366   5.115   6.343   0.520
 8156SOL    HW125367   5.214   6.351   0.509
 8156SOL    HW225368   5.075   6.435   0.519
 8157SOL     OW25369   6.417   4.843   5.993
 8157SOL    HW125370   6.340   4.793   5.953
 8157SOL    HW225371   6.439   4.803   6.082
 8158SOL     OW25372   5.108   4.199   0.009
 8158SOL    HW125373   5.032   4.264   0.010
 8158SOL    HW225374   5.194   4.249   0.001
 8159SOL     OW25375   2.034   5.498   2.941
 8159SOL    HW125376   2.050   5.507   3.039
 8159SOL    HW225377   2.114   5.529   2.891
 8160SOL     OW25378   5.543   0.981   3.995
 8160SOL    HW125379   5.472   0.984   4.065
 8160SOL    HW225380   5.571   1.074   3.971
 8161SOL     OW25381   6.206   2.957   6.468
 8161SOL    HW125382   6.196   2.863   6.436
 8161SOL    HW225383   6.137   2.976   6.537
 8162SOL     OW25384   6.369   6.432   0.007
 8162SOL    HW125385   6.283   6.399   6.990
 8162SOL    HW225386   6.357   6.526   0.039
 8163SOL     OW25387   2.629   4.318   5.320
 8163SOL    HW125388   2.609   4.220   5.327
 8163SOL    HW225389   2.725   4.334   5.343
 8164SOL     OW25390   5.231   2.705   0.245
 8164SOL    HW125391   5.214   2.802   0.263
 8164SOL    HW225392   5.325   2.683   0.269
 8165SOL     OW25393   0.379   3.820   5.931
 8165SOL    HW125394   0.478   3.808   5.918
 8165SOL    HW225395   0.349   3.766   6.010
 8166SOL     OW25396   1.439   0.276   3.288
 8166SOL    HW125397   1.430   0.349   3.219
 8166SOL    HW225398   1.356   0.272   3.343
 8167SOL     OW25399   6.834   0.135   3.992
 8167SOL    HW125400   6.914   0.087   3.955
 8167SOL    HW225401   6.751   0.098   3.951
 8168SOL     OW25402   2.968   1.725   2.416
 8168SOL    HW125403   2.985   1.807   2.362
 8168SOL    HW225404   2.871   1.700   2.409
 8169SOL     OW25405   5.023   2.149   0.229
 8169SOL    HW125406   5.070   2.086   0.168
 8169SOL    HW225407   4.949   2.101   0.276
 8170SOL     OW25408   1.068   5.604   2.154
 8170SOL    HW125409   1.073   5.521   2.210
 8170SOL    HW225410   1.160   5.641   2.142
 8171SOL     OW25411   1.697   1.763   6.351
 8171SOL    HW125412   1.769   1.783   6.417
 8171SOL    HW225413   1.686   1.841   6.289
 8172SOL     OW25414   0.078   1.874   2.146
 8172SOL    HW125415   0.034   1.784   2.141
 8172SOL    HW225416   0.155   1.870   2.211
 8173SOL     OW25417   5.451   1.947   2.132
 8173SOL    HW125418   5.377   1.888   2.163
 8173SOL    HW225419   5.426   1.991   2.046
 8174SOL     OW25420   6.411   1.182   2.565
 8174SOL    HW125421   6.434   1.266   2.613
 8174SOL    HW225422   6.371   1.204   2.476
 8175SOL     OW25423   0.576   3.056   5.715
 8175SOL    HW125424   0.564   3.102   5.627
 8175SOL    HW225425   0.673   3.057   5.740
 8176SOL     OW25426   2.036   5.143   1.320
 8176SOL    HW125427   2.123   5.100   1.340
 8176SOL    HW225428   2.037   5.176   1.225
 8177SOL     OW25429   3.544   6.313   3.620
 8177SOL    HW125430   3.528   6.402   3.663
 8177SOL    HW225431   3.475   6.248   3.652
 8178SOL     OW25432   3.000   6.429   0.622
 8178SOL    HW125433   2.937   6.506   0.611
 8178SOL    HW225434   3.032   6.400   0.532
 8179SOL     OW25435   4.734   2.175   4.822
 8179SOL    HW125436   4.681   2.173   4.906
 8179SOL    HW225437   4.704   2.252   4.765
 8180SOL     OW25438   6.316   0.744   5.186
 8180SOL    HW125439   6.393   0.768   5.246
 8180SOL    HW225440   6.344   0.756   5.091
 8181SOL     OW25441   1.667   1.150   0.583
 8181SOL    HW125442   1.648   1.174   0.678
 8181SOL    HW225443   1.753   1.193   0.555
 8182SOL     OW25444   3.506   3.663   5.913
 8182SOL    HW125445   3.413   3.633   5.934
 8182SOL    HW225446   3.516   3.759   5.937
 8183SOL     OW25447   6.679   2.405   5.128
 8183SOL    HW125448   6.658   2.331   5.192
 8183SOL    HW225449   6.594   2.446   5.095
 8184SOL     OW25450   6.481   0.802   0.508
 8184SOL    HW125451   6.548   0.745   0.460
 8184SOL    HW225452   6.520   0.894   0.522
 8185SOL     OW25453   1.807   0.040   0.170
 8185SOL    HW125454   1.819   0.102   0.093
 8185SOL    HW225455   1.869   6.984   0.159
 8186SOL     OW25456   3.521   4.727   5.302
 8186SOL    HW125457   3.454   4.750   5.231
 8186SOL    HW225458   3.606   4.776   5.284
 8187SOL     OW25459   1.555   2.031   4.750
 8187SOL    HW125460   1.493   2.071   4.818
 8187SOL    HW225461   1.593   1.946   4.785
 8188SOL     OW25462   5.875   2.677   2.952
 8188SOL    HW125463   5.791   2.642   2.911
 8188SOL    HW225464   5.884   2.775   2.933
 8189SOL     OW25465   5.250   4.650   3.092
 8189SOL    HW125466   5.263   4.558   3.056
 8189SOL    HW225467   5.301   4.715   3.036
 8190SOL     OW25468   4.864   5.317   4.435
 8190SOL    HW125469   4.813   5.321   4.348
 8190SOL    HW225470   4.894   5.224   4.452
 8191SOL     OW25471   3.530   5.995   1.889
 8191SOL    HW125472   3.512   5.905   1.928
 8191SOL    HW225473   3.488   6.065   1.948
 8192SOL     OW25474   3.608   4.944   0.729
 8192SOL    HW125475   3.671   4.986   0.794
 8192SOL    HW225476   3.617   4.987   0.640
 8193SOL     OW25477   6.850   6.180   5.239
 8193SOL    HW125478   6.923   6.131   5.287
 8193SOL    HW225479   6.864   6.173   5.140
 8194SOL     OW25480   5.156   2.360   1.100
 8194SOL    HW125481   5.158   2.374   1.001
 8194SOL    HW225482   5.106   2.434   1.143
 8195SOL     OW25483   1.819   0.550   2.284
 8195SOL    HW125484   1.724   0.565   2.312
 8195SOL    HW225485   1.842   0.454   2.298
 8196SOL     OW25486   3.672   5.901   6.008
 8196SOL    HW125487   3.595   5.934   5.952
 8196SOL    HW225488   3.740   5.973   6.016
 8197SOL     OW25489   4.416   1.821   0.131
 8197SOL    HW125490   4.463   1.889   0.075
 8197SOL    HW225491   4.317   1.832   0.120
 8198SOL     OW25492   3.245   6.760   2.913
 8198SOL    HW125493   3.298   6.815   2.977
 8198SOL    HW225494   3.147   6.770   2.933
 8199SOL     OW25495   6.222   3.184   6.288
 8199SOL    HW125496   6.248   3.110   6.350
 8199SOL    HW225497   6.298   3.203   6.226
 8200SOL     OW25498   5.644   4.535   2.135
 8200SOL    HW125499   5.649   4.451   2.190
 8200SOL    HW225500   5.723   4.593   2.156
 8201SOL     OW25501   5.738   0.756   4.023
 8201SOL    HW125502   5.691   0.843   4.012
 8201SOL    HW225503   5.837   0.771   4.021
 8202SOL     OW25504   0.517   6.027   4.160
 8202SOL    HW125505   0.615   6.049   4.163
 8202SOL    HW225506   0.505   5.928   4.152
 8203SOL     OW25507   3.917   2.511   0.446
 8203SOL    HW125508   3.822   2.528   0.471
 8203SOL    HW225509   3.955   2.592   0.401
 8204SOL     OW25510   3.188   4.771   6.619
 8204SOL    HW125511   3.201   4.703   6.547
 8204SOL    HW225512   3.144   4.852   6.580
 8205SOL     OW25513   0.539   4.727   0.388
 8205SOL    HW125514   0.471   4.674   0.439
 8205SOL    HW225515   0.492   4.790   0.327
 8206SOL     OW25516   4.912   2.659   6.097
 8206SOL    HW125517   4.836   2.648   6.162
 8206SOL    HW225518   4.985   2.711   6.141
 8207SOL     OW25519   3.185   4.083   4.269
 8207SOL    HW125520   3.116   4.109   4.336
 8207SOL    HW225521   3.152   4.103   4.177
 8208SOL     OW25522   1.953   0.014   1.167
 8208SOL    HW125523   1.927   6.939   1.172
 8208SOL    HW225524   1.906   0.065   1.238
 8209SOL     OW25525   0.563   1.302   5.282
 8209SOL    HW125526   0.469   1.302   5.317
 8209SOL    HW225527   0.562   1.315   5.183
 8210SOL     OW25528   2.042   1.205   1.397
 8210SOL    HW125529   2.046   1.231   1.301
 8210SOL    HW225530   2.100   1.267   1.451
 8211SOL     OW25531   3.867   3.895   1.827
 8211SOL    HW125532   3.848   3.989   1.800
 8211SOL    HW225533   3.815   3.832   1.770
 8212SOL     OW25534   2.387   1.519   2.158
 8212SOL    HW125535   2.407   1.477   2.247
 8212SOL    HW225536   2.416   1.615   2.159
 8213SOL     OW25537   6.532   4.470   2.679
 8213SOL    HW125538   6.598   4.523   2.733
 8213SOL    HW225539   6.573   4.446   2.590
 8214SOL     OW25540   6.996   5.422   4.885
 8214SOL    HW125541   6.932   5.350   4.912
 8214SOL    HW225542   7.020   5.411   4.789
 8215SOL     OW25543   2.592   5.811   5.986
 8215SOL    HW125544   2.566   5.718   5.962
 8215SOL    HW225545   2.514   5.859   6.027
 8216SOL     OW25546   5.029   5.119   3.851
 8216SOL    HW125547   5.121   5.080   3.848
 8216SOL    HW225548   4.983   5.088   3.935
 8217SOL     OW25549   2.062   3.890   1.423
 8217SOL    HW125550   2.155   3.852   1.428
 8217SOL    HW225551   2.016   3.878   1.511
 8218SOL     OW25552   0.282   6.819   4.712
 8218SOL    HW125553   0.332   6.832   4.797
 8218SOL    HW225554   0.269   6.907   4.666
 8219SOL     OW25555   3.824   3.284   0.283
 8219SOL    HW125556   3.777   3.372   0.287
 8219SOL    HW225557   3.921   3.296   0.303
 8220SOL     OW25558   3.153   4.069   3.997
 8220SOL    HW125559   3.074   4.007   3.993
 8220SOL    HW225560   3.237   4.017   3.982
 8221SOL     OW25561   5.758   6.519   3.193
 8221SOL    HW125562   5.806   6.545   3.109
 8221SOL    HW225563   5.730   6.602   3.242
 8222SOL     OW25564   5.358   1.504   1.301
 8222SOL    HW125565   5.292   1.466   1.236
 8222SOL    HW225566   5.418   1.431   1.335
 8223SOL     OW25567   1.331   4.463   5.300
 8223SOL    HW125568   1.233   4.471   5.280
 8223SOL    HW225569   1.376   4.408   5.229
 8224SOL     OW25570   5.261   2.389   2.364
 8224SOL    HW125571   5.185   2.436   2.408
 8224SOL    HW225572   5.230   2.345   2.279
 8225SOL     OW25573   3.475   1.716   1.081
 8225SOL    HW125574   3.413   1.653   1.128
 8225SOL    HW225575   3.516   1.779   1.147
 8226SOL     OW25576   3.680   6.082   6.964
 8226SOL    HW125577   3.746   6.155   6.944
 8226SOL    HW225578   3.619   6.071   6.885
 8227SOL     OW25579   0.234   1.029   2.291
 8227SOL    HW125580   0.156   0.998   2.346
 8227SOL    HW225581   0.275   1.109   2.334
 8228SOL     OW25582   6.654   1.564   5.936
 8228SOL    HW125583   6.634   1.474   5.976
 8228SOL    HW225584   6.751   1.570   5.915
 8229SOL     OW25585   4.492   3.552   1.088
 8229SOL    HW125586   4.464   3.648   1.083
 8229SOL    HW225587   4.463   3.513   1.176
 8230SOL     OW25588   3.598   6.880   4.751
 8230SOL    HW125589   3.680   6.824   4.762
 8230SOL    HW225590   3.550   6.886   4.838
 8231SOL     OW25591   2.911   2.871   1.356
 8231SOL    HW125592   2.930   2.925   1.274
 8231SOL    HW225593   2.965   2.906   1.432
 8232SOL     OW25594   5.053   2.136   1.910
 8232SOL    HW125595   4.999   2.097   1.836
 8232SOL    HW225596   5.098   2.063   1.962
 8233SOL     OW25597   1.492   6.860   6.210
 8233SOL    HW125598   1.420   6.829   6.272
 8233SOL    HW225599   1.544   6.933   6.253
 8234SOL     OW25600   2.835   3.765   6.829
 8234SOL    HW125601   2.858   3.852   6.873
 8234SOL    HW225602   2.891   3.692   6.869
 8235SOL     OW25603   0.292   3.048   6.940
 8235SOL    HW125604   0.266   2.973   7.001
 8235SOL    HW225605   0.311   3.013   6.849
 8236SOL     OW25606   0.594   4.985   0.486
 8236SOL    HW125607   0.598   4.889   0.459
 8236SOL    HW225608   0.629   5.042   0.412
 8237SOL     OW25609   4.496   6.030   5.977
 8237SOL    HW125610   4.539   5.965   5.913
 8237SOL    HW225611   4.491   6.120   5.934
 8238SOL     OW25612   0.754   5.340   6.482
 8238SOL    HW125613   0.694   5.286   6.423
 8238SOL    HW225614   0.699   5.394   6.545
 8239SOL     OW25615   0.310   1.222   5.412
 8239SOL    HW125616   0.322   1.140   5.356
 8239SOL    HW225617   0.225   1.268   5.387
 8240SOL     OW25618   3.743   4.038   2.512
 8240SOL    HW125619   3.823   4.092   2.540
 8240SOL    HW225620   3.707   4.074   2.426
 8241SOL     OW25621   3.419   5.829   5.864
 8241SOL    HW125622   3.411   5.819   5.764
 8241SOL    HW225623   3.411   5.739   5.907
 8242SOL     OW25624   0.337   4.116   6.142
 8242SOL    HW125625   0.294   4.133   6.054
 8242SOL    HW225626   0.268   4.121   6.214
 8243SOL     OW25627   0.512   3.488   0.798
 8243SOL    HW125628   0.522   3.445   0.887
 8243SOL    HW225629   0.579   3.450   0.734
 8244SOL     OW25630   0.281   0.695   3.621
 8244SOL    HW125631   0.280   0.597   3.641
 8244SOL    HW225632   0.259   0.747   3.705
 8245SOL     OW25633   3.960   1.951   2.079
 8245SOL    HW125634   3.938   2.048   2.068
 8245SOL    HW225635   4.059   1.938   2.069
 8246SOL     OW25636   0.657   3.813   6.213
 8246SOL    HW125637   0.737   3.868   6.190
 8246SOL    HW225638   0.685   3.730   6.261
 8247SOL     OW25639   2.057   0.815   2.789
 8247SOL    HW125640   1.999   0.738   2.817
 8247SOL    HW225641   2.000   0.896   2.774
 8248SOL     OW25642   6.927   4.602   4.901
 8248SOL    HW125643   6.876   4.638   4.823
 8248SOL    HW225644   6.954   4.677   4.962
 8249SOL     OW25645   1.572   2.213   5.924
 8249SOL    HW125646   1.577   2.313   5.921
 8249SOL    HW225647   1.647   2.174   5.871
 8250SOL     OW25648   2.586   2.487   1.579
 8250SOL    HW125649   2.497   2.526   1.557
 8250SOL    HW225650   2.591   2.469   1.677
 8251SOL     OW25651   4.969   3.174   4.692
 8251SOL    HW125652   4.965   3.135   4.784
 8251SOL    HW225653   4.921   3.261   4.691
 8252SOL     OW25654   3.243   1.986   5.967
 8252SOL    HW125655   3.199   1.911   5.917
 8252SOL    HW225656   3.275   1.954   6.056
 8253SOL     OW25657   4.047   5.672   5.917
 8253SOL    HW125658   3.988   5.627   5.849
 8253SOL    HW225659   4.024   5.639   6.008
 8254SOL     OW25660   4.543   4.596   5.381
 8254SOL    HW125661   4.490   4.586   5.465
 8254SOL    HW225662   4.635   4.627   5.403
 8255SOL     OW25663   2.031   6.226   5.266
 8255SOL    HW125664   2.097   6.300   5.278
 8255SOL    HW225665   1.971   6.247   5.189
 8256SOL     OW25666   6.969   6.571   2.357
 8256SOL    HW125667   7.001   6.530   2.272
 8256SOL    HW225668   6.913   6.652   2.336
 8257SOL     OW25669   5.039   3.588   2.803
 8257SOL    HW125670   5.129   3.630   2.815
 8257SOL    HW225671   4.967   3.657   2.817
 8258SOL     OW25672   5.292   2.772   1.100
 8258SOL    HW125673   5.277   2.869   1.079
 8258SOL    HW225674   5.329   2.763   1.192
 8259SOL     OW25675   3.995   1.656   4.803
 8259SOL    HW125676   4.014   1.726   4.873
 8259SOL    HW225677   3.986   1.700   4.714
 8260SOL     OW25678   2.327   6.763   1.114
 8260SOL    HW125679   2.416   6.733   1.079
 8260SOL    HW225680   2.282   6.687   1.160
 8261SOL     OW25681   5.605   6.478   2.630
 8261SOL    HW125682   5.633   6.525   2.547
 8261SOL    HW225683   5.506   6.487   2.642
 8262SOL     OW25684   1.309   2.982   0.312
 8262SOL    HW125685   1.372   2.935   0.250
 8262SOL    HW225686   1.268   3.060   0.265
 8263SOL     OW25687   0.284   2.355   6.339
 8263SOL    HW125688   0.299   2.422   6.412
 8263SOL    HW225689   0.242   2.273   6.378
 8264SOL     OW25690   1.872   6.403   0.747
 8264SOL    HW125691   1.830   6.478   0.797
 8264SOL    HW225692   1.804   6.358   0.690
 8265SOL     OW25693   6.378   0.929   1.752
 8265SOL    HW125694   6.418   0.963   1.837
 8265SOL    HW225695   6.447   0.932   1.680
 8266SOL     OW25696   2.409   1.027   4.991
 8266SOL    HW125697   2.478   1.014   4.920
 8266SOL    HW225698   2.383   1.123   4.994
 8267SOL     OW25699   1.740   3.712   1.382
 8267SOL    HW125700   1.653   3.663   1.389
 8267SOL    HW225701   1.735   3.778   1.307
 8268SOL     OW25702   2.713   6.466   5.909
 8268SOL    HW125703   2.613   6.467   5.898
 8268SOL    HW225704   2.750   6.383   5.868
 8269SOL     OW25705   4.246   1.925   2.143
 8269SOL    HW125706   4.207   1.861   2.210
 8269SOL    HW225707   4.336   1.892   2.114
 8270SOL     OW25708   2.963   6.165   4.401
 8270SOL    HW125709   3.063   6.167   4.404
 8270SOL    HW225710   2.927   6.258   4.401
 8271SOL     OW25711   0.200   0.052   2.940
 8271SOL    HW125712   0.215   6.981   2.974
 8271SOL    HW225713   0.286   0.103   2.947
 8272SOL     OW25714   6.284   1.682   2.704
 8272SOL    HW125715   6.260   1.750   2.774
 8272SOL    HW225716   6.301   1.728   2.617
 8273SOL     OW25717   2.688   1.448   1.032
 8273SOL    HW125718   2.708   1.443   0.934
 8273SOL    HW225719   2.710   1.361   1.075
 8274SOL     OW25720   3.980   5.443   4.530
 8274SOL    HW125721   3.976   5.529   4.581
 8274SOL    HW225722   3.945   5.368   4.587
 8275SOL     OW25723   5.594   0.569   4.565
 8275SOL    HW125724   5.552   0.630   4.631
 8275SOL    HW225725   5.675   0.612   4.525
 8276SOL     OW25726   0.508   1.902   5.179
 8276SOL    HW125727   0.455   1.957   5.243
 8276SOL    HW225728   0.547   1.823   5.227
 8277SOL     OW25729   1.257   6.002   5.752
 8277SOL    HW125730   1.217   6.004   5.844
 8277SOL    HW225731   1.355   5.985   5.759
 8278SOL     OW25732   3.201   1.510   6.909
 8278SOL    HW125733   3.239   1.586   6.856
 8278SOL    HW225734   3.137   1.458   6.852
 8279SOL     OW25735   0.622   6.745   4.721
 8279SOL    HW125736   0.603   6.663   4.776
 8279SOL    HW225737   0.650   6.820   4.781
 8280SOL     OW25738   2.764   2.890   0.693
 8280SOL    HW125739   2.830   2.818   0.675
 8280SOL    HW225740   2.678   2.850   0.724
 8281SOL     OW25741   2.139   4.469   1.712
 8281SOL    HW125742   2.213   4.505   1.656
 8281SOL    HW225743   2.106   4.383   1.673
 8282SOL     OW25744   4.520   3.856   6.663
 8282SOL    HW125745   4.546   3.781   6.724
 8282SOL    HW225746   4.569   3.939   6.690
 8283SOL     OW25747   1.628   4.895   4.976
 8283SOL    HW125748   1.716   4.936   5.000
 8283SOL    HW225749   1.560   4.920   5.045
 8284SOL     OW25750   0.972   3.899   1.521
 8284SOL    HW125751   0.938   3.806   1.506
 8284SOL    HW225752   1.059   3.912   1.474
 8285SOL     OW25753   3.505   4.135   4.164
 8285SOL    HW125754   3.520   4.098   4.073
 8285SOL    HW225755   3.430   4.201   4.161
 8286SOL     OW25756   5.224   1.766   4.835
 8286SOL    HW125757   5.171   1.837   4.789
 8286SOL    HW225758   5.213   1.774   4.934
 8287SOL     OW25759   1.220   4.989   4.490
 8287SOL    HW125760   1.123   4.975   4.471
 8287SOL    HW225761   1.267   4.901   4.496
 8288SOL     OW25762   2.785   2.270   2.272
 8288SOL    HW125763   2.859   2.262   2.339
 8288SOL    HW225764   2.823   2.300   2.184
 8289SOL     OW25765   0.679   6.462   6.171
 8289SOL    HW125766   0.624   6.496   6.247
 8289SOL    HW225767   0.721   6.375   6.196
 8290SOL     OW25768   5.665   1.740   1.098
 8290SOL    HW125769   5.597   1.762   1.169
 8290SOL    HW225770   5.619   1.724   1.011
 8291SOL     OW25771   5.096   4.752   5.449
 8291SOL    HW125772   5.039   4.753   5.367
 8291SOL    HW225773   5.188   4.720   5.426
 8292SOL     OW25774   3.139   6.202   6.648
 8292SOL    HW125775   3.229   6.224   6.687
 8292SOL    HW225776   3.150   6.179   6.551
 8293SOL     OW25777   1.990   5.543   1.087
 8293SOL    HW125778   1.890   5.551   1.093
 8293SOL    HW225779   2.027   5.522   1.177
 8294SOL     OW25780   5.479   3.988   4.922
 8294SOL    HW125781   5.439   4.013   4.834
 8294SOL    HW225782   5.406   3.967   4.987
 8295SOL     OW25783   5.028   3.986   2.466
 8295SOL    HW125784   5.116   4.028   2.443
 8295SOL    HW225785   5.027   3.962   2.563
 8296SOL     OW25786   2.370   5.079   0.142
 8296SOL    HW125787   2.397   5.005   0.080
 8296SOL    HW225788   2.434   5.155   0.134
 8297SOL     OW25789   0.223   3.022   3.085
 8297SOL    HW125790   0.141   3.072   3.111
 8297SOL    HW225791   0.223   2.933   3.129
 8298SOL     OW25792   6.518   1.584   0.854
 8298SOL    HW125793   6.592   1.651   0.866
 8298SOL    HW225794   6.430   1.628   0.873
 8299SOL     OW25795   0.869   2.448   2.865
 8299SOL    HW125796   0.931   2.518   2.828
 8299SOL    HW225797   0.799   2.426   2.796
 8300SOL     OW25798   0.163   6.100   3.822
 8300SOL    HW125799   0.144   6.002   3.822
 8300SOL    HW225800   0.201   6.127   3.910
 8301SOL     OW25801   4.032   0.638   0.349
 8301SOL    HW125802   4.075   0.636   0.440
 8301SOL    HW225803   4.075   0.569   0.291
 8302SOL     OW25804   5.397   6.532   6.164
 8302SOL    HW125805   5.480   6.569   6.122
 8302SOL    HW225806   5.329   6.605   6.175
 8303SOL     OW25807   5.884   0.124   3.728
 8303SOL    HW125808   5.916   0.104   3.636
 8303SOL    HW225809   5.869   0.222   3.738
 8304SOL     OW25810   5.843   3.457   1.476
 8304SOL    HW125811   5.792   3.401   1.410
 8304SOL    HW225812   5.827   3.554   1.457
 8305SOL     OW25813   4.614   4.449   4.061
 8305SOL    HW125814   4.633   4.442   4.159
 8305SOL    HW225815   4.534   4.506   4.046
 8306SOL     OW25816   6.105   1.511   3.806
 8306SOL    HW125817   6.201   1.495   3.782
 8306SOL    HW225818   6.088   1.476   3.898
 8307SOL     OW25819   3.766   5.413   1.837
 8307SOL    HW125820   3.713   5.392   1.755
 8307SOL    HW225821   3.800   5.507   1.831
 8308SOL     OW25822   2.259   5.584   0.581
 8308SOL    HW125823   2.332   5.527   0.616
 8308SOL    HW225824   2.207   5.534   0.512
 8309SOL     OW25825   6.613   6.037   2.879
 8309SOL    HW125826   6.687   5.992   2.929
 8309SOL    HW225827   6.530   6.036   2.934
 8310SOL     OW25828   0.754   5.705   1.303
 8310SOL    HW125829   0.688   5.754   1.361
 8310SOL    HW225830   0.707   5.674   1.220
 8311SOL     OW25831   6.463   2.017   5.541
 8311SOL    HW125832   6.421   1.959   5.610
 8311SOL    HW225833   6.479   2.108   5.579
 8312SOL     OW25834   4.472   0.565   7.015
 8312SOL    HW125835   4.480   0.470   6.984
 8312SOL    HW225836   4.548   0.619   6.977
 8313SOL     OW25837   6.113   0.110   6.525
 8313SOL    HW125838   6.172   0.133   6.603
 8313SOL    HW225839   6.034   0.171   6.525
 8314SOL     OW25840   5.940   6.567   6.792
 8314SOL    HW125841   5.841   6.574   6.783
 8314SOL    HW225842   5.966   6.472   6.811
 8315SOL     OW25843   3.814   2.978   2.140
 8315SOL    HW125844   3.720   3.010   2.124
 8315SOL    HW225845   3.824   2.953   2.237
 8316SOL     OW25846   1.255   2.961   2.290
 8316SOL    HW125847   1.302   3.049   2.300
 8316SOL    HW225848   1.172   2.960   2.345
 8317SOL     OW25849   1.538   2.683   2.966
 8317SOL    HW125850   1.483   2.699   2.884
 8317SOL    HW225851   1.632   2.713   2.949
 8318SOL     OW25852   4.011   2.192   5.566
 8318SOL    HW125853   3.956   2.116   5.532
 8318SOL    HW225854   3.963   2.278   5.549
 8319SOL     OW25855   0.747   1.387   1.055
 8319SOL    HW125856   0.745   1.483   1.029
 8319SOL    HW225857   0.793   1.376   1.143
 8320SOL     OW25858   2.984   3.860   2.524
 8320SOL    HW125859   2.987   3.834   2.621
 8320SOL    HW225860   3.022   3.952   2.513
 8321SOL     OW25861   6.293   6.917   6.572
 8321SOL    HW125862   6.226   6.976   6.527
 8321SOL    HW225863   6.308   6.948   6.666
 8322SOL     OW25864   6.695   0.500   0.591
 8322SOL    HW125865   6.695   0.403   0.617
 8322SOL    HW225866   6.626   0.515   0.521
 8323SOL     OW25867   4.518   4.768   1.891
 8323SOL    HW125868   4.528   4.718   1.806
 8323SOL    HW225869   4.563   4.856   1.884
 8324SOL     OW25870   5.914   6.903   1.559
 8324SOL    HW125871   5.919   6.947   1.469
 8324SOL    HW225872   5.945   6.968   1.628
 8325SOL     OW25873   1.510   3.316   5.123
 8325SOL    HW125874   1.606   3.291   5.135
 8325SOL    HW225875   1.489   3.397   5.177
 8326SOL     OW25876   4.532   3.959   5.479
 8326SOL    HW125877   4.452   3.917   5.436
 8326SOL    HW225878   4.506   4.044   5.523
 8327SOL     OW25879   0.070   0.199   5.648
 8327SOL    HW125880   0.134   0.261   5.602
 8327SOL    HW225881   0.120   0.118   5.679
 8328SOL     OW25882   2.515   6.171   6.697
 8328SOL    HW125883   2.554   6.140   6.610
 8328SOL    HW225884   2.487   6.091   6.751
 8329SOL     OW25885   1.249   3.047   5.805
 8329SOL    HW125886   1.318   3.114   5.779
 8329SOL    HW225887   1.238   2.980   5.731
 8330SOL     OW25888   2.731   0.721   6.301
 8330SOL    HW125889   2.690   0.792   6.359
 8330SOL    HW225890   2.764   0.762   6.217
 8331SOL     OW25891   2.999   0.468   1.000
 8331SOL    HW125892   3.067   0.412   1.048
 8331SOL    HW225893   2.964   0.417   0.922
 8332SOL     OW25894   5.629   5.533   2.560
 8332SOL    HW125895   5.627   5.496   2.467
 8332SOL    HW225896   5.535   5.549   2.591
 8333SOL     OW25897   0.299   5.331   6.413
 8333SOL    HW125898   0.248   5.246   6.426
 8333SOL    HW225899   0.311   5.348   6.315
 8334SOL     OW25900   3.773   1.831   4.373
 8334SOL    HW125901   3.801   1.927   4.377
 8334SOL    HW225902   3.743   1.801   4.463
 8335SOL     OW25903   5.079   0.789   0.261
 8335SOL    HW125904   5.141   0.768   0.185
 8335SOL    HW225905   5.095   0.883   0.292
 8336SOL     OW25906   0.699   4.721   3.010
 8336SOL    HW125907   0.653   4.774   3.081
 8336SOL    HW225908   0.798   4.723   3.026
 8337SOL     OW25909   1.139   6.445   3.445
 8337SOL    HW125910   1.115   6.378   3.375
 8337SOL    HW225911   1.080   6.434   3.525
 8338SOL     OW25912   3.769   5.067   1.841
 8338SOL    HW125913   3.685   5.073   1.787
 8338SOL    HW225914   3.803   5.159   1.860
 8339SOL     OW25915   6.438   0.615   1.717
 8339SOL    HW125916   6.422   0.707   1.681
 8339SOL    HW225917   6.461   0.553   1.642
 8340SOL     OW25918   5.143   3.835   1.170
 8340SOL    HW125919   5.213   3.807   1.235
 8340SOL    HW225920   5.093   3.914   1.206
 8341SOL     OW25921   2.502   6.780   6.788
 8341SOL    HW125922   2.514   6.683   6.808
 8341SOL    HW225923   2.586   6.818   6.751
 8342SOL     OW25924   5.155   6.966   0.072
 8342SOL    HW125925   5.119   6.875   0.052
 8342SOL    HW225926   5.168   7.016   7.008
 8343SOL     OW25927   0.563   5.651   3.740
 8343SOL    HW125928   0.553   5.739   3.786
 8343SOL    HW225929   0.538   5.577   3.803
 8344SOL     OW25930   6.034   5.977   4.469
 8344SOL    HW125931   5.971   5.900   4.485
 8344SOL    HW225932   5.990   6.043   4.408
 8345SOL     OW25933   3.860   2.115   2.499
 8345SOL    HW125934   3.818   2.112   2.409
 8345SOL    HW225935   3.953   2.151   2.491
 8346SOL     OW25936   3.878   4.886   0.420
 8346SOL    HW125937   3.948   4.958   0.422
 8346SOL    HW225938   3.891   4.826   0.499
 8347SOL     OW25939   3.309   6.753   4.341
 8347SOL    HW125940   3.330   6.712   4.252
 8347SOL    HW225941   3.298   6.681   4.410
 8348SOL     OW25942   2.148   1.347   1.181
 8348SOL    HW125943   2.243   1.370   1.160
 8348SOL    HW225944   2.121   1.267   1.127
 8349SOL     OW25945   0.205   0.125   2.242
 8349SOL    HW125946   0.208   0.031   2.205
 8349SOL    HW225947   0.243   0.188   2.174
 8350SOL     OW25948   3.296   6.294   5.970
 8350SOL    HW125949   3.269   6.234   5.894
 8350SOL    HW225950   3.236   6.278   6.048
 8351SOL     OW25951   5.409   5.271   4.502
 8351SOL    HW125952   5.379   5.345   4.442
 8351SOL    HW225953   5.339   5.199   4.505
 8352SOL     OW25954   7.019   0.016   3.576
 8352SOL    HW125955   6.921   7.019   3.564
 8352SOL    HW225956   0.049   6.995   3.501
 8353SOL     OW25957   0.048   4.054   1.441
 8353SOL    HW125958   0.092   4.122   1.381
 8353SOL    HW225959   6.978   4.086   1.465
 8354SOL     OW25960   3.678   0.090   4.662
 8354SOL    HW125961   3.645   0.005   4.702
 8354SOL    HW225962   3.703   0.075   4.566
 8355SOL     OW25963   3.029   1.065   5.747
 8355SOL    HW125964   3.115   1.045   5.794
 8355SOL    HW225965   2.954   1.018   5.793
 8356SOL     OW25966   0.312   6.994   1.790
 8356SOL    HW125967   0.355   7.010   1.701
 8356SOL    HW225968   0.358   0.027   1.860
 8357SOL     OW25969   3.652   0.265   5.380
 8357SOL    HW125970   3.572   0.206   5.388
 8357SOL    HW225971   3.641   0.326   5.302
 8358SOL     OW25972   1.658   4.182   5.067
 8358SOL    HW125973   1.718   4.119   5.116
 8358SOL    HW225974   1.569   4.139   5.052
 8359SOL     OW25975   3.398   0.661   4.958
 8359SOL    HW125976   3.399   0.589   4.889
 8359SOL    HW225977   3.476   0.722   4.945
 8360SOL     OW25978   3.634   6.662   0.338
 8360SOL    HW125979   3.715   6.694   0.387
 8360SOL    HW225980   3.560   6.646   0.404
 8361SOL     OW25981   3.383   0.247   1.751
 8361SOL    HW125982   3.416   0.157   1.723
 8361SOL    HW225983   3.292   0.263   1.712
 8362SOL     OW25984   4.447   1.207   0.985
 8362SOL    HW125985   4.415   1.285   0.932
 8362SOL    HW225986   4.501   1.239   1.063
 8363SOL     OW25987   5.285   3.268   6.992
 8363SOL    HW125988   5.298   3.244   6.896
 8363SOL    HW225989   5.347   3.215   0.028
 8364SOL     OW25990   0.966   2.341   3.710
 8364SOL    HW125991   0.899   2.334   3.637
 8364SOL    HW225992   0.971   2.254   3.760
 8365SOL     OW25993   1.618   3.402   2.465
 8365SOL    HW125994   1.554   3.418   2.390
 8365SOL    HW225995   1.569   3.402   2.552
 8366SOL     OW25996   2.062   5.511   1.536
 8366SOL    HW125997   2.095   5.484   1.446
 8366SOL    HW225998   1.975   5.464   1.554
 8367SOL     OW25999   4.221   5.740   5.027
 8367SOL    HW126000   4.228   5.688   5.112
 8367SOL    HW226001   4.130   5.729   4.988
 8368SOL     OW26002   0.984   0.269   6.548
 8368SOL    HW126003   1.009   0.365   6.560
 8368SOL    HW226004   1.020   0.236   6.460
 8369SOL     OW26005   0.919   0.379   6.242
 8369SOL    HW126006   0.946   0.292   6.283
 8369SOL    HW226007   0.953   0.384   6.148
 8370SOL     OW26008   2.833   1.501   5.916
 8370SOL    HW126009   2.877   1.448   5.843
 8370SOL    HW226010   2.813   1.593   5.882
 8371SOL     OW26011   2.024   4.474   0.715
 8371SOL    HW126012   1.962   4.552   0.701
 8371SOL    HW226013   1.981   4.391   0.680
 8372SOL     OW26014   1.582   5.427   1.818
 8372SOL    HW126015   1.642   5.464   1.890
 8372SOL    HW226016   1.620   5.341   1.784
 8373SOL     OW26017   1.805   0.125   4.009
 8373SOL    HW126018   1.791   0.224   3.999
 8373SOL    HW226019   1.881   0.108   4.071
 8374SOL     OW26020   0.222   0.687   4.959
 8374SOL    HW126021   0.293   0.629   4.998
 8374SOL    HW226022   0.191   0.649   4.872
 8375SOL     OW26023   3.902   6.340   5.026
 8375SOL    HW126024   3.984   6.394   5.045
 8375SOL    HW226025   3.929   6.252   4.987
 8376SOL     OW26026   0.312   1.245   4.359
 8376SOL    HW126027   0.221   1.247   4.317
 8376SOL    HW226028   0.325   1.327   4.415
 8377SOL     OW26029   4.825   6.090   1.035
 8377SOL    HW126030   4.923   6.110   1.028
 8377SOL    HW226031   4.782   6.158   1.095
 8378SOL     OW26032   4.192   5.047   2.722
 8378SOL    HW126033   4.196   4.950   2.700
 8378SOL    HW226034   4.218   5.061   2.818
 8379SOL     OW26035   5.566   3.066   1.255
 8379SOL    HW126036   5.471   3.037   1.238
 8379SOL    HW226037   5.626   2.987   1.250
 8380SOL     OW26038   1.078   0.824   2.486
 8380SOL    HW126039   1.066   0.863   2.577
 8380SOL    HW226040   1.083   0.899   2.419
 8381SOL     OW26041   0.338   2.240   4.170
 8381SOL    HW126042   0.333   2.242   4.070
 8381SOL    HW226043   0.250   2.268   4.208
 8382SOL     OW26044   2.484   6.993   2.660
 8382SOL    HW126045   2.573   0.006   2.632
 8382SOL    HW226046   2.446   0.030   2.732
 8383SOL     OW26047   2.986   6.975   5.513
 8383SOL    HW126048   3.015   6.902   5.575
 8383SOL    HW226049   3.061   0.017   5.499
 8384SOL     OW26050   6.306   1.312   1.637
 8384SOL    HW126051   6.397   1.338   1.671
 8384SOL    HW226052   6.254   1.269   1.711
 8385SOL     OW26053   5.556   2.666   0.213
 8385SOL    HW126054   5.514   2.738   0.267
 8385SOL    HW226055   5.653   2.687   0.197
 8386SOL     OW26056   1.581   5.868   1.707
 8386SOL    HW126057   1.561   5.774   1.678
 8386SOL    HW226058   1.614   5.921   1.629
 8387SOL     OW26059   1.240   1.418   1.492
 8387SOL    HW126060   1.173   1.483   1.529
 8387SOL    HW226061   1.201   1.327   1.488
 8388SOL     OW26062   2.234   0.079   0.491
 8388SOL    HW126063   2.311   0.132   0.456
 8388SOL    HW226064   2.243   0.067   0.590
 8389SOL     OW26065   0.248   3.595   3.749
 8389SOL    HW126066   0.256   3.614   3.652
 8389SOL    HW226067   0.152   3.603   3.777
 8390SOL     OW26068   4.581   0.010   0.471
 8390SOL    HW126069   4.585   6.962   0.542
 8390SOL    HW226070   4.587   6.988   0.381
 8391SOL     OW26071   6.001   5.128   1.144
 8391SOL    HW126072   5.945   5.045   1.138
 8391SOL    HW226073   6.097   5.104   1.133
 8392SOL     OW26074   6.884   4.783   5.118
 8392SOL    HW126075   6.787   4.767   5.101
 8392SOL    HW226076   6.897   4.804   5.215
 8393SOL     OW26077   0.535   0.188   2.677
 8393SOL    HW126078   0.489   0.264   2.721
 8393SOL    HW226079   0.475   0.108   2.676
 8394SOL     OW26080   6.986   2.452   2.039
 8394SOL    HW126081   6.899   2.413   2.006
 8394SOL    HW226082   6.993   2.547   2.009
 8395SOL     OW26083   2.435   6.605   4.486
 8395SOL    HW126084   2.495   6.600   4.565
 8395SOL    HW226085   2.343   6.633   4.516
 8396SOL     OW26086   4.339   5.381   2.718
 8396SOL    HW126087   4.306   5.387   2.812
 8396SOL    HW226088   4.360   5.286   2.696
 8397SOL     OW26089   2.485   0.363   2.710
 8397SOL    HW126090   2.541   0.428   2.659
 8397SOL    HW226091   2.534   0.335   2.793
 8398SOL     OW26092   4.252   2.307   6.667
 8398SOL    HW126093   4.284   2.392   6.708
 8398SOL    HW226094   4.230   2.241   6.739
 8399SOL     OW26095   5.866   5.807   6.816
 8399SOL    HW126096   5.940   5.853   6.767
 8399SOL    HW226097   5.896   5.788   6.910
 8400SOL     OW26098   1.470   1.572   4.580
 8400SOL    HW126099   1.494   1.619   4.495
 8400SOL    HW226100   1.532   1.494   4.593
 8401SOL     OW26101   2.959   1.045   6.379
 8401SOL    HW126102   2.999   1.014   6.292
 8401SOL    HW226103   3.032   1.077   6.439
 8402SOL     OW26104   3.501   2.041   5.625
 8402SOL    HW126105   3.507   1.941   5.623
 8402SOL    HW226106   3.576   2.080   5.571
 8403SOL     OW26107   1.239   1.959   4.397
 8403SOL    HW126108   1.222   2.027   4.469
 8403SOL    HW226109   1.325   1.912   4.416
 8404SOL     OW26110   4.588   6.538   5.702
 8404SOL    HW126111   4.490   6.528   5.719
 8404SOL    HW226112   4.603   6.606   5.631
 8405SOL     OW26113   2.315   0.329   5.390
 8405SOL    HW126114   2.309   0.232   5.368
 8405SOL    HW226115   2.237   0.377   5.351
 8406SOL     OW26116   5.862   0.181   0.397
 8406SOL    HW126117   5.774   0.211   0.362
 8406SOL    HW226118   5.848   0.113   0.469
 8407SOL     OW26119   3.383   6.278   4.048
 8407SOL    HW126120   3.332   6.319   4.124
 8407SOL    HW226121   3.319   6.253   3.974
 8408SOL     OW26122   6.154   3.395   2.461
 8408SOL    HW126123   6.163   3.347   2.374
 8408SOL    HW226124   6.176   3.492   2.449
 8409SOL     OW26125   5.555   2.722   3.854
 8409SOL    HW126126   5.584   2.699   3.761
 8409SOL    HW226127   5.456   2.731   3.857
 8410SOL     OW26128   5.231   0.810   1.978
 8410SOL    HW126129   5.285   0.817   2.062
 8410SOL    HW226130   5.194   0.900   1.954
 8411SOL     OW26131   0.459   4.894   0.160
 8411SOL    HW126132   0.413   4.841   0.089
 8411SOL    HW226133   0.422   4.986   0.162
 8412SOL     OW26134   3.021   1.519   1.197
 8412SOL    HW126135   3.002   1.558   1.287
 8412SOL    HW226136   2.978   1.429   1.190
 8413SOL     OW26137   4.194   5.329   0.040
 8413SOL    HW126138   4.287   5.310   0.008
 8413SOL    HW226139   4.193   5.325   0.140
 8414SOL     OW26140   3.412   5.002   3.539
 8414SOL    HW126141   3.359   5.085   3.556
 8414SOL    HW226142   3.352   4.922   3.546
 8415SOL     OW26143   6.963   5.845   4.374
 8415SOL    HW126144   0.036   5.812   4.377
 8415SOL    HW226145   6.907   5.792   4.437
 8416SOL     OW26146   5.390   3.858   2.610
 8416SOL    HW126147   5.367   3.761   2.601
 8416SOL    HW226148   5.348   3.909   2.535
 8417SOL     OW26149   1.642   3.932   5.967
 8417SOL    HW126150   1.565   3.981   6.008
 8417SOL    HW226151   1.627   3.922   5.869
 8418SOL     OW26152   5.803   4.697   0.979
 8418SOL    HW126153   5.794   4.703   1.078
 8418SOL    HW226154   5.811   4.601   0.953
 8419SOL     OW26155   5.472   0.087   2.248
 8419SOL    HW126156   5.386   0.120   2.289
 8419SOL    HW226157   5.549   0.134   2.290
 8420SOL     OW26158   4.791   6.769   0.479
 8420SOL    HW126159   4.700   6.785   0.516
 8420SOL    HW226160   4.784   6.747   0.381
 8421SOL     OW26161   1.779   5.620   6.545
 8421SOL    HW126162   1.849   5.591   6.610
 8421SOL    HW226163   1.811   5.603   6.452
 8422SOL     OW26164   3.764   1.177   0.678
 8422SOL    HW126165   3.780   1.088   0.634
 8422SOL    HW226166   3.755   1.164   0.777
 8423SOL     OW26167   3.530   4.545   5.962
 8423SOL    HW126168   3.601   4.584   6.021
 8423SOL    HW226169   3.448   4.527   6.017
 8424SOL     OW26170   2.126   2.364   2.639
 8424SOL    HW126171   2.048   2.373   2.700
 8424SOL    HW226172   2.183   2.445   2.646
 8425SOL     OW26173   4.838   5.302   6.701
 8425SOL    HW126174   4.852   5.218   6.649
 8425SOL    HW226175   4.878   5.292   6.792
 8426SOL     OW26176   3.595   3.481   3.381
 8426SOL    HW126177   3.676   3.518   3.334
 8426SOL    HW226178   3.621   3.401   3.435
 8427SOL     OW26179   3.892   3.688   4.505
 8427SOL    HW126180   3.873   3.759   4.438
 8427SOL    HW226181   3.879   3.724   4.597
 8428SOL     OW26182   0.503   5.290   1.450
 8428SOL    HW126183   0.573   5.272   1.380
 8428SOL    HW226184   0.541   5.273   1.541
 8429SOL     OW26185   1.811   5.926   4.327
 8429SOL    HW126186   1.798   6.025   4.312
 8429SOL    HW226187   1.879   5.892   4.262
 8430SOL     OW26188   3.272   5.221   3.590
 8430SOL    HW126189   3.346   5.284   3.566
 8430SOL    HW226190   3.191   5.243   3.535
 8431SOL     OW26191   3.574   4.449   0.412
 8431SOL    HW126192   3.475   4.458   0.415
 8431SOL    HW226193   3.598   4.360   0.372
 8432SOL     OW26194   5.157   6.978   6.063
 8432SOL    HW126195   5.212   0.038   6.079
 8432SOL    HW226196   5.200   6.899   6.108
 8433SOL     OW26197   5.025   2.766   0.730
 8433SOL    HW126198   5.017   2.749   0.828
 8433SOL    HW226199   5.118   2.746   0.699
 8434SOL     OW26200   2.628   6.562   4.705
 8434SOL    HW126201   2.604   6.469   4.735
 8434SOL    HW226202   2.593   6.628   4.771
 8435SOL     OW26203   6.051   1.081   1.610
 8435SOL    HW126204   6.113   1.159   1.602
 8435SOL    HW226205   5.959   1.108   1.583
 8436SOL     OW26206   3.831   6.979   3.288
 8436SOL    HW126207   3.827   6.955   3.191
 8436SOL    HW226208   3.745   0.002   3.315
 8437SOL     OW26209   1.981   0.497   4.159
 8437SOL    HW126210   1.952   0.460   4.071
 8437SOL    HW226211   1.904   0.542   4.205
 8438SOL     OW26212   2.416   4.367   2.537
 8438SOL    HW126213   2.402   4.336   2.632
 8438SOL    HW226214   2.463   4.455   2.538
 8439SOL     OW26215   6.660   4.923   2.259
 8439SOL    HW126216   6.711   4.950   2.340
 8439SOL    HW226217   6.712   4.854   2.209
 8440SOL     OW26218   1.493   2.668   3.657
 8440SOL    HW126219   1.535   2.658   3.568
 8440SOL    HW226220   1.466   2.578   3.692
 8441SOL     OW26221   6.121   6.517   0.275
 8441SOL    HW126222   6.182   6.456   0.326
 8441SOL    HW226223   6.154   6.526   0.181
 8442SOL     OW26224   3.080   1.415   4.939
 8442SOL    HW126225   3.133   1.500   4.941
 8442SOL    HW226226   3.140   1.338   4.920
 8443SOL     OW26227   2.150   5.185   3.887
 8443SOL    HW126228   2.130   5.087   3.877
 8443SOL    HW226229   2.226   5.197   3.951
 8444SOL     OW26230   2.857   5.896   3.457
 8444SOL    HW126231   2.809   5.871   3.373
 8444SOL    HW226232   2.790   5.908   3.531
 8445SOL     OW26233   3.881   6.729   0.481
 8445SOL    HW126234   3.891   6.695   0.574
 8445SOL    HW226235   3.937   6.811   0.469
 8446SOL     OW26236   4.698   4.669   6.464
 8446SOL    HW126237   4.669   4.582   6.505
 8446SOL    HW226238   4.650   4.744   6.509
 8447SOL     OW26239   4.989   2.279   2.142
 8447SOL    HW126240   4.933   2.352   2.102
 8447SOL    HW226241   5.027   2.223   2.068
 8448SOL     OW26242   4.718   5.997   4.014
 8448SOL    HW126243   4.700   5.953   3.926
 8448SOL    HW226244   4.792   5.949   4.061
 8449SOL     OW26245   6.750   2.752   3.780
 8449SOL    HW126246   6.788   2.844   3.794
 8449SOL    HW226247   6.819   2.694   3.737
 8450SOL     OW26248   0.606   6.655   1.354
 8450SOL    HW126249   0.683   6.709   1.388
 8450SOL    HW226250   0.571   6.597   1.428
 8451SOL     OW26251   3.841   2.030   0.139
 8451SOL    HW126252   3.882   2.093   0.073
 8451SOL    HW226253   3.743   2.022   0.121
 8452SOL     OW26254   5.613   1.421   3.021
 8452SOL    HW126255   5.571   1.511   3.015
 8452SOL    HW226256   5.554   1.360   3.074
 8453SOL     OW26257   0.111   4.366   6.524
 8453SOL    HW126258   0.162   4.430   6.581
 8453SOL    HW226259   0.020   4.352   6.564
 8454SOL     OW26260   6.860   6.993   1.468
 8454SOL    HW126261   6.928   0.001   1.535
 8454SOL    HW226262   6.821   6.905   1.497
 8455SOL     OW26263   6.701   2.973   1.812
 8455SOL    HW126264   6.753   3.046   1.768
 8455SOL    HW226265   6.761   2.919   1.872
 8456SOL     OW26266   4.721   6.235   2.956
 8456SOL    HW126267   4.665   6.295   3.014
 8456SOL    HW226268   4.671   6.150   2.938
 8457SOL     OW26269   6.769   6.626   4.729
 8457SOL    HW126270   6.823   6.709   4.720
 8457SOL    HW226271   6.769   6.596   4.825
 8458SOL     OW26272   3.150   1.143   6.549
 8458SOL    HW126273   3.237   1.106   6.517
 8458SOL    HW226274   3.163   1.238   6.579
 8459SOL     OW26275   2.924   5.912   2.224
 8459SOL    HW126276   3.000   5.858   2.260
 8459SOL    HW226277   2.956   5.970   2.150
 8460SOL     OW26278   4.330   3.543   5.671
 8460SOL    HW126279   4.419   3.576   5.639
 8460SOL    HW226280   4.265   3.620   5.675
 8461SOL     OW26281   0.257   4.271   3.797
 8461SOL    HW126282   0.221   4.197   3.854
 8461SOL    HW226283   0.259   4.241   3.701
 8462SOL     OW26284   3.141   2.722   6.416
 8462SOL    HW126285   3.046   2.690   6.417
 8462SOL    HW226286   3.188   2.684   6.337
 8463SOL     OW26287   6.387   0.103   1.169
 8463SOL    HW126288   6.390   0.198   1.201
 8463SOL    HW226289   6.324   0.096   1.092
 8464SOL     OW26290   5.635   3.451   4.832
 8464SOL    HW126291   5.717   3.420   4.785
 8464SOL    HW226292   5.554   3.417   4.783
 8465SOL     OW26293   0.780   2.374   1.194
 8465SOL    HW126294   0.834   2.292   1.175
 8465SOL    HW226295   0.797   2.405   1.287
 8466SOL     OW26296   0.653   0.016   4.403
 8466SOL    HW126297   0.663   6.953   4.352
 8466SOL    HW226298   0.629   7.018   4.498
 8467SOL     OW26299   4.290   6.910   0.887
 8467SOL    HW126300   4.206   6.943   0.844
 8467SOL    HW226301   4.272   6.821   0.930
 8468SOL     OW26302   3.709   2.243   6.535
 8468SOL    HW126303   3.780   2.246   6.605
 8468SOL    HW226304   3.660   2.331   6.533
 8469SOL     OW26305   3.219   1.407   6.259
 8469SOL    HW126306   3.126   1.388   6.227
 8469SOL    HW226307   3.271   1.452   6.186
 8470SOL     OW26308   1.972   3.782   0.194
 8470SOL    HW126309   1.975   3.827   0.105
 8470SOL    HW226310   1.917   3.836   0.257
 8471SOL     OW26311   3.566   0.903   3.137
 8471SOL    HW126312   3.646   0.861   3.179
 8471SOL    HW226313   3.593   0.985   3.087
 8472SOL     OW26314   6.839   0.803   5.189
 8472SOL    HW126315   6.913   0.754   5.235
 8472SOL    HW226316   6.852   0.798   5.090
 8473SOL     OW26317   6.687   5.963   6.648
 8473SOL    HW126318   6.643   5.973   6.737
 8473SOL    HW226319   6.783   5.989   6.654
 8474SOL     OW26320   3.423   3.104   1.691
 8474SOL    HW126321   3.507   3.143   1.729
 8474SOL    HW226322   3.374   3.053   1.762
 8475SOL     OW26323   6.938   2.408   3.834
 8475SOL    HW126324   0.000   2.358   3.857
 8475SOL    HW226325   6.930   2.488   3.894
 8476SOL     OW26326   6.658   2.338   0.801
 8476SOL    HW126327   6.569   2.361   0.841
 8476SOL    HW226328   6.722   2.412   0.818
 8477SOL     OW26329   5.218   6.806   0.842
 8477SOL    HW126330   5.232   6.900   0.809
 8477SOL    HW226331   5.304   6.755   0.835
 8478SOL     OW26332   1.270   6.929   6.051
 8478SOL    HW126333   1.303   6.909   5.959
 8478SOL    HW226334   1.338   6.900   6.118
 8479SOL     OW26335   0.571   2.744   1.348
 8479SOL    HW126336   0.491   2.790   1.386
 8479SOL    HW226337   0.608   2.799   1.273
 8480SOL     OW26338   4.568   1.981   7.001
 8480SOL    HW126339   4.667   1.994   6.995
 8480SOL    HW226340   4.522   2.054   6.950
 8481SOL     OW26341   4.000   2.097   4.006
 8481SOL    HW126342   4.067   2.166   3.981
 8481SOL    HW226343   4.035   2.044   4.084
 8482SOL     OW26344   4.474   5.935   1.691
 8482SOL    HW126345   4.414   5.948   1.613
 8482SOL    HW226346   4.422   5.899   1.768
 8483SOL     OW26347   4.947   6.378   2.311
 8483SOL    HW126348   4.901   6.291   2.295
 8483SOL    HW226349   4.881   6.453   2.306
 8484SOL     OW26350   0.386   6.207   3.630
 8484SOL    HW126351   0.358   6.175   3.539
 8484SOL    HW226352   0.320   6.175   3.698
 8485SOL     OW26353   3.966   2.741   0.009
 8485SOL    HW126354   3.932   2.664   0.063
 8485SOL    HW226355   4.065   2.734   7.020
 8486SOL     OW26356   3.536   0.903   2.609
 8486SOL    HW126357   3.604   0.971   2.580
 8486SOL    HW226358   3.445   0.936   2.586
 8487SOL     OW26359   5.961   1.748   6.108
 8487SOL    HW126360   5.942   1.845   6.118
 8487SOL    HW226361   5.902   1.709   6.038
 8488SOL     OW26362   5.516   6.084   0.410
 8488SOL    HW126363   5.490   5.995   0.448
 8488SOL    HW226364   5.434   6.132   0.379
 8489SOL     OW26365   6.077   1.994   0.985
 8489SOL    HW126366   6.113   2.005   1.078
 8489SOL    HW226367   6.146   2.025   0.919
 8490SOL     OW26368   4.680   6.325   3.983
 8490SOL    HW126369   4.736   6.379   3.920
 8490SOL    HW226370   4.721   6.235   3.997
 8491SOL     OW26371   2.564   6.318   0.712
 8491SOL    HW126372   2.492   6.262   0.753
 8491SOL    HW226373   2.599   6.272   0.630
 8492SOL     OW26374   5.096   4.195   5.760
 8492SOL    HW126375   5.165   4.174   5.830
 8492SOL    HW226376   5.005   4.187   5.800
 8493SOL     OW26377   2.859   2.784   6.736
 8493SOL    HW126378   2.900   2.871   6.761
 8493SOL    HW226379   2.768   2.799   6.698
 8494SOL     OW26380   3.267   5.210   1.353
 8494SOL    HW126381   3.200   5.238   1.285
 8494SOL    HW226382   3.354   5.189   1.308
 8495SOL     OW26383   6.280   5.179   2.640
 8495SOL    HW126384   6.352   5.147   2.579
 8495SOL    HW226385   6.201   5.207   2.585
 8496SOL     OW26386   0.915   2.231   2.170
 8496SOL    HW126387   0.829   2.251   2.216
 8496SOL    HW226388   0.955   2.147   2.208
 8497SOL     OW26389   6.340   0.854   3.777
 8497SOL    HW126390   6.276   0.896   3.841
 8497SOL    HW226391   6.322   0.756   3.771
 8498SOL     OW26392   6.701   6.296   2.914
 8498SOL    HW126393   6.727   6.335   2.825
 8498SOL    HW226394   6.670   6.201   2.900
 8499SOL     OW26395   2.162   5.073   6.605
 8499SOL    HW126396   2.147   4.996   6.543
 8499SOL    HW226397   2.173   5.038   6.699
 8500SOL     OW26398   1.722   6.172   5.144
 8500SOL    HW126399   1.706   6.081   5.181
 8500SOL    HW226400   1.799   6.169   5.079
 8501SOL     OW26401   0.735   1.997   6.800
 8501SOL    HW126402   0.729   1.898   6.800
 8501SOL    HW226403   0.827   2.026   6.824
 8502SOL     OW26404   1.177   3.849   0.856
 8502SOL    HW126405   1.205   3.894   0.940
 8502SOL    HW226406   1.196   3.751   0.863
 8503SOL     OW26407   1.639   6.992   3.847
 8503SOL    HW126408   1.679   6.928   3.781
 8503SOL    HW226409   1.705   0.042   3.869
 8504SOL     OW26410   2.720   5.127   2.431
 8504SOL    HW126411   2.707   5.033   2.462
 8504SOL    HW226412   2.755   5.126   2.337
 8505SOL     OW26413   4.921   3.534   3.926
 8505SOL    HW126414   4.941   3.595   4.002
 8505SOL    HW226415   4.987   3.459   3.926
 8506SOL     OW26416   6.986   0.751   6.342
 8506SOL    HW126417   7.018   0.845   6.354
 8506SOL    HW226418   6.891   0.752   6.311
 8507SOL     OW26419   3.787   1.337   5.396
 8507SOL    HW126420   3.834   1.396   5.330
 8507SOL    HW226421   3.833   1.248   5.400
 8508SOL     OW26422   6.029   1.808   5.138
 8508SOL    HW126423   6.008   1.902   5.114
 8508SOL    HW226424   6.100   1.772   5.077
 8509SOL     OW26425   4.212   1.500   4.002
 8509SOL    HW126426   4.290   1.506   3.940
 8509SOL    HW226427   4.209   1.408   4.042
 8510SOL     OW26428   5.843   4.183   3.472
 8510SOL    HW126429   5.760   4.131   3.491
 8510SOL    HW226430   5.902   4.184   3.553
 8511SOL     OW26431   6.270   3.540   2.141
 8511SOL    HW126432   6.241   3.566   2.233
 8511SOL    HW226433   6.254   3.442   2.127
 8512SOL     OW26434   3.304   2.127   1.775
 8512SOL    HW126435   3.304   2.144   1.873
 8512SOL    HW226436   3.212   2.143   1.738
 8513SOL     OW26437   5.594   4.389   1.245
 8513SOL    HW126438   5.538   4.374   1.163
 8513SOL    HW226439   5.675   4.331   1.241
 8514SOL     OW26440   2.478   2.469   3.840
 8514SOL    HW126441   2.508   2.532   3.912
 8514SOL    HW226442   2.504   2.507   3.751
 8515SOL     OW26443   5.661   1.435   0.631
 8515SOL    HW126444   5.606   1.368   0.582
 8515SOL    HW226445   5.680   1.512   0.571
 8516SOL     OW26446   6.144   2.597   1.405
 8516SOL    HW126447   6.178   2.679   1.450
 8516SOL    HW226448   6.200   2.577   1.325
 8517SOL     OW26449   1.655   2.861   6.437
 8517SOL    HW126450   1.731   2.802   6.413
 8517SOL    HW226451   1.570   2.822   6.403
 8518SOL     OW26452   4.593   4.110   6.723
 8518SOL    HW126453   4.677   4.151   6.758
 8518SOL    HW226454   4.558   4.166   6.648
 8519SOL     OW26455   1.419   4.196   1.873
 8519SOL    HW126456   1.451   4.116   1.823
 8519SOL    HW226457   1.323   4.182   1.900
 8520SOL     OW26458   3.917   2.457   0.150
 8520SOL    HW126459   3.840   2.490   0.095
 8520SOL    HW226460   3.887   2.445   0.245
 8521SOL     OW26461   1.857   5.237   6.278
 8521SOL    HW126462   1.945   5.248   6.325
 8521SOL    HW226463   1.783   5.239   6.346
 8522SOL     OW26464   1.361   6.684   1.073
 8522SOL    HW126465   1.283   6.658   1.016
 8522SOL    HW226466   1.436   6.619   1.060
 8523SOL     OW26467   1.972   6.445   6.782
 8523SOL    HW126468   1.969   6.479   6.688
 8523SOL    HW226469   2.006   6.351   6.782
 8524SOL     OW26470   0.218   2.216   4.759
 8524SOL    HW126471   0.217   2.311   4.791
 8524SOL    HW226472   0.311   2.192   4.729
 8525SOL     OW26473   6.312   3.837   3.204
 8525SOL    HW126474   6.349   3.894   3.131
 8525SOL    HW226475   6.334   3.742   3.186
 8526SOL     OW26476   3.996   5.630   0.026
 8526SOL    HW126477   4.013   5.537   7.016
 8526SOL    HW226478   3.900   5.640   0.051
 8527SOL     OW26479   2.717   0.455   6.181
 8527SOL    HW126480   2.796   0.443   6.122
 8527SOL    HW226481   2.732   0.533   6.243
 8528SOL     OW26482   3.774   2.298   5.975
 8528SOL    HW126483   3.801   2.335   6.064
 8528SOL    HW226484   3.698   2.352   5.938
 8529SOL     OW26485   0.716   0.499   1.422
 8529SOL    HW126486   0.704   0.565   1.348
 8529SOL    HW226487   0.629   0.453   1.440
 8530SOL     OW26488   3.170   4.058   4.574
 8530SOL    HW126489   3.218   3.982   4.530
 8530SOL    HW226490   3.224   4.092   4.651
 8531SOL     OW26491   6.510   5.164   2.501
 8531SOL    HW126492   6.551   5.160   2.409
 8531SOL    HW226493   6.545   5.244   2.549
 8532SOL     OW26494   3.651   5.210   4.427
 8532SOL    HW126495   3.653   5.308   4.446
 8532SOL    HW226496   3.694   5.192   4.338
 8533SOL     OW26497   1.759   0.316   5.870
 8533SOL    HW126498   1.795   0.366   5.949
 8533SOL    HW226499   1.660   0.330   5.865
 8534SOL     OW26500   6.304   3.136   4.007
 8534SOL    HW126501   6.239   3.209   3.983
 8534SOL    HW226502   6.258   3.047   3.999
 8535SOL     OW26503   6.613   1.555   4.640
 8535SOL    HW126504   6.536   1.612   4.670
 8535SOL    HW226505   6.655   1.511   4.720
 8536SOL     OW26506   6.265   2.324   4.915
 8536SOL    HW126507   6.263   2.265   4.835
 8536SOL    HW226508   6.308   2.277   4.991
 8537SOL     OW26509   5.259   1.533   1.749
 8537SOL    HW126510   5.220   1.503   1.662
 8537SOL    HW226511   5.202   1.604   1.788
 8538SOL     OW26512   0.876   1.062   6.212
 8538SOL    HW126513   0.818   1.091   6.288
 8538SOL    HW226514   0.830   0.991   6.159
 8539SOL     OW26515   5.594   1.171   1.832
 8539SOL    HW126516   5.562   1.097   1.891
 8539SOL    HW226517   5.685   1.200   1.862
 8540SOL     OW26518   4.643   0.497   0.220
 8540SOL    HW126519   4.566   0.527   0.164
 8540SOL    HW226520   4.610   0.465   0.309
 8541SOL     OW26521   2.786   1.954   4.680
 8541SOL    HW126522   2.725   2.032   4.693
 8541SOL    HW226523   2.836   1.936   4.764
 8542SOL     OW26524   3.637   4.611   6.717
 8542SOL    HW126525   3.639   4.614   6.817
 8542SOL    HW226526   3.632   4.704   6.680
 8543SOL     OW26527   3.128   0.577   0.344
 8543SOL    HW126528   3.130   0.672   0.315
 8543SOL    HW226529   3.071   0.524   0.282
 8544SOL     OW26530   5.415   3.081   4.890
 8544SOL    HW126531   5.378   3.037   4.807
 8544SOL    HW226532   5.341   3.130   4.936
 8545SOL     OW26533   4.571   6.446   4.704
 8545SOL    HW126534   4.478   6.411   4.698
 8545SOL    HW226535   4.578   6.532   4.654
 8546SOL     OW26536   0.592   0.436   3.306
 8546SOL    HW126537   0.615   0.422   3.210
 8546SOL    HW226538   0.543   0.356   3.341
 8547SOL     OW26539   1.634   6.667   6.378
 8547SOL    HW126540   1.552   6.688   6.325
 8547SOL    HW226541   1.676   6.584   6.342
 8548SOL     OW26542   6.280   3.310   5.625
 8548SOL    HW126543   6.313   3.356   5.542
 8548SOL    HW226544   6.202   3.251   5.601
 8549SOL     OW26545   1.293   2.864   4.304
 8549SOL    HW126546   1.198   2.840   4.285
 8549SOL    HW226547   1.352   2.788   4.277
 8550SOL     OW26548   1.886   4.799   6.658
 8550SOL    HW126549   1.801   4.788   6.608
 8550SOL    HW226550   1.959   4.823   6.593
 8551SOL     OW26551   2.680   3.512   6.513
 8551SOL    HW126552   2.740   3.503   6.593
 8551SOL    HW226553   2.586   3.490   6.539
 8552SOL     OW26554   3.064   0.498   3.478
 8552SOL    HW126555   3.051   0.558   3.557
 8552SOL    HW226556   2.997   0.424   3.480
 8553SOL     OW26557   4.113   3.784   6.554
 8553SOL    HW126558   4.176   3.810   6.627
 8553SOL    HW226559   4.130   3.841   6.473
 8554SOL     OW26560   0.807   4.725   0.672
 8554SOL    HW126561   0.708   4.711   0.660
 8554SOL    HW226562   0.824   4.817   0.705
 8555SOL     OW26563   2.532   1.363   3.549
 8555SOL    HW126564   2.457   1.314   3.504
 8555SOL    HW226565   2.591   1.404   3.479
 8556SOL     OW26566   1.046   5.909   5.054
 8556SOL    HW126567   1.062   5.972   5.130
 8556SOL    HW226568   0.948   5.901   5.038
 8557SOL     OW26569   6.152   6.994   2.938
 8557SOL    HW126570   6.074   6.944   2.900
 8557SOL    HW226571   6.118   0.051   2.990
 8558SOL     OW26572   2.003   4.366   3.020
 8558SOL    HW126573   2.063   4.433   2.977
 8558SOL    HW226574   1.936   4.413   3.078
 8559SOL     OW26575   1.558   0.609   2.310
 8559SOL    HW126576   1.515   0.550   2.242
 8559SOL    HW226577   1.488   0.647   2.371
 8560SOL     OW26578   6.633   6.535   1.743
 8560SOL    HW126579   6.601   6.442   1.725
 8560SOL    HW226580   6.695   6.534   1.822
 8561SOL     OW26581   3.606   0.174   2.428
 8561SOL    HW126582   3.526   0.219   2.389
 8561SOL    HW226583   3.680   0.240   2.438
 8562SOL     OW26584   4.176   6.341   6.007
 8562SOL    HW126585   4.109   6.350   5.934
 8562SOL    HW226586   4.132   6.356   6.096
 8563SOL     OW26587   1.846   4.391   0.334
 8563SOL    HW126588   1.888   4.481   0.347
 8563SOL    HW226589   1.766   4.399   0.274
 8564SOL     OW26590   3.272   0.910   4.937
 8564SOL    HW126591   3.225   0.924   5.024
 8564SOL    HW226592   3.303   0.815   4.930
 8565SOL     OW26593   3.833   5.194   1.122
 8565SOL    HW126594   3.835   5.267   1.190
 8565SOL    HW226595   3.921   5.189   1.074
 8566SOL     OW26596   1.343   0.118   1.441
 8566SOL    HW126597   1.322   0.215   1.449
 8566SOL    HW226598   1.316   0.085   1.350
 8567SOL     OW26599   0.638   2.669   3.427
 8567SOL    HW126600   0.563   2.719   3.383
 8567SOL    HW226601   0.601   2.606   3.494
 8568SOL     OW26602   5.394   1.436   6.934
 8568SOL    HW126603   5.435   1.360   6.984
 8568SOL    HW226604   5.440   1.521   6.958
 8569SOL     OW26605   4.671   1.097   6.266
 8569SOL    HW126606   4.648   1.000   6.271
 8569SOL    HW226607   4.767   1.109   6.293
 8570SOL     OW26608   1.712   1.797   4.861
 8570SOL    HW126609   1.625   1.750   4.875
 8570SOL    HW226610   1.744   1.780   4.768
 8571SOL     OW26611   1.437   5.648   5.069
 8571SOL    HW126612   1.421   5.730   5.124
 8571SOL    HW226613   1.532   5.646   5.040
 8572SOL     OW26614   3.554   4.881   6.402
 8572SOL    HW126615   3.647   4.862   6.369
 8572SOL    HW226616   3.550   4.867   6.501
 8573SOL     OW26617   3.315   6.250   6.881
 8573SOL    HW126618   3.324   6.150   6.875
 8573SOL    HW226619   3.283   6.275   6.973
 8574SOL     OW26620   0.209   6.242   6.091
 8574SOL    HW126621   0.128   6.206   6.045
 8574SOL    HW226622   0.275   6.169   6.106
 8575SOL     OW26623   2.368   2.768   4.637
 8575SOL    HW126624   2.349   2.734   4.545
 8575SOL    HW226625   2.446   2.718   4.676
 8576SOL     OW26626   1.264   5.045   6.075
 8576SOL    HW126627   1.275   4.952   6.039
 8576SOL    HW226628   1.331   5.106   6.032
 8577SOL     OW26629   0.829   6.435   4.936
 8577SOL    HW126630   0.791   6.424   4.845
 8577SOL    HW226631   0.899   6.506   4.935
 8578SOL     OW26632   5.607   6.528   3.997
 8578SOL    HW126633   5.561   6.523   4.085
 8578SOL    HW226634   5.705   6.538   4.011
 8579SOL     OW26635   2.053   0.083   1.985
 8579SOL    HW126636   2.071   0.158   2.048
 8579SOL    HW226637   2.054   0.118   1.891
 8580SOL     OW26638   2.268   5.874   1.588
 8580SOL    HW126639   2.186   5.893   1.534
 8580SOL    HW226640   2.299   5.957   1.633
 8581SOL     OW26641   3.499   3.757   1.584
 8581SOL    HW126642   3.529   3.826   1.519
 8581SOL    HW226643   3.399   3.763   1.595
 8582SOL     OW26644   4.353   4.594   4.012
 8582SOL    HW126645   4.292   4.568   3.936
 8582SOL    HW226646   4.366   4.693   4.012
 8583SOL     OW26647   5.474   0.918   4.285
 8583SOL    HW126648   5.454   0.938   4.382
 8583SOL    HW226649   5.443   0.826   4.263
 8584SOL     OW26650   0.758   5.181   5.479
 8584SOL    HW126651   0.740   5.243   5.556
 8584SOL    HW226652   0.676   5.127   5.460
 8585SOL     OW26653   0.574   6.224   5.907
 8585SOL    HW126654   0.556   6.243   5.810
 8585SOL    HW226655   0.540   6.132   5.929
 8586SOL     OW26656   3.097   6.440   2.262
 8586SOL    HW126657   3.155   6.503   2.314
 8586SOL    HW226658   3.143   6.416   2.177
 8587SOL     OW26659   1.148   6.741   3.737
 8587SOL    HW126660   1.082   6.702   3.801
 8587SOL    HW226661   1.109   6.823   3.695
 8588SOL     OW26662   2.805   1.499   0.419
 8588SOL    HW126663   2.712   1.477   0.449
 8588SOL    HW226664   2.820   1.597   0.428
 8589SOL     OW26665   4.593   2.707   5.611
 8589SOL    HW126666   4.678   2.697   5.662
 8589SOL    HW226667   4.535   2.627   5.627
 8590SOL     OW26668   6.880   5.956   3.872
 8590SOL    HW126669   6.826   5.963   3.955
 8590SOL    HW226670   6.946   5.881   3.880
 8591SOL     OW26671   0.356   3.762   6.848
 8591SOL    HW126672   0.272   3.761   6.902
 8591SOL    HW226673   0.435   3.773   6.910
 8592SOL     OW26674   6.739   2.827   6.266
 8592SOL    HW126675   6.766   2.739   6.305
 8592SOL    HW226676   6.643   2.844   6.286
 8593SOL     OW26677   2.234   1.171   0.893
 8593SOL    HW126678   2.247   1.270   0.895
 8593SOL    HW226679   2.319   1.126   0.866
 8594SOL     OW26680   4.215   2.378   5.505
 8594SOL    HW126681   4.145   2.309   5.524
 8594SOL    HW226682   4.204   2.454   5.569
 8595SOL     OW26683   0.440   2.277   3.156
 8595SOL    HW126684   0.529   2.295   3.200
 8595SOL    HW226685   0.428   2.339   3.078
 8596SOL     OW26686   1.071   5.430   3.206
 8596SOL    HW126687   1.158   5.388   3.229
 8596SOL    HW226688   1.046   5.498   3.275
 8597SOL     OW26689   4.360   1.653   0.924
 8597SOL    HW126690   4.357   1.685   1.019
 8597SOL    HW226691   4.270   1.665   0.882
 8598SOL     OW26692   6.129   0.472   0.769
 8598SOL    HW126693   6.158   0.538   0.700
 8598SOL    HW226694   6.209   0.422   0.803
 8599SOL     OW26695   1.197   2.549   5.065
 8599SOL    HW126696   1.106   2.531   5.029
 8599SOL    HW226697   1.262   2.484   5.026
 8600SOL     OW26698   5.519   4.718   4.655
 8600SOL    HW126699   5.567   4.664   4.724
 8600SOL    HW226700   5.575   4.796   4.629
 8601SOL     OW26701   1.214   1.542   4.503
 8601SOL    HW126702   1.308   1.546   4.535
 8601SOL    HW226703   1.190   1.448   4.479
 8602SOL     OW26704   2.795   5.199   1.512
 8602SOL    HW126705   2.833   5.275   1.564
 8602SOL    HW226706   2.711   5.167   1.556
 8603SOL     OW26707   4.704   6.023   0.804
 8603SOL    HW126708   4.698   6.069   0.893
 8603SOL    HW226709   4.770   6.071   0.746
 8604SOL     OW26710   0.309   3.169   5.040
 8604SOL    HW126711   0.398   3.125   5.041
 8604SOL    HW226712   0.315   3.257   5.087
 8605SOL     OW26713   2.852   6.095   3.767
 8605SOL    HW126714   2.832   6.174   3.708
 8605SOL    HW226715   2.933   6.048   3.733
 8606SOL     OW26716   1.758   3.098   6.336
 8606SOL    HW126717   1.825   3.154   6.385
 8606SOL    HW226718   1.736   3.017   6.390
 8607SOL     OW26719   3.573   5.991   0.847
 8607SOL    HW126720   3.616   6.041   0.772
 8607SOL    HW226721   3.629   6.001   0.929
 8608SOL     OW26722   3.931   4.866   2.680
 8608SOL    HW126723   3.866   4.839   2.609
 8608SOL    HW226724   3.881   4.897   2.761
 8609SOL     OW26725   5.093   0.689   2.571
 8609SOL    HW126726   5.010   0.701   2.624
 8609SOL    HW226727   5.086   0.741   2.486
 8610SOL     OW26728   1.650   2.206   2.894
 8610SOL    HW126729   1.559   2.166   2.887
 8610SOL    HW226730   1.647   2.287   2.952
 8611SOL     OW26731   2.846   1.365   5.091
 8611SOL    HW126732   2.764   1.365   5.034
 8611SOL    HW226733   2.927   1.364   5.032
 8612SOL     OW26734   2.707   3.634   1.079
 8612SOL    HW126735   2.668   3.609   0.990
 8612SOL    HW226736   2.725   3.551   1.132
 8613SOL     OW26737   2.205   1.747   1.189
 8613SOL    HW126738   2.273   1.789   1.248
 8613SOL    HW226739   2.127   1.809   1.179
 8614SOL     OW26740   0.925   2.518   2.125
 8614SOL    HW126741   1.007   2.514   2.068
 8614SOL    HW226742   0.899   2.425   2.152
 8615SOL     OW26743   4.334   1.053   4.984
 8615SOL    HW126744   4.402   1.056   5.057
 8615SOL    HW226745   4.378   1.077   4.897
 8616SOL     OW26746   3.079   4.459   1.641
 8616SOL    HW126747   3.041   4.508   1.563
 8616SOL    HW226748   3.021   4.474   1.721
 8617SOL     OW26749   6.237   1.371   6.500
 8617SOL    HW126750   6.307   1.322   6.448
 8617SOL    HW226751   6.159   1.392   6.441
 8618SOL     OW26752   5.773   5.645   0.878
 8618SOL    HW126753   5.827   5.719   0.839
 8618SOL    HW226754   5.676   5.667   0.872
 8619SOL     OW26755   3.919   4.810   2.324
 8619SOL    HW126756   3.916   4.813   2.224
 8619SOL    HW226757   4.013   4.821   2.355
 8620SOL     OW26758   1.405   0.821   3.835
 8620SOL    HW126759   1.487   0.869   3.867
 8620SOL    HW226760   1.400   0.732   3.879
 8621SOL     OW26761   5.728   1.723   2.911
 8621SOL    HW126762   5.814   1.747   2.956
 8621SOL    HW226763   5.660   1.794   2.928
 8622SOL     OW26764   5.757   3.437   0.811
 8622SOL    HW126765   5.729   3.476   0.723
 8622SOL    HW226766   5.776   3.340   0.800
 8623SOL     OW26767   0.969   3.685   4.408
 8623SOL    HW126768   1.065   3.714   4.412
 8623SOL    HW226769   0.961   3.592   4.443
 8624SOL     OW26770   1.501   3.707   4.806
 8624SOL    HW126771   1.439   3.771   4.851
 8624SOL    HW226772   1.475   3.613   4.831
 8625SOL     OW26773   4.468   0.777   6.137
 8625SOL    HW126774   4.440   0.864   6.097
 8625SOL    HW226775   4.442   0.702   6.076
 8626SOL     OW26776   3.553   3.199   5.969
 8626SOL    HW126777   3.552   3.103   5.939
 8626SOL    HW226778   3.551   3.259   5.889
 8627SOL     OW26779   1.380   1.892   3.536
 8627SOL    HW126780   1.446   1.928   3.471
 8627SOL    HW226781   1.334   1.813   3.496
 8628SOL     OW26782   6.348   6.540   0.691
 8628SOL    HW126783   6.423   6.478   0.672
 8628SOL    HW226784   6.323   6.535   0.788
 8629SOL     OW26785   1.170   5.363   4.976
 8629SOL    HW126786   1.119   5.370   4.890
 8629SOL    HW226787   1.111   5.325   5.046
 8630SOL     OW26788   5.352   4.130   3.930
 8630SOL    HW126789   5.346   4.199   4.002
 8630SOL    HW226790   5.273   4.139   3.869
 8631SOL     OW26791   0.720   4.702   6.196
 8631SOL    HW126792   0.813   4.675   6.219
 8631SOL    HW226793   0.716   4.730   6.100
 8632SOL     OW26794   3.576   5.482   4.356
 8632SOL    HW126795   3.544   5.419   4.285
 8632SOL    HW226796   3.561   5.577   4.326
 8633SOL     OW26797   5.308   1.617   5.811
 8633SOL    HW126798   5.275   1.534   5.767
 8633SOL    HW226799   5.264   1.627   5.901
 8634SOL     OW26800   5.092   3.786   0.593
 8634SOL    HW126801   5.187   3.806   0.567
 8634SOL    HW226802   5.088   3.760   0.689
 8635SOL     OW26803   5.444   3.692   6.382
 8635SOL    HW126804   5.504   3.682   6.462
 8635SOL    HW226805   5.483   3.640   6.306
 8636SOL     OW26806   5.284   5.582   1.046
 8636SOL    HW126807   5.364   5.620   1.093
 8636SOL    HW226808   5.289   5.482   1.047
 8637SOL     OW26809   1.836   0.922   0.363
 8637SOL    HW126810   1.885   0.993   0.413
 8637SOL    HW226811   1.789   0.962   0.285
 8638SOL     OW26812   3.170   2.769   5.556
 8638SOL    HW126813   3.162   2.866   5.576
 8638SOL    HW226814   3.173   2.756   5.457
 8639SOL     OW26815   5.292   2.774   0.557
 8639SOL    HW126816   5.351   2.844   0.516
 8639SOL    HW226817   5.297   2.691   0.502
 8640SOL     OW26818   4.337   3.978   6.503
 8640SOL    HW126819   4.418   3.931   6.537
 8640SOL    HW226820   4.355   4.012   6.411
 8641SOL     OW26821   4.648   4.862   3.820
 8641SOL    HW126822   4.564   4.855   3.873
 8641SOL    HW226823   4.718   4.802   3.859
 8642SOL     OW26824   1.496   6.242   2.782
 8642SOL    HW126825   1.515   6.288   2.868
 8642SOL    HW226826   1.492   6.143   2.797
 8643SOL     OW26827   2.459   0.021   6.913
 8643SOL    HW126828   2.372   0.002   6.956
 8643SOL    HW226829   2.494   6.960   6.869
 8644SOL     OW26830   5.450   2.562   5.062
 8644SOL    HW126831   5.524   2.495   5.075
 8644SOL    HW226832   5.433   2.575   4.965
 8645SOL     OW26833   4.538   4.469   1.506
 8645SOL    HW126834   4.622   4.439   1.460
 8645SOL    HW226835   4.543   4.567   1.525
 8646SOL     OW26836   6.434   2.112   1.242
 8646SOL    HW126837   6.501   2.045   1.210
 8646SOL    HW226838   6.345   2.067   1.255
 8647SOL     OW26839   3.015   5.580   6.387
 8647SOL    HW126840   3.069   5.664   6.380
 8647SOL    HW226841   3.072   5.502   6.361
 8648SOL     OW26842   6.267   0.760   3.225
 8648SOL    HW126843   6.244   0.697   3.299
 8648SOL    HW226844   6.232   0.851   3.246
 8649SOL     OW26845   5.182   5.171   5.863
 8649SOL    HW126846   5.266   5.222   5.878
 8649SOL    HW226847   5.107   5.215   5.912
 8650SOL     OW26848   2.339   4.913   4.705
 8650SOL    HW126849   2.392   4.835   4.672
 8650SOL    HW226850   2.297   4.961   4.628
 8651SOL     OW26851   4.101   0.047   6.735
 8651SOL    HW126852   4.015   0.045   6.787
 8651SOL    HW226853   4.085   0.010   6.644
 8652SOL     OW26854   1.702   4.589   4.260
 8652SOL    HW126855   1.799   4.607   4.245
 8652SOL    HW226856   1.683   4.587   4.358
 8653SOL     OW26857   5.623   0.346   6.416
 8653SOL    HW126858   5.545   0.382   6.364
 8653SOL    HW226859   5.700   0.409   6.410
 8654SOL     OW26860   0.709   4.695   1.627
 8654SOL    HW126861   0.768   4.621   1.657
 8654SOL    HW226862   0.763   4.764   1.578
 8655SOL     OW26863   0.198   1.115   4.008
 8655SOL    HW126864   0.289   1.080   4.030
 8655SOL    HW226865   0.169   1.178   4.080
 8656SOL     OW26866   6.665   0.110   1.035
 8656SOL    HW126867   6.718   0.172   1.094
 8656SOL    HW226868   6.579   0.087   1.079
 8657SOL     OW26869   5.523   4.674   0.180
 8657SOL    HW126870   5.497   4.759   0.226
 8657SOL    HW226871   5.606   4.638   0.222
 8658SOL     OW26872   5.709   6.081   0.192
 8658SOL    HW126873   5.656   6.075   0.277
 8658SOL    HW226874   5.699   6.172   0.153
 8659SOL     OW26875   4.243   1.825   2.658
 8659SOL    HW126876   4.272   1.885   2.584
 8659SOL    HW226877   4.228   1.733   2.622
 8660SOL     OW26878   6.646   3.900   2.025
 8660SOL    HW126879   6.702   3.977   2.058
 8660SOL    HW226880   6.609   3.923   1.935
 8661SOL     OW26881   6.225   4.253   0.738
 8661SOL    HW126882   6.182   4.192   0.671
 8661SOL    HW226883   6.294   4.203   0.790
 8662SOL     OW26884   4.526   5.496   1.427
 8662SOL    HW126885   4.449   5.460   1.480
 8662SOL    HW226886   4.513   5.594   1.411
 8663SOL     OW26887   3.251   6.155   1.841
 8663SOL    HW126888   3.197   6.111   1.913
 8663SOL    HW226889   3.266   6.090   1.766
 8664SOL     OW26890   1.412   6.146   0.725
 8664SOL    HW126891   1.413   6.203   0.807
 8664SOL    HW226892   1.503   6.107   0.711
 8665SOL     OW26893   5.686   5.901   4.861
 8665SOL    HW126894   5.744   5.873   4.938
 8665SOL    HW226895   5.708   5.845   4.781
 8666SOL     OW26896   5.442   1.437   3.796
 8666SOL    HW126897   5.362   1.426   3.737
 8666SOL    HW226898   5.462   1.535   3.807
 8667SOL     OW26899   4.127   2.254   2.805
 8667SOL    HW126900   4.172   2.305   2.732
 8667SOL    HW226901   4.028   2.252   2.789
 8668SOL     OW26902   4.977   3.048   3.026
 8668SOL    HW126903   5.062   3.094   3.051
 8668SOL    HW226904   4.933   3.099   2.952
 8669SOL     OW26905   1.854   6.373   5.930
 8669SOL    HW126906   1.867   6.282   5.893
 8669SOL    HW226907   1.916   6.387   6.007
 8670SOL     OW26908   3.825   4.519   5.303
 8670SOL    HW126909   3.923   4.506   5.313
 8670SOL    HW226910   3.804   4.616   5.297
 8671SOL     OW26911   5.388   1.552   2.737
 8671SOL    HW126912   5.469   1.505   2.702
 8671SOL    HW226913   5.312   1.539   2.673
 8672SOL     OW26914   1.268   5.382   4.574
 8672SOL    HW126915   1.321   5.394   4.658
 8672SOL    HW226916   1.330   5.361   4.498
 8673SOL     OW26917   6.113   2.937   0.198
 8673SOL    HW126918   6.186   2.879   0.161
 8673SOL    HW226919   6.027   2.885   0.199
 8674SOL     OW26920   5.289   6.133   3.111
 8674SOL    HW126921   5.344   6.186   3.176
 8674SOL    HW226922   5.319   6.154   3.018
 8675SOL     OW26923   3.271   2.098   4.131
 8675SOL    HW126924   3.247   2.003   4.112
 8675SOL    HW226925   3.331   2.102   4.210
 8676SOL     OW26926   4.729   0.104   2.605
 8676SOL    HW126927   4.709   0.174   2.536
 8676SOL    HW226928   4.820   0.120   2.642
 8677SOL     OW26929   2.439   5.158   5.887
 8677SOL    HW126930   2.527   5.135   5.845
 8677SOL    HW226931   2.365   5.110   5.839
 8678SOL     OW26932   0.010   0.349   2.084
 8678SOL    HW126933   0.084   0.415   2.090
 8678SOL    HW226934   6.971   0.374   2.008
 8679SOL     OW26935   0.014   1.952   3.204
 8679SOL    HW126936   0.026   1.856   3.231
 8679SOL    HW226937   0.098   1.985   3.162
 8680SOL     OW26938   0.608   3.782   6.953
 8680SOL    HW126939   0.618   3.879   6.973
 8680SOL    HW226940   0.670   3.730   7.011
 8681SOL     OW26941   5.103   4.879   0.596
 8681SOL    HW126942   5.023   4.930   0.628
 8681SOL    HW226943   5.084   4.842   0.505
 8682SOL     OW26944   5.050   6.593   1.956
 8682SOL    HW126945   5.035   6.495   1.943
 8682SOL    HW226946   5.113   6.606   2.033
 8683SOL     OW26947   2.080   2.054   4.059
 8683SOL    HW126948   2.057   2.149   4.081
 8683SOL    HW226949   2.171   2.051   4.017
 8684SOL     OW26950   6.610   2.911   5.196
 8684SOL    HW126951   6.530   2.889   5.251
 8684SOL    HW226952   6.688   2.855   5.226
 8685SOL     OW26953   0.574   2.032   6.528
 8685SOL    HW126954   0.522   2.117   6.538
 8685SOL    HW226955   0.654   2.034   6.588
 8686SOL     OW26956   6.986   1.206   2.693
 8686SOL    HW126957   6.941   1.141   2.754
 8686SOL    HW226958   6.965   1.184   2.598
 8687SOL     OW26959   5.244   4.611   1.271
 8687SOL    HW126960   5.326   4.637   1.322
 8687SOL    HW226961   5.164   4.655   1.312
 8688SOL     OW26962   2.115   5.352   6.671
 8688SOL    HW126963   2.158   5.395   6.592
 8688SOL    HW226964   2.097   5.256   6.651
 8689SOL     OW26965   4.116   3.688   1.515
 8689SOL    HW126966   4.083   3.782   1.511
 8689SOL    HW226967   4.044   3.629   1.552
 8690SOL     OW26968   1.660   3.861   3.355
 8690SOL    HW126969   1.565   3.884   3.378
 8690SOL    HW226970   1.662   3.773   3.307
 8691SOL     OW26971   3.078   1.791   5.863
 8691SOL    HW126972   3.094   1.694   5.844
 8691SOL    HW226973   3.021   1.830   5.790
 8692SOL     OW26974   2.501   1.160   5.319
 8692SOL    HW126975   2.465   1.230   5.381
 8692SOL    HW226976   2.452   1.164   5.232
 8693SOL     OW26977   5.716   0.806   6.769
 8693SOL    HW126978   5.801   0.764   6.802
 8693SOL    HW226979   5.717   0.809   6.669
 8694SOL     OW26980   4.705   0.528   5.236
 8694SOL    HW126981   4.624   0.549   5.292
 8694SOL    HW226982   4.762   0.461   5.285
 8695SOL     OW26983   4.240   3.420   6.224
 8695SOL    HW126984   4.298   3.454   6.150
 8695SOL    HW226985   4.156   3.474   6.229
 8696SOL     OW26986   1.989   5.060   5.975
 8696SOL    HW126987   1.921   4.987   5.976
 8696SOL    HW226988   2.064   5.035   5.913
 8697SOL     OW26989   0.004   2.690   6.424
 8697SOL    HW126990   0.026   2.616   6.488
 8697SOL    HW226991   6.955   2.658   6.360
 8698SOL     OW26992   5.207   5.793   5.116
 8698SOL    HW126993   5.152   5.807   5.033
 8698SOL    HW226994   5.229   5.882   5.157
 8699SOL     OW26995   1.584   2.615   5.130
 8699SOL    HW126996   1.588   2.551   5.207
 8699SOL    HW226997   1.515   2.584   5.065
 8700SOL     OW26998   1.167   1.328   4.099
 8700SOL    HW126999   1.094   1.394   4.114
 8700SOL    HW227000   1.137   1.237   4.129
 8701SOL     OW27001   0.983   0.897   0.126
 8701SOL    HW127002   1.073   0.854   0.134
 8701SOL    HW227003   0.994   0.997   0.127
 8702SOL     OW27004   5.577   5.046   1.800
 8702SOL    HW127005   5.500   5.042   1.864
 8702SOL    HW227006   5.585   4.958   1.752
 8703SOL     OW27007   2.779   4.650   6.646
 8703SOL    HW127008   2.811   4.687   6.559
 8703SOL    HW227009   2.856   4.638   6.708
 8704SOL     OW27010   0.280   3.833   3.509
 8704SOL    HW127011   0.279   3.837   3.409
 8704SOL    HW227012   0.360   3.882   3.544
 8705SOL     OW27013   5.440   1.139   6.129
 8705SOL    HW127014   5.518   1.142   6.067
 8705SOL    HW227015   5.460   1.194   6.210
 8706SOL     OW27016   4.942   2.096   6.838
 8706SOL    HW127017   4.862   2.139   6.878
 8706SOL    HW227018   4.934   2.097   6.738
 8707SOL     OW27019   6.765   1.358   6.330
 8707SOL    HW127020   6.777   1.368   6.429
 8707SOL    HW227021   6.713   1.275   6.311
 8708SOL     OW27022   4.369   1.558   2.230
 8708SOL    HW127023   4.381   1.640   2.286
 8708SOL    HW227024   4.292   1.505   2.265
 8709SOL     OW27025   0.045   6.678   0.171
 8709SOL    HW127026   0.028   6.772   0.203
 8709SOL    HW227027   0.120   6.679   0.105
 8710SOL     OW27028   1.933   3.188   3.894
 8710SOL    HW127029   1.913   3.091   3.879
 8710SOL    HW227030   1.897   3.216   3.984
 8711SOL     OW27031   2.046   0.082   3.213
 8711SOL    HW127032   2.103   0.152   3.169
 8711SOL    HW227033   2.103   0.005   3.241
 8712SOL     OW27034   4.008   2.096   4.717
 8712SOL    HW127035   3.973   2.160   4.649
 8712SOL    HW227036   4.024   2.007   4.674
 8713SOL     OW27037   6.541   3.166   3.886
 8713SOL    HW127038   6.560   3.102   3.812
 8713SOL    HW227039   6.450   3.148   3.923
 8714SOL     OW27040   0.472   0.451   5.744
 8714SOL    HW127041   0.429   0.370   5.704
 8714SOL    HW227042   0.475   0.442   5.844
 8715SOL     OW27043   4.552   6.757   0.577
 8715SOL    HW127044   4.453   6.740   0.578
 8715SOL    HW227045   4.592   6.727   0.664
 8716SOL     OW27046   6.776   0.291   1.197
 8716SOL    HW127047   6.757   0.384   1.168
 8716SOL    HW227048   6.745   0.278   1.291
 8717SOL     OW27049   3.012   3.166   4.653
 8717SOL    HW127050   3.008   3.232   4.578
 8717SOL    HW227051   3.070   3.089   4.625
 8718SOL     OW27052   1.876   3.635   5.249
 8718SOL    HW127053   1.838   3.654   5.159
 8718SOL    HW227054   1.882   3.537   5.264
 8719SOL     OW27055   3.848   0.468   6.459
 8719SOL    HW127056   3.765   0.510   6.422
 8719SOL    HW227057   3.825   0.415   6.541
 8720SOL     OW27058   6.961   5.396   6.094
 8720SOL    HW127059   6.873   5.354   6.073
 8720SOL    HW227060   6.959   5.493   6.068
 8721SOL     OW27061   6.996   3.000   1.902
 8721SOL    HW127062   6.948   3.065   1.960
 8721SOL    HW227063   6.986   3.026   1.806
 8722SOL     OW27064   3.637   1.290   6.833
 8722SOL    HW127065   3.556   1.314   6.887
 8722SOL    HW227066   3.676   1.373   6.793
 8723SOL     OW27067   5.434   5.975   1.145
 8723SOL    HW127068   5.426   6.045   1.215
 8723SOL    HW227069   5.344   5.951   1.110
 8724SOL     OW27070   4.529   6.834   5.176
 8724SOL    HW127071   4.622   6.859   5.202
 8724SOL    HW227072   4.480   6.915   5.142
 8725SOL     OW27073   1.925   6.145   5.771
 8725SOL    HW127074   1.899   6.154   5.674
 8725SOL    HW227075   2.022   6.125   5.777
 8726SOL     OW27076   6.808   1.425   3.508
 8726SOL    HW127077   6.889   1.444   3.452
 8726SOL    HW227078   6.731   1.479   3.475
 8727SOL     OW27079   6.121   6.556   2.284
 8727SOL    HW127080   6.061   6.510   2.349
 8727SOL    HW227081   6.087   6.540   2.191
 8728SOL     OW27082   6.333   0.493   2.480
 8728SOL    HW127083   6.301   0.416   2.425
 8728SOL    HW227084   6.280   0.575   2.456
 8729SOL     OW27085   3.487   5.762   4.929
 8729SOL    HW127086   3.464   5.778   5.025
 8729SOL    HW227087   3.485   5.664   4.910
 8730SOL     OW27088   6.245   4.570   2.588
 8730SOL    HW127089   6.217   4.509   2.514
 8730SOL    HW227090   6.331   4.537   2.628
 8731SOL     OW27091   1.783   2.752   2.917
 8731SOL    HW127092   1.762   2.850   2.908
 8731SOL    HW227093   1.838   2.722   2.840
 8732SOL     OW27094   5.852   4.973   1.743
 8732SOL    HW127095   5.831   4.881   1.776
 8732SOL    HW227096   5.787   5.038   1.782
 8733SOL     OW27097   1.802   5.378   1.547
 8733SOL    HW127098   1.728   5.438   1.577
 8733SOL    HW227099   1.766   5.285   1.537
 8734SOL     OW27100   0.818   4.718   2.158
 8734SOL    HW127101   0.815   4.810   2.118
 8734SOL    HW227102   0.914   4.689   2.167
 8735SOL     OW27103   1.075   2.449   1.011
 8735SOL    HW127104   1.007   2.382   1.040
 8735SOL    HW227105   1.073   2.527   1.073
 8736SOL     OW27106   0.182   5.706   0.021
 8736SOL    HW127107   0.113   5.668   0.083
 8736SOL    HW227108   0.262   5.647   0.021
 8737SOL     OW27109   1.711   6.519   6.872
 8737SOL    HW127110   1.680   6.542   6.779
 8737SOL    HW227111   1.808   6.495   6.869
 8738SOL     OW27112   2.741   5.383   4.387
 8738SOL    HW127113   2.832   5.412   4.356
 8738SOL    HW227114   2.746   5.360   4.484
 8739SOL     OW27115   5.887   5.259   6.895
 8739SOL    HW127116   5.957   5.188   6.889
 8739SOL    HW227117   5.823   5.236   6.969
 8740SOL     OW27118   4.646   1.265   4.547
 8740SOL    HW127119   4.720   1.294   4.486
 8740SOL    HW227120   4.575   1.218   4.493
 8741SOL     OW27121   2.639   1.231   2.496
 8741SOL    HW127122   2.664   1.324   2.467
 8741SOL    HW227123   2.616   1.232   2.593
 8742SOL     OW27124   5.315   6.135   1.362
 8742SOL    HW127125   5.296   6.047   1.405
 8742SOL    HW227126   5.273   6.208   1.416
 8743SOL     OW27127   1.807   0.185   2.101
 8743SOL    HW127128   1.835   0.109   2.043
 8743SOL    HW227129   1.709   0.179   2.119
 8744SOL     OW27130   4.080   2.772   6.428
 8744SOL    HW127131   4.014   2.720   6.374
 8744SOL    HW227132   4.072   2.746   6.524
 8745SOL     OW27133   6.194   2.599   6.645
 8745SOL    HW127134   6.161   2.624   6.554
 8745SOL    HW227135   6.294   2.609   6.648
 8746SOL     OW27136   4.464   5.560   4.242
 8746SOL    HW127137   4.454   5.614   4.325
 8746SOL    HW227138   4.477   5.464   4.267
 8747SOL     OW27139   0.698   2.423   3.283
 8747SOL    HW127140   0.653   2.503   3.323
 8747SOL    HW227141   0.759   2.382   3.351
 8748SOL     OW27142   6.518   1.292   4.466
 8748SOL    HW127143   6.535   1.274   4.369
 8748SOL    HW227144   6.584   1.359   4.499
 8749SOL     OW27145   2.251   0.409   4.652
 8749SOL    HW127146   2.210   0.433   4.564
 8749SOL    HW227147   2.225   0.477   4.721
 8750SOL     OW27148   3.206   3.769   4.845
 8750SOL    HW127149   3.277   3.819   4.795
 8750SOL    HW227150   3.116   3.806   4.821
 8751SOL     OW27151   5.358   1.462   2.325
 8751SOL    HW127152   5.355   1.561   2.342
 8751SOL    HW227153   5.423   1.443   2.252
 8752SOL     OW27154   3.195   3.544   0.105
 8752SOL    HW127155   3.279   3.588   0.071
 8752SOL    HW227156   3.181   3.571   0.201
 8753SOL     OW27157   4.199   2.342   6.040
 8753SOL    HW127158   4.144   2.277   5.988
 8753SOL    HW227159   4.296   2.324   6.024
 8754SOL     OW27160   2.470   3.538   5.800
 8754SOL    HW127161   2.437   3.632   5.787
 8754SOL    HW227162   2.492   3.499   5.710
 8755SOL     OW27163   2.151   0.701   0.853
 8755SOL    HW127164   2.074   0.657   0.807
 8755SOL    HW227165   2.173   0.651   0.937
 8756SOL     OW27166   0.703   3.173   4.124
 8756SOL    HW127167   0.745   3.221   4.047
 8756SOL    HW227168   0.608   3.150   4.101
 8757SOL     OW27169   4.138   5.702   6.415
 8757SOL    HW127170   4.217   5.764   6.423
 8757SOL    HW227171   4.162   5.613   6.452
 8758SOL     OW27172   4.823   5.931   2.190
 8758SOL    HW127173   4.888   6.003   2.213
 8758SOL    HW227174   4.814   5.868   2.267
 8759SOL     OW27175   5.078   2.612   0.011
 8759SOL    HW127176   5.129   2.655   0.086
 8759SOL    HW227177   5.094   2.513   0.012
 8760SOL     OW27178   2.212   1.184   5.394
 8760SOL    HW127179   2.211   1.111   5.462
 8760SOL    HW227180   2.189   1.147   5.304
 8761SOL     OW27181   6.369   1.938   1.791
 8761SOL    HW127182   6.458   1.906   1.761
 8761SOL    HW227183   6.343   2.019   1.740
 8762SOL     OW27184   1.543   4.303   2.918
 8762SOL    HW127185   1.511   4.234   2.983
 8762SOL    HW227186   1.467   4.361   2.890
 8763SOL     OW27187   6.945   6.451   5.938
 8763SOL    HW127188   7.005   6.373   5.952
 8763SOL    HW227189   6.958   6.517   6.012
 8764SOL     OW27190   4.627   0.517   4.839
 8764SOL    HW127191   4.659   0.447   4.774
 8764SOL    HW227192   4.546   0.561   4.802
 8765SOL     OW27193   5.306   6.973   3.952
 8765SOL    HW127194   5.353   6.885   3.947
 8765SOL    HW227195   5.207   6.959   3.954
 8766SOL     OW27196   4.698   4.753   4.245
 8766SOL    HW127197   4.714   4.798   4.333
 8766SOL    HW227198   4.773   4.689   4.226
 8767SOL     OW27199   4.739   5.203   2.955
 8767SOL    HW127200   4.684   5.231   3.033
 8767SOL    HW227201   4.749   5.103   2.954
 8768SOL     OW27202   1.151   2.463   0.210
 8768SOL    HW127203   1.161   2.385   0.271
 8768SOL    HW227204   1.059   2.503   0.222
 8769SOL     OW27205   7.004   0.618   4.177
 8769SOL    HW127206   0.023   0.710   4.178
 8769SOL    HW227207   6.934   0.613   4.105
 8770SOL     OW27208   4.623   4.324   2.224
 8770SOL    HW127209   4.597   4.393   2.157
 8770SOL    HW227210   4.639   4.237   2.179
 8771SOL     OW27211   1.172   1.842   6.253
 8771SOL    HW127212   1.236   1.875   6.182
 8771SOL    HW227213   1.221   1.833   6.340
 8772SOL     OW27214   4.841   0.423   6.196
 8772SOL    HW127215   4.863   0.330   6.170
 8772SOL    HW227216   4.748   0.445   6.166
 8773SOL     OW27217   4.705   2.258   3.661
 8773SOL    HW127218   4.789   2.256   3.606
 8773SOL    HW227219   4.711   2.190   3.734
 8774SOL     OW27220   1.280   0.819   0.097
 8774SOL    HW127221   1.335   0.901   0.089
 8774SOL    HW227222   1.318   0.759   0.168
 8775SOL     OW27223   5.697   6.779   5.367
 8775SOL    HW127224   5.774   6.721   5.393
 8775SOL    HW227225   5.611   6.730   5.388
 8776SOL     OW27226   3.815   2.880   6.853
 8776SOL    HW127227   3.834   2.978   6.843
 8776SOL    HW227228   3.883   2.838   6.913
 8777SOL     OW27229   0.090   4.085   2.564
 8777SOL    HW127230   0.029   4.069   2.486
 8777SOL    HW227231   0.140   4.171   2.550
 8778SOL     OW27232   5.169   2.896   5.322
 8778SOL    HW127233   5.231   2.861   5.392
 8778SOL    HW227234   5.197   2.862   5.232
 8779SOL     OW27235   2.772   5.217   2.684
 8779SOL    HW127236   2.796   5.170   2.769
 8779SOL    HW227237   2.800   5.162   2.606
 8780SOL     OW27238   0.671   6.382   3.031
 8780SOL    HW127239   0.635   6.289   3.015
 8780SOL    HW227240   0.768   6.384   3.010
 8781SOL     OW27241   5.241   1.030   3.114
 8781SOL    HW127242   5.266   0.969   3.189
 8781SOL    HW227243   5.145   1.015   3.090
 8782SOL     OW27244   6.293   6.802   1.384
 8782SOL    HW127245   6.249   6.754   1.460
 8782SOL    HW227246   6.383   6.835   1.413
 8783SOL     OW27247   6.577   4.715   3.976
 8783SOL    HW127248   6.673   4.688   3.983
 8783SOL    HW227249   6.557   4.741   3.882
 8784SOL     OW27250   6.219   3.846   6.041
 8784SOL    HW127251   6.158   3.855   5.962
 8784SOL    HW227252   6.301   3.795   6.014
 8785SOL     OW27253   5.721   3.595   0.195
 8785SOL    HW127254   5.708   3.638   0.105
 8785SOL    HW227255   5.707   3.496   0.187
 8786SOL     OW27256   2.396   0.679   0.303
 8786SOL    HW127257   2.340   0.641   0.376
 8786SOL    HW227258   2.452   0.607   0.263
 8787SOL     OW27259   3.703   1.824   1.560
 8787SOL    HW127260   3.792   1.870   1.559
 8787SOL    HW227261   3.646   1.863   1.632
 8788SOL     OW27262   6.194   1.384   5.424
 8788SOL    HW127263   6.147   1.319   5.365
 8788SOL    HW227264   6.134   1.462   5.443
 8789SOL     OW27265   6.185   6.641   4.612
 8789SOL    HW127266   6.114   6.574   4.634
 8789SOL    HW227267   6.275   6.601   4.628
 8790SOL     OW27268   0.540   0.399   6.312
 8790SOL    HW127269   0.561   0.435   6.402
 8790SOL    HW227270   0.563   0.467   6.242
 8791SOL     OW27271   5.299   6.649   5.250
 8791SOL    HW127272   5.348   6.653   5.337
 8791SOL    HW227273   5.243   6.566   5.247
 8792SOL     OW27274   2.347   5.945   2.956
 8792SOL    HW127275   2.272   5.975   2.898
 8792SOL    HW227276   2.403   6.024   2.983
 8793SOL     OW27277   1.298   4.434   2.906
 8793SOL    HW127278   1.222   4.407   2.965
 8793SOL    HW227279   1.272   4.419   2.810
 8794SOL     OW27280   4.902   0.168   2.301
 8794SOL    HW127281   4.829   0.101   2.312
 8794SOL    HW227282   4.983   0.122   2.265
 8795SOL     OW27283   1.329   4.861   5.752
 8795SOL    HW127284   1.333   4.902   5.661
 8795SOL    HW227285   1.376   4.920   5.818
 8796SOL     OW27286   4.008   2.233   4.472
 8796SOL    HW127287   3.993   2.300   4.400
 8796SOL    HW227288   4.097   2.189   4.459
 8797SOL     OW27289   0.092   0.058   6.970
 8797SOL    HW127290   0.101   0.107   6.883
 8797SOL    HW227291   0.028   0.107   0.007
 8798SOL     OW27292   5.566   5.723   6.314
 8798SOL    HW127293   5.596   5.654   6.248
 8798SOL    HW227294   5.564   5.683   6.405
 8799SOL     OW27295   2.639   4.557   3.609
 8799SOL    HW127296   2.657   4.607   3.694
 8799SOL    HW227297   2.618   4.462   3.631
 8800SOL     OW27298   6.706   3.865   5.610
 8800SOL    HW127299   6.628   3.928   5.618
 8800SOL    HW227300   6.771   3.901   5.543
 8801SOL     OW27301   6.806   1.114   5.239
 8801SOL    HW127302   6.841   1.143   5.328
 8801SOL    HW227303   6.831   1.018   5.223
 8802SOL     OW27304   2.024   6.866   0.165
 8802SOL    HW127305   2.040   6.878   0.263
 8802SOL    HW227306   2.111   6.874   0.116
 8803SOL     OW27307   6.813   6.164   6.903
 8803SOL    HW127308   6.836   6.221   6.824
 8803SOL    HW227309   6.715   6.147   6.904
 8804SOL     OW27310   2.471   6.588   2.030
 8804SOL    HW127311   2.470   6.679   2.072
 8804SOL    HW227312   2.385   6.541   2.049
 8805SOL     OW27313   2.888   6.203   3.507
 8805SOL    HW127314   2.812   6.160   3.459
 8805SOL    HW227315   2.920   6.283   3.456
 8806SOL     OW27316   3.108   5.035   2.346
 8806SOL    HW127317   3.134   4.971   2.418
 8806SOL    HW227318   3.065   4.985   2.270
 8807SOL     OW27319   5.214   0.565   0.501
 8807SOL    HW127320   5.197   0.467   0.492
 8807SOL    HW227321   5.126   0.613   0.507
 8808SOL     OW27322   5.867   2.758   6.642
 8808SOL    HW127323   5.904   2.665   6.644
 8808SOL    HW227324   5.843   2.783   6.548
 8809SOL     OW27325   5.078   5.889   3.094
 8809SOL    HW127326   5.001   5.877   3.030
 8809SOL    HW227327   5.128   5.972   3.070
 8810SOL     OW27328   6.183   0.626   4.647
 8810SOL    HW127329   6.256   0.632   4.715
 8810SOL    HW227330   6.096   0.606   4.691
 8811SOL     OW27331   3.161   0.762   2.549
 8811SOL    HW127332   3.152   0.820   2.630
 8811SOL    HW227333   3.176   0.819   2.469
 8812SOL     OW27334   1.992   0.409   0.873
 8812SOL    HW127335   1.941   0.435   0.954
 8812SOL    HW227336   1.959   0.462   0.794
 8813SOL     OW27337   2.179   4.868   1.694
 8813SOL    HW127338   2.228   4.817   1.765
 8813SOL    HW227339   2.090   4.897   1.729
 8814SOL     OW27340   5.829   6.917   0.888
 8814SOL    HW127341   5.906   6.854   0.882
 8814SOL    HW227342   5.818   6.947   0.983
 8815SOL     OW27343   5.447   0.032   1.135
 8815SOL    HW127344   5.494   7.005   1.209
 8815SOL    HW227345   5.349   0.008   1.137
 8816SOL     OW27346   1.171   6.545   0.256
 8816SOL    HW127347   1.251   6.579   0.207
 8816SOL    HW227348   1.168   6.585   0.347
 8817SOL     OW27349   6.963   4.944   4.109
 8817SOL    HW127350   6.994   4.991   4.027
 8817SOL    HW227351   6.971   4.845   4.097
 8818SOL     OW27352   0.478   4.274   4.711
 8818SOL    HW127353   0.489   4.325   4.626
 8818SOL    HW227354   0.413   4.321   4.770
 8819SOL     OW27355   5.716   5.515   5.520
 8819SOL    HW127356   5.624   5.498   5.485
 8819SOL    HW227357   5.760   5.428   5.543
 8820SOL     OW27358   2.366   0.468   5.125
 8820SOL    HW127359   2.332   0.478   5.219
 8820SOL    HW227360   2.448   0.525   5.114
 8821SOL     OW27361   1.679   6.037   0.741
 8821SOL    HW127362   1.684   6.081   0.830
 8821SOL    HW227363   1.634   5.948   0.749
 8822SOL     OW27364   0.761   0.312   3.858
 8822SOL    HW127365   0.761   0.249   3.936
 8822SOL    HW227366   0.794   0.264   3.777
 8823SOL     OW27367   2.513   0.929   2.547
 8823SOL    HW127368   2.564   1.015   2.543
 8823SOL    HW227369   2.563   0.858   2.496
 8824SOL     OW27370   1.233   2.233   0.311
 8824SOL    HW127371   1.329   2.257   0.301
 8824SOL    HW227372   1.221   2.178   0.394
 8825SOL     OW27373   2.445   1.360   1.709
 8825SOL    HW127374   2.458   1.381   1.806
 8825SOL    HW227375   2.436   1.261   1.697
 8826SOL     OW27376   0.040   3.777   0.353
 8826SOL    HW127377   0.107   3.833   0.304
 8826SOL    HW227378   6.991   3.746   0.288
 8827SOL     OW27379   4.342   1.387   1.685
 8827SOL    HW127380   4.262   1.333   1.710
 8827SOL    HW227381   4.339   1.475   1.732
 8828SOL     OW27382   4.017   5.935   5.955
 8828SOL    HW127383   4.034   5.839   5.933
 8828SOL    HW227384   4.020   5.947   6.054
 8829SOL     OW27385   4.921   3.058   0.899
 8829SOL    HW127386   4.952   3.007   0.980
 8829SOL    HW227387   5.001   3.094   0.851
 8830SOL     OW27388   1.733   1.955   2.751
 8830SOL    HW127389   1.738   2.034   2.811
 8830SOL    HW227390   1.741   1.871   2.805
 8831SOL     OW27391   4.269   2.201   4.433
 8831SOL    HW127392   4.317   2.147   4.364
 8831SOL    HW227393   4.314   2.290   4.442
 8832SOL     OW27394   0.220   6.740   3.444
 8832SOL    HW127395   0.186   6.650   3.469
 8832SOL    HW227396   0.257   6.785   3.526
 8833SOL     OW27397   2.184   4.961   5.772
 8833SOL    HW127398   2.183   4.958   5.672
 8833SOL    HW227399   2.236   4.884   5.807
 8834SOL     OW27400   5.426   4.331   4.770
 8834SOL    HW127401   5.479   4.416   4.774
 8834SOL    HW227402   5.341   4.341   4.821
 8835SOL     OW27403   4.705   0.931   5.265
 8835SOL    HW127404   4.606   0.916   5.268
 8835SOL    HW227405   4.728   0.982   5.182
 8836SOL     OW27406   5.058   2.502   0.404
 8836SOL    HW127407   5.109   2.416   0.398
 8836SOL    HW227408   5.109   2.574   0.359
 8837SOL     OW27409   6.988   6.271   2.414
 8837SOL    HW127410   6.990   6.370   2.401
 8837SOL    HW227411   6.956   6.227   2.330
 8838SOL     OW27412   2.237   5.287   3.651
 8838SOL    HW127413   2.317   5.344   3.667
 8838SOL    HW227414   2.201   5.256   3.739
 8839SOL     OW27415   5.777   5.611   2.155
 8839SOL    HW127416   5.722   5.562   2.222
 8839SOL    HW227417   5.738   5.598   2.064
 8840SOL     OW27418   0.388   1.562   2.673
 8840SOL    HW127419   0.452   1.594   2.743
 8840SOL    HW227420   0.420   1.474   2.636
 8841SOL     OW27421   0.367   0.769   4.513
 8841SOL    HW127422   0.404   0.741   4.602
 8841SOL    HW227423   0.343   0.866   4.517
 8842SOL     OW27424   3.471   3.061   2.800
 8842SOL    HW127425   3.488   2.981   2.743
 8842SOL    HW227426   3.556   3.110   2.816
 8843SOL     OW27427   2.207   3.473   5.905
 8843SOL    HW127428   2.214   3.379   5.939
 8843SOL    HW227429   2.297   3.503   5.874
 8844SOL     OW27430   0.194   1.189   6.201
 8844SOL    HW127431   0.215   1.130   6.122
 8844SOL    HW227432   0.278   1.210   6.250
 8845SOL     OW27433   3.358   3.689   0.912
 8845SOL    HW127434   3.333   3.613   0.972
 8845SOL    HW227435   3.356   3.657   0.817
 8846SOL     OW27436   3.629   5.407   3.928
 8846SOL    HW127437   3.603   5.328   3.873
 8846SOL    HW227438   3.633   5.489   3.870
 8847SOL     OW27439   2.526   0.830   2.870
 8847SOL    HW127440   2.455   0.760   2.877
 8847SOL    HW227441   2.487   0.915   2.836
 8848SOL     OW27442   2.993   2.117   2.442
 8848SOL    HW127443   3.091   2.101   2.428
 8848SOL    HW227444   2.975   2.123   2.540
 8849SOL     OW27445   3.046   6.182   3.037
 8849SOL    HW127446   2.970   6.216   3.093
 8849SOL    HW227447   3.095   6.111   3.087
 8850SOL     OW27448   1.376   1.840   0.065
 8850SOL    HW127449   1.371   1.837   6.987
 8850SOL    HW227450   1.288   1.813   0.104
 8851SOL     OW27451   1.207   5.300   2.258
 8851SOL    HW127452   1.239   5.283   2.165
 8851SOL    HW227453   1.281   5.282   2.323
 8852SOL     OW27454   5.401   3.354   5.622
 8852SOL    HW127455   5.378   3.447   5.594
 8852SOL    HW227456   5.342   3.289   5.575
 8853SOL     OW27457   3.065   1.292   0.793
 8853SOL    HW127458   3.088   1.385   0.822
 8853SOL    HW227459   3.097   1.277   0.699
 8854SOL     OW27460   3.326   1.701   5.571
 8854SOL    HW127461   3.255   1.657   5.625
 8854SOL    HW227462   3.292   1.787   5.533
 8855SOL     OW27463   0.009   5.862   1.489
 8855SOL    HW127464   0.039   5.926   1.417
 8855SOL    HW227465   0.068   5.872   1.569
 8856SOL     OW27466   0.279   6.378   6.323
 8856SOL    HW127467   0.198   6.418   6.365
 8856SOL    HW227468   0.258   6.348   6.230
 8857SOL     OW27469   6.900   1.604   4.089
 8857SOL    HW127470   6.919   1.582   3.994
 8857SOL    HW227471   6.836   1.681   4.093
 8858SOL     OW27472   0.925   3.127   5.517
 8858SOL    HW127473   0.899   3.036   5.487
 8858SOL    HW227474   1.014   3.151   5.479
 8859SOL     OW27475   0.123   0.136   4.294
 8859SOL    HW127476   0.076   0.191   4.363
 8859SOL    HW227477   0.088   0.043   4.297
 8860SOL     OW27478   6.688   2.651   2.882
 8860SOL    HW127479   6.617   2.607   2.826
 8860SOL    HW227480   6.773   2.599   2.874
 8861SOL     OW27481   4.139   1.486   6.015
 8861SOL    HW127482   4.090   1.414   6.066
 8861SOL    HW227483   4.212   1.522   6.072
 8862SOL     OW27484   5.715   0.571   4.238
 8862SOL    HW127485   5.750   0.592   4.330
 8862SOL    HW227486   5.727   0.651   4.179
 8863SOL     OW27487   1.482   5.095   4.366
 8863SOL    HW127488   1.501   5.193   4.363
 8863SOL    HW227489   1.384   5.079   4.357
 8864SOL     OW27490   3.353   4.737   6.245
 8864SOL    HW127491   3.430   4.788   6.282
 8864SOL    HW227492   3.287   4.719   6.317
 8865SOL     OW27493   3.393   0.319   5.906
 8865SOL    HW127494   3.381   0.224   5.877
 8865SOL    HW227495   3.312   0.372   5.881
 8866SOL     OW27496   5.240   0.523   3.507
 8866SOL    HW127497   5.215   0.460   3.434
 8866SOL    HW227498   5.339   0.522   3.520
 8867SOL     OW27499   5.698   4.078   3.131
 8867SOL    HW127500   5.677   4.124   3.217
 8867SOL    HW227501   5.692   3.979   3.144
 8868SOL     OW27502   6.598   3.078   0.956
 8868SOL    HW127503   6.515   3.045   0.911
 8868SOL    HW227504   6.668   3.007   0.954
 8869SOL     OW27505   4.019   5.698   4.662
 8869SOL    HW127506   4.110   5.696   4.702
 8869SOL    HW227507   4.006   5.783   4.611
 8870SOL     OW27508   2.881   0.432   0.515
 8870SOL    HW127509   2.929   0.423   0.428
 8870SOL    HW227510   2.941   0.403   0.590
 8871SOL     OW27511   2.327   1.218   4.307
 8871SOL    HW127512   2.396   1.182   4.370
 8871SOL    HW227513   2.319   1.157   4.228
 8872SOL     OW27514   1.404   4.313   5.095
 8872SOL    HW127515   1.501   4.312   5.070
 8872SOL    HW227516   1.355   4.244   5.043
 8873SOL     OW27517   0.838   6.816   1.708
 8873SOL    HW127518   0.739   6.814   1.725
 8873SOL    HW227519   0.855   6.792   1.612
 8874SOL     OW27520   1.898   6.486   2.428
 8874SOL    HW127521   1.977   6.510   2.485
 8874SOL    HW227522   1.910   6.393   2.393
 8875SOL     OW27523   0.195   3.673   5.282
 8875SOL    HW127524   0.184   3.762   5.238
 8875SOL    HW227525   0.105   3.632   5.299
 8876SOL     OW27526   2.417   6.493   5.004
 8876SOL    HW127527   2.441   6.581   4.964
 8876SOL    HW227528   2.328   6.464   4.969
 8877SOL     OW27529   3.110   1.904   4.000
 8877SOL    HW127530   3.084   1.807   4.004
 8877SOL    HW227531   3.028   1.961   4.012
 8878SOL     OW27532   6.500   4.875   0.487
 8878SOL    HW127533   6.440   4.811   0.438
 8878SOL    HW227534   6.589   4.879   0.440
 8879SOL     OW27535   5.072   4.897   2.939
 8879SOL    HW127536   5.106   4.830   3.005
 8879SOL    HW227537   5.146   4.925   2.879
 8880SOL     OW27538   5.307   5.969   4.836
 8880SOL    HW127539   5.261   5.896   4.784
 8880SOL    HW227540   5.239   6.033   4.870
 8881SOL     OW27541   4.985   6.716   4.260
 8881SOL    HW127542   4.949   6.737   4.351
 8881SOL    HW227543   4.958   6.623   4.235
 8882SOL     OW27544   5.576   1.184   0.891
 8882SOL    HW127545   5.670   1.161   0.864
 8882SOL    HW227546   5.577   1.254   0.961
 8883SOL     OW27547   1.509   6.147   6.008
 8883SOL    HW127548   1.550   6.179   6.094
 8883SOL    HW227549   1.552   6.062   5.981
 8884SOL     OW27550   6.546   4.129   5.678
 8884SOL    HW127551   6.644   4.148   5.681
 8884SOL    HW227552   6.517   4.120   5.583
 8885SOL     OW27553   6.355   3.672   1.916
 8885SOL    HW127554   6.309   3.657   2.004
 8885SOL    HW227555   6.379   3.769   1.907
 8886SOL     OW27556   2.812   6.646   4.552
 8886SOL    HW127557   2.852   6.720   4.606
 8886SOL    HW227558   2.732   6.610   4.600
 8887SOL     OW27559   3.967   0.296   0.250
 8887SOL    HW127560   4.059   0.331   0.263
 8887SOL    HW227561   3.930   0.332   0.164
 8888SOL     OW27562   1.805   1.736   5.741
 8888SOL    HW127563   1.902   1.747   5.720
 8888SOL    HW227564   1.755   1.718   5.657
 8889SOL     OW27565   6.870   0.382   6.614
 8889SOL    HW127566   6.848   0.336   6.701
 8889SOL    HW227567   6.928   0.461   6.631
 8890SOL     OW27568   6.913   5.977   4.765
 8890SOL    HW127569   6.822   5.997   4.727
 8890SOL    HW227570   6.983   6.014   4.704
 8891SOL     OW27571   4.327   3.195   6.864
 8891SOL    HW127572   4.251   3.260   6.870
 8891SOL    HW227573   4.330   3.156   6.772
 8892SOL     OW27574   3.467   5.455   3.024
 8892SOL    HW127575   3.385   5.401   3.005
 8892SOL    HW227576   3.479   5.525   2.954
 8893SOL     OW27577   0.848   5.554   3.863
 8893SOL    HW127578   0.806   5.508   3.941
 8893SOL    HW227579   0.803   5.642   3.849
 8894SOL     OW27580   3.801   2.557   6.788
 8894SOL    HW127581   3.731   2.606   6.735
 8894SOL    HW227582   3.769   2.546   6.882
 8895SOL     OW27583   6.370   2.810   2.195
 8895SOL    HW127584   6.381   2.773   2.103
 8895SOL    HW227585   6.458   2.814   2.241
 8896SOL     OW27586   2.777   3.398   5.356
 8896SOL    HW127587   2.792   3.333   5.282
 8896SOL    HW227588   2.857   3.401   5.415
 8897SOL     OW27589   2.216   3.032   3.355
 8897SOL    HW127590   2.122   3.051   3.384
 8897SOL    HW227591   2.217   2.949   3.299
 8898SOL     OW27592   5.077   3.175   2.400
 8898SOL    HW127593   5.014   3.245   2.435
 8898SOL    HW227594   5.164   3.181   2.448
 8899SOL     OW27595   1.497   5.613   1.630
 8899SOL    HW127596   1.529   5.529   1.675
 8899SOL    HW227597   1.397   5.613   1.629
 8900SOL     OW27598   5.626   2.652   2.829
 8900SOL    HW127599   5.646   2.712   2.751
 8900SOL    HW227600   5.547   2.594   2.807
 8901SOL     OW27601   2.188   0.907   5.093
 8901SOL    HW127602   2.122   0.885   5.021
 8901SOL    HW227603   2.270   0.948   5.051
 8902SOL     OW27604   1.717   6.694   0.597
 8902SOL    HW127605   1.800   6.746   0.617
 8902SOL    HW227606   1.733   6.637   0.516
 8903SOL     OW27607   0.616   1.431   4.739
 8903SOL    HW127608   0.589   1.480   4.656
 8903SOL    HW227609   0.612   1.493   4.817
 8904SOL     OW27610   6.407   0.158   4.382
 8904SOL    HW127611   6.479   0.131   4.319
 8904SOL    HW227612   6.440   0.231   4.442
 8905SOL     OW27613   1.804   4.219   3.699
 8905SOL    HW127614   1.803   4.214   3.599
 8905SOL    HW227615   1.816   4.128   3.737
 8906SOL     OW27616   0.560   6.548   6.622
 8906SOL    HW127617   0.557   6.484   6.699
 8906SOL    HW227618   0.540   6.641   6.654
 8907SOL     OW27619   2.794   2.759   5.339
 8907SOL    HW127620   2.773   2.673   5.293
 8907SOL    HW227621   2.754   2.758   5.431
 8908SOL     OW27622   1.437   4.978   0.066
 8908SOL    HW127623   1.418   4.953   6.993
 8908SOL    HW227624   1.506   5.051   0.068
 8909SOL     OW27625   2.157   0.699   5.940
 8909SOL    HW127626   2.240   0.657   5.978
 8909SOL    HW227627   2.103   0.629   5.894
 8910SOL     OW27628   0.372   2.476   5.615
 8910SOL    HW127629   0.327   2.416   5.682
 8910SOL    HW227630   0.327   2.466   5.526
 8911SOL     OW27631   4.129   2.151   4.956
 8911SOL    HW127632   4.071   2.150   4.875
 8911SOL    HW227633   4.125   2.240   5.000
 8912SOL     OW27634   3.516   3.627   6.445
 8912SOL    HW127635   3.521   3.581   6.534
 8912SOL    HW227636   3.522   3.726   6.459
 8913SOL     OW27637   4.603   5.334   5.793
 8913SOL    HW127638   4.548   5.417   5.802
 8913SOL    HW227639   4.688   5.355   5.745
 8914SOL     OW27640   4.372   0.280   4.791
 8914SOL    HW127641   4.309   0.203   4.791
 8914SOL    HW227642   4.438   0.269   4.716
 8915SOL     OW27643   0.774   2.588   4.259
 8915SOL    HW127644   0.722   2.589   4.344
 8915SOL    HW227645   0.735   2.520   4.197
 8916SOL     OW27646   6.809   2.567   0.425
 8916SOL    HW127647   6.854   2.481   0.401
 8916SOL    HW227648   6.787   2.618   0.342
 8917SOL     OW27649   6.646   3.508   6.906
 8917SOL    HW127650   6.670   3.604   6.913
 8917SOL    HW227651   6.587   3.483   6.984
 8918SOL     OW27652   6.451   3.930   0.963
 8918SOL    HW127653   6.357   3.900   0.980
 8918SOL    HW227654   6.474   3.916   0.866
 8919SOL     OW27655   4.046   4.177   0.806
 8919SOL    HW127656   4.142   4.151   0.797
 8919SOL    HW227657   4.040   4.274   0.829
 8920SOL     OW27658   0.112   1.117   6.852
 8920SOL    HW127659   0.038   1.133   6.786
 8920SOL    HW227660   0.116   1.194   6.916
 8921SOL     OW27661   1.993   2.066   2.327
 8921SOL    HW127662   2.010   2.037   2.422
 8921SOL    HW227663   1.900   2.042   2.301
 8922SOL     OW27664   4.462   4.930   1.307
 8922SOL    HW127665   4.443   4.849   1.251
 8922SOL    HW227666   4.456   4.905   1.404
 8923SOL     OW27667   1.718   2.484   6.458
 8923SOL    HW127668   1.626   2.482   6.497
 8923SOL    HW227669   1.728   2.408   6.393
 8924SOL     OW27670   3.839   5.376   5.158
 8924SOL    HW127671   3.866   5.460   5.205
 8924SOL    HW227672   3.774   5.325   5.214
 8925SOL     OW27673   1.052   1.845   3.154
 8925SOL    HW127674   1.055   1.807   3.062
 8925SOL    HW227675   0.957   1.854   3.183
 8926SOL     OW27676   6.426   3.147   5.795
 8926SOL    HW127677   6.392   3.233   5.757
 8926SOL    HW227678   6.497   3.166   5.863
 8927SOL     OW27679   0.106   0.937   4.656
 8927SOL    HW127680   0.178   1.006   4.650
 8927SOL    HW227681   0.048   0.955   4.735
 8928SOL     OW27682   0.747   6.932   6.103
 8928SOL    HW127683   0.673   6.882   6.148
 8928SOL    HW227684   0.709   7.002   6.042
 8929SOL     OW27685   5.730   1.993   4.250
 8929SOL    HW127686   5.663   2.048   4.299
 8929SOL    HW227687   5.793   1.950   4.315
 8930SOL     OW27688   1.816   3.222   4.129
 8930SOL    HW127689   1.875   3.185   4.202
 8930SOL    HW227690   1.720   3.216   4.159
 8931SOL     OW27691   2.264   3.325   0.644
 8931SOL    HW127692   2.323   3.288   0.715
 8931SOL    HW227693   2.292   3.419   0.622
 8932SOL     OW27694   6.291   1.285   1.367
 8932SOL    HW127695   6.276   1.310   1.463
 8932SOL    HW227696   6.260   1.360   1.308
 8933SOL     OW27697   2.307   2.723   6.287
 8933SOL    HW127698   2.266   2.710   6.197
 8933SOL    HW227699   2.405   2.703   6.283
 8934SOL     OW27700   3.254   5.202   4.548
 8934SOL    HW127701   3.300   5.117   4.573
 8934SOL    HW227702   3.200   5.187   4.465
 8935SOL     OW27703   6.964   4.293   0.403
 8935SOL    HW127704   6.913   4.249   0.477
 8935SOL    HW227705   0.015   4.350   0.442
 8936SOL     OW27706   1.414   3.223   3.054
 8936SOL    HW127707   1.508   3.197   3.074
 8936SOL    HW227708   1.372   3.154   2.995
 8937SOL     OW27709   0.158   0.219   5.342
 8937SOL    HW127710   0.237   0.277   5.324
 8937SOL    HW227711   0.089   0.233   5.271
 8938SOL     OW27712   0.147   6.891   0.890
 8938SOL    HW127713   0.053   6.923   0.902
 8938SOL    HW227714   0.158   6.803   0.935
 8939SOL     OW27715   6.159   4.272   4.367
 8939SOL    HW127716   6.140   4.369   4.385
 8939SOL    HW227717   6.245   4.264   4.318
 8940SOL     OW27718   6.632   0.874   2.168
 8940SOL    HW127719   6.656   0.786   2.129
 8940SOL    HW227720   6.564   0.862   2.240
 8941SOL     OW27721   5.538   2.805   4.666
 8941SOL    HW127722   5.635   2.826   4.656
 8941SOL    HW227723   5.526   2.727   4.727
 8942SOL     OW27724   6.501   5.213   5.852
 8942SOL    HW127725   6.447   5.276   5.797
 8942SOL    HW227726   6.498   5.122   5.810
 8943SOL     OW27727   3.901   5.453   0.319
 8943SOL    HW127728   3.860   5.488   0.235
 8943SOL    HW227729   3.833   5.399   0.369
 8944SOL     OW27730   5.228   5.572   5.269
 8944SOL    HW127731   5.156   5.556   5.337
 8944SOL    HW227732   5.220   5.665   5.233
 8945SOL     OW27733   1.383   1.173   3.262
 8945SOL    HW127734   1.414   1.160   3.356
 8945SOL    HW227735   1.295   1.128   3.249
 8946SOL     OW27736   2.668   1.562   4.740
 8946SOL    HW127737   2.766   1.577   4.725
 8946SOL    HW227738   2.625   1.533   4.654
 8947SOL     OW27739   2.606   3.094   5.775
 8947SOL    HW127740   2.653   3.174   5.812
 8947SOL    HW227741   2.671   3.018   5.767
 8948SOL     OW27742   6.267   6.111   4.417
 8948SOL    HW127743   6.176   6.080   4.445
 8948SOL    HW227744   6.262   6.206   4.387
 8949SOL     OW27745   3.456   5.882   0.487
 8949SOL    HW127746   3.417   5.829   0.411
 8949SOL    HW227747   3.556   5.872   0.486
 8950SOL     OW27748   4.477   4.297   6.557
 8950SOL    HW127749   4.500   4.295   6.459
 8950SOL    HW227750   4.520   4.376   6.599
 8951SOL     OW27751   1.421   0.990   4.774
 8951SOL    HW127752   1.411   1.067   4.711
 8951SOL    HW227753   1.468   1.020   4.857
 8952SOL     OW27754   0.921   6.261   2.148
 8952SOL    HW127755   0.842   6.202   2.134
 8952SOL    HW227756   1.005   6.209   2.134
 8953SOL     OW27757   1.469   3.683   0.199
 8953SOL    HW127758   1.375   3.696   0.230
 8953SOL    HW227759   1.523   3.765   0.218
 8954SOL     OW27760   6.758   6.909   4.608
 8954SOL    HW127761   6.711   6.996   4.621
 8954SOL    HW227762   6.852   6.915   4.642
 8955SOL     OW27763   0.156   5.476   2.546
 8955SOL    HW127764   0.234   5.536   2.530
 8955SOL    HW227765   0.181   5.382   2.521
 8956SOL     OW27766   2.224   1.269   6.725
 8956SOL    HW127767   2.255   1.176   6.741
 8956SOL    HW227768   2.141   1.268   6.668
 8957SOL     OW27769   1.580   4.419   1.262
 8957SOL    HW127770   1.676   4.392   1.269
 8957SOL    HW227771   1.565   4.502   1.314
 8958SOL     OW27772   0.529   1.624   4.935
 8958SOL    HW127773   0.447   1.681   4.928
 8958SOL    HW227774   0.610   1.683   4.941
 8959SOL     OW27775   1.790   4.266   1.889
 8959SOL    HW127776   1.830   4.211   1.962
 8959SOL    HW227777   1.721   4.328   1.927
 8960SOL     OW27778   4.238   5.400   2.998
 8960SOL    HW127779   4.164   5.462   3.024
 8960SOL    HW227780   4.212   5.306   3.018
 8961SOL     OW27781   3.211   0.786   3.740
 8961SOL    HW127782   3.293   0.797   3.684
 8961SOL    HW227783   3.140   0.741   3.686
 8962SOL     OW27784   6.544   5.675   2.929
 8962SOL    HW127785   6.464   5.702   2.876
 8962SOL    HW227786   6.516   5.644   3.020
 8963SOL     OW27787   4.212   6.839   4.954
 8963SOL    HW127788   4.212   6.747   4.914
 8963SOL    HW227789   4.178   6.834   5.048
 8964SOL     OW27790   5.224   3.667   3.107
 8964SOL    HW127791   5.157   3.738   3.126
 8964SOL    HW227792   5.247   3.668   3.010
 8965SOL     OW27793   2.652   5.267   0.928
 8965SOL    HW127794   2.700   5.340   0.881
 8965SOL    HW227795   2.554   5.284   0.926
 8966SOL     OW27796   6.791   4.110   0.524
 8966SOL    HW127797   6.818   4.031   0.578
 8966SOL    HW227798   6.746   4.080   0.440
 8967SOL     OW27799   3.874   0.262   0.932
 8967SOL    HW127800   3.875   0.355   0.895
 8967SOL    HW227801   3.788   0.248   0.982
 8968SOL     OW27802   4.692   5.582   2.947
 8968SOL    HW127803   4.599   5.602   2.977
 8968SOL    HW227804   4.743   5.539   3.022
 8969SOL     OW27805   6.352   0.701   4.066
 8969SOL    HW127806   6.434   0.658   4.028
 8969SOL    HW227807   6.378   0.781   4.119
 8970SOL     OW27808   2.952   3.038   6.764
 8970SOL    HW127809   2.951   3.074   6.671
 8970SOL    HW227810   2.902   3.099   6.825
 8971SOL     OW27811   6.120   4.913   1.725
 8971SOL    HW127812   6.187   4.980   1.691
 8971SOL    HW227813   6.028   4.951   1.716
 8972SOL     OW27814   5.109   3.329   6.768
 8972SOL    HW127815   5.137   3.233   6.756
 8972SOL    HW227816   5.037   3.334   6.838
 8973SOL     OW27817   0.792   3.418   3.242
 8973SOL    HW127818   0.799   3.437   3.144
 8973SOL    HW227819   0.716   3.356   3.259
 8974SOL     OW27820   1.194   4.617   4.784
 8974SOL    HW127821   1.271   4.625   4.847
 8974SOL    HW227822   1.128   4.691   4.800
 8975SOL     OW27823   1.689   6.157   6.260
 8975SOL    HW127824   1.786   6.136   6.251
 8975SOL    HW227825   1.642   6.077   6.299
 8976SOL     OW27826   6.849   5.668   6.007
 8976SOL    HW127827   6.752   5.680   6.027
 8976SOL    HW227828   6.888   5.756   5.981
 8977SOL     OW27829   6.777   3.290   6.788
 8977SOL    HW127830   6.720   3.369   6.811
 8977SOL    HW227831   6.865   3.322   6.753
 8978SOL     OW27832   5.162   6.375   3.723
 8978SOL    HW127833   5.243   6.333   3.682
 8978SOL    HW227834   5.190   6.437   3.796
 8979SOL     OW27835   1.180   4.013   4.754
 8979SOL    HW127836   1.224   4.035   4.667
 8979SOL    HW227837   1.095   3.964   4.737
 8980SOL     OW27838   4.048   2.980   5.372
 8980SOL    HW127839   3.967   3.038   5.386
 8980SOL    HW227840   4.020   2.892   5.336
 8981SOL     OW27841   4.333   1.119   6.243
 8981SOL    HW127842   4.376   1.209   6.242
 8981SOL    HW227843   4.307   1.093   6.150
 8982SOL     OW27844   1.466   2.142   1.841
 8982SOL    HW127845   1.512   2.207   1.901
 8982SOL    HW227846   1.392   2.097   1.890
 8983SOL     OW27847   1.279   5.604   6.435
 8983SOL    HW127848   1.220   5.628   6.358
 8983SOL    HW227849   1.249   5.516   6.473
 8984SOL     OW27850   6.471   0.096   3.704
 8984SOL    HW127851   6.488   0.015   3.760
 8984SOL    HW227852   6.557   0.126   3.661
 8985SOL     OW27853   2.297   1.982   0.920
 8985SOL    HW127854   2.376   2.039   0.895
 8985SOL    HW227855   2.326   1.886   0.927
 8986SOL     OW27856   4.075   5.315   1.708
 8986SOL    HW127857   4.092   5.409   1.737
 8986SOL    HW227858   4.065   5.257   1.788
 8987SOL     OW27859   5.345   0.272   0.445
 8987SOL    HW127860   5.395   0.226   0.373
 8987SOL    HW227861   5.248   0.249   0.438
 8988SOL     OW27862   1.418   4.052   6.400
 8988SOL    HW127863   1.348   4.046   6.471
 8988SOL    HW227864   1.414   3.971   6.342
 8989SOL     OW27865   5.886   4.320   2.345
 8989SOL    HW127866   5.942   4.240   2.367
 8989SOL    HW227867   5.869   4.372   2.429
 8990SOL     OW27868   2.220   5.921   2.116
 8990SOL    HW127869   2.302   5.871   2.087
 8990SOL    HW227870   2.218   5.926   2.216
 8991SOL     OW27871   2.332   2.332   0.263
 8991SOL    HW127872   2.330   2.241   0.222
 8991SOL    HW227873   2.286   2.330   0.352
 8992SOL     OW27874   6.496   2.449   7.015
 8992SOL    HW127875   6.511   2.355   0.026
 8992SOL    HW227876   6.471   2.446   6.918
 8993SOL     OW27877   4.696   2.433   2.229
 8993SOL    HW127878   4.692   2.333   2.236
 8993SOL    HW227879   4.610   2.468   2.192
 8994SOL     OW27880   1.385   5.172   4.944
 8994SOL    HW127881   1.386   5.107   4.868
 8994SOL    HW227882   1.342   5.257   4.915
 8995SOL     OW27883   0.958   2.654   6.683
 8995SOL    HW127884   0.914   2.595   6.751
 8995SOL    HW227885   0.892   2.723   6.651
 8996SOL     OW27886   6.617   5.170   1.548
 8996SOL    HW127887   6.666   5.114   1.615
 8996SOL    HW227888   6.670   5.252   1.528
 8997SOL     OW27889   4.458   1.136   6.495
 8997SOL    HW127890   4.433   1.090   6.409
 8997SOL    HW227891   4.500   1.070   6.556
 8998SOL     OW27892   6.431   3.488   4.973
 8998SOL    HW127893   6.358   3.541   5.015
 8998SOL    HW227894   6.495   3.549   4.926
 8999SOL     OW27895   5.302   6.614   6.873
 8999SOL    HW127896   5.345   6.703   6.857
 8999SOL    HW227897   5.218   6.627   6.927
 9000SOL     OW27898   2.349   4.264   0.260
 9000SOL    HW127899   2.401   4.297   0.181
 9000SOL    HW227900   2.411   4.249   0.337
 9001SOL     OW27901   1.105   5.515   2.519
 9001SOL    HW127902   1.190   5.463   2.524
 9001SOL    HW227903   1.123   5.611   2.541
 9002SOL     OW27904   6.805   5.197   4.920
 9002SOL    HW127905   6.857   5.112   4.924
 9002SOL    HW227906   6.747   5.205   5.000
 9003SOL     OW27907   5.278   2.917   1.704
 9003SOL    HW127908   5.265   2.870   1.791
 9003SOL    HW227909   5.373   2.908   1.675
 9004SOL     OW27910   4.767   6.443   0.802
 9004SOL    HW127911   4.852   6.490   0.826
 9004SOL    HW227912   4.696   6.465   0.869
 9005SOL     OW27913   4.996   2.627   4.660
 9005SOL    HW127914   4.943   2.653   4.741
 9005SOL    HW227915   4.996   2.528   4.651
 9006SOL     OW27916   3.116   6.259   0.796
 9006SOL    HW127917   3.054   6.328   0.759
 9006SOL    HW227918   3.074   6.168   0.786
 9007SOL     OW27919   4.690   0.573   4.229
 9007SOL    HW127920   4.631   0.612   4.158
 9007SOL    HW227921   4.636   0.551   4.309
 9008SOL     OW27922   0.209   5.897   3.529
 9008SOL    HW127923   0.171   5.829   3.592
 9008SOL    HW227924   0.308   5.889   3.528
 9009SOL     OW27925   2.536   1.365   0.178
 9009SOL    HW127926   2.627   1.325   0.164
 9009SOL    HW227927   2.546   1.456   0.219
 9010SOL     OW27928   1.078   6.892   4.043
 9010SOL    HW127929   1.156   6.934   3.997
 9010SOL    HW227930   1.046   6.814   3.989
 9011SOL     OW27931   4.367   2.622   1.572
 9011SOL    HW127932   4.464   2.644   1.566
 9011SOL    HW227933   4.336   2.586   1.484
 9012SOL     OW27934   2.928   4.209   1.404
 9012SOL    HW127935   2.928   4.173   1.310
 9012SOL    HW227936   3.008   4.174   1.453
 9013SOL     OW27937   0.038   6.511   4.887
 9013SOL    HW127938   7.017   6.589   4.841
 9013SOL    HW227939   0.107   6.471   4.826
 9014SOL     OW27940   0.146   1.493   0.316
 9014SOL    HW127941   0.219   1.551   0.353
 9014SOL    HW227942   0.096   1.542   0.245
 9015SOL     OW27943   5.816   1.667   1.492
 9015SOL    HW127944   5.777   1.740   1.549
 9015SOL    HW227945   5.776   1.579   1.519
 9016SOL     OW27946   0.881   6.830   6.539
 9016SOL    HW127947   0.926   6.741   6.525
 9016SOL    HW227948   0.894   6.858   6.634
 9017SOL     OW27949   4.640   2.071   1.924
 9017SOL    HW127950   4.706   2.021   1.869
 9017SOL    HW227951   4.547   2.052   1.892
 9018SOL     OW27952   4.053   1.785   6.537
 9018SOL    HW127953   3.972   1.815   6.587
 9018SOL    HW227954   4.029   1.706   6.480
 9019SOL     OW27955   0.986   0.882   2.069
 9019SOL    HW127956   0.897   0.927   2.059
 9019SOL    HW227957   1.029   0.912   2.154
 9020SOL     OW27958   0.843   3.656   1.493
 9020SOL    HW127959   0.813   3.587   1.560
 9020SOL    HW227960   0.827   3.621   1.401
 9021SOL     OW27961   6.616   0.426   4.055
 9021SOL    HW127962   6.540   0.420   3.991
 9021SOL    HW227963   6.694   0.471   4.011
 9022SOL     OW27964   2.761   1.775   0.314
 9022SOL    HW127965   2.856   1.790   0.288
 9022SOL    HW227966   2.740   1.830   0.394
 9023SOL     OW27967   3.453   3.812   2.336
 9023SOL    HW127968   3.422   3.854   2.421
 9023SOL    HW227969   3.484   3.883   2.272
 9024SOL     OW27970   0.247   4.747   4.647
 9024SOL    HW127971   0.328   4.734   4.704
 9024SOL    HW227972   0.189   4.666   4.653
 9025SOL     OW27973   0.984   5.430   0.122
 9025SOL    HW127974   0.963   5.334   0.137
 9025SOL    HW227975   0.951   5.458   0.032
 9026SOL     OW27976   3.992   3.197   0.957
 9026SOL    HW127977   3.997   3.133   1.033
 9026SOL    HW227978   4.003   3.148   0.871
 9027SOL     OW27979   1.119   2.044   4.138
 9027SOL    HW127980   1.176   2.027   4.218
 9027SOL    HW227981   1.023   2.025   4.161
 9028SOL     OW27982   2.337   3.761   5.766
 9028SOL    HW127983   2.303   3.772   5.859
 9028SOL    HW227984   2.322   3.845   5.714
 9029SOL     OW27985   3.095   5.857   4.731
 9029SOL    HW127986   3.093   5.759   4.713
 9029SOL    HW227987   3.003   5.894   4.723
 9030SOL     OW27988   2.318   2.194   3.526
 9030SOL    HW127989   2.408   2.236   3.537
 9030SOL    HW227990   2.278   2.176   3.616
 9031SOL     OW27991   4.958   5.933   4.172
 9031SOL    HW127992   5.010   5.886   4.100
 9031SOL    HW227993   4.914   5.866   4.231
 9032SOL     OW27994   3.625   3.108   0.328
 9032SOL    HW127995   3.708   3.163   0.319
 9032SOL    HW227996   3.565   3.148   0.398
 9033SOL     OW27997   1.242   5.260   4.164
 9033SOL    HW127998   1.199   5.299   4.246
 9033SOL    HW227999   1.285   5.333   4.111
 9034SOL     OW28000   3.018   0.396   5.654
 9034SOL    HW128001   2.919   0.381   5.658
 9034SOL    HW228002   3.041   0.445   5.570
 9035SOL     OW28003   1.697   4.418   5.987
 9035SOL    HW128004   1.787   4.374   5.980
 9035SOL    HW228005   1.680   4.444   6.083
 9036SOL     OW28006   2.342   0.998   5.698
 9036SOL    HW128007   2.382   1.088   5.714
 9036SOL    HW228008   2.366   0.966   5.607
 9037SOL     OW28009   1.444   3.567   5.824
 9037SOL    HW128010   1.405   3.653   5.856
 9037SOL    HW228011   1.543   3.569   5.834
 9038SOL     OW28012   4.699   5.952   6.150
 9038SOL    HW128013   4.677   5.975   6.245
 9038SOL    HW228014   4.614   5.938   6.099
 9039SOL     OW28015   3.037   5.090   4.910
 9039SOL    HW128016   3.003   5.010   4.860
 9039SOL    HW228017   2.968   5.122   4.974
 9040SOL     OW28018   3.244   2.059   2.978
 9040SOL    HW128019   3.221   2.083   2.884
 9040SOL    HW228020   3.193   2.116   3.042
 9041SOL     OW28021   1.723   2.346   2.211
 9041SOL    HW128022   1.661   2.350   2.133
 9041SOL    HW228023   1.687   2.404   2.285
 9042SOL     OW28024   2.639   0.023   4.064
 9042SOL    HW128025   2.709   0.088   4.033
 9042SOL    HW228026   2.593   7.005   3.984
 9043SOL     OW28027   2.180   1.573   0.104
 9043SOL    HW128028   2.172   1.485   0.150
 9043SOL    HW228029   2.199   1.645   0.171
 9044SOL     OW28030   5.461   0.979   1.614
 9044SOL    HW128031   5.389   0.913   1.591
 9044SOL    HW228032   5.435   1.070   1.581
 9045SOL     OW28033   2.688   0.776   2.415
 9045SOL    HW128034   2.775   0.728   2.409
 9045SOL    HW228035   2.627   0.744   2.342
 9046SOL     OW28036   3.538   4.101   3.893
 9046SOL    HW128037   3.545   4.145   3.803
 9046SOL    HW228038   3.478   4.022   3.886
 9047SOL     OW28039   0.975   3.494   5.693
 9047SOL    HW128040   1.034   3.442   5.755
 9047SOL    HW228041   1.018   3.499   5.603
 9048SOL     OW28042   5.972   2.037   6.177
 9048SOL    HW128043   5.964   2.017   6.275
 9048SOL    HW228044   5.895   2.094   6.148
 9049SOL     OW28045   3.616   7.001   6.201
 9049SOL    HW128046   3.643   0.015   6.112
 9049SOL    HW228047   3.525   6.961   6.195
 9050SOL     OW28048   0.282   3.308   6.860
 9050SOL    HW128049   0.312   3.222   6.900
 9050SOL    HW228050   0.276   3.378   6.931
 9051SOL     OW28051   4.521   6.445   0.611
 9051SOL    HW128052   4.492   6.368   0.668
 9051SOL    HW228053   4.591   6.497   0.661
 9052SOL     OW28054   1.918   2.550   3.846
 9052SOL    HW128055   1.903   2.585   3.938
 9052SOL    HW228056   1.972   2.615   3.793
 9053SOL     OW28057   1.979   1.735   2.873
 9053SOL    HW128058   2.026   1.687   2.946
 9053SOL    HW228059   1.890   1.693   2.856
 9054SOL     OW28060   1.366   6.812   2.078
 9054SOL    HW128061   1.270   6.804   2.106
 9054SOL    HW228062   1.376   6.779   1.984
 9055SOL     OW28063   5.919   3.013   3.852
 9055SOL    HW128064   5.997   3.073   3.866
 9055SOL    HW228065   5.948   2.918   3.859
 9056SOL     OW28066   0.827   1.108   1.928
 9056SOL    HW128067   0.750   1.170   1.939
 9056SOL    HW228068   0.803   1.037   1.861
 9057SOL     OW28069   5.714   5.154   5.840
 9057SOL    HW128070   5.623   5.194   5.846
 9057SOL    HW228071   5.749   5.135   5.932
 9058SOL     OW28072   2.530   1.710   3.074
 9058SOL    HW128073   2.520   1.762   2.989
 9058SOL    HW228074   2.474   1.752   3.145
 9059SOL     OW28075   1.240   2.200   4.996
 9059SOL    HW128076   1.165   2.195   5.061
 9059SOL    HW228077   1.282   2.110   4.987
 9060SOL     OW28078   5.923   2.947   2.893
 9060SOL    HW128079   6.010   2.953   2.942
 9060SOL    HW228080   5.941   2.949   2.794
 9061SOL     OW28081   2.820   5.487   1.642
 9061SOL    HW128082   2.804   5.573   1.593
 9061SOL    HW228083   2.758   5.482   1.721
 9062SOL     OW28084   1.957   6.159   1.969
 9062SOL    HW128085   2.027   6.182   2.036
 9062SOL    HW228086   1.893   6.236   1.959
 9063SOL     OW28087   2.614   0.334   2.955
 9063SOL    HW128088   2.686   0.401   2.971
 9063SOL    HW228089   2.526   0.370   2.988
 9064SOL     OW28090   6.430   2.584   5.861
 9064SOL    HW128091   6.515   2.535   5.880
 9064SOL    HW228092   6.443   2.642   5.780
 9065SOL     OW28093   3.250   6.576   6.010
 9065SOL    HW128094   3.322   6.559   6.077
 9065SOL    HW228095   3.233   6.492   5.959
 9066SOL     OW28096   5.373   6.467   0.533
 9066SOL    HW128097   5.379   6.566   0.547
 9066SOL    HW228098   5.457   6.434   0.489
 9067SOL     OW28099   5.911   0.417   4.529
 9067SOL    HW128100   5.825   0.368   4.542
 9067SOL    HW228101   5.918   0.447   4.434
 9068SOL     OW28102   2.797   0.073   5.089
 9068SOL    HW128103   2.845   0.010   5.150
 9068SOL    HW228104   2.712   0.102   5.132
 9069SOL     OW28105   2.182   2.495   1.804
 9069SOL    HW128106   2.090   2.534   1.805
 9069SOL    HW228107   2.180   2.408   1.755
 9070SOL     OW28108   1.553   4.143   5.373
 9070SOL    HW128109   1.541   4.085   5.453
 9070SOL    HW228110   1.647   4.136   5.340
 9071SOL     OW28111   5.573   0.365   1.207
 9071SOL    HW128112   5.655   0.349   1.153
 9071SOL    HW228113   5.495   0.381   1.146
 9072SOL     OW28114   6.771   1.148   2.081
 9072SOL    HW128115   6.776   1.052   2.110
 9072SOL    HW228116   6.729   1.202   2.154
 9073SOL     OW28117   3.374   6.581   1.533
 9073SOL    HW128118   3.454   6.630   1.500
 9073SOL    HW228119   3.403   6.508   1.596
 9074SOL     OW28120   2.343   1.576   1.610
 9074SOL    HW128121   2.414   1.642   1.637
 9074SOL    HW228122   2.365   1.487   1.649
 9075SOL     OW28123   1.498   1.152   3.014
 9075SOL    HW128124   1.453   1.194   3.093
 9075SOL    HW228125   1.537   1.224   2.957
 9076SOL     OW28126   5.734   1.978   4.714
 9076SOL    HW128127   5.635   1.988   4.715
 9076SOL    HW228128   5.777   2.059   4.755
 9077SOL     OW28129   5.733   6.915   0.128
 9077SOL    HW128130   5.805   6.884   0.190
 9077SOL    HW228131   5.775   6.960   0.049
 9078SOL     OW28132   4.450   3.770   6.027
 9078SOL    HW128133   4.489   3.681   6.051
 9078SOL    HW228134   4.426   3.771   5.930
 9079SOL     OW28135   3.335   6.838   3.913
 9079SOL    HW128136   3.242   6.875   3.920
 9079SOL    HW228137   3.336   6.765   3.844
 9080SOL     OW28138   5.011   3.076   6.848
 9080SOL    HW128139   4.945   3.149   6.862
 9080SOL    HW228140   5.010   3.048   6.752
 9081SOL     OW28141   4.262   6.024   3.010
 9081SOL    HW128142   4.171   6.020   3.049
 9081SOL    HW228143   4.329   5.991   3.077
 9082SOL     OW28144   2.481   0.482   5.594
 9082SOL    HW128145   2.428   0.552   5.641
 9082SOL    HW228146   2.428   0.446   5.517
 9083SOL     OW28147   3.222   5.837   6.123
 9083SOL    HW128148   3.158   5.763   6.104
 9083SOL    HW228149   3.230   5.895   6.042
 9084SOL     OW28150   3.013   3.944   5.069
 9084SOL    HW128151   3.088   3.971   5.008
 9084SOL    HW228152   2.930   3.929   5.015
 9085SOL     OW28153   2.513   4.766   1.458
 9085SOL    HW128154   2.611   4.785   1.462
 9085SOL    HW228155   2.464   4.831   1.517
 9086SOL     OW28156   1.114   4.877   0.363
 9086SOL    HW128157   1.053   4.861   0.285
 9086SOL    HW228158   1.206   4.844   0.341
 9087SOL     OW28159   4.865   2.870   1.828
 9087SOL    HW128160   4.780   2.903   1.868
 9087SOL    HW228161   4.942   2.904   1.882
 9088SOL     OW28162   5.511   6.136   0.684
 9088SOL    HW128163   5.538   6.139   0.588
 9088SOL    HW228164   5.528   6.225   0.727
 9089SOL     OW28165   5.506   6.007   5.819
 9089SOL    HW128166   5.566   5.967   5.750
 9089SOL    HW228167   5.525   5.965   5.908
 9090SOL     OW28168   0.107   0.480   3.441
 9090SOL    HW128169   0.079   0.508   3.533
 9090SOL    HW228170   0.081   0.550   3.375
 9091SOL     OW28171   3.041   4.582   0.457
 9091SOL    HW128172   3.137   4.559   0.441
 9091SOL    HW228173   2.983   4.505   0.427
 9092SOL     OW28174   0.778   1.091   0.676
 9092SOL    HW128175   0.747   1.174   0.629
 9092SOL    HW228176   0.744   1.011   0.628
 9093SOL     OW28177   1.340   6.477   5.914
 9093SOL    HW128178   1.406   6.540   5.955
 9093SOL    HW228179   1.247   6.506   5.936
 9094SOL     OW28180   6.465   4.791   2.734
 9094SOL    HW128181   6.389   4.776   2.797
 9094SOL    HW228182   6.462   4.721   2.662
 9095SOL     OW28183   5.343   4.522   5.860
 9095SOL    HW128184   5.378   4.616   5.871
 9095SOL    HW228185   5.368   4.488   5.770
 9096SOL     OW28186   6.188   4.080   2.344
 9096SOL    HW128187   6.271   4.054   2.392
 9096SOL    HW228188   6.112   4.086   2.409
 9097SOL     OW28189   1.089   1.461   0.853
 9097SOL    HW128190   1.033   1.379   0.869
 9097SOL    HW228191   1.090   1.481   0.755
 9098SOL     OW28192   3.481   1.777   5.243
 9098SOL    HW128193   3.503   1.870   5.273
 9098SOL    HW228194   3.384   1.773   5.218
 9099SOL     OW28195   3.249   2.329   5.625
 9099SOL    HW128196   3.157   2.369   5.627
 9099SOL    HW228197   3.268   2.287   5.714
 9100SOL     OW28198   0.371   3.218   3.453
 9100SOL    HW128199   0.389   3.188   3.546
 9100SOL    HW228200   0.305   3.155   3.410
 9101SOL     OW28201   2.276   2.569   2.820
 9101SOL    HW128202   2.259   2.668   2.824
 9101SOL    HW228203   2.368   2.552   2.786
 9102SOL     OW28204   2.662   6.745   1.846
 9102SOL    HW128205   2.593   6.693   1.897
 9102SOL    HW228206   2.621   6.830   1.813
 9103SOL     OW28207   6.779   3.145   6.540
 9103SOL    HW128208   6.816   3.053   6.548
 9103SOL    HW228209   6.767   3.184   6.632
 9104SOL     OW28210   0.457   6.119   2.405
 9104SOL    HW128211   0.488   6.039   2.456
 9104SOL    HW228212   0.358   6.112   2.390
 9105SOL     OW28213   1.150   1.500   6.252
 9105SOL    HW128214   1.127   1.471   6.159
 9105SOL    HW228215   1.115   1.592   6.268
 9106SOL     OW28216   0.210   3.241   1.247
 9106SOL    HW128217   0.291   3.189   1.220
 9106SOL    HW228218   0.141   3.236   1.176
 9107SOL     OW28219   2.908   0.687   6.616
 9107SOL    HW128220   2.926   0.607   6.559
 9107SOL    HW228221   2.948   0.673   6.706
 9108SOL     OW28222   5.293   4.648   5.268
 9108SOL    HW128223   5.239   4.564   5.276
 9108SOL    HW228224   5.385   4.626   5.236
 9109SOL     OW28225   6.536   3.302   3.552
 9109SOL    HW128226   6.603   3.248   3.501
 9109SOL    HW228227   6.534   3.270   3.647
 9110SOL     OW28228   1.870   4.897   4.328
 9110SOL    HW128229   1.856   4.801   4.305
 9110SOL    HW228230   1.934   4.938   4.263
 9111SOL     OW28231   5.726   2.188   0.547
 9111SOL    HW128232   5.670   2.270   0.541
 9111SOL    HW228233   5.819   2.208   0.514
 9112SOL     OW28234   0.962   5.142   3.048
 9112SOL    HW128235   0.893   5.097   2.991
 9112SOL    HW228236   0.917   5.194   3.120
 9113SOL     OW28237   4.699   2.731   2.815
 9113SOL    HW128238   4.616   2.676   2.806
 9113SOL    HW228239   4.773   2.688   2.763
 9114SOL     OW28240   0.431   4.943   3.408
 9114SOL    HW128241   0.486   4.927   3.325
 9114SOL    HW228242   0.491   4.939   3.488
 9115SOL     OW28243   6.685   6.062   4.627
 9115SOL    HW128244   6.626   6.027   4.554
 9115SOL    HW228245   6.667   6.160   4.640
 9116SOL     OW28246   0.038   6.939   2.735
 9116SOL    HW128247   0.079   6.998   2.805
 9116SOL    HW228248   0.065   6.844   2.752
 9117SOL     OW28249   4.287   2.893   6.743
 9117SOL    HW128250   4.364   2.932   6.794
 9117SOL    HW228251   4.238   2.828   6.801
 9118SOL     OW28252   0.298   3.043   0.570
 9118SOL    HW128253   0.373   3.045   0.504
 9118SOL    HW228254   0.335   3.046   0.663
 9119SOL     OW28255   4.199   0.771   2.466
 9119SOL    HW128256   4.179   0.725   2.552
 9119SOL    HW228257   4.274   0.836   2.479
 9120SOL     OW28258   6.638   1.446   5.300
 9120SOL    HW128259   6.563   1.460   5.365
 9120SOL    HW228260   6.644   1.349   5.277
 9121SOL     OW28261   4.074   6.902   5.192
 9121SOL    HW128262   4.091   6.897   5.290
 9121SOL    HW228263   3.977   6.924   5.175
 9122SOL     OW28264   2.371   4.593   2.358
 9122SOL    HW128265   2.327   4.664   2.304
 9122SOL    HW228266   2.444   4.550   2.305
 9123SOL     OW28267   1.697   0.874   4.751
 9123SOL    HW128268   1.695   0.876   4.651
 9123SOL    HW228269   1.610   0.908   4.787
 9124SOL     OW28270   4.442   5.482   0.327
 9124SOL    HW128271   4.463   5.404   0.268
 9124SOL    HW228272   4.398   5.450   0.411
 9125SOL     OW28273   4.361   4.022   0.870
 9125SOL    HW128274   4.300   3.950   0.838
 9125SOL    HW228275   4.394   4.075   0.792
 9126SOL     OW28276   6.267   3.476   1.406
 9126SOL    HW128277   6.347   3.485   1.465
 9126SOL    HW228278   6.184   3.488   1.460
 9127SOL     OW28279   6.272   1.517   5.865
 9127SOL    HW128280   6.281   1.421   5.892
 9127SOL    HW228281   6.305   1.528   5.771
 9128SOL     OW28282   5.598   2.273   5.336
 9128SOL    HW128283   5.594   2.242   5.431
 9128SOL    HW228284   5.692   2.301   5.315
 9129SOL     OW28285   7.005   2.093   7.004
 9129SOL    HW128286   6.951   2.136   0.055
 9129SOL    HW228287   6.988   2.138   6.917
 9130SOL     OW28288   1.402   3.790   6.201
 9130SOL    HW128289   1.319   3.833   6.165
 9130SOL    HW228290   1.409   3.697   6.166
 9131SOL     OW28291   5.515   2.979   6.085
 9131SOL    HW128292   5.498   2.956   5.989
 9131SOL    HW228293   5.542   3.075   6.092
 9132SOL     OW28294   0.520   5.761   4.195
 9132SOL    HW128295   0.541   5.807   4.282
 9132SOL    HW228296   0.565   5.672   4.193
 9133SOL     OW28297   3.774   6.145   1.107
 9133SOL    HW128298   3.774   6.245   1.114
 9133SOL    HW228299   3.767   6.105   1.199
 9134SOL     OW28300   3.531   5.149   1.694
 9134SOL    HW128301   3.494   5.068   1.648
 9134SOL    HW228302   3.519   5.229   1.637
 9135SOL     OW28303   0.073   0.149   1.538
 9135SOL    HW128304   0.037   0.141   1.444
 9135SOL    HW228305   0.113   0.062   1.565
 9136SOL     OW28306   4.639   5.764   6.690
 9136SOL    HW128307   4.559   5.768   6.750
 9136SOL    HW228308   4.656   5.669   6.664
 9137SOL     OW28309   3.935   0.653   6.676
 9137SOL    HW128310   3.838   0.670   6.694
 9137SOL    HW228311   3.945   0.614   6.584
 9138SOL     OW28312   6.868   4.745   6.357
 9138SOL    HW128313   6.909   4.792   6.435
 9138SOL    HW228314   6.910   4.654   6.347
 9139SOL     OW28315   2.091   1.315   2.744
 9139SOL    HW128316   2.139   1.228   2.755
 9139SOL    HW228317   2.127   1.362   2.663
 9140SOL     OW28318   0.021   3.839   2.725
 9140SOL    HW128319   0.031   3.913   2.657
 9140SOL    HW228320   0.072   3.759   2.694
 9141SOL     OW28321   5.587   6.263   1.397
 9141SOL    HW128322   5.522   6.260   1.322
 9141SOL    HW228323   5.638   6.349   1.394
 9142SOL     OW28324   0.498   3.972   1.626
 9142SOL    HW128325   0.433   4.009   1.692
 9142SOL    HW228326   0.462   3.887   1.588
 9143SOL     OW28327   6.413   2.886   0.249
 9143SOL    HW128328   6.467   2.802   0.251
 9143SOL    HW228329   6.388   2.911   0.343
 9144SOL     OW28330   2.815   5.593   4.651
 9144SOL    HW128331   2.823   5.494   4.665
 9144SOL    HW228332   2.760   5.633   4.723
 9145SOL     OW28333   0.674   5.761   6.484
 9145SOL    HW128334   0.642   5.780   6.577
 9145SOL    HW228335   0.752   5.698   6.488
 9146SOL     OW28336   5.455   2.768   3.021
 9146SOL    HW128337   5.529   2.737   2.961
 9146SOL    HW228338   5.371   2.777   2.967
 9147SOL     OW28339   6.112   0.510   5.227
 9147SOL    HW128340   6.063   0.490   5.142
 9147SOL    HW228341   6.204   0.543   5.206
 9148SOL     OW28342   5.283   6.249   2.230
 9148SOL    HW128343   5.277   6.223   2.326
 9148SOL    HW228344   5.378   6.240   2.199
 9149SOL     OW28345   5.198   3.472   2.317
 9149SOL    HW128346   5.133   3.516   2.379
 9149SOL    HW228347   5.282   3.449   2.366
 9150SOL     OW28348   3.288   4.912   1.041
 9150SOL    HW128349   3.305   4.973   0.964
 9150SOL    HW228350   3.191   4.912   1.063
 9151SOL     OW28351   1.596   4.636   3.991
 9151SOL    HW128352   1.639   4.631   4.082
 9151SOL    HW228353   1.632   4.562   3.934
 9152SOL     OW28354   2.240   4.463   4.711
 9152SOL    HW128355   2.187   4.536   4.668
 9152SOL    HW228356   2.180   4.406   4.766
 9153SOL     OW28357   0.348   2.618   6.824
 9153SOL    HW128358   0.425   2.586   6.880
 9153SOL    HW228359   0.373   2.705   6.780
 9154SOL     OW28360   5.088   4.749   5.016
 9154SOL    HW128361   5.183   4.735   5.044
 9154SOL    HW228362   5.072   4.846   5.000
 9155SOL     OW28363   1.945   4.765   2.404
 9155SOL    HW128364   1.905   4.705   2.473
 9155SOL    HW228365   1.914   4.737   2.313
 9156SOL     OW28366   6.652   1.939   1.175
 9156SOL    HW128367   6.739   1.989   1.176
 9156SOL    HW228368   6.653   1.874   1.098
 9157SOL     OW28369   3.255   4.019   6.847
 9157SOL    HW128370   3.291   4.024   6.940
 9157SOL    HW228371   3.155   4.024   6.850
 9158SOL     OW28372   6.474   3.897   4.398
 9158SOL    HW128373   6.475   3.989   4.360
 9158SOL    HW228374   6.523   3.898   4.486
 9159SOL     OW28375   1.878   0.820   3.585
 9159SOL    HW128376   1.911   0.850   3.675
 9159SOL    HW228377   1.797   0.873   3.560
 9160SOL     OW28378   0.882   6.372   5.777
 9160SOL    HW128379   0.875   6.439   5.851
 9160SOL    HW228380   0.836   6.408   5.696
 9161SOL     OW28381   6.013   4.678   2.962
 9161SOL    HW128382   5.918   4.662   2.932
 9161SOL    HW228383   6.060   4.591   2.970
 9162SOL     OW28384   4.431   0.440   2.728
 9162SOL    HW128385   4.418   0.439   2.629
 9162SOL    HW228386   4.346   0.470   2.772
 9163SOL     OW28387   6.797   3.157   3.703
 9163SOL    HW128388   6.719   3.119   3.655
 9163SOL    HW228389   6.838   3.087   3.762
 9164SOL     OW28390   1.882   0.789   6.849
 9164SOL    HW128391   1.953   0.732   6.808
 9164SOL    HW228392   1.854   0.749   6.936
 9165SOL     OW28393   5.327   1.679   6.103
 9165SOL    HW128394   5.378   1.613   6.158
 9165SOL    HW228395   5.230   1.671   6.124
 9166SOL     OW28396   4.750   5.241   0.771
 9166SOL    HW128397   4.688   5.287   0.834
 9166SOL    HW228398   4.843   5.245   0.807
 9167SOL     OW28399   1.947   2.120   5.991
 9167SOL    HW128400   1.899   2.126   5.904
 9167SOL    HW228401   1.884   2.092   6.063
 9168SOL     OW28402   6.883   6.167   6.337
 9168SOL    HW128403   6.947   6.090   6.334
 9168SOL    HW228404   6.802   6.145   6.283
 9169SOL     OW28405   0.101   6.664   6.314
 9169SOL    HW128406   0.089   6.660   6.215
 9169SOL    HW228407   0.049   6.591   6.357
 9170SOL     OW28408   2.103   0.052   6.268
 9170SOL    HW128409   2.069   0.115   6.338
 9170SOL    HW228410   2.182   0.002   6.304
 9171SOL     OW28411   3.602   6.300   0.278
 9171SOL    HW128412   3.545   6.315   0.359
 9171SOL    HW228413   3.578   6.212   0.237
 9172SOL     OW28414   4.678   1.112   3.753
 9172SOL    HW128415   4.722   1.195   3.786
 9172SOL    HW228416   4.721   1.032   3.796
 9173SOL     OW28417   6.406   3.464   5.434
 9173SOL    HW128418   6.467   3.385   5.438
 9173SOL    HW228419   6.354   3.462   5.349
 9174SOL     OW28420   0.831   5.744   6.739
 9174SOL    HW128421   0.859   5.824   6.793
 9174SOL    HW228422   0.866   5.754   6.646
 9175SOL     OW28423   1.317   0.378   6.651
 9175SOL    HW128424   1.339   0.406   6.558
 9175SOL    HW228425   1.286   0.283   6.652
 9176SOL     OW28426   2.707   0.623   2.072
 9176SOL    HW128427   2.633   0.667   2.123
 9176SOL    HW228428   2.673   0.589   1.985
 9177SOL     OW28429   1.231   2.696   3.997
 9177SOL    HW128430   1.139   2.712   3.962
 9177SOL    HW228431   1.296   2.752   3.946
 9178SOL     OW28432   2.068   5.687   6.418
 9178SOL    HW128433   2.036   5.685   6.512
 9178SOL    HW228434   2.014   5.625   6.362
 9179SOL     OW28435   1.813   5.712   5.015
 9179SOL    HW128436   1.850   5.730   4.923
 9179SOL    HW228437   1.765   5.624   5.015
 9180SOL     OW28438   6.372   2.460   3.234
 9180SOL    HW128439   6.367   2.388   3.304
 9180SOL    HW228440   6.365   2.418   3.143
 9181SOL     OW28441   4.854   2.613   3.641
 9181SOL    HW128442   4.771   2.664   3.619
 9181SOL    HW228443   4.895   2.650   3.724
 9182SOL     OW28444   3.264   0.248   2.829
 9182SOL    HW128445   3.257   0.346   2.810
 9182SOL    HW228446   3.316   0.234   2.914
 9183SOL     OW28447   4.953   4.546   6.461
 9183SOL    HW128448   5.011   4.615   6.503
 9183SOL    HW228449   4.863   4.586   6.441
 9184SOL     OW28450   3.673   2.216   1.001
 9184SOL    HW128451   3.728   2.291   1.038
 9184SOL    HW228452   3.732   2.138   0.980
 9185SOL     OW28453   7.004   0.174   5.116
 9185SOL    HW128454   6.983   0.090   5.066
 9185SOL    HW228455   6.929   0.239   5.105
 9186SOL     OW28456   5.491   0.637   5.350
 9186SOL    HW128457   5.392   0.645   5.360
 9186SOL    HW228458   5.536   0.709   5.402
 9187SOL     OW28459   4.261   2.109   0.091
 9187SOL    HW128460   4.238   2.017   0.123
 9187SOL    HW228461   4.221   2.176   0.152
 9188SOL     OW28462   1.593   0.564   1.579
 9188SOL    HW128463   1.586   0.663   1.593
 9188SOL    HW228464   1.651   0.524   1.650
 9189SOL     OW28465   3.310   6.174   2.848
 9189SOL    HW128466   3.395   6.163   2.900
 9189SOL    HW228467   3.232   6.160   2.908
 9190SOL     OW28468   0.788   3.673   4.930
 9190SOL    HW128469   0.764   3.760   4.887
 9190SOL    HW228470   0.825   3.611   4.861
 9191SOL     OW28471   5.856   1.070   6.404
 9191SOL    HW128472   5.822   0.980   6.429
 9191SOL    HW228473   5.904   1.111   6.482
 9192SOL     OW28474   6.195   2.964   5.626
 9192SOL    HW128475   6.290   2.996   5.626
 9192SOL    HW228476   6.193   2.866   5.606
 9193SOL     OW28477   3.972   3.943   4.359
 9193SOL    HW128478   4.018   3.867   4.313
 9193SOL    HW228479   3.905   3.983   4.296
 9194SOL     OW28480   3.818   6.232   2.747
 9194SOL    HW128481   3.850   6.322   2.717
 9194SOL    HW228482   3.740   6.204   2.690
 9195SOL     OW28483   1.694   3.194   3.100
 9195SOL    HW128484   1.721   3.124   3.166
 9195SOL    HW228485   1.752   3.274   3.110
 9196SOL     OW28486   5.358   0.261   3.684
 9196SOL    HW128487   5.419   0.206   3.741
 9196SOL    HW228488   5.319   0.203   3.612
 9197SOL     OW28489   3.426   5.303   0.794
 9197SOL    HW128490   3.456   5.286   0.888
 9197SOL    HW228491   3.502   5.341   0.742
 9198SOL     OW28492   6.043   4.318   6.738
 9198SOL    HW128493   6.045   4.305   6.639
 9198SOL    HW228494   6.093   4.401   6.762
 9199SOL     OW28495   0.257   2.845   6.489
 9199SOL    HW128496   0.162   2.829   6.462
 9199SOL    HW228497   0.306   2.892   6.415
 9200SOL     OW28498   2.129   5.625   5.903
 9200SOL    HW128499   2.122   5.596   5.999
 9200SOL    HW228500   2.077   5.562   5.845
 9201SOL     OW28501   0.443   3.128   0.846
 9201SOL    HW128502   0.521   3.090   0.798
 9201SOL    HW228503   0.472   3.206   0.901
 9202SOL     OW28504   1.216   5.726   4.252
 9202SOL    HW128505   1.135   5.666   4.251
 9202SOL    HW228506   1.297   5.674   4.225
 9203SOL     OW28507   5.559   2.987   5.790
 9203SOL    HW128508   5.515   2.897   5.795
 9203SOL    HW228509   5.646   2.978   5.741
 9204SOL     OW28510   4.868   3.790   4.083
 9204SOL    HW128511   4.822   3.854   4.144
 9204SOL    HW228512   4.815   3.782   3.998
 9205SOL     OW28513   4.835   5.708   2.677
 9205SOL    HW128514   4.772   5.678   2.749
 9205SOL    HW228515   4.929   5.701   2.711
 9206SOL     OW28516   3.433   0.059   3.798
 9206SOL    HW128517   3.516   0.033   3.748
 9206SOL    HW228518   3.393   7.000   3.841
 9207SOL     OW28519   3.660   5.115   6.787
 9207SOL    HW128520   3.675   5.207   6.749
 9207SOL    HW228521   3.725   5.098   6.861
 9208SOL     OW28522   5.315   4.047   2.432
 9208SOL    HW128523   5.369   4.079   2.354
 9208SOL    HW228524   5.298   4.123   2.495
 9209SOL     OW28525   4.253   0.321   1.429
 9209SOL    HW128526   4.172   0.319   1.369
 9209SOL    HW228527   4.234   0.268   1.512
 9210SOL     OW28528   0.372   0.737   1.635
 9210SOL    HW128529   0.447   0.737   1.700
 9210SOL    HW228530   0.371   0.823   1.584
 9211SOL     OW28531   5.518   3.222   6.334
 9211SOL    HW128532   5.521   3.246   6.237
 9211SOL    HW228533   5.544   3.301   6.389
 9212SOL     OW28534   4.957   4.309   5.104
 9212SOL    HW128535   4.907   4.229   5.071
 9212SOL    HW228536   4.953   4.381   5.036
 9213SOL     OW28537   4.680   5.665   4.486
 9213SOL    HW128538   4.659   5.583   4.540
 9213SOL    HW228539   4.595   5.714   4.467
 9214SOL     OW28540   0.161   2.946   5.010
 9214SOL    HW128541   0.190   3.041   5.000
 9214SOL    HW228542   0.100   2.938   5.089
 9215SOL     OW28543   1.184   4.675   2.667
 9215SOL    HW128544   1.111   4.681   2.599
 9215SOL    HW228545   1.164   4.736   2.744
 9216SOL     OW28546   2.418   6.635   3.839
 9216SOL    HW128547   2.513   6.661   3.858
 9216SOL    HW228548   2.357   6.702   3.882
 9217SOL     OW28549   5.923   2.341   0.253
 9217SOL    HW128550   5.824   2.353   0.241
 9217SOL    HW228551   5.944   2.328   0.350
 9218SOL     OW28552   3.740   0.806   6.950
 9218SOL    HW128553   3.664   0.859   6.988
 9218SOL    HW228554   3.813   0.868   6.921
 9219SOL     OW28555   4.339   3.330   5.861
 9219SOL    HW128556   4.328   3.240   5.819
 9219SOL    HW228557   4.347   3.400   5.790
 9220SOL     OW28558   1.572   6.957   2.196
 9220SOL    HW128559   1.659   6.910   2.185
 9220SOL    HW228560   1.498   6.901   2.159
 9221SOL     OW28561   2.687   6.948   4.299
 9221SOL    HW128562   2.750   6.872   4.285
 9221SOL    HW228563   2.689   7.009   4.220
 9222SOL     OW28564   2.826   5.185   5.092
 9222SOL    HW128565   2.851   5.132   5.173
 9222SOL    HW228566   2.731   5.164   5.066
 9223SOL     OW28567   1.146   2.417   4.238
 9223SOL    HW128568   1.072   2.421   4.170
 9223SOL    HW228569   1.115   2.461   4.322
 9224SOL     OW28570   1.501   4.644   3.626
 9224SOL    HW128571   1.553   4.574   3.674
 9224SOL    HW228572   1.505   4.730   3.676
 9225SOL     OW28573   3.861   5.492   5.812
 9225SOL    HW128574   3.784   5.492   5.749
 9225SOL    HW228575   3.902   5.401   5.816
 9226SOL     OW28576   0.820   0.212   1.455
 9226SOL    HW128577   0.833   0.263   1.370
 9226SOL    HW228578   0.909   0.189   1.495
 9227SOL     OW28579   1.687   6.302   1.482
 9227SOL    HW128580   1.768   6.345   1.522
 9227SOL    HW228581   1.707   6.207   1.461
 9228SOL     OW28582   2.520   2.489   0.391
 9228SOL    HW128583   2.444   2.431   0.361
 9228SOL    HW228584   2.594   2.485   0.324
 9229SOL     OW28585   0.965   4.915   6.041
 9229SOL    HW128586   1.044   4.912   6.102
 9229SOL    HW228587   0.993   4.885   5.949
 9230SOL     OW28588   4.916   3.354   2.896
 9230SOL    HW128589   4.913   3.284   2.826
 9230SOL    HW228590   4.972   3.431   2.864
 9231SOL     OW28591   0.870   3.524   5.275
 9231SOL    HW128592   0.903   3.483   5.190
 9231SOL    HW228593   0.821   3.455   5.329
 9232SOL     OW28594   2.963   5.149   0.927
 9232SOL    HW128595   3.051   5.124   0.888
 9232SOL    HW228596   2.890   5.110   0.870
 9233SOL     OW28597   0.201   6.697   1.076
 9233SOL    HW128598   0.280   6.736   1.125
 9233SOL    HW228599   0.233   6.631   1.009
 9234SOL     OW28600   2.187   5.978   0.935
 9234SOL    HW128601   2.106   5.963   0.879
 9234SOL    HW228602   2.229   5.889   0.956
 9235SOL     OW28603   2.145   3.202   3.151
 9235SOL    HW128604   2.113   3.150   3.071
 9235SOL    HW228605   2.181   3.138   3.220
 9236SOL     OW28606   2.762   3.809   6.565
 9236SOL    HW128607   2.800   3.830   6.655
 9236SOL    HW228608   2.718   3.720   6.567
 9237SOL     OW28609   0.768   5.796   3.444
 9237SOL    HW128610   0.864   5.799   3.471
 9237SOL    HW228611   0.739   5.700   3.436
 9238SOL     OW28612   2.895   2.055   6.113
 9238SOL    HW128613   2.911   2.147   6.150
 9238SOL    HW228614   2.818   2.013   6.161
 9239SOL     OW28615   6.870   4.393   6.651
 9239SOL    HW128616   6.927   4.396   6.733
 9239SOL    HW228617   6.830   4.483   6.635
 9240SOL     OW28618   5.244   3.130   2.183
 9240SOL    HW128619   5.166   3.162   2.237
 9240SOL    HW228620   5.298   3.209   2.153
 9241SOL     OW28621   0.629   5.867   0.857
 9241SOL    HW128622   0.648   5.960   0.826
 9241SOL    HW228623   0.545   5.834   0.813
 9242SOL     OW28624   1.668   3.783   1.628
 9242SOL    HW128625   1.615   3.700   1.647
 9242SOL    HW228626   1.708   3.777   1.537
 9243SOL     OW28627   6.964   0.892   2.099
 9243SOL    HW128628   6.997   0.903   2.193
 9243SOL    HW228629   6.931   0.799   2.086
 9244SOL     OW28630   2.919   5.958   5.717
 9244SOL    HW128631   2.905   5.954   5.816
 9244SOL    HW228632   2.838   5.996   5.673
 9245SOL     OW28633   0.862   4.377   3.774
 9245SOL    HW128634   0.941   4.430   3.743
 9245SOL    HW228635   0.778   4.420   3.740
 9246SOL     OW28636   5.487   0.496   3.647
 9246SOL    HW128637   5.555   0.524   3.715
 9246SOL    HW228638   5.439   0.414   3.679
 9247SOL     OW28639   3.161   5.685   2.429
 9247SOL    HW128640   3.185   5.780   2.451
 9247SOL    HW228641   3.089   5.654   2.491
 9248SOL     OW28642   3.289   2.150   4.562
 9248SOL    HW128643   3.384   2.170   4.585
 9248SOL    HW228644   3.241   2.115   4.643
 9249SOL     OW28645   4.710   5.017   1.859
 9249SOL    HW128646   4.807   5.031   1.841
 9249SOL    HW228647   4.655   5.055   1.784
 9250SOL     OW28648   6.308   2.947   3.731
 9250SOL    HW128649   6.245   3.006   3.680
 9250SOL    HW228650   6.282   2.945   3.828
 9251SOL     OW28651   4.032   1.155   2.436
 9251SOL    HW128652   4.022   1.201   2.524
 9251SOL    HW228653   3.955   1.179   2.377
 9252SOL     OW28654   5.705   0.161   4.825
 9252SOL    HW128655   5.775   0.090   4.825
 9252SOL    HW228656   5.687   0.189   4.730
 9253SOL     OW28657   5.601   5.066   5.557
 9253SOL    HW128658   5.503   5.069   5.538
 9253SOL    HW228659   5.617   5.074   5.655
 9254SOL     OW28660   4.472   4.638   2.725
 9254SOL    HW128661   4.528   4.692   2.662
 9254SOL    HW228662   4.383   4.684   2.737
 9255SOL     OW28663   5.107   3.637   0.256
 9255SOL    HW128664   5.183   3.642   0.321
 9255SOL    HW228665   5.095   3.542   0.227
 9256SOL     OW28666   2.690   0.284   2.386
 9256SOL    HW128667   2.742   0.324   2.310
 9256SOL    HW228668   2.663   0.356   2.450
 9257SOL     OW28669   5.948   5.120   3.513
 9257SOL    HW128670   6.002   5.110   3.598
 9257SOL    HW228671   5.918   5.215   3.504
 9258SOL     OW28672   3.974   3.255   1.717
 9258SOL    HW128673   3.921   3.250   1.632
 9258SOL    HW228674   4.040   3.181   1.720
 9259SOL     OW28675   1.635   1.441   0.777
 9259SOL    HW128676   1.586   1.500   0.841
 9259SOL    HW228677   1.637   1.347   0.811
 9260SOL     OW28678   6.294   2.192   5.859
 9260SOL    HW128679   6.194   2.191   5.852
 9260SOL    HW228680   6.334   2.199   5.767
 9261SOL     OW28681   4.310   1.598   6.831
 9261SOL    HW128682   4.405   1.585   6.804
 9261SOL    HW228683   4.251   1.542   6.772
 9262SOL     OW28684   0.726   5.999   5.014
 9262SOL    HW128685   0.774   6.072   5.062
 9262SOL    HW228686   0.635   6.032   4.986
 9263SOL     OW28687   2.846   5.743   2.431
 9263SOL    HW128688   2.897   5.759   2.516
 9263SOL    HW228689   2.859   5.820   2.369
 9264SOL     OW28690   4.747   3.825   0.014
 9264SOL    HW128691   4.817   3.873   6.983
 9264SOL    HW228692   4.743   3.730   7.005
 9265SOL     OW28693   3.268   2.423   0.292
 9265SOL    HW128694   3.184   2.370   0.305
 9265SOL    HW228695   3.255   2.516   0.327
 9266SOL     OW28696   1.183   6.341   1.020
 9266SOL    HW128697   1.103   6.367   0.965
 9266SOL    HW228698   1.266   6.367   0.971
 9267SOL     OW28699   0.335   1.595   4.082
 9267SOL    HW128700   0.398   1.517   4.088
 9267SOL    HW228701   0.280   1.600   4.165
 9268SOL     OW28702   1.563   0.506   2.682
 9268SOL    HW128703   1.609   0.573   2.741
 9268SOL    HW228704   1.530   0.551   2.600
 9269SOL     OW28705   4.163   0.358   5.970
 9269SOL    HW128706   4.079   0.322   6.011
 9269SOL    HW228707   4.195   0.295   5.898
 9270SOL     OW28708   4.231   0.035   5.676
 9270SOL    HW128709   4.198   0.019   5.769
 9270SOL    HW228710   4.221   0.132   5.653
 9271SOL     OW28711   6.050   0.409   0.379
 9271SOL    HW128712   6.006   0.323   0.406
 9271SOL    HW228713   6.138   0.417   0.425
 9272SOL     OW28714   1.274   5.904   6.185
 9272SOL    HW128715   1.351   5.937   6.240
 9272SOL    HW228716   1.292   5.810   6.156
 9273SOL     OW28717   6.642   6.080   3.456
 9273SOL    HW128718   6.721   6.020   3.449
 9273SOL    HW228719   6.636   6.118   3.548
 9274SOL     OW28720   7.014   1.624   0.124
 9274SOL    HW128721   7.004   1.722   0.107
 9274SOL    HW228722   6.926   1.587   0.155
 9275SOL     OW28723   6.315   0.787   0.096
 9275SOL    HW128724   6.263   0.841   0.161
 9275SOL    HW228725   6.408   0.822   0.090
 9276SOL     OW28726   1.879   4.732   0.651
 9276SOL    HW128727   1.951   4.791   0.688
 9276SOL    HW228728   1.830   4.782   0.579
 9277SOL     OW28729   4.260   4.601   2.118
 9277SOL    HW128730   4.201   4.673   2.155
 9277SOL    HW228731   4.251   4.599   2.019
 9278SOL     OW28732   2.073   0.690   5.556
 9278SOL    HW128733   2.094   0.629   5.632
 9278SOL    HW228734   1.974   0.695   5.543
 9279SOL     OW28735   3.041   6.838   1.793
 9279SOL    HW128736   2.955   6.816   1.747
 9279SOL    HW228737   3.100   6.758   1.795
 9280SOL     OW28738   2.869   1.093   2.782
 9280SOL    HW128739   2.888   1.003   2.743
 9280SOL    HW228740   2.904   1.164   2.721
 9281SOL     OW28741   3.432   4.292   0.103
 9281SOL    HW128742   3.347   4.343   0.114
 9281SOL    HW228743   3.460   4.296   0.007
 9282SOL     OW28744   4.808   1.025   4.130
 9282SOL    HW128745   4.879   1.088   4.100
 9282SOL    HW228746   4.825   0.999   4.225
 9283SOL     OW28747   5.241   0.835   4.535
 9283SOL    HW128748   5.175   0.831   4.460
 9283SOL    HW228749   5.257   0.743   4.571
 9284SOL     OW28750   2.853   3.089   5.425
 9284SOL    HW128751   2.882   3.051   5.337
 9284SOL    HW228752   2.762   3.131   5.416
 9285SOL     OW28753   5.176   3.415   1.331
 9285SOL    HW128754   5.126   3.453   1.254
 9285SOL    HW228755   5.129   3.437   1.416
 9286SOL     OW28756   5.239   5.286   0.977
 9286SOL    HW128757   5.264   5.247   0.889
 9286SOL    HW228758   5.299   5.250   1.048
 9287SOL     OW28759   4.058   4.884   6.057
 9287SOL    HW128760   4.130   4.946   6.088
 9287SOL    HW228761   4.017   4.921   5.973
 9288SOL     OW28762   4.429   2.047   2.860
 9288SOL    HW128763   4.459   2.138   2.832
 9288SOL    HW228764   4.355   2.017   2.801
 9289SOL     OW28765   4.768   0.053   0.887
 9289SOL    HW128766   4.822   0.012   0.815
 9289SOL    HW228767   4.814   0.136   0.920
 9290SOL     OW28768   5.607   1.235   3.922
 9290SOL    HW128769   5.683   1.238   3.857
 9290SOL    HW228770   5.539   1.304   3.898
 9291SOL     OW28771   1.442   5.266   5.839
 9291SOL    HW128772   1.405   5.329   5.771
 9291SOL    HW228773   1.539   5.249   5.820
 9292SOL     OW28774   2.640   2.323   6.600
 9292SOL    HW128775   2.576   2.316   6.676
 9292SOL    HW228776   2.732   2.342   6.634
 9293SOL     OW28777   5.955   4.020   6.783
 9293SOL    HW128778   5.967   4.119   6.796
 9293SOL    HW228779   6.040   3.981   6.749
 9294SOL     OW28780   5.489   1.437   6.054
 9294SOL    HW128781   5.432   1.386   5.990
 9294SOL    HW228782   5.546   1.502   6.003
 9295SOL     OW28783   5.654   0.305   5.780
 9295SOL    HW128784   5.616   0.397   5.784
 9295SOL    HW228785   5.655   0.273   5.685
 9296SOL     OW28786   1.922   5.297   0.162
 9296SOL    HW128787   1.938   5.325   0.067
 9296SOL    HW228788   1.848   5.229   0.165
 9297SOL     OW28789   1.011   6.910   2.691
 9297SOL    HW128790   0.932   6.970   2.683
 9297SOL    HW228791   1.013   6.846   2.614
 9298SOL     OW28792   1.454   6.317   6.280
 9298SOL    HW128793   1.402   6.296   6.198
 9298SOL    HW228794   1.534   6.258   6.285
 9299SOL     OW28795   1.242   2.187   4.522
 9299SOL    HW128796   1.157   2.241   4.524
 9299SOL    HW228797   1.313   2.239   4.474
 9300SOL     OW28798   0.121   5.381   5.651
 9300SOL    HW128799   0.052   5.324   5.696
 9300SOL    HW228800   0.076   5.451   5.596
 9301SOL     OW28801   5.752   5.245   4.675
 9301SOL    HW128802   5.809   5.173   4.634
 9301SOL    HW228803   5.656   5.217   4.672
 9302SOL     OW28804   2.157   3.311   4.468
 9302SOL    HW128805   2.135   3.214   4.474
 9302SOL    HW228806   2.132   3.356   4.554
 9303SOL     OW28807   2.964   3.695   0.906
 9303SOL    HW128808   2.996   3.602   0.887
 9303SOL    HW228809   2.952   3.707   1.005
 9304SOL     OW28810   4.375   4.638   0.597
 9304SOL    HW128811   4.375   4.687   0.683
 9304SOL    HW228812   4.403   4.699   0.523
 9305SOL     OW28813   3.575   0.365   0.626
 9305SOL    HW128814   3.643   0.388   0.557
 9305SOL    HW228815   3.484   0.364   0.585
 9306SOL     OW28816   1.410   3.920   5.733
 9306SOL    HW128817   1.351   3.913   5.653
 9306SOL    HW228818   1.365   3.877   5.811
 9307SOL     OW28819   0.846   4.053   0.212
 9307SOL    HW128820   0.800   4.066   0.299
 9307SOL    HW228821   0.921   3.987   0.223
 9308SOL     OW28822   1.705   3.876   2.114
 9308SOL    HW128823   1.631   3.899   2.051
 9308SOL    HW228824   1.780   3.833   2.062
 9309SOL     OW28825   3.743   5.700   5.632
 9309SOL    HW128826   3.664   5.660   5.679
 9309SOL    HW228827   3.779   5.776   5.687
 9310SOL     OW28828   5.457   6.433   5.730
 9310SOL    HW128829   5.379   6.465   5.676
 9310SOL    HW228830   5.540   6.440   5.676
 9311SOL     OW28831   5.523   4.606   1.401
 9311SOL    HW128832   5.494   4.575   1.491
 9311SOL    HW228833   5.589   4.541   1.363
 9312SOL     OW28834   1.919   2.670   0.977
 9312SOL    HW128835   1.993   2.685   0.910
 9312SOL    HW228836   1.877   2.581   0.959
 9313SOL     OW28837   0.263   0.274   1.906
 9313SOL    HW128838   0.175   0.268   1.859
 9313SOL    HW228839   0.276   0.366   1.941
 9314SOL     OW28840   7.010   3.545   6.907
 9314SOL    HW128841   0.007   3.451   6.877
 9314SOL    HW228842   6.985   3.600   6.827
 9315SOL     OW28843   6.847   0.198   5.772
 9315SOL    HW128844   6.855   0.188   5.872
 9315SOL    HW228845   6.936   0.221   5.734
 9316SOL     OW28846   6.160   6.565   5.590
 9316SOL    HW128847   6.139   6.648   5.539
 9316SOL    HW228848   6.086   6.546   5.655
 9317SOL     OW28849   4.236   5.630   4.105
 9317SOL    HW128850   4.183   5.611   4.187
 9317SOL    HW228851   4.333   5.609   4.121
 9318SOL     OW28852   5.790   0.061   6.931
 9318SOL    HW128853   5.796   0.011   6.845
 9318SOL    HW228854   5.823   0.155   6.918
 9319SOL     OW28855   2.372   2.792   1.025
 9319SOL    HW128856   2.395   2.888   1.041
 9319SOL    HW228857   2.396   2.738   1.106
 9320SOL     OW28858   4.265   0.527   5.565
 9320SOL    HW128859   4.295   0.510   5.659
 9320SOL    HW228860   4.254   0.626   5.551
 9321SOL     OW28861   0.653   0.897   4.998
 9321SOL    HW128862   0.651   0.997   5.000
 9321SOL    HW228863   0.615   0.865   4.912
 9322SOL     OW28864   0.110   4.318   6.822
 9322SOL    HW128865   0.187   4.356   6.770
 9322SOL    HW228866   0.102   4.365   6.910
 9323SOL     OW28867   1.414   1.582   4.843
 9323SOL    HW128868   1.380   1.489   4.858
 9323SOL    HW228869   1.424   1.599   4.745
 9324SOL     OW28870   1.896   3.910   2.700
 9324SOL    HW128871   1.895   4.010   2.692
 9324SOL    HW228872   1.985   3.881   2.736
 9325SOL     OW28873   6.987   0.271   0.594
 9325SOL    HW128874   6.962   0.263   0.690
 9325SOL    HW228875   6.970   0.364   0.562
 9326SOL     OW28876   2.774   4.970   0.109
 9326SOL    HW128877   2.824   5.056   0.122
 9326SOL    HW228878   2.765   4.924   0.197
 9327SOL     OW28879   4.466   6.886   2.451
 9327SOL    HW128880   4.439   6.919   2.541
 9327SOL    HW228881   4.429   6.794   2.436
 9328SOL     OW28882   1.675   0.592   4.951
 9328SOL    HW128883   1.607   0.543   5.005
 9328SOL    HW228884   1.729   0.527   4.897
 9329SOL     OW28885   6.547   5.080   1.115
 9329SOL    HW128886   6.591   5.111   1.199
 9329SOL    HW228887   6.602   5.107   1.036
 9330SOL     OW28888   0.117   6.990   5.797
 9330SOL    HW128889   0.137   6.892   5.795
 9330SOL    HW228890   0.071   7.013   5.882
 9331SOL     OW28891   1.948   1.486   6.157
 9331SOL    HW128892   1.974   1.394   6.128
 9331SOL    HW228893   1.914   1.538   6.078
 9332SOL     OW28894   4.213   5.127   0.518
 9332SOL    HW128895   4.289   5.192   0.527
 9332SOL    HW228896   4.140   5.169   0.464
 9333SOL     OW28897   4.123   5.242   6.377
 9333SOL    HW128898   4.180   5.308   6.425
 9333SOL    HW228899   4.106   5.163   6.437
 9334SOL     OW28900   4.695   6.183   5.025
 9334SOL    HW128901   4.658   6.091   5.022
 9334SOL    HW228902   4.697   6.221   4.932
 9335SOL     OW28903   1.710   1.582   6.986
 9335SOL    HW128904   1.764   1.651   0.014
 9335SOL    HW228905   1.730   1.589   6.888
 9336SOL     OW28906   4.676   6.679   4.288
 9336SOL    HW128907   4.761   6.681   4.340
 9336SOL    HW228908   4.680   6.748   4.216
 9337SOL     OW28909   4.822   1.448   5.653
 9337SOL    HW128910   4.839   1.375   5.718
 9337SOL    HW228911   4.852   1.535   5.692
 9338SOL     OW28912   5.964   6.487   1.005
 9338SOL    HW128913   5.894   6.448   0.945
 9338SOL    HW228914   5.941   6.468   1.100
 9339SOL     OW28915   5.957   5.751   0.033
 9339SOL    HW128916   6.049   5.724   0.062
 9339SOL    HW228917   5.904   5.779   0.113
 9340SOL     OW28918   3.759   5.007   2.914
 9340SOL    HW128919   3.705   4.982   2.834
 9340SOL    HW228920   3.731   5.096   2.948
 9341SOL     OW28921   5.864   4.771   1.235
 9341SOL    HW128922   5.853   4.837   1.309
 9341SOL    HW228923   5.923   4.808   1.164
 9342SOL     OW28924   2.362   0.315   4.897
 9342SOL    HW128925   2.328   0.361   4.979
 9342SOL    HW228926   2.330   0.364   4.815
 9343SOL     OW28927   5.547   4.176   1.988
 9343SOL    HW128928   5.483   4.172   2.065
 9343SOL    HW228929   5.593   4.088   1.979
 9344SOL     OW28930   5.061   6.015   0.777
 9344SOL    HW128931   5.100   5.957   0.705
 9344SOL    HW228932   5.003   6.085   0.735
 9345SOL     OW28933   6.516   4.717   1.934
 9345SOL    HW128934   6.515   4.813   1.906
 9345SOL    HW228935   6.463   4.706   2.018
 9346SOL     OW28936   4.637   0.143   1.891
 9346SOL    HW128937   4.729   0.177   1.871
 9346SOL    HW228938   4.635   0.043   1.880
 9347SOL     OW28939   3.194   5.973   0.509
 9347SOL    HW128940   3.266   5.903   0.507
 9347SOL    HW228941   3.109   5.933   0.543
 9348SOL     OW28942   2.485   5.197   2.678
 9348SOL    HW128943   2.447   5.171   2.590
 9348SOL    HW228944   2.582   5.220   2.667
 9349SOL     OW28945   6.674   5.392   2.623
 9349SOL    HW128946   6.677   5.444   2.708
 9349SOL    HW228947   6.755   5.335   2.615
 9350SOL     OW28948   6.582   1.974   4.293
 9350SOL    HW128949   6.590   1.898   4.358
 9350SOL    HW228950   6.674   2.005   4.267
 9351SOL     OW28951   3.437   0.344   6.188
 9351SOL    HW128952   3.401   0.263   6.233
 9351SOL    HW228953   3.424   0.336   6.089
 9352SOL     OW28954   3.643   2.679   6.128
 9352SOL    HW128955   3.672   2.597   6.178
 9352SOL    HW228956   3.634   2.657   6.031
 9353SOL     OW28957   1.605   4.073   0.942
 9353SOL    HW128958   1.662   4.155   0.935
 9353SOL    HW228959   1.508   4.100   0.938
 9354SOL     OW28960   6.740   2.181   6.536
 9354SOL    HW128961   6.649   2.178   6.493
 9354SOL    HW228962   6.804   2.227   6.475
 9355SOL     OW28963   6.758   1.886   4.672
 9355SOL    HW128964   6.776   1.858   4.767
 9355SOL    HW228965   6.725   1.807   4.620
 9356SOL     OW28966   4.727   5.606   1.582
 9356SOL    HW128967   4.728   5.521   1.634
 9356SOL    HW228968   4.683   5.590   1.493
 9357SOL     OW28969   3.259   3.239   6.516
 9357SOL    HW128970   3.228   3.144   6.521
 9357SOL    HW228971   3.280   3.272   6.608
 9358SOL     OW28972   6.742   3.301   2.899
 9358SOL    HW128973   6.789   3.273   2.815
 9358SOL    HW228974   6.807   3.343   2.962
 9359SOL     OW28975   1.099   3.757   5.713
 9359SOL    HW128976   1.054   3.829   5.661
 9359SOL    HW228977   1.038   3.678   5.719
 9360SOL     OW28978   1.729   6.450   6.223
 9360SOL    HW128979   1.812   6.452   6.168
 9360SOL    HW228980   1.697   6.356   6.232
 9361SOL     OW28981   1.283   6.541   2.986
 9361SOL    HW128982   1.248   6.465   2.931
 9361SOL    HW228983   1.218   6.616   2.984
 9362SOL     OW28984   1.907   2.609   2.431
 9362SOL    HW128985   1.859   2.611   2.343
 9362SOL    HW228986   1.944   2.517   2.447
 9363SOL     OW28987   3.612   6.128   1.671
 9363SOL    HW128988   3.525   6.150   1.629
 9363SOL    HW228989   3.598   6.063   1.746
 9364SOL     OW28990   3.804   3.088   5.448
 9364SOL    HW128991   3.794   3.079   5.547
 9364SOL    HW228992   3.751   3.167   5.416
 9365SOL     OW28993   2.199   2.331   5.356
 9365SOL    HW128994   2.241   2.351   5.267
 9365SOL    HW228995   2.209   2.411   5.416
 9366SOL     OW28996   3.575   0.035   6.936
 9366SOL    HW128997   3.497   0.085   6.899
 9366SOL    HW228998   3.580   0.047   0.013
 9367SOL     OW28999   6.792   6.141   2.550
 9367SOL    HW129000   6.878   6.148   2.500
 9367SOL    HW229001   6.724   6.201   2.509
 9368SOL     OW29002   2.793   1.532   3.706
 9368SOL    HW129003   2.741   1.448   3.692
 9368SOL    HW229004   2.864   1.540   3.635
 9369SOL     OW29005   6.860   0.158   4.833
 9369SOL    HW129006   6.785   0.156   4.767
 9369SOL    HW229007   6.914   0.242   4.820
 9370SOL     OW29008   5.132   0.057   2.220
 9370SOL    HW129009   5.082   0.017   2.143
 9370SOL    HW229010   5.211   7.021   2.243
 9371SOL     OW29011   2.326   4.828   0.521
 9371SOL    HW129012   2.378   4.742   0.524
 9371SOL    HW229013   2.236   4.811   0.481
 9372SOL     OW29014   5.406   6.417   2.921
 9372SOL    HW129015   5.504   6.408   2.939
 9372SOL    HW229016   5.390   6.498   2.864
 9373SOL     OW29017   4.725   1.885   1.744
 9373SOL    HW129018   4.658   1.828   1.695
 9373SOL    HW229019   4.764   1.833   1.820
 9374SOL     OW29020   0.853   3.410   0.935
 9374SOL    HW129021   0.822   3.469   0.860
 9374SOL    HW229022   0.825   3.316   0.916
 9375SOL     OW29023   6.207   1.489   3.094
 9375SOL    HW129024   6.110   1.505   3.114
 9375SOL    HW229025   6.219   1.471   2.996
 9376SOL     OW29026   2.896   4.499   0.846
 9376SOL    HW129027   2.885   4.576   0.783
 9376SOL    HW229028   2.993   4.489   0.869
 9377SOL     OW29029   1.804   5.551   3.936
 9377SOL    HW129030   1.874   5.562   3.865
 9377SOL    HW229031   1.829   5.476   3.996
 9378SOL     OW29032   1.425   1.361   5.120
 9378SOL    HW129033   1.524   1.375   5.127
 9378SOL    HW229034   1.404   1.264   5.128
 9379SOL     OW29035   3.906   5.815   5.157
 9379SOL    HW129036   3.910   5.785   5.062
 9379SOL    HW229037   3.996   5.849   5.185
 9380SOL     OW29038   5.544   5.277   5.198
 9380SOL    HW129039   5.640   5.257   5.178
 9380SOL    HW229040   5.486   5.236   5.128
 9381SOL     OW29041   3.637   2.672   5.840
 9381SOL    HW129042   3.590   2.681   5.752
 9381SOL    HW229043   3.736   2.676   5.825
 9382SOL     OW29044   3.472   0.738   2.854
 9382SOL    HW129045   3.509   0.814   2.802
 9382SOL    HW229046   3.541   0.704   2.918
 9383SOL     OW29047   1.532   5.921   4.371
 9383SOL    HW129048   1.478   5.927   4.287
 9383SOL    HW229049   1.629   5.912   4.347
 9384SOL     OW29050   3.089   0.068   2.006
 9384SOL    HW129051   3.185   0.038   2.006
 9384SOL    HW229052   3.034   0.001   1.957
 9385SOL     OW29053   3.771   0.374   3.173
 9385SOL    HW129054   3.767   0.333   3.082
 9385SOL    HW229055   3.836   0.450   3.173
 9386SOL     OW29056   2.332   6.147   4.883
 9386SOL    HW129057   2.257   6.169   4.821
 9386SOL    HW229058   2.295   6.109   4.968
 9387SOL     OW29059   2.340   1.672   6.897
 9387SOL    HW129060   2.429   1.670   6.943
 9387SOL    HW229061   2.273   1.620   6.950
 9388SOL     OW29062   2.068   5.196   2.954
 9388SOL    HW129063   1.997   5.261   2.925
 9388SOL    HW229064   2.056   5.177   3.052
 9389SOL     OW29065   1.549   0.462   4.316
 9389SOL    HW129066   1.603   0.485   4.234
 9389SOL    HW229067   1.607   0.470   4.397
 9390SOL     OW29068   4.589   4.934   4.646
 9390SOL    HW129069   4.602   5.034   4.646
 9390SOL    HW229070   4.565   4.904   4.738
 9391SOL     OW29071   2.285   1.553   5.173
 9391SOL    HW129072   2.307   1.649   5.163
 9391SOL    HW229073   2.246   1.537   5.264
 9392SOL     OW29074   6.838   0.575   5.822
 9392SOL    HW129075   6.742   0.567   5.795
 9392SOL    HW229076   6.859   0.670   5.842
 9393SOL     OW29077   3.388   6.859   6.068
 9393SOL    HW129078   3.323   6.883   6.140
 9393SOL    HW229079   3.367   6.912   5.985
 9394SOL     OW29080   0.576   1.431   2.208
 9394SOL    HW129081   0.640   1.470   2.274
 9394SOL    HW229082   0.492   1.485   2.206
 9395SOL     OW29083   2.721   1.928   0.897
 9395SOL    HW129084   2.748   1.835   0.924
 9395SOL    HW229085   2.802   1.978   0.866
 9396SOL     OW29086   2.026   5.010   4.173
 9396SOL    HW129087   2.043   5.107   4.193
 9396SOL    HW229088   2.113   4.962   4.163
 9397SOL     OW29089   4.367   0.083   6.889
 9397SOL    HW129090   4.425   0.001   6.881
 9397SOL    HW229091   4.284   0.069   6.835
 9398SOL     OW29092   6.972   0.489   4.904
 9398SOL    HW129093   0.005   0.439   4.838
 9398SOL    HW229094   6.915   0.425   4.956
 9399SOL     OW29095   0.180   1.891   5.554
 9399SOL    HW129096   0.219   1.978   5.584
 9399SOL    HW229097   0.253   1.831   5.523
 9400SOL     OW29098   4.136   1.246   1.794
 9400SOL    HW129099   4.162   1.230   1.889
 9400SOL    HW229100   4.049   1.296   1.792
 9401SOL     OW29101   5.667   0.361   3.474
 9401SOL    HW129102   5.587   0.397   3.522
 9401SOL    HW229103   5.682   0.413   3.390
 9402SOL     OW29104   1.231   4.882   3.879
 9402SOL    HW129105   1.319   4.856   3.839
 9402SOL    HW229106   1.244   4.908   3.974
 9403SOL     OW29107   5.896   1.454   3.095
 9403SOL    HW129108   5.918   1.547   3.065
 9403SOL    HW229109   5.797   1.446   3.109
 9404SOL     OW29110   1.264   3.222   6.931
 9404SOL    HW129111   1.323   3.301   6.916
 9404SOL    HW229112   1.194   3.218   6.859
 9405SOL     OW29113   1.372   5.390   2.645
 9405SOL    HW129114   1.449   5.435   2.599
 9405SOL    HW229115   1.383   5.291   2.640
 9406SOL     OW29116   6.733   2.973   5.525
 9406SOL    HW129117   6.755   3.054   5.580
 9406SOL    HW229118   6.634   2.965   5.515
 9407SOL     OW29119   2.747   5.435   2.901
 9407SOL    HW129120   2.774   5.381   2.980
 9407SOL    HW229121   2.816   5.425   2.829
 9408SOL     OW29122   5.528   2.045   6.221
 9408SOL    HW129123   5.625   2.067   6.209
 9408SOL    HW229124   5.475   2.129   6.232
 9409SOL     OW29125   6.094   5.578   0.270
 9409SOL    HW129126   6.087   5.497   0.212
 9409SOL    HW229127   6.003   5.603   0.305
 9410SOL     OW29128   3.047   0.339   1.913
 9410SOL    HW129129   3.005   0.415   1.962
 9410SOL    HW229130   3.078   0.269   1.979
 9411SOL     OW29131   3.077   3.052   2.040
 9411SOL    HW129132   3.035   2.987   1.977
 9411SOL    HW229133   3.049   3.145   2.014
 9412SOL     OW29134   6.773   2.319   2.636
 9412SOL    HW129135   6.731   2.237   2.597
 9412SOL    HW229136   6.709   2.361   2.701
 9413SOL     OW29137   3.174   6.227   3.562
 9413SOL    HW129138   3.173   6.211   3.661
 9413SOL    HW229139   3.080   6.230   3.528
 9414SOL     OW29140   3.346   0.422   3.568
 9414SOL    HW129141   3.258   0.462   3.545
 9414SOL    HW229142   3.419   0.476   3.527
 9415SOL     OW29143   3.143   6.563   1.708
 9415SOL    HW129144   3.068   6.596   1.651
 9415SOL    HW229145   3.217   6.529   1.650
 9416SOL     OW29146   0.487   2.702   0.961
 9416SOL    HW129147   0.532   2.614   0.950
 9416SOL    HW229148   0.544   2.763   1.015
 9417SOL     OW29149   3.999   0.220   6.176
 9417SOL    HW129150   4.097   0.233   6.191
 9417SOL    HW229151   3.964   0.150   6.239
 9418SOL     OW29152   3.576   6.619   1.175
 9418SOL    HW129153   3.640   6.695   1.182
 9418SOL    HW229154   3.523   6.627   1.091
 9419SOL     OW29155   3.595   5.617   5.935
 9419SOL    HW129156   3.625   5.711   5.949
 9419SOL    HW229157   3.665   5.554   5.968
 9420SOL     OW29158   6.636   3.588   5.578
 9420SOL    HW129159   6.656   3.686   5.567
 9420SOL    HW229160   6.574   3.559   5.506
 9421SOL     OW29161   2.166   6.608   4.259
 9421SOL    HW129162   2.101   6.671   4.217
 9421SOL    HW229163   2.120   6.556   4.331
 9422SOL     OW29164   3.795   5.639   3.616
 9422SOL    HW129165   3.733   5.655   3.692
 9422SOL    HW229166   3.869   5.706   3.619
 9423SOL     OW29167   3.409   0.337   3.822
 9423SOL    HW129168   3.381   0.372   3.733
 9423SOL    HW229169   3.431   0.239   3.815
 9424SOL     OW29170   5.454   0.980   4.552
 9424SOL    HW129171   5.431   1.072   4.584
 9424SOL    HW229172   5.375   0.920   4.561
 9425SOL     OW29173   6.662   3.261   0.049
 9425SOL    HW129174   6.592   3.192   0.029
 9425SOL    HW229175   6.700   3.294   6.984
 9426SOL     OW29176   3.582   1.794   6.283
 9426SOL    HW129177   3.614   1.887   6.299
 9426SOL    HW229178   3.499   1.778   6.337
 9427SOL     OW29179   2.678   4.816   3.458
 9427SOL    HW129180   2.685   4.853   3.551
 9427SOL    HW229181   2.744   4.741   3.447
 9428SOL     OW29182   6.223   0.597   1.107
 9428SOL    HW129183   6.248   0.687   1.144
 9428SOL    HW229184   6.213   0.604   1.007
 9429SOL     OW29185   2.096   3.691   2.492
 9429SOL    HW129186   2.000   3.687   2.464
 9429SOL    HW229187   2.155   3.677   2.412
 9430SOL     OW29188   0.666   4.153   2.929
 9430SOL    HW129189   0.570   4.128   2.941
 9430SOL    HW229190   0.687   4.234   2.984
 9431SOL     OW29191   6.393   4.090   1.387
 9431SOL    HW129192   6.373   4.013   1.447
 9431SOL    HW229193   6.312   4.114   1.334
 9432SOL     OW29194   4.677   0.506   2.878
 9432SOL    HW129195   4.622   0.453   2.814
 9432SOL    HW229196   4.711   0.447   2.951
 9433SOL     OW29197   2.859   5.437   2.566
 9433SOL    HW129198   2.810   5.359   2.606
 9433SOL    HW229199   2.826   5.452   2.473
 9434SOL     OW29200   5.400   4.821   2.959
 9434SOL    HW129201   5.498   4.803   2.966
 9434SOL    HW229202   5.385   4.894   2.892
 9435SOL     OW29203   0.063   2.682   4.418
 9435SOL    HW129204   0.037   2.595   4.376
 9435SOL    HW229205   0.092   2.666   4.512
 9436SOL     OW29206   1.650   2.567   1.649
 9436SOL    HW129207   1.553   2.546   1.663
 9436SOL    HW229208   1.662   2.666   1.644
 9437SOL     OW29209   1.663   5.872   3.197
 9437SOL    HW129210   1.598   5.886   3.272
 9437SOL    HW229211   1.654   5.946   3.130
 9438SOL     OW29212   7.002   0.213   1.788
 9438SOL    HW129213   6.938   0.282   1.823
 9438SOL    HW229214   7.008   0.221   1.688
 9439SOL     OW29215   0.762   3.569   1.244
 9439SOL    HW129216   0.821   3.511   1.188
 9439SOL    HW229217   0.727   3.645   1.189
 9440SOL     OW29218   4.029   4.796   3.550
 9440SOL    HW129219   4.087   4.763   3.475
 9440SOL    HW229220   3.940   4.824   3.513
 9441SOL     OW29221   0.584   3.598   5.114
 9441SOL    HW129222   0.667   3.621   5.062
 9441SOL    HW229223   0.587   3.645   5.203
 9442SOL     OW29224   4.393   2.858   0.748
 9442SOL    HW129225   4.406   2.815   0.837
 9442SOL    HW229226   4.445   2.808   0.679
 9443SOL     OW29227   2.183   5.438   0.903
 9443SOL    HW129228   2.257   5.502   0.884
 9443SOL    HW229229   2.120   5.479   0.969
 9444SOL     OW29230   1.213   3.209   0.183
 9444SOL    HW129231   1.229   3.232   0.087
 9444SOL    HW229232   1.264   3.274   0.241
 9445SOL     OW29233   5.659   3.612   3.778
 9445SOL    HW129234   5.617   3.535   3.825
 9445SOL    HW229235   5.687   3.680   3.846
 9446SOL     OW29236   6.510   5.600   4.068
 9446SOL    HW129237   6.607   5.589   4.091
 9446SOL    HW229238   6.454   5.592   4.150
 9447SOL     OW29239   6.017   3.688   4.674
 9447SOL    HW129240   6.077   3.723   4.602
 9447SOL    HW229241   5.925   3.726   4.662
 9448SOL     OW29242   0.117   0.274   6.740
 9448SOL    HW129243   0.110   0.374   6.741
 9448SOL    HW229244   0.059   0.238   6.666
 9449SOL     OW29245   6.536   5.857   0.321
 9449SOL    HW129246   6.500   5.781   0.376
 9449SOL    HW229247   6.461   5.917   0.294
 9450SOL     OW29248   2.549   5.442   4.869
 9450SOL    HW129249   2.535   5.369   4.936
 9450SOL    HW229250   2.521   5.409   4.779
 9451SOL     OW29251   4.204   6.744   5.939
 9451SOL    HW129252   4.150   6.669   5.976
 9451SOL    HW229253   4.301   6.720   5.942
 9452SOL     OW29254   2.024   4.280   0.167
 9452SOL    HW129255   1.953   4.313   0.229
 9452SOL    HW229256   2.068   4.358   0.121
 9453SOL     OW29257   1.764   4.777   3.667
 9453SOL    HW129258   1.736   4.826   3.585
 9453SOL    HW229259   1.825   4.702   3.643
 9454SOL     OW29260   3.550   2.928   6.895
 9454SOL    HW129261   3.645   2.900   6.881
 9454SOL    HW229262   3.542   2.976   6.983
 9455SOL     OW29263   3.466   1.716   2.891
 9455SOL    HW129264   3.385   1.700   2.947
 9455SOL    HW229265   3.451   1.796   2.833
 9456SOL     OW29266   0.649   3.168   1.237
 9456SOL    HW129267   0.655   3.264   1.265
 9456SOL    HW229268   0.685   3.110   1.310
 9457SOL     OW29269   2.247   3.816   5.265
 9457SOL    HW129270   2.298   3.811   5.351
 9457SOL    HW229271   2.303   3.862   5.196
 9458SOL     OW29272   1.269   2.934   0.000
 9458SOL    HW129273   1.259   3.028   6.988
 9458SOL    HW229274   1.364   2.920   0.030
 9459SOL     OW29275   5.330   4.453   3.278
 9459SOL    HW129276   5.298   4.425   3.369
 9459SOL    HW229277   5.264   4.515   3.237
 9460SOL     OW29278   6.919   2.970   3.840
 9460SOL    HW129279   6.853   3.001   3.909
 9460SOL    HW229280   6.997   2.926   3.885
 9461SOL     OW29281   6.690   1.628   2.170
 9461SOL    HW129282   6.708   1.713   2.220
 9461SOL    HW229283   6.775   1.596   2.129
 9462SOL     OW29284   2.170   3.910   3.379
 9462SOL    HW129285   2.155   3.894   3.282
 9462SOL    HW229286   2.117   3.843   3.432
 9463SOL     OW29287   6.366   0.648   2.190
 9463SOL    HW129288   6.411   0.590   2.122
 9463SOL    HW229289   6.285   0.601   2.226
 9464SOL     OW29290   6.349   0.350   0.869
 9464SOL    HW129291   6.399   0.362   0.954
 9464SOL    HW229292   6.402   0.292   0.806
 9465SOL     OW29293   1.687   4.899   2.514
 9465SOL    HW129294   1.766   4.895   2.575
 9465SOL    HW229295   1.625   4.823   2.537
 9466SOL     OW29296   4.494   4.995   6.153
 9466SOL    HW129297   4.535   4.905   6.164
 9466SOL    HW229298   4.520   5.034   6.064
 9467SOL     OW29299   1.574   2.516   2.383
 9467SOL    HW129300   1.606   2.608   2.360
 9467SOL    HW229301   1.477   2.519   2.407
 9468SOL     OW29302   5.957   3.571   6.298
 9468SOL    HW129303   5.924   3.664   6.280
 9468SOL    HW229304   6.012   3.539   6.220
 9469SOL     OW29305   6.620   5.806   2.008
 9469SOL    HW129306   6.621   5.896   1.966
 9469SOL    HW229307   6.657   5.739   1.944
 9470SOL     OW29308   4.821   3.149   5.403
 9470SOL    HW129309   4.863   3.215   5.465
 9470SOL    HW229310   4.722   3.156   5.409
 9471SOL     OW29311   0.141   1.818   4.624
 9471SOL    HW129312   0.107   1.724   4.631
 9471SOL    HW229313   0.115   1.869   4.706
 9472SOL     OW29314   6.214   3.552   5.116
 9472SOL    HW129315   6.157   3.529   5.037
 9472SOL    HW229316   6.170   3.519   5.200
 9473SOL     OW29317   2.879   5.231   6.467
 9473SOL    HW129318   2.893   5.311   6.527
 9473SOL    HW229319   2.861   5.262   6.374
 9474SOL     OW29320   0.533   2.523   6.990
 9474SOL    HW129321   0.468   2.522   0.044
 9474SOL    HW229322   0.559   2.429   6.967
 9475SOL     OW29323   3.267   3.579   6.282
 9475SOL    HW129324   3.209   3.500   6.303
 9475SOL    HW229325   3.360   3.561   6.315
 9476SOL     OW29326   3.711   4.121   4.331
 9476SOL    HW129327   3.632   4.159   4.282
 9476SOL    HW229328   3.681   4.088   4.421
 9477SOL     OW29329   0.623   3.403   1.392
 9477SOL    HW129330   0.682   3.471   1.349
 9477SOL    HW229331   0.537   3.397   1.342
 9478SOL     OW29332   5.054   3.322   0.448
 9478SOL    HW129333   5.066   3.406   0.395
 9478SOL    HW229334   4.991   3.261   0.400
 9479SOL     OW29335   4.092   6.403   6.977
 9479SOL    HW129336   4.164   6.365   6.919
 9479SOL    HW229337   4.133   6.444   0.037
 9480SOL     OW29338   4.638   3.793   0.599
 9480SOL    HW129339   4.586   3.853   0.538
 9480SOL    HW229340   4.727   3.773   0.559
 9481SOL     OW29341   4.911   3.273   2.171
 9481SOL    HW129342   4.994   3.281   2.227
 9481SOL    HW229343   4.872   3.364   2.158
 9482SOL     OW29344   0.182   0.855   3.004
 9482SOL    HW129345   0.144   0.764   2.986
 9482SOL    HW229346   0.133   0.896   3.081
 9483SOL     OW29347   1.445   1.896   1.503
 9483SOL    HW129348   1.389   1.821   1.465
 9483SOL    HW229349   1.538   1.863   1.520
 9484SOL     OW29350   3.838   0.844   3.495
 9484SOL    HW129351   3.754   0.899   3.496
 9484SOL    HW229352   3.917   0.903   3.506
 9485SOL     OW29353   0.285   0.326   0.775
 9485SOL    HW129354   0.231   0.385   0.836
 9485SOL    HW229355   0.250   0.333   0.682
 9486SOL     OW29356   3.196   6.420   1.010
 9486SOL    HW129357   3.108   6.431   1.056
 9486SOL    HW229358   3.182   6.375   0.922
 9487SOL     OW29359   3.871   3.635   3.652
 9487SOL    HW129360   3.913   3.609   3.739
 9487SOL    HW229361   3.934   3.694   3.601
 9488SOL     OW29362   2.217   6.516   1.206
 9488SOL    HW129363   2.254   6.436   1.159
 9488SOL    HW229364   2.222   6.502   1.305
 9489SOL     OW29365   4.439   4.490   1.737
 9489SOL    HW129366   4.486   4.485   1.649
 9489SOL    HW229367   4.435   4.399   1.778
 9490SOL     OW29368   7.012   5.363   1.456
 9490SOL    HW129369   6.998   5.278   1.505
 9490SOL    HW229370   0.088   5.377   1.440
 9491SOL     OW29371   6.321   4.977   4.115
 9491SOL    HW129372   6.294   4.957   4.020
 9491SOL    HW229373   6.388   4.910   4.146
 9492SOL     OW29374   3.369   2.896   3.465
 9492SOL    HW129375   3.449   2.844   3.435
 9492SOL    HW229376   3.307   2.911   3.388
 9493SOL     OW29377   3.089   5.373   3.434
 9493SOL    HW129378   3.058   5.373   3.339
 9493SOL    HW229379   3.010   5.363   3.495
 9494SOL     OW29380   4.860   4.266   1.616
 9494SOL    HW129381   4.931   4.200   1.640
 9494SOL    HW229382   4.770   4.228   1.635
 9495SOL     OW29383   6.358   1.792   3.635
 9495SOL    HW129384   6.417   1.724   3.678
 9495SOL    HW229385   6.374   1.881   3.677
 9496SOL     OW29386   6.471   4.174   1.819
 9496SOL    HW129387   6.469   4.265   1.778
 9496SOL    HW229388   6.457   4.181   1.917
 9497SOL     OW29389   5.494   6.166   6.368
 9497SOL    HW129390   5.534   6.175   6.459
 9497SOL    HW229391   5.568   6.160   6.300
 9498SOL     OW29392   4.559   6.667   4.555
 9498SOL    HW129393   4.600   6.669   4.464
 9498SOL    HW229394   4.460   6.652   4.546
 9499SOL     OW29395   1.870   5.589   6.261
 9499SOL    HW129396   1.783   5.582   6.212
 9499SOL    HW229397   1.945   5.566   6.199
 9500SOL     OW29398   5.345   0.829   0.559
 9500SOL    HW129399   5.285   0.864   0.630
 9500SOL    HW229400   5.294   0.765   0.501
 9501SOL     OW29401   3.066   1.014   4.468
 9501SOL    HW129402   2.993   1.057   4.415
 9501SOL    HW229403   3.153   1.024   4.420
 9502SOL     OW29404   5.348   2.525   5.311
 9502SOL    HW129405   5.328   2.429   5.291
 9502SOL    HW229406   5.382   2.570   5.229
 9503SOL     OW29407   0.180   1.649   1.721
 9503SOL    HW129408   0.206   1.725   1.662
 9503SOL    HW229409   0.238   1.648   1.803
 9504SOL     OW29410   0.139   2.513   1.040
 9504SOL    HW129411   0.053   2.465   1.059
 9504SOL    HW229412   0.202   2.452   0.992
 9505SOL     OW29413   5.261   4.732   3.395
 9505SOL    HW129414   5.272   4.710   3.298
 9505SOL    HW229415   5.255   4.832   3.406
 9506SOL     OW29416   0.496   2.191   6.086
 9506SOL    HW129417   0.507   2.116   6.151
 9506SOL    HW229418   0.581   2.243   6.080
 9507SOL     OW29419   0.854   2.777   3.598
 9507SOL    HW129420   0.906   2.860   3.575
 9507SOL    HW229421   0.800   2.749   3.519
 9508SOL     OW29422   6.561   2.516   0.525
 9508SOL    HW129423   6.558   2.434   0.583
 9508SOL    HW229424   6.656   2.538   0.505
 9509SOL     OW29425   0.885   1.201   3.867
 9509SOL    HW129426   0.968   1.253   3.847
 9509SOL    HW229427   0.867   1.204   3.966
 9510SOL     OW29428   1.419   3.482   2.984
 9510SOL    HW129429   1.458   3.540   3.055
 9510SOL    HW229430   1.415   3.388   3.017
 9511SOL     OW29431   1.273   0.390   0.997
 9511SOL    HW129432   1.321   0.452   1.059
 9511SOL    HW229433   1.270   0.429   0.906
 9512SOL     OW29434   5.797   1.559   1.239
 9512SOL    HW129435   5.742   1.609   1.172
 9512SOL    HW229436   5.798   1.609   1.325
 9513SOL     OW29437   1.842   3.869   6.412
 9513SOL    HW129438   1.936   3.837   6.422
 9513SOL    HW229439   1.788   3.801   6.362
 9514SOL     OW29440   2.117   5.313   6.330
 9514SOL    HW129441   2.170   5.371   6.392
 9514SOL    HW229442   2.163   5.225   6.320
 9515SOL     OW29443   1.746   5.528   1.232
 9515SOL    HW129444   1.750   5.464   1.308
 9515SOL    HW229445   1.651   5.545   1.208
 9516SOL     OW29446   5.303   4.193   5.185
 9516SOL    HW129447   5.263   4.262   5.124
 9516SOL    HW229448   5.401   4.183   5.164
 9517SOL     OW29449   1.274   5.057   0.763
 9517SOL    HW129450   1.283   5.148   0.724
 9517SOL    HW229451   1.270   5.064   0.863
 9518SOL     OW29452   2.365   2.445   0.010
 9518SOL    HW129453   2.335   2.540   0.023
 9518SOL    HW229454   2.362   2.397   0.097
 9519SOL     OW29455   4.116   3.315   4.481
 9519SOL    HW129456   4.056   3.257   4.536
 9519SOL    HW229457   4.130   3.402   4.528
 9520SOL     OW29458   1.337   1.632   3.722
 9520SOL    HW129459   1.374   1.716   3.682
 9520SOL    HW229460   1.369   1.553   3.669
 9521SOL     OW29461   4.920   5.120   1.528
 9521SOL    HW129462   4.940   5.180   1.605
 9521SOL    HW229463   4.895   5.175   1.449
 9522SOL     OW29464   3.831   5.366   1.319
 9522SOL    HW129465   3.754   5.427   1.336
 9522SOL    HW229466   3.888   5.361   1.402
 9523SOL     OW29467   2.617   4.681   5.150
 9523SOL    HW129468   2.555   4.610   5.183
 9523SOL    HW229469   2.707   4.642   5.132
 9524SOL     OW29470   3.393   3.339   0.836
 9524SOL    HW129471   3.345   3.268   0.784
 9524SOL    HW229472   3.327   3.404   0.872
 9525SOL     OW29473   2.417   2.551   5.639
 9525SOL    HW129474   2.378   2.505   5.719
 9525SOL    HW229475   2.449   2.482   5.574
 9526SOL     OW29476   6.496   4.784   1.251
 9526SOL    HW129477   6.593   4.774   1.274
 9526SOL    HW229478   6.484   4.867   1.196
 9527SOL     OW29479   0.299   0.659   4.301
 9527SOL    HW129480   0.327   0.701   4.387
 9527SOL    HW229481   0.278   0.562   4.316
 9528SOL     OW29482   6.818   1.468   0.687
 9528SOL    HW129483   6.880   1.433   0.617
 9528SOL    HW229484   6.731   1.493   0.645
 9529SOL     OW29485   6.536   3.496   6.284
 9529SOL    HW129486   6.439   3.520   6.295
 9529SOL    HW229487   6.569   3.531   6.197
 9530SOL     OW29488   2.068   3.432   2.638
 9530SOL    HW129489   2.089   3.521   2.597
 9530SOL    HW229490   1.999   3.444   2.710
 9531SOL     OW29491   4.576   5.182   2.538
 9531SOL    HW129492   4.648   5.251   2.536
 9531SOL    HW229493   4.610   5.099   2.583
 9532SOL     OW29494   6.495   6.271   1.354
 9532SOL    HW129495   6.568   6.315   1.302
 9532SOL    HW229496   6.467   6.330   1.430
 9533SOL     OW29497   0.083   5.995   5.352
 9533SOL    HW129498   0.150   5.971   5.423
 9533SOL    HW229499   0.060   5.913   5.299
 9534SOL     OW29500   0.166   3.667   4.712
 9534SOL    HW129501   0.156   3.746   4.773
 9534SOL    HW229502   0.114   3.590   4.748
 9535SOL     OW29503   1.988   1.128   6.545
 9535SOL    HW129504   2.035   1.044   6.574
 9535SOL    HW229505   1.957   1.178   6.626
 9536SOL     OW29506   2.978   3.932   5.566
 9536SOL    HW129507   2.992   3.958   5.471
 9536SOL    HW229508   2.898   3.979   5.602
 9537SOL     OW29509   2.746   6.535   3.516
 9537SOL    HW129510   2.711   6.626   3.540
 9537SOL    HW229511   2.719   6.469   3.586
 9538SOL     OW29512   5.810   1.851   3.788
 9538SOL    HW129513   5.748   1.775   3.767
 9538SOL    HW229514   5.891   1.845   3.729
 9539SOL     OW29515   3.445   3.825   4.753
 9539SOL    HW129516   3.491   3.799   4.668
 9539SOL    HW229517   3.506   3.809   4.830
 9540SOL     OW29518   6.007   4.138   4.201
 9540SOL    HW129519   6.062   4.198   4.259
 9540SOL    HW229520   6.057   4.053   4.183
 9541SOL     OW29521   3.546   0.913   5.467
 9541SOL    HW129522   3.635   0.875   5.494
 9541SOL    HW229523   3.518   0.874   5.380
 9542SOL     OW29524   4.933   4.549   4.955
 9542SOL    HW129525   4.982   4.627   4.994
 9542SOL    HW229526   4.957   4.540   4.858
 9543SOL     OW29527   3.744   0.810   5.832
 9543SOL    HW129528   3.729   0.909   5.840
 9543SOL    HW229529   3.733   0.768   5.922
 9544SOL     OW29530   6.944   2.085   3.438
 9544SOL    HW129531   6.959   2.045   3.348
 9544SOL    HW229532   6.846   2.085   3.458
 9545SOL     OW29533   6.316   5.873   4.242
 9545SOL    HW129534   6.308   5.973   4.237
 9545SOL    HW229535   6.368   5.840   4.164
 9546SOL     OW29536   3.588   2.071   5.314
 9546SOL    HW129537   3.514   2.132   5.341
 9546SOL    HW229538   3.676   2.114   5.337
 9547SOL     OW29539   1.994   6.480   4.425
 9547SOL    HW129540   1.953   6.420   4.357
 9547SOL    HW229541   1.995   6.434   4.514
 9548SOL     OW29542   6.072   5.217   6.644
 9548SOL    HW129543   6.106   5.311   6.646
 9548SOL    HW229544   6.143   5.155   6.677
 9549SOL     OW29545   2.482   2.700   1.273
 9549SOL    HW129546   2.468   2.623   1.335
 9549SOL    HW229547   2.528   2.774   1.322
 9550SOL     OW29548   0.432   1.580   0.417
 9550SOL    HW129549   0.409   1.484   0.432
 9550SOL    HW229550   0.506   1.585   0.349
 9551SOL     OW29551   5.506   1.315   4.467
 9551SOL    HW129552   5.447   1.350   4.539
 9551SOL    HW229553   5.451   1.289   4.388
 9552SOL     OW29554   1.405   0.061   3.557
 9552SOL    HW129555   1.366   0.034   3.645
 9552SOL    HW229556   1.339   0.118   3.508
 9553SOL     OW29557   6.469   3.722   6.014
 9553SOL    HW129558   6.564   3.704   6.040
 9553SOL    HW229559   6.467   3.781   5.934
 9554SOL     OW29560   1.620   6.834   1.130
 9554SOL    HW129561   1.674   6.788   1.200
 9554SOL    HW229562   1.543   6.776   1.103
 9555SOL     OW29563   1.163   1.004   3.221
 9555SOL    HW129564   1.111   1.041   3.144
 9555SOL    HW229565   1.204   0.916   3.195
 9556SOL     OW29566   0.993   3.065   1.547
 9556SOL    HW129567   0.900   3.061   1.511
 9556SOL    HW229568   0.997   3.135   1.619
 9557SOL     OW29569   0.648   6.943   2.494
 9557SOL    HW129570   0.703   6.918   2.574
 9557SOL    HW229571   0.694   6.912   2.411
 9558SOL     OW29572   6.101   6.477   5.019
 9558SOL    HW129573   6.138   6.532   5.094
 9558SOL    HW229574   6.034   6.412   5.055
 9559SOL     OW29575   6.989   4.582   0.884
 9559SOL    HW129576   6.906   4.526   0.890
 9559SOL    HW229577   0.043   4.527   0.849
 9560SOL     OW29578   2.107   1.609   3.109
 9560SOL    HW129579   2.154   1.528   3.074
 9560SOL    HW229580   2.153   1.642   3.192
 9561SOL     OW29581   1.403   6.642   0.057
 9561SOL    HW129582   1.325   6.646   7.016
 9561SOL    HW229583   1.435   6.735   0.076
 9562SOL     OW29584   3.154   0.179   5.470
 9562SOL    HW129585   3.251   0.186   5.494
 9562SOL    HW229586   3.107   0.263   5.498
 9563SOL     OW29587   5.753   6.395   0.855
 9563SOL    HW129588   5.802   6.401   0.768
 9563SOL    HW229589   5.656   6.414   0.840
 9564SOL     OW29590   3.050   6.838   0.266
 9564SOL    HW129591   3.096   6.796   0.345
 9564SOL    HW229592   3.019   6.766   0.204
 9565SOL     OW29593   4.013   0.287   4.590
 9565SOL    HW129594   4.024   0.199   4.638
 9565SOL    HW229595   4.070   0.356   4.634
 9566SOL     OW29596   2.164   5.508   0.160
 9566SOL    HW129597   2.201   5.467   0.077
 9566SOL    HW229598   2.220   5.586   0.187
 9567SOL     OW29599   5.183   4.975   0.123
 9567SOL    HW129600   5.253   4.953   0.192
 9567SOL    HW229601   5.170   4.897   0.062
 9568SOL     OW29602   4.537   2.488   6.572
 9568SOL    HW129603   4.610   2.542   6.531
 9568SOL    HW229604   4.572   2.398   6.597
 9569SOL     OW29605   0.765   1.774   3.164
 9569SOL    HW129606   0.673   1.804   3.139
 9569SOL    HW229607   0.776   1.678   3.138
 9570SOL     OW29608   0.688   3.496   2.551
 9570SOL    HW129609   0.688   3.568   2.621
 9570SOL    HW229610   0.654   3.411   2.591
 9571SOL     OW29611   3.779   4.001   6.771
 9571SOL    HW129612   3.835   4.074   6.732
 9571SOL    HW229613   3.741   3.945   6.698
 9572SOL     OW29614   1.806   5.505   1.988
 9572SOL    HW129615   1.772   5.422   2.032
 9572SOL    HW229616   1.898   5.489   1.952
 9573SOL     OW29617   1.120   1.431   6.975
 9573SOL    HW129618   1.206   1.385   6.995
 9573SOL    HW229619   1.115   1.453   6.878
 9574SOL     OW29620   4.034   3.287   3.988
 9574SOL    HW129621   4.072   3.262   3.899
 9574SOL    HW229622   3.973   3.214   4.019
 9575SOL     OW29623   6.800   1.211   1.344
 9575SOL    HW129624   6.859   1.136   1.316
 9575SOL    HW229625   6.728   1.178   1.405
 9576SOL     OW29626   2.343   0.439   1.886
 9576SOL    HW129627   2.300   0.475   1.968
 9576SOL    HW229628   2.433   0.480   1.874
 9577SOL     OW29629   1.593   0.906   5.839
 9577SOL    HW129630   1.649   0.930   5.918
 9577SOL    HW229631   1.562   0.811   5.848
 9578SOL     OW29632   0.845   3.774   3.773
 9578SOL    HW129633   0.895   3.799   3.856
 9578SOL    HW229634   0.759   3.728   3.798
 9579SOL     OW29635   1.773   5.212   3.052
 9579SOL    HW129636   1.730   5.123   3.071
 9579SOL    HW229637   1.841   5.232   3.122
 9580SOL     OW29638   3.714   3.231   0.837
 9580SOL    HW129639   3.800   3.261   0.879
 9580SOL    HW229640   3.667   3.310   0.799
 9581SOL     OW29641   0.773   5.117   6.628
 9581SOL    HW129642   0.824   5.059   6.565
 9581SOL    HW229643   0.770   5.210   6.593
 9582SOL     OW29644   4.993   5.270   5.673
 9582SOL    HW129645   4.909   5.287   5.622
 9582SOL    HW229646   5.040   5.191   5.633
 9583SOL     OW29647   4.161   4.413   1.292
 9583SOL    HW129648   4.250   4.428   1.250
 9583SOL    HW229649   4.150   4.316   1.314
 9584SOL     OW29650   6.412   6.159   0.100
 9584SOL    HW129651   6.354   6.226   0.055
 9584SOL    HW229652   6.506   6.194   0.106
 9585SOL     OW29653   6.169   0.243   4.264
 9585SOL    HW129654   6.186   0.268   4.169
 9585SOL    HW229655   6.256   0.229   4.311
 9586SOL     OW29656   6.386   4.217   2.952
 9586SOL    HW129657   6.307   4.277   2.944
 9586SOL    HW229658   6.395   4.185   3.046
 9587SOL     OW29659   0.568   1.238   1.943
 9587SOL    HW129660   0.533   1.320   1.987
 9587SOL    HW229661   0.517   1.158   1.975
 9588SOL     OW29662   0.719   1.835   2.270
 9588SOL    HW129663   0.732   1.839   2.171
 9588SOL    HW229664   0.727   1.740   2.301
 9589SOL     OW29665   2.423   5.618   5.924
 9589SOL    HW129666   2.449   5.605   5.829
 9589SOL    HW229667   2.325   5.601   5.934
 9590SOL     OW29668   0.529   3.661   2.274
 9590SOL    HW129669   0.548   3.759   2.281
 9590SOL    HW229670   0.613   3.612   2.253
 9591SOL     OW29671   3.037   5.935   6.727
 9591SOL    HW129672   3.061   6.026   6.692
 9591SOL    HW229673   2.938   5.928   6.737
 9592SOL     OW29674   3.243   4.120   1.291
 9592SOL    HW129675   3.182   4.066   1.350
 9592SOL    HW229676   3.224   4.098   1.195
 9593SOL     OW29677   6.658   0.131   4.650
 9593SOL    HW129678   6.625   0.215   4.606
 9593SOL    HW229679   6.585   0.093   4.707
 9594SOL     OW29680   1.671   6.844   2.753
 9594SOL    HW129681   1.600   6.879   2.692
 9594SOL    HW229682   1.637   6.842   2.847
 9595SOL     OW29683   1.918   4.526   5.259
 9595SOL    HW129684   2.003   4.572   5.233
 9595SOL    HW229685   1.934   4.428   5.266
 9596SOL     OW29686   0.381   6.009   0.113
 9596SOL    HW129687   0.451   6.080   0.120
 9596SOL    HW229688   0.294   6.045   0.147
 9597SOL     OW29689   0.357   4.589   0.601
 9597SOL    HW129690   0.360   4.657   0.675
 9597SOL    HW229691   0.404   4.506   0.630
 9598SOL     OW29692   1.305   3.683   4.616
 9598SOL    HW129693   1.387   3.708   4.667
 9598SOL    HW229694   1.310   3.723   4.524
 9599SOL     OW29695   3.898   0.454   5.782
 9599SOL    HW129696   3.983   0.406   5.759
 9599SOL    HW229697   3.920   0.548   5.808
 9600SOL     OW29698   2.095   0.291   6.942
 9600SOL    HW129699   2.003   0.291   6.983
 9600SOL    HW229700   2.121   0.198   6.919
 9601SOL     OW29701   6.358   3.670   0.970
 9601SOL    HW129702   6.390   3.666   1.065
 9601SOL    HW229703   6.272   3.721   0.967
 9602SOL     OW29704   6.525   4.560   6.500
 9602SOL    HW129705   6.515   4.531   6.595
 9602SOL    HW229706   6.602   4.512   6.458
 9603SOL     OW29707   3.484   1.557   5.416
 9603SOL    HW129708   3.415   1.605   5.470
 9603SOL    HW229709   3.517   1.616   5.343
 9604SOL     OW29710   3.914   0.351   6.991
 9604SOL    HW129711   3.887   0.261   6.958
 9604SOL    HW229712   4.006   0.373   6.960
 9605SOL     OW29713   0.721   4.779   4.268
 9605SOL    HW129714   0.787   4.711   4.235
 9605SOL    HW229715   0.694   4.756   4.362
 9606SOL     OW29716   1.635   6.052   5.517
 9606SOL    HW129717   1.703   6.124   5.502
 9606SOL    HW229718   1.550   6.076   5.471
 9607SOL     OW29719   1.246   1.658   1.693
 9607SOL    HW129720   1.195   1.744   1.697
 9607SOL    HW229721   1.313   1.661   1.619
 9608SOL     OW29722   6.533   6.567   2.024
 9608SOL    HW129723   6.499   6.653   1.986
 9608SOL    HW229724   6.576   6.585   2.113
 9609SOL     OW29725   1.955   3.211   6.594
 9609SOL    HW129726   1.968   3.112   6.603
 9609SOL    HW229727   2.040   3.258   6.616
 9610SOL     OW29728   1.724   5.207   4.147
 9610SOL    HW129729   1.759   5.165   4.230
 9610SOL    HW229730   1.796   5.262   4.104
 9611SOL     OW29731   0.386   6.828   0.203
 9611SOL    HW129732   0.329   6.763   0.253
 9611SOL    HW229733   0.479   6.827   0.240
 9612SOL     OW29734   0.435   3.454   1.849
 9612SOL    HW129735   0.489   3.370   1.852
 9612SOL    HW229736   0.403   3.477   1.941
 9613SOL     OW29737   3.945   6.661   3.215
 9613SOL    HW129738   3.894   6.655   3.300
 9613SOL    HW229739   3.909   6.736   3.159
 9614SOL     OW29740   3.660   2.506   0.887
 9614SOL    HW129741   3.580   2.465   0.844
 9614SOL    HW229742   3.697   2.579   0.829
 9615SOL     OW29743   0.629   6.865   2.080
 9615SOL    HW129744   0.634   6.901   1.987
 9615SOL    HW229745   0.541   6.821   2.094
 9616SOL     OW29746   4.552   3.402   0.890
 9616SOL    HW129747   4.626   3.342   0.920
 9616SOL    HW229748   4.528   3.465   0.964
 9617SOL     OW29749   1.448   3.610   4.274
 9617SOL    HW129750   1.541   3.646   4.268
 9617SOL    HW229751   1.450   3.517   4.309
 9618SOL     OW29752   3.780   6.868   6.379
 9618SOL    HW129753   3.719   6.902   6.307
 9618SOL    HW229754   3.751   6.777   6.407
 9619SOL     OW29755   0.582   0.079   0.324
 9619SOL    HW129756   0.592   0.122   0.414
 9619SOL    HW229757   0.604   7.003   0.331
 9620SOL     OW29758   5.325   2.751   6.713
 9620SOL    HW129759   5.342   2.802   6.797
 9620SOL    HW229760   5.361   2.658   6.721
 9621SOL     OW29761   1.553   1.292   2.754
 9621SOL    HW129762   1.643   1.329   2.775
 9621SOL    HW229763   1.489   1.367   2.736
 9622SOL     OW29764   5.569   0.881   0.016
 9622SOL    HW129765   5.612   0.884   6.948
 9622SOL    HW229766   5.591   0.795   0.061
 9623SOL     OW29767   4.080   4.994   5.362
 9623SOL    HW129768   4.155   4.982   5.428
 9623SOL    HW229769   4.091   5.082   5.315
 9624SOL     OW29770   6.164   4.481   3.935
 9624SOL    HW129771   6.225   4.499   3.857
 9624SOL    HW229772   6.215   4.432   4.006
 9625SOL     OW29773   5.184   5.459   6.781
 9625SOL    HW129774   5.154   5.363   6.786
 9625SOL    HW229775   5.278   5.466   6.816
 9626SOL     OW29776   2.467   5.922   6.898
 9626SOL    HW129777   2.396   5.856   6.875
 9626SOL    HW229778   2.495   5.908   6.994
 9627SOL     OW29779   6.803   4.024   4.261
 9627SOL    HW129780   6.826   3.936   4.303
 9627SOL    HW229781   6.739   4.073   4.319
 9628SOL     OW29782   6.314   4.423   0.525
 9628SOL    HW129783   6.322   4.369   0.609
 9628SOL    HW229784   6.243   4.383   0.467
 9629SOL     OW29785   6.904   6.437   3.025
 9629SOL    HW129786   6.819   6.391   2.997
 9629SOL    HW229787   6.981   6.397   2.977
 9630SOL     OW29788   6.423   6.432   5.336
 9630SOL    HW129789   6.495   6.365   5.315
 9630SOL    HW229790   6.419   6.446   5.435
 9631SOL     OW29791   5.141   1.381   0.089
 9631SOL    HW129792   5.054   1.398   0.135
 9631SOL    HW229793   5.214   1.427   0.139
 9632SOL     OW29794   2.188   5.376   2.211
 9632SOL    HW129795   2.115   5.341   2.270
 9632SOL    HW229796   2.240   5.445   2.260
 9633SOL     OW29797   3.985   4.530   0.344
 9633SOL    HW129798   3.928   4.467   0.291
 9633SOL    HW229799   4.072   4.544   0.296
 9634SOL     OW29800   0.099   6.709   4.178
 9634SOL    HW129801   0.196   6.705   4.200
 9634SOL    HW229802   0.088   6.722   4.079
 9635SOL     OW29803   2.470   4.601   5.596
 9635SOL    HW129804   2.444   4.660   5.672
 9635SOL    HW229805   2.391   4.585   5.537
 9636SOL     OW29806   4.578   2.073   6.201
 9636SOL    HW129807   4.640   2.028   6.136
 9636SOL    HW229808   4.589   2.172   6.193
 9637SOL     OW29809   3.556   2.079   0.056
 9637SOL    HW129810   3.532   2.172   0.083
 9637SOL    HW229811   3.473   2.029   0.032
 9638SOL     OW29812   0.256   3.590   6.040
 9638SOL    HW129813   0.214   3.601   5.950
 9638SOL    HW229814   0.271   3.493   6.058
 9639SOL     OW29815   4.502   1.747   1.828
 9639SOL    HW129816   4.425   1.807   1.806
 9639SOL    HW229817   4.551   1.784   1.907
 9640SOL     OW29818   3.087   0.776   2.990
 9640SOL    HW129819   3.180   0.786   3.026
 9640SOL    HW229820   3.080   0.690   2.940
 9641SOL     OW29821   5.427   5.268   1.641
 9641SOL    HW129822   5.512   5.221   1.661
 9641SOL    HW229823   5.402   5.252   1.545
 9642SOL     OW29824   1.997   5.506   4.608
 9642SOL    HW129825   1.929   5.538   4.543
 9642SOL    HW229826   2.070   5.458   4.559
 9643SOL     OW29827   5.871   4.479   3.876
 9643SOL    HW129828   5.970   4.490   3.873
 9643SOL    HW229829   5.831   4.554   3.930
 9644SOL     OW29830   0.619   5.108   4.906
 9644SOL    HW129831   0.620   5.155   4.994
 9644SOL    HW229832   0.713   5.103   4.871
 9645SOL     OW29833   2.788   4.894   3.974
 9645SOL    HW129834   2.861   4.945   4.019
 9645SOL    HW229835   2.761   4.816   4.030
 9646SOL     OW29836   2.441   4.699   2.633
 9646SOL    HW129837   2.374   4.730   2.701
 9646SOL    HW229838   2.394   4.674   2.548
 9647SOL     OW29839   0.503   5.771   2.752
 9647SOL    HW129840   0.498   5.788   2.653
 9647SOL    HW229841   0.465   5.681   2.772
 9648SOL     OW29842   3.173   1.632   0.136
 9648SOL    HW129843   3.251   1.694   0.137
 9648SOL    HW229844   3.184   1.564   0.064
 9649SOL     OW29845   2.290   4.696   6.781
 9649SOL    HW129846   2.277   4.790   6.811
 9649SOL    HW229847   2.309   4.694   6.683
 9650SOL     OW29848   4.858   4.557   2.838
 9650SOL    HW129849   4.771   4.510   2.858
 9650SOL    HW229850   4.839   4.639   2.785
 9651SOL     OW29851   5.840   1.297   0.796
 9651SOL    HW129852   5.764   1.341   0.747
 9651SOL    HW229853   5.925   1.314   0.747
 9652SOL     OW29854   1.857   4.441   1.412
 9652SOL    HW129855   1.884   4.395   1.496
 9652SOL    HW229856   1.911   4.525   1.402
 9653SOL     OW29857   4.814   5.587   5.188
 9653SOL    HW129858   4.819   5.687   5.200
 9653SOL    HW229859   4.859   5.542   5.265
 9654SOL     OW29860   3.314   3.227   2.656
 9654SOL    HW129861   3.244   3.158   2.634
 9654SOL    HW229862   3.377   3.190   2.724
 9655SOL     OW29863   0.475   1.684   0.663
 9655SOL    HW129864   0.468   1.670   0.564
 9655SOL    HW229865   0.501   1.597   0.707
 9656SOL     OW29866   4.130   1.691   0.751
 9656SOL    HW129867   4.078   1.605   0.756
 9656SOL    HW229868   4.171   1.700   0.660
 9657SOL     OW29869   5.862   2.914   3.422
 9657SOL    HW129870   5.860   3.014   3.423
 9657SOL    HW229871   5.885   2.881   3.331
 9658SOL     OW29872   5.562   2.212   2.204
 9658SOL    HW129873   5.502   2.133   2.217
 9658SOL    HW229874   5.636   2.210   2.271
 9659SOL     OW29875   0.108   2.962   0.292
 9659SOL    HW129876   0.076   2.937   0.200
 9659SOL    HW229877   0.179   3.032   0.284
 9660SOL     OW29878   0.799   0.053   2.686
 9660SOL    HW129879   0.708   0.052   2.727
 9660SOL    HW229880   0.794   0.091   2.593
 9661SOL     OW29881   3.298   5.925   1.075
 9661SOL    HW129882   3.346   6.009   1.100
 9661SOL    HW229883   3.307   5.908   0.977
 9662SOL     OW29884   3.985   2.936   5.776
 9662SOL    HW129885   3.901   2.969   5.732
 9662SOL    HW229886   4.000   2.987   5.861
 9663SOL     OW29887   6.301   6.763   2.906
 9663SOL    HW129888   6.231   6.758   2.835
 9663SOL    HW229889   6.285   6.844   2.962
 9664SOL     OW29890   5.912   5.718   4.754
 9664SOL    HW129891   5.902   5.625   4.791
 9664SOL    HW229892   5.893   5.716   4.656
 9665SOL     OW29893   5.735   6.481   6.577
 9665SOL    HW129894   5.736   6.557   6.511
 9665SOL    HW229895   5.703   6.515   6.665
 9666SOL     OW29896   6.809   3.712   2.366
 9666SOL    HW129897   6.854   3.624   2.354
 9666SOL    HW229898   6.733   3.703   2.431
 9667SOL     OW29899   4.304   3.407   6.476
 9667SOL    HW129900   4.223   3.422   6.532
 9667SOL    HW229901   4.279   3.407   6.379
 9668SOL     OW29902   6.870   0.507   6.140
 9668SOL    HW129903   6.861   0.523   6.042
 9668SOL    HW229904   6.939   0.438   6.157
 9669SOL     OW29905   1.827   6.776   2.164
 9669SOL    HW129906   1.827   6.783   2.264
 9669SOL    HW229907   1.749   6.721   2.134
 9670SOL     OW29908   6.637   5.005   6.266
 9670SOL    HW129909   6.546   5.040   6.242
 9670SOL    HW229910   6.627   4.926   6.327
 9671SOL     OW29911   6.319   4.469   0.056
 9671SOL    HW129912   6.410   4.490   0.018
 9671SOL    HW229913   6.329   4.402   0.130
 9672SOL     OW29914   1.339   5.774   3.906
 9672SOL    HW129915   1.342   5.819   3.995
 9672SOL    HW229916   1.342   5.675   3.918
 9673SOL     OW29917   4.808   3.370   1.449
 9673SOL    HW129918   4.783   3.295   1.509
 9673SOL    HW229919   4.887   3.419   1.487
 9674SOL     OW29920   2.834   6.586   3.110
 9674SOL    HW129921   2.756   6.545   3.157
 9674SOL    HW229922   2.898   6.514   3.082
 9675SOL     OW29923   5.311   2.952   6.944
 9675SOL    HW129924   5.219   2.972   6.977
 9675SOL    HW229925   5.378   3.000   7.001
 9676SOL     OW29926   1.707   3.655   5.815
 9676SOL    HW129927   1.805   3.658   5.831
 9676SOL    HW229928   1.676   3.743   5.779
 9677SOL     OW29929   0.039   5.435   4.603
 9677SOL    HW129930   0.099   5.442   4.524
 9677SOL    HW229931   0.028   5.338   4.628
 9678SOL     OW29932   2.919   3.694   3.594
 9678SOL    HW129933   2.984   3.715   3.521
 9678SOL    HW229934   2.848   3.763   3.596
 9679SOL     OW29935   3.354   1.027   3.325
 9679SOL    HW129936   3.392   1.030   3.232
 9679SOL    HW229937   3.294   1.105   3.339
 9680SOL     OW29938   4.657   1.070   2.828
 9680SOL    HW129939   4.618   1.156   2.796
 9680SOL    HW229940   4.717   1.032   2.757
 9681SOL     OW29941   2.739   1.610   0.686
 9681SOL    HW129942   2.826   1.660   0.682
 9681SOL    HW229943   2.758   1.512   0.696
 9682SOL     OW29944   4.713   4.420   3.818
 9682SOL    HW129945   4.810   4.437   3.835
 9682SOL    HW229946   4.664   4.418   3.905
 9683SOL     OW29947   2.870   5.751   1.238
 9683SOL    HW129948   2.963   5.768   1.270
 9683SOL    HW229949   2.812   5.829   1.263
 9684SOL     OW29950   0.213   3.333   6.113
 9684SOL    HW129951   0.156   3.257   6.085
 9684SOL    HW229952   0.301   3.299   6.146
 9685SOL     OW29953   3.425   4.592   1.079
 9685SOL    HW129954   3.478   4.517   1.120
 9685SOL    HW229955   3.434   4.674   1.136
 9686SOL     OW29956   0.036   1.943   0.207
 9686SOL    HW129957   6.986   1.889   0.251
 9686SOL    HW229958   0.006   1.970   0.115
 9687SOL     OW29959   2.034   0.866   4.197
 9687SOL    HW129960   2.016   0.963   4.212
 9687SOL    HW229961   2.071   0.853   4.105
 9688SOL     OW29962   1.070   3.745   2.717
 9688SOL    HW129963   0.999   3.813   2.699
 9688SOL    HW229964   1.083   3.688   2.636
 9689SOL     OW29965   0.802   5.031   5.781
 9689SOL    HW129966   0.776   4.955   5.840
 9689SOL    HW229967   0.790   5.118   5.830
 9690SOL     OW29968   6.224   5.017   6.970
 9690SOL    HW129969   6.151   4.953   6.993
 9690SOL    HW229970   6.276   5.040   0.031
 9691SOL     OW29971   3.538   5.256   1.021
 9691SOL    HW129972   3.612   5.192   0.999
 9691SOL    HW229973   3.498   5.232   1.109
 9692SOL     OW29974   3.441   5.662   2.460
 9692SOL    HW129975   3.467   5.588   2.397
 9692SOL    HW229976   3.341   5.670   2.463
 9693SOL     OW29977   5.825   4.574   2.520
 9693SOL    HW129978   5.794   4.667   2.536
 9693SOL    HW229979   5.885   4.545   2.594
 9694SOL     OW29980   2.371   0.826   0.714
 9694SOL    HW129981   2.447   0.761   0.719
 9694SOL    HW229982   2.289   0.785   0.754
 9695SOL     OW29983   6.594   3.301   3.162
 9695SOL    HW129984   6.497   3.274   3.160
 9695SOL    HW229985   6.623   3.327   3.070
 9696SOL     OW29986   5.695   3.523   1.056
 9696SOL    HW129987   5.722   3.502   0.962
 9696SOL    HW229988   5.619   3.589   1.055
 9697SOL     OW29989   0.590   5.307   0.005
 9697SOL    HW129990   0.567   5.303   6.929
 9697SOL    HW229991   0.648   5.387   0.022
 9698SOL     OW29992   4.677   1.806   6.130
 9698SOL    HW129993   4.613   1.805   6.053
 9698SOL    HW229994   4.630   1.780   6.214
 9699SOL     OW29995   6.553   5.480   6.839
 9699SOL    HW129996   6.653   5.487   6.842
 9699SOL    HW229997   6.517   5.478   6.932
 9700SOL     OW29998   4.669   5.548   4.962
 9700SOL    HW129999   4.677   5.631   4.907
 9700SOL    HW230000   4.717   5.560   5.048
 9701SOL     OW30001   4.531   5.063   5.877
 9701SOL    HW130002   4.547   5.159   5.855
 9701SOL    HW230003   4.615   5.011   5.858
 9702SOL     OW30004   4.556   0.320   6.573
 9702SOL    HW130005   4.617   0.316   6.652
 9702SOL    HW230006   4.590   0.258   6.502
 9703SOL     OW30007   4.861   3.753   3.779
 9703SOL    HW130008   4.899   3.742   3.687
 9703SOL    HW230009   4.831   3.665   3.814
 9704SOL     OW30010   3.670   0.197   1.974
 9704SOL    HW130011   3.716   0.256   1.908
 9704SOL    HW230012   3.571   0.201   1.960
 9705SOL     OW30013   5.412   4.403   5.631
 9705SOL    HW130014   5.503   4.402   5.673
 9705SOL    HW230015   5.413   4.344   5.550
 9706SOL     OW30016   1.361   3.439   0.309
 9706SOL    HW130017   1.386   3.513   0.246
 9706SOL    HW230018   1.291   3.472   0.372
 9707SOL     OW30019   6.830   4.697   2.207
 9707SOL    HW130020   6.886   4.684   2.125
 9707SOL    HW230021   6.749   4.639   2.202
 9708SOL     OW30022   1.618   1.639   4.077
 9708SOL    HW130023   1.702   1.639   4.133
 9708SOL    HW230024   1.629   1.702   4.000
 9709SOL     OW30025   5.291   6.835   2.972
 9709SOL    HW130026   5.370   6.784   3.006
 9709SOL    HW230027   5.221   6.772   2.940
 9710SOL     OW30028   6.892   1.864   1.442
 9710SOL    HW130029   6.878   1.830   1.535
 9710SOL    HW230030   6.815   1.922   1.416
 9711SOL     OW30031   2.961   5.475   5.913
 9711SOL    HW130032   2.930   5.380   5.914
 9711SOL    HW230033   3.032   5.486   5.844
 9712SOL     OW30034   5.629   3.409   6.510
 9712SOL    HW130035   5.721   3.384   6.478
 9712SOL    HW230036   5.622   3.509   6.516
 9713SOL     OW30037   0.742   4.818   3.413
 9713SOL    HW130038   0.826   4.775   3.379
 9713SOL    HW230039   0.697   4.867   3.339
 9714SOL     OW30040   4.300   6.203   6.443
 9714SOL    HW130041   4.334   6.297   6.441
 9714SOL    HW230042   4.286   6.171   6.349
 9715SOL     OW30043   5.669   3.686   6.543
 9715SOL    HW130044   5.724   3.717   6.466
 9715SOL    HW230045   5.685   3.746   6.621
 9716SOL     OW30046   4.103   4.447   6.895
 9716SOL    HW130047   4.103   4.394   6.980
 9716SOL    HW230048   4.138   4.539   6.913
 9717SOL     OW30049   5.644   5.857   6.014
 9717SOL    HW130050   5.624   5.793   6.089
 9717SOL    HW230051   5.679   5.806   5.935
 9718SOL     OW30052   4.930   3.139   0.157
 9718SOL    HW130053   4.877   3.140   0.241
 9718SOL    HW230054   4.943   3.045   0.126
 9719SOL     OW30055   5.921   1.299   5.625
 9719SOL    HW130056   5.829   1.282   5.590
 9719SOL    HW230057   5.979   1.219   5.607
 9720SOL     OW30058   6.751   5.369   1.471
 9720SOL    HW130059   6.723   5.459   1.506
 9720SOL    HW230060   6.850   5.365   1.465
 9721SOL     OW30061   6.781   1.769   0.777
 9721SOL    HW130062   6.825   1.683   0.752
 9721SOL    HW230063   6.810   1.841   0.714
 9722SOL     OW30064   5.736   1.027   4.262
 9722SOL    HW130065   5.683   0.943   4.259
 9722SOL    HW230066   5.831   1.008   4.237
 9723SOL     OW30067   2.687   6.687   2.783
 9723SOL    HW130068   2.709   6.613   2.720
 9723SOL    HW230069   2.588   6.703   2.783
 9724SOL     OW30070   1.957   4.645   0.266
 9724SOL    HW130071   2.012   4.592   0.201
 9724SOL    HW230072   2.015   4.713   0.311
 9725SOL     OW30073   4.045   4.785   6.360
 9725SOL    HW130074   4.062   4.696   6.403
 9725SOL    HW230075   4.058   4.778   6.261
 9726SOL     OW30076   5.325   1.347   4.118
 9726SOL    HW130077   5.382   1.417   4.075
 9726SOL    HW230078   5.384   1.273   4.153
 9727SOL     OW30079   1.340   2.924   6.533
 9727SOL    HW130080   1.261   2.881   6.491
 9727SOL    HW230081   1.359   2.880   6.621
 9728SOL     OW30082   0.630   0.758   5.665
 9728SOL    HW130083   0.722   0.752   5.626
 9728SOL    HW230084   0.566   0.705   5.610
 9729SOL     OW30085   0.995   4.133   3.738
 9729SOL    HW130086   0.957   4.226   3.744
 9729SOL    HW230087   0.924   4.071   3.705
 9730SOL     OW30088   1.226   3.971   4.127
 9730SOL    HW130089   1.325   3.981   4.118
 9730SOL    HW230090   1.181   4.058   4.107
 9731SOL     OW30091   4.759   4.406   0.837
 9731SOL    HW130092   4.714   4.418   0.749
 9731SOL    HW230093   4.828   4.334   0.830
 9732SOL     OW30094   6.168   5.628   3.425
 9732SOL    HW130095   6.268   5.620   3.428
 9732SOL    HW230096   6.139   5.694   3.495
 9733SOL     OW30097   6.013   5.006   0.639
 9733SOL    HW130098   5.998   5.104   0.630
 9733SOL    HW230099   6.092   4.989   0.698
 9734SOL     OW30100   6.904   1.798   1.706
 9734SOL    HW130101   6.873   1.811   1.800
 9734SOL    HW230102   6.944   1.707   1.695
 9735SOL     OW30103   1.880   4.116   4.306
 9735SOL    HW130104   1.910   4.198   4.257
 9735SOL    HW230105   1.960   4.059   4.328
 9736SOL     OW30106   6.528   1.333   6.576
 9736SOL    HW130107   6.498   1.414   6.626
 9736SOL    HW230108   6.487   1.334   6.484
 9737SOL     OW30109   5.247   2.735   3.408
 9737SOL    HW130110   5.154   2.708   3.382
 9737SOL    HW230111   5.263   2.830   3.381
 9738SOL     OW30112   1.684   0.247   1.205
 9738SOL    HW130113   1.679   0.236   1.304
 9738SOL    HW230114   1.648   0.166   1.160
 9739SOL     OW30115   5.856   4.900   2.225
 9739SOL    HW130116   5.877   4.806   2.249
 9739SOL    HW230117   5.927   4.935   2.164
 9740SOL     OW30118   6.585   1.548   3.459
 9740SOL    HW130119   6.575   1.637   3.414
 9740SOL    HW230120   6.506   1.491   3.437
 9741SOL     OW30121   3.884   0.820   2.592
 9741SOL    HW130122   3.905   0.886   2.520
 9741SOL    HW230123   3.894   0.863   2.681
 9742SOL     OW30124   4.045   0.273   0.700
 9742SOL    HW130125   4.134   0.281   0.745
 9742SOL    HW230126   3.985   0.347   0.731
 9743SOL     OW30127   6.887   2.320   4.983
 9743SOL    HW130128   6.811   2.353   5.039
 9743SOL    HW230129   6.859   2.319   4.887
 9744SOL     OW30130   1.580   6.732   2.421
 9744SOL    HW130131   1.507   6.690   2.368
 9744SOL    HW230132   1.634   6.661   2.467
 9745SOL     OW30133   5.229   3.005   6.094
 9745SOL    HW130134   5.324   2.988   6.122
 9745SOL    HW230135   5.192   3.082   6.145
 9746SOL     OW30136   6.583   0.275   5.836
 9746SOL    HW130137   6.519   0.302   5.908
 9746SOL    HW230138   6.672   0.254   5.877
 9747SOL     OW30139   2.498   1.095   1.760
 9747SOL    HW130140   2.476   1.034   1.836
 9747SOL    HW230141   2.597   1.101   1.748
 9748SOL     OW30142   0.233   1.060   3.458
 9748SOL    HW130143   0.284   1.079   3.542
 9748SOL    HW230144   0.275   1.107   3.381
 9749SOL     OW30145   2.566   0.430   4.708
 9749SOL    HW130146   2.589   0.344   4.754
 9749SOL    HW230147   2.481   0.465   4.745
 9750SOL     OW30148   5.504   4.222   3.314
 9750SOL    HW130149   5.490   4.317   3.287
 9750SOL    HW230150   5.479   4.210   3.410
 9751SOL     OW30151   1.475   0.550   1.107
 9751SOL    HW130152   1.552   0.610   1.086
 9751SOL    HW230153   1.502   0.455   1.092
 9752SOL     OW30154   4.468   2.281   5.600
 9752SOL    HW130155   4.503   2.187   5.603
 9752SOL    HW230156   4.369   2.280   5.586
 9753SOL     OW30157   6.001   5.480   6.375
 9753SOL    HW130158   5.979   5.415   6.303
 9753SOL    HW230159   6.091   5.458   6.413
 9754SOL     OW30160   1.519   1.414   6.497
 9754SOL    HW130161   1.457   1.490   6.517
 9754SOL    HW230162   1.595   1.447   6.442
 9755SOL     OW30163   3.327   3.503   4.478
 9755SOL    HW130164   3.415   3.509   4.432
 9755SOL    HW230165   3.340   3.500   4.577
 9756SOL     OW30166   6.584   3.676   0.790
 9756SOL    HW130167   6.511   3.690   0.857
 9756SOL    HW230168   6.622   3.584   0.801
 9757SOL     OW30169   5.648   3.682   4.200
 9757SOL    HW130170   5.631   3.691   4.102
 9757SOL    HW230171   5.622   3.590   4.230
 9758SOL     OW30172   2.478   6.839   0.141
 9758SOL    HW130173   2.439   6.829   0.233
 9758SOL    HW230174   2.560   6.896   0.145
 9759SOL     OW30175   1.367   0.285   0.185
 9759SOL    HW130176   1.295   0.257   0.248
 9759SOL    HW230177   1.442   0.219   0.188
 9760SOL     OW30178   4.564   2.637   4.915
 9760SOL    HW130179   4.525   2.548   4.939
 9760SOL    HW230180   4.555   2.700   4.993
 9761SOL     OW30181   5.974   1.409   2.714
 9761SOL    HW130182   5.961   1.405   2.615
 9761SOL    HW230183   5.891   1.378   2.760
 9762SOL     OW30184   3.327   0.994   4.363
 9762SOL    HW130185   3.307   0.934   4.286
 9762SOL    HW230186   3.396   0.951   4.422
 9763SOL     OW30187   5.393   2.054   1.874
 9763SOL    HW130188   5.483   2.071   1.834
 9763SOL    HW230189   5.324   2.050   1.802
 9764SOL     OW30190   0.269   2.823   2.869
 9764SOL    HW130191   0.189   2.765   2.866
 9764SOL    HW230192   0.267   2.879   2.953
 9765SOL     OW30193   6.908   0.465   3.696
 9765SOL    HW130194   6.922   0.557   3.661
 9765SOL    HW230195   6.817   0.433   3.669
 9766SOL     OW30196   3.217   6.643   2.391
 9766SOL    HW130197   3.149   6.678   2.456
 9766SOL    HW230198   3.304   6.629   2.438
 9767SOL     OW30199   4.856   0.698   4.529
 9767SOL    HW130200   4.851   0.766   4.603
 9767SOL    HW230201   4.858   0.606   4.568
 9768SOL     OW30202   5.720   1.321   2.787
 9768SOL    HW130203   5.701   1.224   2.770
 9768SOL    HW230204   5.695   1.344   2.881
 9769SOL     OW30205   3.899   0.865   2.999
 9769SOL    HW130206   3.839   0.914   2.936
 9769SOL    HW230207   3.857   0.862   3.090
 9770SOL     OW30208   5.226   0.880   6.427
 9770SOL    HW130209   5.245   0.898   6.330
 9770SOL    HW230210   5.157   0.809   6.435
 9771SOL     OW30211   2.938   5.632   0.235
 9771SOL    HW130212   2.880   5.620   0.316
 9771SOL    HW230213   2.973   5.543   0.206
 9772SOL     OW30214   1.661   6.524   2.195
 9772SOL    HW130215   1.591   6.512   2.266
 9772SOL    HW230216   1.751   6.535   2.238
 9773SOL     OW30217   5.451   5.424   4.173
 9773SOL    HW130218   5.390   5.425   4.253
 9773SOL    HW230219   5.544   5.448   4.202
 9774SOL     OW30220   0.090   4.952   2.378
 9774SOL    HW130221   0.109   4.967   2.282
 9774SOL    HW230222   7.013   4.955   2.393
 9775SOL     OW30223   2.912   0.341   3.026
 9775SOL    HW130224   2.977   0.355   3.101
 9775SOL    HW230225   2.854   0.262   3.046
 9776SOL     OW30226   1.829   4.371   4.640
 9776SOL    HW130227   1.733   4.388   4.619
 9776SOL    HW230228   1.843   4.377   4.738
 9777SOL     OW30229   6.267   5.693   6.504
 9777SOL    HW130230   6.245   5.598   6.482
 9777SOL    HW230231   6.325   5.696   6.585
 9778SOL     OW30232   0.224   0.839   3.889
 9778SOL    HW130233   0.212   0.750   3.933
 9778SOL    HW230234   0.144   0.896   3.909
 9779SOL     OW30235   1.542   1.631   5.091
 9779SOL    HW130236   1.607   1.556   5.106
 9779SOL    HW230237   1.487   1.612   5.009
 9780SOL     OW30238   2.740   1.862   1.267
 9780SOL    HW130239   2.676   1.919   1.318
 9780SOL    HW230240   2.694   1.823   1.187
 9781SOL     OW30241   1.827   4.093   4.616
 9781SOL    HW130242   1.816   4.191   4.635
 9781SOL    HW230243   1.863   4.081   4.524
 9782SOL     OW30244   6.822   1.503   1.137
 9782SOL    HW130245   6.759   1.578   1.115
 9782SOL    HW230246   6.774   1.416   1.130
 9783SOL     OW30247   4.419   2.414   3.022
 9783SOL    HW130248   4.325   2.381   3.027
 9783SOL    HW230249   4.452   2.405   2.928
 9784SOL     OW30250   3.959   0.903   4.311
 9784SOL    HW130251   3.898   0.970   4.268
 9784SOL    HW230252   3.947   0.814   4.267
 9785SOL     OW30253   0.793   3.542   6.031
 9785SOL    HW130254   0.795   3.531   5.931
 9785SOL    HW230255   0.720   3.485   6.069
 9786SOL     OW30256   2.117   4.540   0.072
 9786SOL    HW130257   2.064   4.584   7.021
 9786SOL    HW230258   2.213   4.567   0.065
 9787SOL     OW30259   4.631   4.111   1.698
 9787SOL    HW130260   4.716   4.118   1.750
 9787SOL    HW230261   4.559   4.161   1.746
 9788SOL     OW30262   0.480   0.876   3.611
 9788SOL    HW130263   0.399   0.821   3.626
 9788SOL    HW230264   0.462   0.971   3.637
 9789SOL     OW30265   0.833   5.418   0.891
 9789SOL    HW130266   0.790   5.428   0.802
 9789SOL    HW230267   0.767   5.438   0.963
 9790SOL     OW30268   6.156   4.547   6.871
 9790SOL    HW130269   6.215   4.508   6.942
 9790SOL    HW230270   6.125   4.638   6.899
 9791SOL     OW30271   1.014   1.559   2.211
 9791SOL    HW130272   1.034   1.474   2.261
 9791SOL    HW230273   1.049   1.550   2.118
 9792SOL     OW30274   4.865   4.960   0.953
 9792SOL    HW130275   4.816   4.972   1.040
 9792SOL    HW230276   4.799   4.945   0.879
 9793SOL     OW30277   4.608   6.268   3.446
 9793SOL    HW130278   4.692   6.319   3.429
 9793SOL    HW230279   4.539   6.329   3.486
 9794SOL     OW30280   0.175   4.425   0.808
 9794SOL    HW130281   0.195   4.328   0.825
 9794SOL    HW230282   0.167   4.441   0.709
 9795SOL     OW30283   2.214   1.865   4.715
 9795SOL    HW130284   2.235   1.901   4.624
 9795SOL    HW230285   2.292   1.812   4.749
 9796SOL     OW30286   3.634   2.284   1.437
 9796SOL    HW130287   3.601   2.224   1.364
 9796SOL    HW230288   3.622   2.240   1.526
 9797SOL     OW30289   2.462   5.414   6.327
 9797SOL    HW130290   2.463   5.404   6.228
 9797SOL    HW230291   2.550   5.450   6.358
 9798SOL     OW30292   3.181   0.475   1.495
 9798SOL    HW130293   3.123   0.412   1.548
 9798SOL    HW230294   3.147   0.568   1.507
 9799SOL     OW30295   4.120   3.717   4.272
 9799SOL    HW130296   4.121   3.618   4.256
 9799SOL    HW230297   4.148   3.736   4.366
 9800SOL     OW30298   4.047   6.633   4.598
 9800SOL    HW130299   3.951   6.607   4.599
 9800SOL    HW230300   4.061   6.708   4.532
 9801SOL     OW30301   5.007   3.678   7.020
 9801SOL    HW130302   5.058   3.727   6.950
 9801SOL    HW230303   5.034   3.710   0.089
 9802SOL     OW30304   0.081   3.605   1.516
 9802SOL    HW130305   0.113   3.659   1.438
 9802SOL    HW230306   0.154   3.597   1.584
 9803SOL     OW30307   1.014   2.066   6.869
 9803SOL    HW130308   1.055   2.132   6.806
 9803SOL    HW230309   1.041   2.087   6.962
 9804SOL     OW30310   1.548   6.949   2.549
 9804SOL    HW130311   1.454   6.945   2.584
 9804SOL    HW230312   1.561   6.876   2.482
 9805SOL     OW30313   1.111   0.446   4.875
 9805SOL    HW130314   1.097   0.432   4.973
 9805SOL    HW230315   1.195   0.498   4.860
 9806SOL     OW30316   1.180   1.091   0.379
 9806SOL    HW130317   1.161   1.057   0.471
 9806SOL    HW230318   1.271   1.131   0.376
 9807SOL     OW30319   2.666   3.853   0.212
 9807SOL    HW130320   2.685   3.795   0.132
 9807SOL    HW230321   2.589   3.814   0.263
 9808SOL     OW30322   4.662   0.758   5.617
 9808SOL    HW130323   4.741   0.730   5.562
 9808SOL    HW230324   4.692   0.783   5.709
 9809SOL     OW30325   0.641   2.288   6.925
 9809SOL    HW130326   0.652   2.212   6.860
 9809SOL    HW230327   0.699   2.273   7.004
 9810SOL     OW30328   2.244   3.000   3.650
 9810SOL    HW130329   2.218   3.072   3.714
 9810SOL    HW230330   2.249   3.038   3.558
 9811SOL     OW30331   5.642   4.477   3.539
 9811SOL    HW130332   5.680   4.570   3.540
 9811SOL    HW230333   5.712   4.413   3.571
 9812SOL     OW30334   3.387   2.165   5.849
 9812SOL    HW130335   3.338   2.113   5.919
 9812SOL    HW230336   3.416   2.103   5.776
 9813SOL     OW30337   5.543   1.301   0.099
 9813SOL    HW130338   5.507   1.209   0.081
 9813SOL    HW230339   5.643   1.299   0.095
 9814SOL     OW30340   0.177   0.539   0.307
 9814SOL    HW130341   0.132   0.513   0.222
 9814SOL    HW230342   0.109   0.570   0.373
 9815SOL     OW30343   5.486   3.790   3.628
 9815SOL    HW130344   5.539   3.716   3.670
 9815SOL    HW230345   5.408   3.812   3.687
 9816SOL     OW30346   0.105   0.984   6.405
 9816SOL    HW130347   0.145   1.030   6.326
 9816SOL    HW230348   0.178   0.957   6.468
 9817SOL     OW30349   2.646   6.363   2.907
 9817SOL    HW130350   2.659   6.390   2.811
 9817SOL    HW230351   2.735   6.353   2.951
 9818SOL     OW30352   1.265   1.120   4.996
 9818SOL    HW130353   1.197   1.138   5.067
 9818SOL    HW230354   1.270   1.021   4.978
 9819SOL     OW30355   4.640   2.724   4.196
 9819SOL    HW130356   4.711   2.655   4.182
 9819SOL    HW230357   4.651   2.798   4.129
 9820SOL     OW30358   4.616   3.241   6.364
 9820SOL    HW130359   4.516   3.232   6.358
 9820SOL    HW230360   4.644   3.326   6.320
 9821SOL     OW30361   5.394   0.595   0.299
 9821SOL    HW130362   5.324   0.601   0.370
 9821SOL    HW230363   5.350   0.583   0.210
 9822SOL     OW30364   2.661   5.885   3.689
 9822SOL    HW130365   2.583   5.826   3.666
 9822SOL    HW230366   2.640   5.979   3.662
 9823SOL     OW30367   2.622   0.367   0.821
 9823SOL    HW130368   2.669   0.290   0.863
 9823SOL    HW230369   2.551   0.401   0.883
 9824SOL     OW30370   1.961   5.326   4.048
 9824SOL    HW130371   2.012   5.314   4.133
 9824SOL    HW230372   2.015   5.290   3.972
 9825SOL     OW30373   5.478   6.288   4.312
 9825SOL    HW130374   5.496   6.230   4.392
 9825SOL    HW230375   5.529   6.373   4.321
 9826SOL     OW30376   4.006   5.391   5.546
 9826SOL    HW130377   3.920   5.375   5.497
 9826SOL    HW230378   4.021   5.317   5.612
 9827SOL     OW30379   1.775   4.332   4.048
 9827SOL    HW130380   1.769   4.381   3.961
 9827SOL    HW230381   1.728   4.244   4.041
 9828SOL     OW30382   3.010   2.488   5.351
 9828SOL    HW130383   3.076   2.427   5.307
 9828SOL    HW230384   3.032   2.498   5.448
 9829SOL     OW30385   4.476   5.558   6.334
 9829SOL    HW130386   4.515   5.499   6.263
 9829SOL    HW230387   4.423   5.630   6.291
 9830SOL     OW30388   5.167   1.141   1.889
 9830SOL    HW130389   5.243   1.184   1.937
 9830SOL    HW230390   5.188   1.135   1.791
 9831SOL     OW30391   0.915   5.046   2.588
 9831SOL    HW130392   0.909   5.113   2.514
 9831SOL    HW230393   0.949   4.960   2.552
 9832SOL     OW30394   5.111   5.558   2.513
 9832SOL    HW130395   5.111   5.633   2.447
 9832SOL    HW230396   5.194   5.561   2.568
 9833SOL     OW30397   3.568   3.601   4.148
 9833SOL    HW130398   3.665   3.582   4.166
 9833SOL    HW230399   3.520   3.516   4.128
 9834SOL     OW30400   2.456   4.505   5.266
 9834SOL    HW130401   2.393   4.513   5.343
 9834SOL    HW230402   2.524   4.434   5.286
 9835SOL     OW30403   3.371   3.214   4.484
 9835SOL    HW130404   3.470   3.198   4.484
 9835SOL    HW230405   3.353   3.312   4.484
 9836SOL     OW30406   0.375   3.757   3.946
 9836SOL    HW130407   0.466   3.729   3.916
 9836SOL    HW230408   0.307   3.723   3.881
 9837SOL     OW30409   4.113   0.844   2.092
 9837SOL    HW130410   4.054   0.890   2.025
 9837SOL    HW230411   4.074   0.854   2.184
 9838SOL     OW30412   1.566   6.770   0.337
 9838SOL    HW130413   1.637   6.706   0.365
 9838SOL    HW230414   1.560   6.845   0.403
 9839SOL     OW30415   5.191   6.609   3.909
 9839SOL    HW130416   5.092   6.606   3.927
 9839SOL    HW230417   5.239   6.624   3.995
 9840SOL     OW30418   5.957   1.745   0.894
 9840SOL    HW130419   5.969   1.665   0.952
 9840SOL    HW230420   6.032   1.809   0.911
 9841SOL     OW30421   1.380   4.045   5.164
 9841SOL    HW130422   1.451   4.096   5.213
 9841SOL    HW230423   1.291   4.064   5.205
 9842SOL     OW30424   3.530   3.094   1.454
 9842SOL    HW130425   3.584   3.011   1.464
 9842SOL    HW230426   3.463   3.099   1.528
 9843SOL     OW30427   6.776   0.559   2.747
 9843SOL    HW130428   6.723   0.557   2.663
 9843SOL    HW230429   6.742   0.489   2.810
 9844SOL     OW30430   6.016   1.226   3.509
 9844SOL    HW130431   6.092   1.161   3.509
 9844SOL    HW230432   6.052   1.319   3.517
 9845SOL     OW30433   2.015   2.350   3.634
 9845SOL    HW130434   2.014   2.419   3.707
 9845SOL    HW230435   1.932   2.359   3.579
 9846SOL     OW30436   3.311   2.556   1.517
 9846SOL    HW130437   3.223   2.561   1.468
 9846SOL    HW230438   3.307   2.615   1.598
 9847SOL     OW30439   3.777   2.904   2.970
 9847SOL    HW130440   3.813   2.811   2.964
 9847SOL    HW230441   3.798   2.941   3.061
 9848SOL     OW30442   4.232   3.701   5.214
 9848SOL    HW130443   4.171   3.770   5.176
 9848SOL    HW230444   4.313   3.693   5.156
 9849SOL     OW30445   1.000   6.894   6.274
 9849SOL    HW130446   0.924   6.922   6.215
 9849SOL    HW230447   0.964   6.866   6.363
 9850SOL     OW30448   6.639   0.440   3.642
 9850SOL    HW130449   6.620   0.535   3.615
 9850SOL    HW230450   6.585   0.418   3.723
 9851SOL     OW30451   1.059   0.532   4.082
 9851SOL    HW130452   1.079   0.441   4.045
 9851SOL    HW230453   0.962   0.539   4.105
 9852SOL     OW30454   2.266   1.969   4.456
 9852SOL    HW130455   2.340   2.037   4.449
 9852SOL    HW230456   2.274   1.903   4.381
 9853SOL     OW30457   5.866   3.128   5.320
 9853SOL    HW130458   5.799   3.096   5.387
 9853SOL    HW230459   5.823   3.195   5.260
 9854SOL     OW30460   0.103   6.318   4.473
 9854SOL    HW130461   0.173   6.357   4.413
 9854SOL    HW230462   0.048   6.392   4.511
 9855SOL     OW30463   1.784   3.202   1.790
 9855SOL    HW130464   1.805   3.107   1.813
 9855SOL    HW230465   1.694   3.206   1.747
 9856SOL     OW30466   4.698   4.166   4.474
 9856SOL    HW130467   4.687   4.235   4.545
 9856SOL    HW230468   4.657   4.199   4.389
 9857SOL     OW30469   4.707   2.589   2.467
 9857SOL    HW130470   4.702   2.522   2.393
 9857SOL    HW230471   4.726   2.679   2.429
 9858SOL     OW30472   6.694   6.763   1.287
 9858SOL    HW130473   6.734   6.735   1.374
 9858SOL    HW230474   6.756   6.741   1.212
 9859SOL     OW30475   6.346   6.085   3.000
 9859SOL    HW130476   6.271   6.140   2.962
 9859SOL    HW230477   6.356   6.105   3.097
 9860SOL     OW30478   1.889   2.403   4.263
 9860SOL    HW130479   1.967   2.395   4.201
 9860SOL    HW230480   1.871   2.314   4.306
 9861SOL     OW30481   2.926   0.559   2.848
 9861SOL    HW130482   2.924   0.485   2.916
 9861SOL    HW230483   2.834   0.576   2.815
 9862SOL     OW30484   2.697   3.448   0.074
 9862SOL    HW130485   2.701   3.494   7.007
 9862SOL    HW230486   2.751   3.363   0.070
 9863SOL     OW30487   3.158   5.726   1.896
 9863SOL    HW130488   3.170   5.678   1.984
 9863SOL    HW230489   3.235   5.790   1.883
 9864SOL     OW30490   3.403   0.626   4.133
 9864SOL    HW130491   3.336   0.652   4.202
 9864SOL    HW230492   3.417   0.527   4.134
 9865SOL     OW30493   1.372   6.998   4.442
 9865SOL    HW130494   1.305   0.022   4.383
 9865SOL    HW230495   1.373   6.900   4.420
 9866SOL     OW30496   5.523   5.074   6.152
 9866SOL    HW130497   5.613   5.119   6.159
 9866SOL    HW230498   5.523   4.992   6.208
 9867SOL     OW30499   6.703   2.037   1.545
 9867SOL    HW130500   6.635   2.095   1.500
 9867SOL    HW230501   6.660   1.950   1.571
 9868SOL     OW30502   0.133   2.648   4.674
 9868SOL    HW130503   0.155   2.606   4.762
 9868SOL    HW230504   0.116   2.746   4.687
 9869SOL     OW30505   0.274   2.314   1.679
 9869SOL    HW130506   0.291   2.391   1.617
 9869SOL    HW230507   0.351   2.251   1.677
 9870SOL     OW30508   4.055   5.539   3.141
 9870SOL    HW130509   4.039   5.630   3.101
 9870SOL    HW230510   4.008   5.533   3.229
 9871SOL     OW30511   6.328   4.552   6.069
 9871SOL    HW130512   6.372   4.622   6.125
 9871SOL    HW230513   6.383   4.535   5.987
 9872SOL     OW30514   3.636   6.005   4.925
 9872SOL    HW130515   3.670   6.001   5.019
 9872SOL    HW230516   3.609   5.913   4.896
 9873SOL     OW30517   2.086   2.871   0.606
 9873SOL    HW130518   2.128   2.955   0.572
 9873SOL    HW230519   2.022   2.892   0.679
 9874SOL     OW30520   6.751   2.741   5.381
 9874SOL    HW130521   6.758   2.802   5.460
 9874SOL    HW230522   6.667   2.687   5.388
 9875SOL     OW30523   6.218   5.729   2.493
 9875SOL    HW130524   6.267   5.675   2.562
 9875SOL    HW230525   6.280   5.751   2.418
 9876SOL     OW30526   5.113   6.910   4.787
 9876SOL    HW130527   5.150   6.914   4.879
 9876SOL    HW230528   5.159   6.836   4.736
 9877SOL     OW30529   0.028   4.675   4.109
 9877SOL    HW130530   0.113   4.692   4.060
 9877SOL    HW230531   0.015   4.576   4.120
 9878SOL     OW30532   3.123   3.356   6.319
 9878SOL    HW130533   3.164   3.318   6.402
 9878SOL    HW230534   3.024   3.340   6.320
 9879SOL     OW30535   5.462   5.278   5.911
 9879SOL    HW130536   5.446   5.367   5.869
 9879SOL    HW230537   5.402   5.267   5.990
 9880SOL     OW30538   2.840   1.031   0.959
 9880SOL    HW130539   2.895   1.028   1.042
 9880SOL    HW230540   2.873   0.962   0.895
 9881SOL     OW30541   6.961   1.603   4.602
 9881SOL    HW130542   6.937   1.513   4.639
 9881SOL    HW230543   6.930   1.609   4.507
 9882SOL     OW30544   2.796   3.679   5.700
 9882SOL    HW130545   2.807   3.630   5.613
 9882SOL    HW230546   2.716   3.739   5.694
 9883SOL     OW30547   0.573   6.550   0.805
 9883SOL    HW130548   0.599   6.463   0.849
 9883SOL    HW230549   0.610   6.626   0.858
 9884SOL     OW30550   4.428   1.352   0.507
 9884SOL    HW130551   4.334   1.368   0.538
 9884SOL    HW230552   4.479   1.438   0.512
 9885SOL     OW30553   0.463   2.893   4.678
 9885SOL    HW130554   0.376   2.847   4.694
 9885SOL    HW230555   0.453   2.959   4.603
 9886SOL     OW30556   0.793   5.963   1.099
 9886SOL    HW130557   0.762   5.994   1.009
 9886SOL    HW230558   0.736   5.887   1.130
 9887SOL     OW30559   3.852   0.057   6.840
 9887SOL    HW130560   3.763   0.019   6.865
 9887SOL    HW230561   3.854   0.075   6.742
 9888SOL     OW30562   5.764   4.708   3.189
 9888SOL    HW130563   5.849   4.749   3.223
 9888SOL    HW230564   5.727   4.764   3.115
 9889SOL     OW30565   6.838   4.084   2.159
 9889SOL    HW130566   6.885   4.088   2.071
 9889SOL    HW230567   6.892   4.030   2.224
 9890SOL     OW30568   0.547   2.114   1.441
 9890SOL    HW130569   0.481   2.055   1.488
 9890SOL    HW230570   0.632   2.063   1.426
 9891SOL     OW30571   6.391   3.833   1.520
 9891SOL    HW130572   6.442   3.748   1.504
 9891SOL    HW230573   6.301   3.825   1.478
 9892SOL     OW30574   1.362   5.595   3.054
 9892SOL    HW130575   1.319   5.584   2.964
 9892SOL    HW230576   1.457   5.624   3.042
 9893SOL     OW30577   6.469   0.050   2.180
 9893SOL    HW130578   6.471   6.973   2.196
 9893SOL    HW230579   6.397   0.072   2.114
 9894SOL     OW30580   2.694   1.688   6.191
 9894SOL    HW130581   2.686   1.600   6.237
 9894SOL    HW230582   2.725   1.757   6.256
 9895SOL     OW30583   5.711   2.883   5.423
 9895SOL    HW130584   5.677   2.790   5.438
 9895SOL    HW230585   5.768   2.911   5.501
 9896SOL     OW30586   5.313   2.043   0.536
 9896SOL    HW130587   5.257   1.965   0.563
 9896SOL    HW230588   5.397   2.044   0.590
 9897SOL     OW30589   4.796   6.875   2.744
 9897SOL    HW130590   4.775   6.971   2.726
 9897SOL    HW230591   4.749   6.845   2.827
 9898SOL     OW30592   0.503   4.763   5.545
 9898SOL    HW130593   0.547   4.675   5.564
 9898SOL    HW230594   0.413   4.765   5.587
 9899SOL     OW30595   6.965   5.846   2.581
 9899SOL    HW130596   6.874   5.883   2.600
 9899SOL    HW230597   0.010   5.889   2.642
 9900SOL     OW30598   1.732   3.039   2.888
 9900SOL    HW130599   1.725   3.078   2.796
 9900SOL    HW230600   1.690   3.101   2.954
 9901SOL     OW30601   2.116   1.123   0.093
 9901SOL    HW130602   2.129   1.131   0.192
 9901SOL    HW230603   2.104   1.027   0.069
 9902SOL     OW30604   4.729   3.787   0.865
 9902SOL    HW130605   4.661   3.801   0.937
 9902SOL    HW230606   4.683   3.785   0.776
 9903SOL     OW30607   5.263   0.288   1.874
 9903SOL    HW130608   5.240   0.261   1.968
 9903SOL    HW230609   5.187   0.340   1.835
 9904SOL     OW30610   0.060   3.846   6.115
 9904SOL    HW130611   0.090   3.777   6.049
 9904SOL    HW230612   7.018   3.805   6.180
 9905SOL     OW30613   1.461   0.033   6.558
 9905SOL    HW130614   1.387   0.096   6.578
 9905SOL    HW230615   1.499   0.053   6.467
 9906SOL     OW30616   2.196   3.691   0.003
 9906SOL    HW130617   2.175   3.636   0.084
 9906SOL    HW230618   2.159   3.783   0.015
 9907SOL     OW30619   1.308   0.763   3.115
 9907SOL    HW130620   1.351   0.796   3.031
 9907SOL    HW230621   1.378   0.726   3.176
 9908SOL     OW30622   0.713   3.505   5.770
 9908SOL    HW130623   0.652   3.492   5.692
 9908SOL    HW230624   0.806   3.524   5.737
 9909SOL     OW30625   3.702   0.618   2.638
 9909SOL    HW130626   3.613   0.639   2.598
 9909SOL    HW230627   3.771   0.678   2.597
 9910SOL     OW30628   1.076   5.217   1.796
 9910SOL    HW130629   1.006   5.148   1.778
 9910SOL    HW230630   1.131   5.232   1.714
 9911SOL     OW30631   4.067   5.912   1.955
 9911SOL    HW130632   4.043   5.964   2.038
 9911SOL    HW230633   4.060   5.814   1.974
 9912SOL     OW30634   3.948   0.999   1.159
 9912SOL    HW130635   3.996   0.974   1.075
 9912SOL    HW230636   3.853   0.967   1.155
 9913SOL     OW30637   6.516   3.547   1.524
 9913SOL    HW130638   6.507   3.481   1.598
 9913SOL    HW230639   6.612   3.571   1.511
 9914SOL     OW30640   0.736   0.276   5.096
 9914SOL    HW130641   0.638   0.257   5.099
 9914SOL    HW230642   0.769   0.268   5.001
 9915SOL     OW30643   5.048   2.417   3.608
 9915SOL    HW130644   5.036   2.368   3.522
 9915SOL    HW230645   4.985   2.495   3.611
 9916SOL     OW30646   2.029   2.058   3.419
 9916SOL    HW130647   2.127   2.078   3.420
 9916SOL    HW230648   2.006   2.004   3.500
 9917SOL     OW30649   3.571   3.749   4.520
 9917SOL    HW130650   3.627   3.803   4.457
 9917SOL    HW230651   3.576   3.653   4.494
 9918SOL     OW30652   0.834   2.176   1.833
 9918SOL    HW130653   0.788   2.262   1.816
 9918SOL    HW230654   0.839   2.159   1.932
 9919SOL     OW30655   2.745   6.039   1.407
 9919SOL    HW130656   2.793   6.109   1.460
 9919SOL    HW230657   2.780   6.038   1.314
 9920SOL     OW30658   4.032   6.825   2.478
 9920SOL    HW130659   3.932   6.816   2.467
 9920SOL    HW230660   4.052   6.882   2.557
 9921SOL     OW30661   4.527   6.926   4.664
 9921SOL    HW130662   4.562   6.837   4.635
 9921SOL    HW230663   4.594   6.969   4.724
 9922SOL     OW30664   4.801   4.540   1.249
 9922SOL    HW130665   4.808   4.447   1.285
 9922SOL    HW230666   4.708   4.574   1.261
 9923SOL     OW30667   0.058   3.166   0.011
 9923SOL    HW130668   7.012   3.137   6.965
 9923SOL    HW230669   0.145   3.119   7.015
 9924SOL     OW30670   4.483   1.761   3.253
 9924SOL    HW130671   4.421   1.822   3.302
 9924SOL    HW230672   4.522   1.695   3.317
 9925SOL     OW30673   1.478   4.855   3.811
 9925SOL    HW130674   1.529   4.816   3.887
 9925SOL    HW230675   1.535   4.920   3.761
 9926SOL     OW30676   3.080   2.439   0.671
 9926SOL    HW130677   3.055   2.467   0.578
 9926SOL    HW230678   3.152   2.370   0.666
 9927SOL     OW30679   1.214   1.705   0.790
 9927SOL    HW130680   1.203   1.636   0.861
 9927SOL    HW230681   1.144   1.692   0.719
 9928SOL     OW30682   5.316   3.616   2.821
 9928SOL    HW130683   5.397   3.669   2.796
 9928SOL    HW230684   5.340   3.519   2.828
 9929SOL     OW30685   3.421   4.030   4.403
 9929SOL    HW130686   3.323   4.045   4.393
 9929SOL    HW230687   3.464   4.024   4.313
 9930SOL     OW30688   0.827   0.593   6.384
 9930SOL    HW130689   0.738   0.585   6.430
 9930SOL    HW230690   0.850   0.507   6.339
 9931SOL     OW30691   6.774   5.585   4.204
 9931SOL    HW130692   6.759   5.555   4.298
 9931SOL    HW230693   6.866   5.624   4.196
 9932SOL     OW30694   2.223   1.769   6.669
 9932SOL    HW130695   2.276   1.740   6.748
 9932SOL    HW230696   2.258   1.723   6.587
 9933SOL     OW30697   1.889   1.126   4.254
 9933SOL    HW130698   1.831   1.206   4.243
 9933SOL    HW230699   1.926   1.123   4.347
 9934SOL     OW30700   6.314   2.033   7.005
 9934SOL    HW130701   6.228   2.000   6.965
 9934SOL    HW230702   6.322   1.999   0.077
 9935SOL     OW30703   2.592   0.674   0.769
 9935SOL    HW130704   2.665   0.686   0.702
 9935SOL    HW230705   2.610   0.592   0.824
 9936SOL     OW30706   6.940   5.223   0.333
 9936SOL    HW130707   6.961   5.261   0.243
 9936SOL    HW230708   6.865   5.274   0.375
 9937SOL     OW30709   1.826   1.339   2.798
 9937SOL    HW130710   1.811   1.394   2.880
 9937SOL    HW230711   1.921   1.347   2.769
 9938SOL     OW30712   5.616   6.516   4.347
 9938SOL    HW130713   5.648   6.608   4.325
 9938SOL    HW230714   5.659   6.484   4.431
 9939SOL     OW30715   2.594   2.710   0.841
 9939SOL    HW130716   2.515   2.676   0.791
 9939SOL    HW230717   2.569   2.729   0.935
 9940SOL     OW30718   1.283   7.004   2.690
 9940SOL    HW130719   1.203   0.027   2.730
 9940SOL    HW230720   1.258   6.911   2.662
 9941SOL     OW30721   2.909   5.789   5.310
 9941SOL    HW130722   2.911   5.889   5.311
 9941SOL    HW230723   2.987   5.755   5.258
 9942SOL     OW30724   4.699   5.397   1.871
 9942SOL    HW130725   4.655   5.487   1.879
 9942SOL    HW230726   4.683   5.345   1.954
 9943SOL     OW30727   0.933   3.823   6.734
 9943SOL    HW130728   0.836   3.841   6.720
 9943SOL    HW230729   0.962   3.749   6.672
 9944SOL     OW30730   0.429   4.905   6.504
 9944SOL    HW130731   0.474   4.913   6.415
 9944SOL    HW230732   0.354   4.971   6.510
 9945SOL     OW30733   5.614   4.356   7.014
 9945SOL    HW130734   5.644   4.291   0.063
 9945SOL    HW230735   5.683   4.360   6.942
 9946SOL     OW30736   6.247   0.082   3.302
 9946SOL    HW130737   6.211   0.014   3.365
 9946SOL    HW230738   6.345   0.069   3.291
 9947SOL     OW30739   2.935   1.513   4.721
 9947SOL    HW130740   2.976   1.438   4.773
 9947SOL    HW230741   3.003   1.551   4.659
 9948SOL     OW30742   0.016   5.702   5.318
 9948SOL    HW130743   7.014   5.694   5.221
 9948SOL    HW230744   6.995   5.628   5.369
 9949SOL     OW30745   6.925   5.259   3.895
 9949SOL    HW130746   6.974   5.277   3.980
 9949SOL    HW230747   6.950   5.169   3.860
 9950SOL     OW30748   6.981   5.883   5.921
 9950SOL    HW130749   0.043   5.849   5.964
 9950SOL    HW230750   6.995   5.886   5.822
 9951SOL     OW30751   1.706   2.069   3.141
 9951SOL    HW130752   1.699   2.098   3.046
 9951SOL    HW230753   1.797   2.031   3.159
 9952SOL     OW30754   1.612   3.630   0.757
 9952SOL    HW130755   1.669   3.601   0.680
 9952SOL    HW230756   1.521   3.591   0.747
 9953SOL     OW30757   5.742   2.629   4.048
 9953SOL    HW130758   5.727   2.715   4.098
 9953SOL    HW230759   5.682   2.626   3.968
 9954SOL     OW30760   1.317   0.337   4.424
 9954SOL    HW130761   1.394   0.380   4.377
 9954SOL    HW230762   1.303   0.245   4.388
 9955SOL     OW30763   3.395   3.797   6.710
 9955SOL    HW130764   3.348   3.870   6.761
 9955SOL    HW230765   3.444   3.837   6.632
 9956SOL     OW30766   0.589   3.768   2.704
 9956SOL    HW130767   0.561   3.863   2.689
 9956SOL    HW230768   0.537   3.708   2.643
 9957SOL     OW30769   5.875   0.205   2.760
 9957SOL    HW130770   5.861   0.136   2.688
 9957SOL    HW230771   5.958   0.258   2.739
 9958SOL     OW30772   3.144   5.831   6.378
 9958SOL    HW130773   3.143   5.926   6.409
 9958SOL    HW230774   3.173   5.827   6.282
 9959SOL     OW30775   4.072   3.785   2.674
 9959SOL    HW130776   4.058   3.693   2.710
 9959SOL    HW230777   4.169   3.807   2.673
 9960SOL     OW30778   0.358   6.608   1.820
 9960SOL    HW130779   0.290   6.638   1.887
 9960SOL    HW230780   0.434   6.564   1.867
 9961SOL     OW30781   1.798   4.901   3.130
 9961SOL    HW130782   1.738   4.822   3.118
 9961SOL    HW230783   1.870   4.898   3.060
 9962SOL     OW30784   4.565   0.506   2.125
 9962SOL    HW130785   4.624   0.530   2.048
 9962SOL    HW230786   4.504   0.582   2.146
 9963SOL     OW30787   2.969   2.456   5.917
 9963SOL    HW130788   2.884   2.432   5.964
 9963SOL    HW230789   3.020   2.372   5.896
 9964SOL     OW30790   4.241   5.060   5.866
 9964SOL    HW130791   4.198   5.105   5.944
 9964SOL    HW230792   4.340   5.069   5.873
 9965SOL     OW30793   3.475   4.991   5.140
 9965SOL    HW130794   3.553   5.003   5.078
 9965SOL    HW230795   3.390   4.996   5.088
 9966SOL     OW30796   1.578   5.146   1.970
 9966SOL    HW130797   1.591   5.159   1.872
 9966SOL    HW230798   1.643   5.203   2.020
 9967SOL     OW30799   5.534   5.232   2.199
 9967SOL    HW130800   5.583   5.233   2.111
 9967SOL    HW230801   5.562   5.152   2.252
 9968SOL     OW30802   3.468   5.755   6.241
 9968SOL    HW130803   3.390   5.817   6.229
 9968SOL    HW230804   3.437   5.660   6.231
 9969SOL     OW30805   1.164   3.143   3.948
 9969SOL    HW130806   1.249   3.097   3.974
 9969SOL    HW230807   1.186   3.222   3.891
 9970SOL     OW30808   0.023   4.629   2.461
 9970SOL    HW130809   6.987   4.593   2.534
 9970SOL    HW230810   6.992   4.695   2.407
 9971SOL     OW30811   2.241   4.031   0.473
 9971SOL    HW130812   2.253   4.044   0.571
 9971SOL    HW230813   2.280   4.109   0.423
 9972SOL     OW30814   3.129   4.443   0.976
 9972SOL    HW130815   3.169   4.531   1.001
 9972SOL    HW230816   3.195   4.370   0.994
 9973SOL     OW30817   4.329   1.858   4.499
 9973SOL    HW130818   4.345   1.872   4.401
 9973SOL    HW230819   4.334   1.761   4.520
 9974SOL     OW30820   6.645   3.769   3.271
 9974SOL    HW130821   6.613   3.859   3.243
 9974SOL    HW230822   6.729   3.779   3.324
 9975SOL     OW30823   6.780   4.658   6.682
 9975SOL    HW130824   6.863   4.709   6.706
 9975SOL    HW230825   6.709   4.675   6.751
 9976SOL     OW30826   6.615   4.694   5.158
 9976SOL    HW130827   6.534   4.753   5.150
 9976SOL    HW230828   6.621   4.658   5.251
 9977SOL     OW30829   6.717   4.741   6.138
 9977SOL    HW130830   6.743   4.764   6.232
 9977SOL    HW230831   6.696   4.824   6.088
 9978SOL     OW30832   5.754   1.382   5.090
 9978SOL    HW130833   5.667   1.387   5.138
 9978SOL    HW230834   5.820   1.443   5.133
 9979SOL     OW30835   6.445   4.508   5.813
 9979SOL    HW130836   6.391   4.447   5.755
 9979SOL    HW230837   6.542   4.481   5.808
 9980SOL     OW30838   1.444   1.041   0.209
 9980SOL    HW130839   1.390   1.104   0.153
 9980SOL    HW230840   1.442   1.072   0.304
 9981SOL     OW30841   2.339   2.078   0.542
 9981SOL    HW130842   2.303   2.167   0.515
 9981SOL    HW230843   2.405   2.089   0.616
 9982SOL     OW30844   1.222   1.710   3.356
 9982SOL    HW130845   1.221   1.610   3.349
 9982SOL    HW230846   1.222   1.750   3.264
 9983SOL     OW30847   1.264   0.941   1.375
 9983SOL    HW130848   1.238   0.845   1.384
 9983SOL    HW230849   1.337   0.950   1.308
 9984SOL     OW30850   0.494   0.482   0.212
 9984SOL    HW130851   0.514   0.506   0.307
 9984SOL    HW230852   0.560   0.414   0.180
 9985SOL     OW30853   3.713   6.959   1.550
 9985SOL    HW130854   3.698   6.976   1.648
 9985SOL    HW230855   3.809   6.978   1.528
 9986SOL     OW30856   5.045   4.039   6.628
 9986SOL    HW130857   5.029   4.106   6.556
 9986SOL    HW230858   5.132   3.991   6.611
 9987SOL     OW30859   5.908   2.038   2.135
 9987SOL    HW130860   5.923   2.135   2.154
 9987SOL    HW230861   5.944   2.016   2.045
 9988SOL     OW30862   0.008   4.894   4.695
 9988SOL    HW130863   0.099   4.858   4.674
 9988SOL    HW230864   0.002   4.913   4.793
 9989SOL     OW30865   5.649   3.586   3.338
 9989SOL    HW130866   5.550   3.578   3.326
 9989SOL    HW230867   5.675   3.555   3.429
 9990SOL     OW30868   2.247   0.261   3.631
 9990SOL    HW130869   2.159   0.215   3.639
 9990SOL    HW230870   2.238   0.357   3.659
 9991SOL     OW30871   1.131   2.878   4.819
 9991SOL    HW130872   1.216   2.898   4.867
 9991SOL    HW230873   1.070   2.957   4.823
 9992SOL     OW30874   4.048   3.263   0.623
 9992SOL    HW130875   4.018   3.187   0.565
 9992SOL    HW230876   4.109   3.228   0.695
 9993SOL     OW30877   3.961   6.165   3.007
 9993SOL    HW130878   3.933   6.251   3.050
 9993SOL    HW230879   3.932   6.165   2.911
 9994SOL     OW30880   7.003   4.118   3.638
 9994SOL    HW130881   6.948   4.134   3.719
 9994SOL    HW230882   7.018   4.020   3.626
 9995SOL     OW30883   3.163   0.116   3.150
 9995SOL    HW130884   3.243   0.085   3.099
 9995SOL    HW230885   3.158   0.216   3.147
 9996SOL     OW30886   2.934   2.741   1.014
 9996SOL    HW130887   2.970   2.716   0.925
 9996SOL    HW230888   2.889   2.661   1.055
 9997SOL     OW30889   4.757   1.196   1.001
 9997SOL    HW130890   4.852   1.226   0.999
 9997SOL    HW230891   4.740   1.141   1.083
 9998SOL     OW30892   5.526   3.821   3.151
 9998SOL    HW130893   5.513   3.817   3.250
 9998SOL    HW230894   5.444   3.859   3.107
 9999SOL     OW30895   6.660   5.696   4.978
 9999SOL    HW130896   6.658   5.689   4.878
 9999SOL    HW230897   6.585   5.755   5.008
10000SOL     OW30898   5.996   1.996   6.965
10000SOL    HW130899   5.898   2.013   6.974
10000SOL    HW230900   6.012   1.932   6.889
10001SOL     OW30901   4.576   0.105   1.583
10001SOL    HW130902   4.569   0.205   1.576
10001SOL    HW230903   4.601   0.081   1.677
10002SOL     OW30904   1.622   1.607   1.942
10002SOL    HW130905   1.721   1.599   1.944
10002SOL    HW230906   1.582   1.539   2.004
10003SOL     OW30907   3.864   2.183   2.766
10003SOL    HW130908   3.898   2.100   2.809
10003SOL    HW230909   3.855   2.168   2.667
10004SOL     OW30910   5.279   2.922   4.680
10004SOL    HW130911   5.352   2.854   4.676
10004SOL    HW230912   5.212   2.894   4.749
10005SOL     OW30913   4.468   5.703   3.065
10005SOL    HW130914   4.410   5.685   3.145
10005SOL    HW230915   4.410   5.717   2.985
10006SOL     OW30916   4.760   1.509   5.050
10006SOL    HW130917   4.791   1.522   5.145
10006SOL    HW230918   4.716   1.593   5.018
10007SOL     OW30919   0.488   3.705   4.678
10007SOL    HW130920   0.430   3.647   4.621
10007SOL    HW230921   0.457   3.800   4.670
10008SOL     OW30922   4.095   1.163   3.035
10008SOL    HW130923   4.107   1.131   3.129
10008SOL    HW230924   4.133   1.095   2.972
10009SOL     OW30925   1.847   4.102   1.682
10009SOL    HW130926   1.818   4.169   1.749
10009SOL    HW230927   1.895   4.027   1.728
10010SOL     OW30928   2.343   6.477   0.201
10010SOL    HW130929   2.347   6.388   0.155
10010SOL    HW230930   2.354   6.465   0.299
10011SOL     OW30931   0.683   3.341   6.242
10011SOL    HW130932   0.753   3.348   6.313
10011SOL    HW230933   0.721   3.293   6.162
10012SOL     OW30934   4.751   6.905   2.330
10012SOL    HW130935   4.690   6.938   2.402
10012SOL    HW230936   4.697   6.876   2.251
10013SOL     OW30937   2.142   1.948   4.975
10013SOL    HW130938   2.217   1.967   5.038
10013SOL    HW230939   2.179   1.928   4.885
10014SOL     OW30940   0.052   1.998   1.571
10014SOL    HW130941   0.033   2.015   1.667
10014SOL    HW230942   7.011   1.928   1.536
10015SOL     OW30943   3.649   4.478   0.810
10015SOL    HW130944   3.742   4.499   0.779
10015SOL    HW230945   3.599   4.564   0.825
10016SOL     OW30946   1.874   0.225   5.018
10016SOL    HW130947   1.874   0.246   4.920
10016SOL    HW230948   1.879   0.126   5.030
10017SOL     OW30949   2.661   1.739   2.682
10017SOL    HW130950   2.685   1.642   2.677
10017SOL    HW230951   2.670   1.781   2.591
10018SOL     OW30952   6.413   5.092   6.119
10018SOL    HW130953   6.428   5.010   6.064
10018SOL    HW230954   6.479   5.163   6.092
10019SOL     OW30955   0.558   1.923   3.409
10019SOL    HW130956   0.535   1.885   3.319
10019SOL    HW230957   0.647   1.969   3.403
10020SOL     OW30958   0.330   1.306   1.311
10020SOL    HW130959   0.265   1.230   1.305
10020SOL    HW230960   0.309   1.374   1.241
10021SOL     OW30961   1.301   2.515   2.519
10021SOL    HW130962   1.250   2.458   2.455
10021SOL    HW230963   1.282   2.485   2.613
10022SOL     OW30964   3.784   6.802   1.200
10022SOL    HW130965   3.878   6.835   1.193
10022SOL    HW230966   3.721   6.880   1.199
10023SOL     OW30967   2.269   5.329   5.435
10023SOL    HW130968   2.270   5.413   5.381
10023SOL    HW230969   2.349   5.273   5.412
10024SOL     OW30970   2.395   6.554   1.692
10024SOL    HW130971   2.335   6.634   1.694
10024SOL    HW230972   2.360   6.486   1.757
10025SOL     OW30973   1.798   2.013   0.842
10025SOL    HW130974   1.782   1.918   0.869
10025SOL    HW230975   1.870   2.053   0.900
10026SOL     OW30976   4.119   6.240   3.615
10026SOL    HW130977   4.192   6.305   3.593
10026SOL    HW230978   4.061   6.278   3.688
10027SOL     OW30979   1.145   4.430   5.026
10027SOL    HW130980   1.130   4.410   4.929
10027SOL    HW230981   1.229   4.385   5.056
10028SOL     OW30982   1.471   1.638   2.197
10028SOL    HW130983   1.435   1.559   2.148
10028SOL    HW230984   1.481   1.715   2.134
10029SOL     OW30985   2.535   1.868   4.250
10029SOL    HW130986   2.452   1.823   4.283
10029SOL    HW230987   2.575   1.814   4.176
10030SOL     OW30988   2.248   0.062   4.319
10030SOL    HW130989   2.316   7.019   4.285
10030SOL    HW230990   2.251   0.063   4.419
10031SOL     OW30991   6.054   4.593   4.144
10031SOL    HW130992   6.081   4.553   4.232
10031SOL    HW230993   6.107   4.551   4.071
10032SOL     OW30994   3.907   0.398   5.254
10032SOL    HW130995   3.989   0.452   5.235
10032SOL    HW230996   3.852   0.390   5.171
10033SOL     OW30997   4.532   1.897   4.127
10033SOL    HW130998   4.512   1.937   4.038
10033SOL    HW230999   4.452   1.847   4.160
10034SOL     OW31000   3.730   0.174   3.920
10034SOL    HW131001   3.708   0.159   4.016
10034SOL    HW231002   3.784   0.258   3.911
10035SOL     OW31003   0.084   4.777   2.838
10035SOL    HW131004   0.031   4.729   2.908
10035SOL    HW231005   0.128   4.857   2.879
10036SOL     OW31006   5.994   1.282   1.029
10036SOL    HW131007   5.952   1.250   0.945
10036SOL    HW231008   6.039   1.206   1.076
10037SOL     OW31009   6.321   1.776   0.940
10037SOL    HW131010   6.299   1.763   1.036
10037SOL    HW231011   6.241   1.751   0.884
10038SOL     OW31012   4.079   1.080   6.621
10038SOL    HW131013   3.983   1.056   6.638
10038SOL    HW231014   4.107   1.153   6.684
10039SOL     OW31015   3.806   0.379   4.991
10039SOL    HW131016   3.799   0.279   4.995
10039SOL    HW231017   3.791   0.409   4.897
10040SOL     OW31018   4.284   6.127   6.167
10040SOL    HW131019   4.376   6.097   6.141
10040SOL    HW231020   4.251   6.194   6.100
10041SOL     OW31021   4.367   5.803   6.487
10041SOL    HW131022   4.395   5.708   6.502
10041SOL    HW231023   4.447   5.857   6.459
10042SOL     OW31024   0.897   2.058   4.623
10042SOL    HW131025   0.973   2.059   4.687
10042SOL    HW231026   0.919   2.000   4.545
10043SOL     OW31027   6.727   2.223   4.454
10043SOL    HW131028   6.759   2.297   4.513
10043SOL    HW231029   6.713   2.257   4.361
10044SOL     OW31030   3.184   1.165   4.884
10044SOL    HW131031   3.226   1.075   4.883
10044SOL    HW231032   3.086   1.156   4.865
10045SOL     OW31033   4.699   6.707   3.687
10045SOL    HW131034   4.719   6.769   3.611
10045SOL    HW231035   4.628   6.747   3.744
10046SOL     OW31036   1.620   3.402   1.431
10046SOL    HW131037   1.545   3.391   1.365
10046SOL    HW231038   1.657   3.312   1.454
10047SOL     OW31039   6.967   3.575   5.286
10047SOL    HW131040   6.894   3.637   5.259
10047SOL    HW231041   7.006   3.532   5.204
10048SOL     OW31042   6.123   1.039   3.212
10048SOL    HW131043   6.143   1.060   3.308
10048SOL    HW231044   6.205   1.054   3.157
10049SOL     OW31045   0.054   0.586   6.670
10049SOL    HW131046   0.100   0.571   6.582
10049SOL    HW231047   0.072   0.679   6.702
10050SOL     OW31048   5.570   3.339   5.114
10050SOL    HW131049   5.641   3.322   5.046
10050SOL    HW231050   5.516   3.256   5.127
10051SOL     OW31051   5.288   2.818   5.087
10051SOL    HW131052   5.375   2.771   5.098
10051SOL    HW231053   5.304   2.908   5.047
10052SOL     OW31054   2.240   1.645   2.802
10052SOL    HW131055   2.323   1.701   2.793
10052SOL    HW231056   2.160   1.704   2.807
10053SOL     OW31057   3.637   5.763   2.832
10053SOL    HW131058   3.555   5.715   2.803
10053SOL    HW231059   3.697   5.700   2.882
10054SOL     OW31060   5.502   5.776   6.629
10054SOL    HW131061   5.404   5.755   6.635
10054SOL    HW231062   5.554   5.691   6.619
10055SOL     OW31063   5.472   2.057   4.663
10055SOL    HW131064   5.444   2.095   4.751
10055SOL    HW231065   5.391   2.024   4.614
10056SOL     OW31066   5.256   4.358   3.526
10056SOL    HW131067   5.273   4.261   3.506
10056SOL    HW231068   5.307   4.384   3.608
10057SOL     OW31069   4.188   1.966   5.419
10057SOL    HW131070   4.142   2.004   5.499
10057SOL    HW231071   4.211   1.870   5.437
10058SOL     OW31072   0.274   3.606   4.472
10058SOL    HW131073   0.249   3.628   4.567
10058SOL    HW231074   0.191   3.593   4.418
10059SOL     OW31075   6.666   0.539   1.143
10059SOL    HW131076   6.683   0.558   1.046
10059SOL    HW231077   6.659   0.625   1.193
10060SOL     OW31078   1.898   2.546   1.817
10060SOL    HW131079   1.885   2.498   1.904
10060SOL    HW231080   1.813   2.543   1.764
10061SOL     OW31081   4.502   0.685   4.035
10061SOL    HW131082   4.429   0.751   4.054
10061SOL    HW231083   4.545   0.708   3.948
10062SOL     OW31084   5.837   0.301   4.099
10062SOL    HW131085   5.871   0.257   4.182
10062SOL    HW231086   5.787   0.385   4.123
10063SOL     OW31087   2.590   0.825   4.168
10063SOL    HW131088   2.659   0.789   4.106
10063SOL    HW231089   2.577   0.762   4.245
10064SOL     OW31090   5.104   0.112   6.865
10064SOL    HW131091   5.032   0.065   6.814
10064SOL    HW231092   5.177   0.140   6.803
10065SOL     OW31093   3.292   0.361   2.490
10065SOL    HW131094   3.209   0.406   2.521
10065SOL    HW231095   3.371   0.396   2.541
10066SOL     OW31096   0.504   2.473   3.849
10066SOL    HW131097   0.484   2.568   3.872
10066SOL    HW231098   0.583   2.442   3.902
10067SOL     OW31099   0.204   4.242   5.137
10067SOL    HW131100   0.256   4.173   5.087
10067SOL    HW231101   0.135   4.282   5.076
10068SOL     OW31102   0.117   3.114   3.397
10068SOL    HW131103   0.110   3.020   3.431
10068SOL    HW231104   0.078   3.177   3.464
10069SOL     OW31105   2.358   5.050   2.427
10069SOL    HW131106   2.304   4.990   2.485
10069SOL    HW231107   2.428   4.996   2.379
10070SOL     OW31108   0.177   6.256   5.393
10070SOL    HW131109   0.210   6.259   5.298
10070SOL    HW231110   0.112   6.181   5.403
10071SOL     OW31111   6.110   6.167   4.758
10071SOL    HW131112   6.120   6.111   4.676
10071SOL    HW231113   6.176   6.242   4.757
10072SOL     OW31114   6.630   0.013   4.195
10072SOL    HW131115   6.669   6.960   4.249
10072SOL    HW231116   6.688   0.094   4.204
10073SOL     OW31117   6.285   4.731   5.119
10073SOL    HW131118   6.278   4.824   5.153
10073SOL    HW231119   6.195   4.687   5.122
10074SOL     OW31120   2.104   0.476   5.326
10074SOL    HW131121   2.092   0.494   5.228
10074SOL    HW231122   2.058   0.547   5.379
10075SOL     OW31123   1.492   2.720   2.621
10075SOL    HW131124   1.516   2.802   2.568
10075SOL    HW231125   1.545   2.642   2.588
10076SOL     OW31126   6.274   6.651   3.966
10076SOL    HW131127   6.354   6.655   4.025
10076SOL    HW231128   6.236   6.558   3.966
10077SOL     OW31129   4.392   3.158   6.584
10077SOL    HW131130   4.408   3.257   6.580
10077SOL    HW231131   4.334   3.131   6.508
10078SOL     OW31132   0.613   5.565   3.434
10078SOL    HW131133   0.646   5.544   3.526
10078SOL    HW231134   0.513   5.567   3.434
10079SOL     OW31135   5.656   2.985   3.666
10079SOL    HW131136   5.666   2.904   3.609
10079SOL    HW231137   5.735   2.994   3.726
10080SOL     OW31138   4.500   0.943   5.537
10080SOL    HW131139   4.405   0.916   5.554
10080SOL    HW231140   4.560   0.865   5.550
10081SOL     OW31141   6.680   0.992   0.513
10081SOL    HW131142   6.773   0.967   0.487
10081SOL    HW231143   6.675   1.091   0.528
10082SOL     OW31144   0.259   5.365   1.352
10082SOL    HW131145   0.244   5.353   1.254
10082SOL    HW231146   0.335   5.307   1.381
10083SOL     OW31147   3.493   0.004   3.288
10083SOL    HW131148   3.537   0.088   3.320
10083SOL    HW231149   3.454   6.976   3.366
10084SOL     OW31150   2.014   0.319   6.139
10084SOL    HW131151   2.081   0.297   6.210
10084SOL    HW231152   2.032   0.264   6.057
10085SOL     OW31153   2.521   5.781   0.923
10085SOL    HW131154   2.468   5.748   1.001
10085SOL    HW231155   2.618   5.777   0.946
10086SOL     OW31156   4.724   5.816   1.983
10086SOL    HW131157   4.736   5.841   1.886
10086SOL    HW231158   4.738   5.897   2.040
10087SOL     OW31159   6.888   6.584   4.199
10087SOL    HW131160   6.885   6.539   4.289
10087SOL    HW231161   6.966   6.647   4.196
10088SOL     OW31162   6.375   0.234   2.354
10088SOL    HW131163   6.412   0.158   2.301
10088SOL    HW231164   6.284   0.258   2.319
10089SOL     OW31165   2.937   1.957   3.087
10089SOL    HW131166   2.969   1.905   3.008
10089SOL    HW231167   2.999   2.033   3.104
10090SOL     OW31168   0.482   5.269   1.764
10090SOL    HW131169   0.496   5.196   1.831
10090SOL    HW231170   0.409   5.330   1.796
10091SOL     OW31171   6.997   4.856   6.693
10091SOL    HW131172   6.937   4.933   6.670
10091SOL    HW231173   0.053   4.889   6.746
10092SOL     OW31174   2.257   2.729   5.792
10092SOL    HW131175   2.283   2.825   5.789
10092SOL    HW231176   2.320   2.676   5.735
10093SOL     OW31177   5.161   3.184   5.865
10093SOL    HW131178   5.062   3.184   5.853
10093SOL    HW231179   5.184   3.128   5.945
10094SOL     OW31180   3.696   5.497   1.042
10094SOL    HW131181   3.650   5.453   0.964
10094SOL    HW231182   3.673   5.448   1.126
10095SOL     OW31183   5.581   2.153   4.409
10095SOL    HW131184   5.565   2.127   4.504
10095SOL    HW231185   5.602   2.250   4.404
10096SOL     OW31186   4.094   5.473   2.647
10096SOL    HW131187   4.193   5.469   2.664
10096SOL    HW231188   4.051   5.390   2.682
10097SOL     OW31189   1.104   1.794   0.146
10097SOL    HW131190   1.058   1.879   0.169
10097SOL    HW231191   1.040   1.732   0.101
10098SOL     OW31192   3.126   0.483   5.412
10098SOL    HW131193   3.090   0.403   5.362
10098SOL    HW231194   3.169   0.546   5.347
10099SOL     OW31195   0.621   4.905   0.871
10099SOL    HW131196   0.642   4.991   0.823
10099SOL    HW231197   0.640   4.916   0.968
10100SOL     OW31198   4.784   6.039   5.558
10100SOL    HW131199   4.839   6.116   5.592
10100SOL    HW231200   4.845   5.970   5.520
10101SOL     OW31201   6.876   3.185   2.099
10101SOL    HW131202   6.785   3.207   2.064
10101SOL    HW231203   6.941   3.256   2.072
10102SOL     OW31204   6.721   0.981   1.857
10102SOL    HW131205   6.688   0.898   1.901
10102SOL    HW231206   6.709   1.059   1.918
10103SOL     OW31207   3.789   0.801   5.547
10103SOL    HW131208   3.873   0.749   5.534
10103SOL    HW231209   3.776   0.819   5.645
10104SOL     OW31210   1.400   1.977   4.985
10104SOL    HW131211   1.442   1.966   5.075
10104SOL    HW231212   1.359   1.890   4.957
10105SOL     OW31213   1.501   0.820   6.820
10105SOL    HW131214   1.457   0.736   6.851
10105SOL    HW231215   1.598   0.817   6.845
10106SOL     OW31216   3.805   6.420   0.605
10106SOL    HW131217   3.845   6.502   0.646
10106SOL    HW231218   3.807   6.428   0.505
10107SOL     OW31219   5.556   1.465   5.567
10107SOL    HW131220   5.484   1.523   5.528
10107SOL    HW231221   5.587   1.504   5.653
10108SOL     OW31222   6.936   1.376   0.444
10108SOL    HW131223   7.015   1.419   0.402
10108SOL    HW231224   6.933   1.279   0.419
10109SOL     OW31225   6.042   1.347   0.120
10109SOL    HW131226   5.984   1.290   0.062
10109SOL    HW231227   6.126   1.370   0.070
10110SOL     OW31228   4.921   5.047   4.093
10110SOL    HW131229   4.992   5.109   4.128
10110SOL    HW231230   4.832   5.078   4.125
10111SOL     OW31231   5.968   3.671   4.098
10111SOL    HW131232   5.900   3.745   4.094
10111SOL    HW231233   5.967   3.620   4.012
10112SOL     OW31234   5.906   3.891   3.674
10112SOL    HW131235   5.979   3.824   3.663
10112SOL    HW231236   5.945   3.981   3.692
10113SOL     OW31237   4.390   6.811   6.845
10113SOL    HW131238   4.352   6.835   6.756
10113SOL    HW231239   4.316   6.788   6.908
10114SOL     OW31240   4.030   1.939   1.818
10114SOL    HW131241   3.975   1.950   1.735
10114SOL    HW231242   3.977   1.891   1.887
10115SOL     OW31243   3.867   0.901   5.312
10115SOL    HW131244   3.878   0.814   5.359
10115SOL    HW231245   3.895   0.891   5.216
10116SOL     OW31246   0.651   0.273   0.113
10116SOL    HW131247   0.687   0.227   0.032
10116SOL    HW231248   0.648   0.209   0.189
10117SOL     OW31249   6.736   6.266   5.884
10117SOL    HW131250   6.647   6.311   5.885
10117SOL    HW231251   6.804   6.328   5.844
10118SOL     OW31252   1.957   4.151   3.214
10118SOL    HW131253   1.905   4.085   3.161
10118SOL    HW231254   1.994   4.222   3.154
10119SOL     OW31255   6.665   5.226   4.674
10119SOL    HW131256   6.585   5.171   4.651
10119SOL    HW231257   6.697   5.201   4.766
10120SOL     OW31258   2.152   3.009   4.493
10120SOL    HW131259   2.169   3.020   4.591
10120SOL    HW231260   2.183   2.919   4.463
10121SOL     OW31261   5.716   3.899   6.758
10121SOL    HW131262   5.649   3.953   6.707
10121SOL    HW231263   5.807   3.941   6.746
10122SOL     OW31264   5.522   3.056   2.971
10122SOL    HW131265   5.541   3.042   2.873
10122SOL    HW231266   5.494   2.969   3.011
10123SOL     OW31267   5.833   5.677   1.424
10123SOL    HW131268   5.804   5.757   1.477
10123SOL    HW231269   5.757   5.614   1.414
10124SOL     OW31270   1.497   5.192   0.558
10124SOL    HW131271   1.408   5.163   0.523
10124SOL    HW231272   1.513   5.288   0.535
10125SOL     OW31273   1.778   1.284   1.564
10125SOL    HW131274   1.824   1.212   1.512
10125SOL    HW231275   1.752   1.249   1.654
10126SOL     OW31276   6.877   0.121   0.383
10126SOL    HW131277   6.783   0.100   0.408
10126SOL    HW231278   6.916   0.184   0.450
10127SOL     OW31279   2.878   3.983   6.990
10127SOL    HW131280   2.939   4.049   6.946
10127SOL    HW231281   2.798   4.030   0.005
10128SOL     OW31282   2.743   0.930   6.654
10128SOL    HW131283   2.722   0.970   6.564
10128SOL    HW231284   2.777   0.837   6.642
10129SOL     OW31285   6.327   1.776   3.115
10129SOL    HW131286   6.244   1.730   3.083
10129SOL    HW231287   6.305   1.842   3.186
10130SOL     OW31288   0.816   2.725   1.471
10130SOL    HW131289   0.856   2.638   1.501
10130SOL    HW231290   0.716   2.717   1.471
10131SOL     OW31291   1.708   6.664   4.023
10131SOL    HW131292   1.807   6.668   4.027
10131SOL    HW231293   1.679   6.629   3.934
10132SOL     OW31294   2.815   0.068   3.691
10132SOL    HW131295   2.822   0.011   3.609
10132SOL    HW231296   2.904   0.110   3.710
10133SOL     OW31297   4.797   6.370   0.486
10133SOL    HW131298   4.744   6.392   0.568
10133SOL    HW231299   4.763   6.423   0.409
10134SOL     OW31300   6.175   0.723   2.469
10134SOL    HW131301   6.124   0.753   2.388
10134SOL    HW231302   6.153   0.783   2.546
10135SOL     OW31303   5.122   3.270   3.576
10135SOL    HW131304   5.171   3.257   3.662
10135SOL    HW231305   5.031   3.228   3.584
10136SOL     OW31306   5.148   1.934   2.062
10136SOL    HW131307   5.154   1.848   2.012
10136SOL    HW231308   5.114   1.917   2.154
10137SOL     OW31309   0.046   3.945   4.521
10137SOL    HW131310   7.016   3.871   4.478
10137SOL    HW231311   0.137   3.951   4.480
10138SOL     OW31312   5.847   3.656   0.430
10138SOL    HW131313   5.945   3.657   0.407
10138SOL    HW231314   5.793   3.659   0.346
10139SOL     OW31315   2.892   3.424   3.479
10139SOL    HW131316   2.895   3.494   3.550
10139SOL    HW231317   2.985   3.390   3.461
10140SOL     OW31318   6.939   6.404   6.703
10140SOL    HW131319   7.007   6.438   6.767
10140SOL    HW231320   6.856   6.461   6.709
10141SOL     OW31321   4.568   1.180   5.707
10141SOL    HW131322   4.553   1.096   5.655
10141SOL    HW231323   4.521   1.255   5.662
10142SOL     OW31324   6.272   6.529   5.901
10142SOL    HW131325   6.243   6.589   5.976
10142SOL    HW231326   6.234   6.563   5.815
10143SOL     OW31327   5.939   1.791   0.559
10143SOL    HW131328   5.936   1.784   0.460
10143SOL    HW231329   6.027   1.757   0.592
10144SOL     OW31330   3.974   0.018   6.418
10144SOL    HW131331   3.907   6.969   6.395
10144SOL    HW231332   3.928   0.095   6.462
10145SOL     OW31333   3.053   5.319   3.163
10145SOL    HW131334   3.073   5.389   3.095
10145SOL    HW231335   2.970   5.270   3.136
10146SOL     OW31336   5.189   4.568   4.799
10146SOL    HW131337   5.187   4.564   4.699
10146SOL    HW231338   5.161   4.659   4.829
10147SOL     OW31339   5.228   4.088   6.203
10147SOL    HW131340   5.297   4.158   6.186
10147SOL    HW231341   5.142   4.116   6.160
10148SOL     OW31342   5.286   4.956   6.802
10148SOL    HW131343   5.340   4.886   6.756
10148SOL    HW231344   5.214   4.912   6.856
10149SOL     OW31345   5.508   3.722   1.553
10149SOL    HW131346   5.421   3.729   1.602
10149SOL    HW231347   5.535   3.625   1.548
10150SOL     OW31348   3.545   2.796   1.482
10150SOL    HW131349   3.576   2.723   1.421
10150SOL    HW231350   3.594   2.790   1.569
10151SOL     OW31351   0.675   6.158   6.995
10151SOL    HW131352   0.740   6.100   6.945
10151SOL    HW231353   0.720   6.199   0.052
10152SOL     OW31354   6.761   6.348   3.569
10152SOL    HW131355   6.705   6.330   3.649
10152SOL    HW231356   6.854   6.316   3.585
10153SOL     OW31357   3.992   5.816   3.546
10153SOL    HW131358   4.086   5.842   3.528
10153SOL    HW231359   3.930   5.882   3.503
10154SOL     OW31360   3.537   6.440   4.769
10154SOL    HW131361   3.513   6.390   4.852
10154SOL    HW231362   3.454   6.459   4.716
10155SOL     OW31363   5.216   2.160   6.596
10155SOL    HW131364   5.206   2.163   6.497
10155SOL    HW231365   5.126   2.172   6.639
10156SOL     OW31366   5.627   0.653   2.263
10156SOL    HW131367   5.694   0.600   2.315
10156SOL    HW231368   5.571   0.592   2.207
10157SOL     OW31369   0.359   2.026   0.313
10157SOL    HW131370   0.376   2.052   0.408
10157SOL    HW231371   0.261   2.013   0.300
10158SOL     OW31372   6.881   5.991   1.133
10158SOL    HW131373   6.936   5.930   1.077
10158SOL    HW231374   6.867   6.077   1.084
10159SOL     OW31375   2.890   2.346   1.339
10159SOL    HW131376   2.793   2.329   1.359
10159SOL    HW231377   2.945   2.268   1.370
10160SOL     OW31378   1.274   2.742   2.800
10160SOL    HW131379   1.185   2.706   2.775
10160SOL    HW231380   1.336   2.738   2.722
10161SOL     OW31381   3.430   3.986   0.826
10161SOL    HW131382   3.438   3.891   0.855
10161SOL    HW231383   3.495   4.004   0.753
10162SOL     OW31384   3.317   4.928   0.574
10162SOL    HW131385   3.409   4.966   0.572
10162SOL    HW231386   3.312   4.846   0.517
10163SOL     OW31387   0.178   3.703   7.013
10163SOL    HW131388   0.170   3.759   0.074
10163SOL    HW231389   0.093   3.708   6.961
10164SOL     OW31390   6.320   3.770   5.223
10164SOL    HW131391   6.296   3.856   5.177
10164SOL    HW231392   6.266   3.695   5.184
10165SOL     OW31393   6.653   1.791   3.310
10165SOL    HW131394   6.676   1.748   3.223
10165SOL    HW231395   6.620   1.884   3.295
10166SOL     OW31396   2.729   1.616   1.397
10166SOL    HW131397   2.817   1.581   1.431
10166SOL    HW231398   2.744   1.704   1.353
10167SOL     OW31399   0.850   5.625   0.323
10167SOL    HW131400   0.879   5.577   0.240
10167SOL    HW231401   0.790   5.565   0.376
10168SOL     OW31402   6.352   2.408   6.430
10168SOL    HW131403   6.405   2.323   6.433
10168SOL    HW231404   6.255   2.387   6.421
10169SOL     OW31405   0.667   4.145   3.801
10169SOL    HW131406   0.590   4.119   3.858
10169SOL    HW231407   0.715   4.222   3.843
10170SOL     OW31408   6.668   5.409   6.519
10170SOL    HW131409   6.667   5.509   6.532
10170SOL    HW231410   6.592   5.368   6.571
10171SOL     OW31411   1.122   2.805   5.192
10171SOL    HW131412   1.178   2.738   5.142
10171SOL    HW231413   1.030   2.768   5.205
10172SOL     OW31414   0.882   5.974   4.116
10172SOL    HW131415   0.910   5.914   4.191
10172SOL    HW231416   0.941   6.054   4.111
10173SOL     OW31417   1.762   1.856   0.568
10173SOL    HW131418   1.701   1.906   0.629
10173SOL    HW231419   1.795   1.917   0.496
10174SOL     OW31420   5.283   4.996   3.345
10174SOL    HW131421   5.374   5.010   3.304
10174SOL    HW231422   5.213   5.025   3.280
10175SOL     OW31423   5.044   2.604   3.219
10175SOL    HW131424   4.973   2.545   3.260
10175SOL    HW231425   5.031   2.607   3.120
10176SOL     OW31426   0.405   2.859   5.114
10176SOL    HW131427   0.315   2.850   5.070
10176SOL    HW231428   0.472   2.890   5.046
10177SOL     OW31429   1.702   0.684   1.087
10177SOL    HW131430   1.759   0.602   1.083
10177SOL    HW231431   1.729   0.746   1.013
10178SOL     OW31432   6.975   0.833   0.109
10178SOL    HW131433   6.919   0.869   0.034
10178SOL    HW231434   0.044   0.809   0.074
10179SOL     OW31435   0.308   2.511   6.557
10179SOL    HW131436   0.348   2.585   6.503
10179SOL    HW231437   0.258   2.550   6.634
10180SOL     OW31438   4.118   0.651   6.911
10180SOL    HW131439   4.157   0.559   6.923
10180SOL    HW231440   4.041   0.646   6.848
10181SOL     OW31441   6.889   2.627   1.564
10181SOL    HW131442   6.956   2.696   1.538
10181SOL    HW231443   6.934   2.539   1.575
10182SOL     OW31444   4.654   0.468   0.902
10182SOL    HW131445   4.637   0.401   0.830
10182SOL    HW231446   4.731   0.527   0.876
10183SOL     OW31447   5.618   2.204   5.582
10183SOL    HW131448   5.528   2.208   5.626
10183SOL    HW231449   5.686   2.249   5.642
10184SOL     OW31450   4.576   1.922   6.671
10184SOL    HW131451   4.489   1.877   6.656
10184SOL    HW231452   4.572   2.016   6.636
10185SOL     OW31453   6.261   6.478   2.573
10185SOL    HW131454   6.165   6.477   2.601
10185SOL    HW231455   6.315   6.420   2.635
10186SOL     OW31456   5.099   4.114   4.208
10186SOL    HW131457   5.103   4.053   4.129
10186SOL    HW231458   5.095   4.059   4.292
10187SOL     OW31459   1.140   3.967   6.839
10187SOL    HW131460   1.064   3.912   6.804
10187SOL    HW231461   1.186   4.013   6.764
10188SOL     OW31462   3.361   4.610   7.004
10188SOL    HW131463   3.457   4.586   6.992
10188SOL    HW231464   3.348   4.650   0.073
10189SOL     OW31465   0.583   1.244   6.565
10189SOL    HW131466   0.603   1.306   6.641
10189SOL    HW231467   0.639   1.268   6.486
10190SOL     OW31468   3.824   2.892   1.393
10190SOL    HW131469   3.885   2.968   1.412
10190SOL    HW231470   3.798   2.847   1.479
10191SOL     OW31471   4.471   5.078   6.429
10191SOL    HW131472   4.510   5.170   6.425
10191SOL    HW231473   4.477   5.035   6.339
10192SOL     OW31474   4.217   0.891   5.299
10192SOL    HW131475   4.173   0.816   5.250
10192SOL    HW231476   4.227   0.970   5.239
10193SOL     OW31477   3.312   3.481   2.705
10193SOL    HW131478   3.306   3.389   2.666
10193SOL    HW231479   3.393   3.487   2.764
10194SOL     OW31480   4.892   0.356   5.030
10194SOL    HW131481   4.976   0.386   5.076
10194SOL    HW231482   4.846   0.434   4.988
10195SOL     OW31483   6.695   6.537   0.417
10195SOL    HW131484   6.626   6.585   0.363
10195SOL    HW231485   6.777   6.523   0.362
10196SOL     OW31486   3.729   2.082   4.101
10196SOL    HW131487   3.744   2.069   4.199
10196SOL    HW231488   3.816   2.099   4.055
10197SOL     OW31489   5.415   1.884   4.369
10197SOL    HW131490   5.401   1.789   4.343
10197SOL    HW231491   5.503   1.894   4.415
10198SOL     OW31492   4.049   6.630   1.857
10198SOL    HW131493   3.976   6.645   1.924
10198SOL    HW231494   4.138   6.629   1.903
10199SOL     OW31495   0.831   2.028   0.889
10199SOL    HW131496   0.742   2.071   0.872
10199SOL    HW231497   0.862   1.979   0.808
10200SOL     OW31498   4.934   3.411   5.224
10200SOL    HW131499   4.871   3.388   5.299
10200SOL    HW231500   4.883   3.451   5.148
10201SOL     OW31501   0.912   6.054   0.290
10201SOL    HW131502   0.956   6.097   0.212
10201SOL    HW231503   0.967   6.069   0.372
10202SOL     OW31504   2.428   4.614   6.992
10202SOL    HW131505   2.361   4.620   6.918
10202SOL    HW231506   2.520   4.632   6.955
10203SOL     OW31507   6.961   2.661   2.589
10203SOL    HW131508   6.866   2.649   2.563
10203SOL    HW231509   7.012   2.577   2.570
10204SOL     OW31510   3.995   5.440   6.789
10204SOL    HW131511   4.074   5.455   6.730
10204SOL    HW231512   4.001   5.350   6.831
10205SOL     OW31513   3.159   1.224   2.088
10205SOL    HW131514   3.242   1.215   2.143
10205SOL    HW231515   3.080   1.228   2.148
10206SOL     OW31516   6.636   7.002   6.352
10206SOL    HW131517   6.649   0.012   6.446
10206SOL    HW231518   6.626   0.060   6.292
10207SOL     OW31519   1.495   1.993   0.271
10207SOL    HW131520   1.462   1.951   0.186
10207SOL    HW231521   1.576   2.048   0.251
10208SOL     OW31522   6.580   5.090   3.551
10208SOL    HW131523   6.662   5.146   3.545
10208SOL    HW231524   6.595   5.002   3.506
10209SOL     OW31525   6.953   6.931   6.312
10209SOL    HW131526   6.924   7.016   6.356
10209SOL    HW231527   6.881   6.862   6.323
10210SOL     OW31528   4.901   6.224   0.710
10210SOL    HW131529   4.843   6.266   0.780
10210SOL    HW231530   4.912   6.288   0.634
10211SOL     OW31531   4.178   6.106   4.977
10211SOL    HW131532   4.200   6.118   5.074
10211SOL    HW231533   4.088   6.062   4.968
10212SOL     OW31534   6.920   6.959   5.313
10212SOL    HW131535   6.887   6.882   5.366
10212SOL    HW231536   7.019   6.952   5.302
10213SOL     OW31537   5.622   3.099   2.714
10213SOL    HW131538   5.553   3.098   2.641
10213SOL    HW231539   5.647   3.194   2.736
10214SOL     OW31540   0.889   1.454   1.636
10214SOL    HW131541   0.798   1.415   1.644
10214SOL    HW231542   0.958   1.386   1.663
10215SOL     OW31543   3.237   3.029   3.679
10215SOL    HW131544   3.268   2.961   3.613
10215SOL    HW231545   3.150   3.068   3.649
10216SOL     OW31546   0.735   0.853   1.043
10216SOL    HW131547   0.693   0.818   0.959
10216SOL    HW231548   0.721   0.952   1.048
10217SOL     OW31549   2.078   2.718   3.400
10217SOL    HW131550   2.002   2.781   3.410
10217SOL    HW231551   2.046   2.633   3.358
10218SOL     OW31552   1.585   0.998   1.467
10218SOL    HW131553   1.585   0.959   1.559
10218SOL    HW231554   1.577   1.098   1.473
10219SOL     OW31555   0.671   2.695   2.717
10219SOL    HW131556   0.728   2.776   2.735
10219SOL    HW231557   0.727   2.625   2.671
10220SOL     OW31558   3.654   0.931   0.899
10220SOL    HW131559   3.675   1.024   0.929
10220SOL    HW231560   3.555   0.917   0.904
10221SOL     OW31561   1.992   3.740   4.592
10221SOL    HW131562   2.038   3.668   4.540
10221SOL    HW231563   1.960   3.811   4.530
10222SOL     OW31564   2.434   3.206   5.587
10222SOL    HW131565   2.487   3.291   5.581
10222SOL    HW231566   2.484   3.140   5.643
10223SOL     OW31567   2.132   5.377   0.407
10223SOL    HW131568   2.127   5.422   0.318
10223SOL    HW231569   2.059   5.411   0.466
10224SOL     OW31570   6.310   2.132   5.365
10224SOL    HW131571   6.228   2.152   5.418
10224SOL    HW231572   6.369   2.070   5.417
10225SOL     OW31573   2.181   6.221   6.127
10225SOL    HW131574   2.193   6.290   6.199
10225SOL    HW231575   2.268   6.177   6.109
10226SOL     OW31576   2.027   0.694   6.385
10226SOL    HW131577   2.101   0.636   6.351
10226SOL    HW231578   1.939   0.648   6.370
10227SOL     OW31579   4.885   4.207   0.620
10227SOL    HW131580   4.910   4.124   0.569
10227SOL    HW231581   4.825   4.264   0.564
10228SOL     OW31582   1.130   5.897   1.642
10228SOL    HW131583   1.094   5.928   1.731
10228SOL    HW231584   1.166   5.976   1.592
10229SOL     OW31585   1.507   1.701   4.351
10229SOL    HW131586   1.445   1.675   4.277
10229SOL    HW231587   1.600   1.673   4.328
10230SOL     OW31588   6.350   6.554   3.305
10230SOL    HW131589   6.371   6.643   3.265
10230SOL    HW231590   6.409   6.538   3.384
10231SOL     OW31591   6.242   5.433   5.672
10231SOL    HW131592   6.307   5.476   5.610
10231SOL    HW231593   6.159   5.408   5.621
10232SOL     OW31594   2.843   1.432   4.353
10232SOL    HW131595   2.755   1.449   4.308
10232SOL    HW231596   2.874   1.516   4.398
10233SOL     OW31597   4.488   3.442   5.330
10233SOL    HW131598   4.410   3.465   5.272
10233SOL    HW231599   4.571   3.485   5.293
10234SOL     OW31600   5.947   0.266   6.882
10234SOL    HW131601   5.925   0.323   6.803
10234SOL    HW231602   5.958   0.323   6.963
10235SOL     OW31603   3.311   2.254   0.659
10235SOL    HW131604   3.252   2.188   0.613
10235SOL    HW231605   3.370   2.299   0.591
10236SOL     OW31606   1.762   1.085   1.113
10236SOL    HW131607   1.784   0.989   1.093
10236SOL    HW231608   1.845   1.140   1.106
10237SOL     OW31609   6.860   4.308   0.015
10237SOL    HW131610   6.883   4.282   6.943
10237SOL    HW231611   6.891   4.401   0.032
10238SOL     OW31612   3.598   4.075   2.274
10238SOL    HW131613   3.634   4.078   2.181
10238SOL    HW231614   3.499   4.079   2.272
10239SOL     OW31615   2.319   4.161   5.988
10239SOL    HW131616   2.278   4.139   5.900
10239SOL    HW231617   2.382   4.088   6.015
10240SOL     OW31618   1.792   4.371   2.298
10240SOL    HW131619   1.729   4.344   2.370
10240SOL    HW231620   1.822   4.290   2.247
10241SOL     OW31621   6.548   6.640   2.857
10241SOL    HW131622   6.547   6.576   2.934
10241SOL    HW231623   6.456   6.677   2.842
10242SOL     OW31624   6.981   1.560   1.598
10242SOL    HW131625   7.003   1.472   1.554
10242SOL    HW231626   0.038   1.593   1.649
10243SOL     OW31627   1.067   4.856   1.936
10243SOL    HW131628   1.017   4.846   1.850
10243SOL    HW231629   1.058   4.950   1.970
10244SOL     OW31630   1.641   4.285   0.650
10244SOL    HW131631   1.569   4.226   0.617
10244SOL    HW231632   1.609   4.380   0.650
10245SOL     OW31633   3.000   4.853   0.355
10245SOL    HW131634   2.903   4.856   0.378
10245SOL    HW231635   3.042   4.773   0.398
10246SOL     OW31636   3.088   3.744   3.353
10246SOL    HW131637   3.073   3.795   3.269
10246SOL    HW231638   3.158   3.674   3.338
10247SOL     OW31639   6.981   4.628   5.619
10247SOL    HW131640   6.959   4.669   5.707
10247SOL    HW231641   7.005   4.532   5.633
10248SOL     OW31642   1.873   6.994   3.031
10248SOL    HW131643   1.910   0.031   3.102
10248SOL    HW231644   1.870   0.023   2.944
10249SOL     OW31645   2.934   6.854   6.919
10249SOL    HW131646   2.847   6.862   6.871
10249SOL    HW231647   2.930   6.776   6.981
10250SOL     OW31648   6.670   3.389   1.694
10250SOL    HW131649   6.646   3.463   1.757
10250SOL    HW231650   6.767   3.365   1.705
10251SOL     OW31651   2.587   1.354   4.963
10251SOL    HW131652   2.578   1.453   4.952
10251SOL    HW231653   2.612   1.313   4.876
10252SOL     OW31654   4.579   4.614   6.947
10252SOL    HW131655   4.544   4.537   7.000
10252SOL    HW231656   4.607   4.687   7.009
10253SOL     OW31657   2.722   5.859   0.482
10253SOL    HW131658   2.727   5.760   0.475
10253SOL    HW231659   2.769   5.900   0.404
10254SOL     OW31660   4.855   0.904   4.708
10254SOL    HW131661   4.949   0.929   4.733
10254SOL    HW231662   4.793   0.975   4.740
10255SOL     OW31663   1.732   6.371   1.202
10255SOL    HW131664   1.705   6.337   1.292
10255SOL    HW231665   1.829   6.352   1.187
10256SOL     OW31666   6.389   1.285   1.998
10256SOL    HW131667   6.465   1.308   1.938
10256SOL    HW231668   6.314   1.247   1.943
10257SOL     OW31669   2.592   5.039   5.002
10257SOL    HW131670   2.496   5.064   4.985
10257SOL    HW231671   2.617   4.962   4.944
10258SOL     OW31672   3.219   0.660   4.364
10258SOL    HW131673   3.157   0.725   4.407
10258SOL    HW231674   3.255   0.598   4.433
10259SOL     OW31675   1.059   4.309   3.076
10259SOL    HW131676   1.110   4.317   3.161
10259SOL    HW231677   0.977   4.365   3.080
10260SOL     OW31678   1.015   1.034   3.500
10260SOL    HW131679   0.920   1.033   3.528
10260SOL    HW231680   1.026   0.979   3.417
10261SOL     OW31681   6.977   6.113   3.639
10261SOL    HW131682   6.916   6.099   3.716
10261SOL    HW231683   0.048   6.130   3.672
10262SOL     OW31684   1.548   6.458   4.983
10262SOL    HW131685   1.494   6.494   4.906
10262SOL    HW231686   1.594   6.533   5.030
10263SOL     OW31687   5.291   0.917   6.163
10263SOL    HW131688   5.361   0.987   6.149
10263SOL    HW231689   5.201   0.954   6.141
10264SOL     OW31690   5.771   1.347   6.388
10264SOL    HW131691   5.777   1.249   6.370
10264SOL    HW231692   5.757   1.363   6.486
10265SOL     OW31693   2.564   2.395   2.331
10265SOL    HW131694   2.539   2.456   2.257
10265SOL    HW231695   2.643   2.340   2.304
10266SOL     OW31696   3.212   2.959   3.969
10266SOL    HW131697   3.185   3.055   3.978
10266SOL    HW231698   3.232   2.939   3.873
10267SOL     OW31699   6.249   2.212   6.719
10267SOL    HW131700   6.194   2.206   6.803
10267SOL    HW231701   6.252   2.123   6.675
10268SOL     OW31702   5.853   5.406   2.693
10268SOL    HW131703   5.821   5.494   2.658
10268SOL    HW231704   5.800   5.381   2.775
10269SOL     OW31705   0.571   3.363   0.087
10269SOL    HW131706   0.484   3.412   0.090
10269SOL    HW231707   0.643   3.420   0.128
10270SOL     OW31708   2.963   4.870   3.088
10270SOL    HW131709   2.985   4.910   3.177
10270SOL    HW231710   3.047   4.845   3.040
10271SOL     OW31711   3.577   2.506   6.529
10271SOL    HW131712   3.477   2.509   6.527
10271SOL    HW231713   3.612   2.589   6.572
10272SOL     OW31714   0.843   0.748   4.592
10272SOL    HW131715   0.908   0.747   4.516
10272SOL    HW231716   0.811   0.655   4.610
10273SOL     OW31717   3.429   5.594   2.790
10273SOL    HW131718   3.347   5.641   2.819
10273SOL    HW231719   3.410   5.540   2.708
10274SOL     OW31720   6.970   5.173   4.651
10274SOL    HW131721   7.016   5.086   4.666
10274SOL    HW231722   6.873   5.163   4.672
10275SOL     OW31723   0.692   0.159   1.762
10275SOL    HW131724   0.707   0.257   1.766
10275SOL    HW231725   0.638   0.130   1.842
10276SOL     OW31726   6.046   5.379   5.503
10276SOL    HW131727   6.036   5.471   5.465
10276SOL    HW231728   5.956   5.340   5.522
10277SOL     OW31729   2.025   5.577   3.781
10277SOL    HW131730   2.053   5.546   3.690
10277SOL    HW231731   2.106   5.600   3.835
10278SOL     OW31732   6.884   1.663   4.365
10278SOL    HW131733   6.799   1.711   4.384
10278SOL    HW231734   6.877   1.617   4.276
10279SOL     OW31735   2.902   5.036   3.681
10279SOL    HW131736   2.820   5.030   3.625
10279SOL    HW231737   2.908   5.126   3.725
10280SOL     OW31738   0.343   3.375   0.603
10280SOL    HW131739   0.414   3.419   0.658
10280SOL    HW231740   0.259   3.368   0.657
10281SOL     OW31741   5.753   1.143   2.318
10281SOL    HW131742   5.721   1.054   2.285
10281SOL    HW231743   5.788   1.196   2.241
10282SOL     OW31744   5.730   4.799   4.890
10282SOL    HW131745   5.661   4.832   4.955
10282SOL    HW231746   5.712   4.837   4.800
10283SOL     OW31747   0.829   3.874   0.827
10283SOL    HW131748   0.869   3.840   0.742
10283SOL    HW231749   0.901   3.889   0.895
10284SOL     OW31750   5.014   3.123   5.192
10284SOL    HW131751   5.000   3.068   5.274
10284SOL    HW231752   4.940   3.189   5.182
10285SOL     OW31753   5.304   0.626   1.789
10285SOL    HW131754   5.281   0.684   1.867
10285SOL    HW231755   5.366   0.553   1.819
10286SOL     OW31756   2.874   1.916   3.423
10286SOL    HW131757   2.913   1.919   3.515
10286SOL    HW231758   2.777   1.943   3.427
10287SOL     OW31759   2.653   6.643   1.011
10287SOL    HW131760   2.652   6.601   1.102
10287SOL    HW231761   2.686   6.575   0.944
10288SOL     OW31762   4.401   6.082   3.546
10288SOL    HW131763   4.377   6.076   3.643
10288SOL    HW231764   4.470   6.153   3.533
10289SOL     OW31765   1.553   6.919   1.599
10289SOL    HW131766   1.543   6.829   1.556
10289SOL    HW231767   1.466   6.967   1.597
10290SOL     OW31768   2.867   3.523   2.125
10290SOL    HW131769   2.912   3.536   2.213
10290SOL    HW231770   2.768   3.522   2.138
10291SOL     OW31771   3.758   1.519   3.091
10291SOL    HW131772   3.747   1.550   3.185
10291SOL    HW231773   3.764   1.597   3.030
10292SOL     OW31774   1.010   0.481   5.130
10292SOL    HW131775   0.969   0.440   5.211
10292SOL    HW231776   0.970   0.571   5.114
10293SOL     OW31777   2.042   4.312   3.542
10293SOL    HW131778   1.986   4.267   3.612
10293SOL    HW231779   2.100   4.244   3.498
10294SOL     OW31780   5.579   3.443   2.874
10294SOL    HW131781   5.502   3.380   2.878
10294SOL    HW231782   5.623   3.447   2.963
10295SOL     OW31783   5.779   4.806   6.187
10295SOL    HW131784   5.837   4.724   6.181
10295SOL    HW231785   5.684   4.779   6.197
10296SOL     OW31786   4.933   2.520   0.647
10296SOL    HW131787   4.978   2.507   0.558
10296SOL    HW231788   4.941   2.615   0.675
10297SOL     OW31789   2.157   6.972   6.788
10297SOL    HW131790   2.202   6.941   6.873
10297SOL    HW231791   2.210   6.939   6.709
10298SOL     OW31792   3.110   4.735   1.364
10298SOL    HW131793   3.089   4.792   1.284
10298SOL    HW231794   3.105   4.639   1.338
10299SOL     OW31795   4.796   4.930   2.949
10299SOL    HW131796   4.888   4.920   2.910
10299SOL    HW231797   4.796   4.894   3.043
10300SOL     OW31798   0.943   3.875   3.283
10300SOL    HW131799   1.002   3.797   3.300
10300SOL    HW231800   0.965   3.915   3.194
10301SOL     OW31801   5.405   2.491   4.145
10301SOL    HW131802   5.349   2.408   4.155
10301SOL    HW231803   5.388   2.552   4.222
10302SOL     OW31804   1.959   6.402   4.121
10302SOL    HW131805   1.967   6.370   4.027
10302SOL    HW231806   2.019   6.481   4.135
10303SOL     OW31807   1.663   6.190   2.547
10303SOL    HW131808   1.584   6.247   2.524
10303SOL    HW231809   1.666   6.176   2.646
10304SOL     OW31810   4.926   0.164   1.817
10304SOL    HW131811   4.944   0.254   1.857
10304SOL    HW231812   4.952   0.166   1.720
10305SOL     OW31813   0.913   4.315   0.111
10305SOL    HW131814   0.890   4.237   0.169
10305SOL    HW231815   0.925   4.285   0.016
10306SOL     OW31816   4.558   6.729   6.211
10306SOL    HW131817   4.603   6.643   6.237
10306SOL    HW231818   4.469   6.734   6.255
10307SOL     OW31819   2.284   2.018   5.249
10307SOL    HW131820   2.370   2.068   5.259
10307SOL    HW231821   2.209   2.075   5.279
10308SOL     OW31822   2.233   4.725   3.623
10308SOL    HW131823   2.254   4.627   3.619
10308SOL    HW231824   2.236   4.755   3.719
10309SOL     OW31825   5.949   1.813   4.721
10309SOL    HW131826   6.017   1.856   4.781
10309SOL    HW231827   5.876   1.878   4.700
10310SOL     OW31828   3.047   3.301   1.571
10310SOL    HW131829   2.950   3.289   1.593
10310SOL    HW231830   3.057   3.334   1.477
10311SOL     OW31831   0.699   6.383   0.135
10311SOL    HW131832   0.798   6.398   0.136
10311SOL    HW231833   0.654   6.468   0.107
10312SOL     OW31834   2.571   6.376   1.641
10312SOL    HW131835   2.620   6.372   1.728
10312SOL    HW231836   2.517   6.460   1.637
10313SOL     OW31837   5.156   6.987   1.464
10313SOL    HW131838   5.071   0.015   1.482
10313SOL    HW231839   5.234   0.028   1.472
10314SOL     OW31840   6.454   0.115   1.909
10314SOL    HW131841   6.480   0.126   1.813
10314SOL    HW231842   6.355   0.104   1.916
10315SOL     OW31843   5.633   5.991   4.414
10315SOL    HW131844   5.689   6.015   4.494
10315SOL    HW231845   5.538   6.016   4.431
10316SOL     OW31846   6.534   2.889   4.906
10316SOL    HW131847   6.567   2.912   4.997
10316SOL    HW231848   6.606   2.843   4.854
10317SOL     OW31849   3.179   6.059   5.267
10317SOL    HW131850   3.195   6.032   5.361
10317SOL    HW231851   3.082   6.047   5.244
10318SOL     OW31852   5.919   5.639   6.574
10318SOL    HW131853   5.939   5.569   6.506
10318SOL    HW231854   5.988   5.637   6.647
10319SOL     OW31855   1.211   2.123   5.525
10319SOL    HW131856   1.263   2.038   5.538
10319SOL    HW231857   1.199   2.169   5.613
10320SOL     OW31858   1.094   0.401   2.845
10320SOL    HW131859   1.107   0.403   2.944
10320SOL    HW231860   1.012   0.453   2.821
10321SOL     OW31861   4.623   0.652   2.555
10321SOL    HW131862   4.659   0.629   2.464
10321SOL    HW231863   4.573   0.573   2.591
10322SOL     OW31864   6.412   5.354   6.643
10322SOL    HW131865   6.401   5.260   6.675
10322SOL    HW231866   6.445   5.411   6.719
10323SOL     OW31867   6.408   3.955   5.821
10323SOL    HW131868   6.311   3.954   5.798
10323SOL    HW231869   6.458   4.011   5.755
10324SOL     OW31870   3.258   2.934   2.910
10324SOL    HW131871   3.179   2.985   2.874
10324SOL    HW231872   3.342   2.969   2.867
10325SOL     OW31873   0.360   3.661   3.238
10325SOL    HW131874   0.356   3.629   3.333
10325SOL    HW231875   0.451   3.695   3.218
10326SOL     OW31876   3.771   3.046   0.597
10326SOL    HW131877   3.741   3.137   0.626
10326SOL    HW231878   3.739   3.027   0.505
10327SOL     OW31879   2.623   2.469   1.877
10327SOL    HW131880   2.720   2.453   1.896
10327SOL    HW231881   2.572   2.384   1.894
10328SOL     OW31882   6.458   2.616   1.729
10328SOL    HW131883   6.478   2.707   1.693
10328SOL    HW231884   6.433   2.555   1.654
10329SOL     OW31885   3.426   0.211   3.054
10329SOL    HW131886   3.452   0.253   3.141
10329SOL    HW231887   3.508   0.178   3.007
10330SOL     OW31888   4.111   6.292   1.801
10330SOL    HW131889   4.177   6.308   1.875
10330SOL    HW231890   4.072   6.380   1.773
10331SOL     OW31891   6.770   1.040   4.290
10331SOL    HW131892   6.812   0.972   4.230
10331SOL    HW231893   6.841   1.086   4.343
10332SOL     OW31894   6.543   1.024   1.156
10332SOL    HW131895   6.457   1.053   1.198
10332SOL    HW231896   6.587   0.956   1.215
10333SOL     OW31897   6.517   4.617   4.800
10333SOL    HW131898   6.542   4.557   4.877
10333SOL    HW231899   6.436   4.581   4.755
10334SOL     OW31900   3.014   6.536   4.153
10334SOL    HW131901   3.023   6.518   4.055
10334SOL    HW231902   3.095   6.504   4.201
10335SOL     OW31903   2.894   4.415   6.500
10335SOL    HW131904   2.865   4.485   6.435
10335SOL    HW231905   2.926   4.459   6.584
10336SOL     OW31906   5.852   0.303   3.003
10336SOL    HW131907   5.842   0.259   2.914
10336SOL    HW231908   5.915   0.251   3.060
10337SOL     OW31909   6.844   6.716   5.494
10337SOL    HW131910   6.816   6.648   5.426
10337SOL    HW231911   6.842   6.675   5.585
10338SOL     OW31912   1.951   6.404   1.586
10338SOL    HW131913   1.984   6.491   1.622
10338SOL    HW231914   1.984   6.329   1.643
10339SOL     OW31915   2.522   5.481   0.296
10339SOL    HW131916   2.512   5.398   0.240
10339SOL    HW231917   2.492   5.461   0.389
10340SOL     OW31918   1.235   5.447   0.461
10340SOL    HW131919   1.157   5.504   0.489
10340SOL    HW231920   1.256   5.464   0.365
10341SOL     OW31921   1.982   3.603   1.875
10341SOL    HW131922   2.070   3.571   1.911
10341SOL    HW231923   1.914   3.530   1.883
10342SOL     OW31924   1.206   6.652   4.807
10342SOL    HW131925   1.294   6.622   4.772
10342SOL    HW231926   1.205   6.645   4.907
10343SOL     OW31927   2.103   4.867   0.774
10343SOL    HW131928   2.129   4.927   0.699
10343SOL    HW231929   2.079   4.922   0.854
10344SOL     OW31930   4.355   3.745   1.383
10344SOL    HW131931   4.430   3.708   1.438
10344SOL    HW231932   4.270   3.700   1.410
10345SOL     OW31933   1.726   1.014   6.859
10345SOL    HW131934   1.775   0.930   6.837
10345SOL    HW231935   1.792   1.085   6.886
10346SOL     OW31936   5.850   0.431   1.529
10346SOL    HW131937   5.931   0.451   1.583
10346SOL    HW231938   5.801   0.353   1.569
10347SOL     OW31939   5.489   2.537   2.378
10347SOL    HW131940   5.457   2.592   2.455
10347SOL    HW231941   5.427   2.459   2.364
10348SOL     OW31942   6.455   1.284   0.210
10348SOL    HW131943   6.418   1.360   0.263
10348SOL    HW231944   6.379   1.225   0.181
10349SOL     OW31945   6.562   1.734   1.368
10349SOL    HW131946   6.613   1.658   1.410
10349SOL    HW231947   6.616   1.773   1.294
10350SOL     OW31948   2.246   5.885   5.445
10350SOL    HW131949   2.262   5.978   5.475
10350SOL    HW231950   2.233   5.825   5.524
10351SOL     OW31951   4.942   4.945   6.676
10351SOL    HW131952   4.864   4.914   6.731
10351SOL    HW231953   5.007   4.870   6.663
10352SOL     OW31954   5.196   2.341   0.028
10352SOL    HW131955   5.157   2.281   0.098
10352SOL    HW231956   5.291   2.315   0.011
10353SOL     OW31957   6.692   2.748   5.892
10353SOL    HW131958   6.752   2.681   5.847
10353SOL    HW231959   6.748   2.820   5.933
10354SOL     OW31960   6.341   2.093   2.031
10354SOL    HW131961   6.247   2.124   2.042
10354SOL    HW231962   6.360   2.078   1.934
10355SOL     OW31963   2.037   0.164   1.650
10355SOL    HW131964   2.034   0.246   1.707
10355SOL    HW231965   1.945   0.142   1.618
10356SOL     OW31966   0.135   4.202   5.865
10356SOL    HW131967   0.104   4.269   5.798
10356SOL    HW231968   0.059   4.176   5.924
10357SOL     OW31969   3.349   3.039   6.770
10357SOL    HW131970   3.413   2.986   6.825
10357SOL    HW231971   3.384   3.132   6.758
10358SOL     OW31972   6.278   3.660   3.839
10358SOL    HW131973   6.340   3.610   3.899
10358SOL    HW231974   6.302   3.757   3.838
10359SOL     OW31975   5.753   1.767   1.849
10359SOL    HW131976   5.718   1.774   1.942
10359SOL    HW231977   5.852   1.781   1.850
10360SOL     OW31978   4.366   5.261   1.875
10360SOL    HW131979   4.347   5.186   1.813
10360SOL    HW231980   4.320   5.344   1.842
10361SOL     OW31981   2.969   1.316   2.625
10361SOL    HW131982   3.049   1.371   2.650
10361SOL    HW231983   2.962   1.311   2.525
10362SOL     OW31984   6.948   5.374   3.354
10362SOL    HW131985   6.954   5.453   3.416
10362SOL    HW231986   7.015   5.305   3.382
10363SOL     OW31987   4.594   2.656   1.146
10363SOL    HW131988   4.662   2.607   1.092
10363SOL    HW231989   4.640   2.719   1.209
10364SOL     OW31990   3.723   3.987   1.505
10364SOL    HW131991   3.822   3.983   1.516
10364SOL    HW231992   3.699   3.964   1.411
10365SOL     OW31993   4.928   4.628   5.644
10365SOL    HW131994   4.995   4.573   5.692
10365SOL    HW231995   4.974   4.684   5.575
10366SOL     OW31996   3.725   0.072   4.200
10366SOL    HW131997   3.652   0.066   4.268
10366SOL    HW231998   3.807   0.027   4.236
10367SOL     OW31999   0.211   2.184   2.046
10367SOL    HW132000   0.121   2.147   2.070
10367SOL    HW232001   0.202   2.282   2.027
10368SOL     OW32002   2.616   1.184   2.755
10368SOL    HW132003   2.543   1.151   2.815
10368SOL    HW232004   2.702   1.138   2.778
10369SOL     OW32005   2.380   0.945   5.438
10369SOL    HW132006   2.440   1.012   5.394
10369SOL    HW232007   2.391   0.856   5.392
10370SOL     OW32008   5.596   1.014   5.243
10370SOL    HW132009   5.592   0.955   5.324
10370SOL    HW232010   5.691   1.035   5.222
10371SOL     OW32011   1.922   6.161   4.562
10371SOL    HW132012   1.911   6.067   4.592
10371SOL    HW232013   1.877   6.174   4.474
10372SOL     OW32014   1.950   1.338   0.011
10372SOL    HW132015   2.010   1.264   0.041
10372SOL    HW232016   1.863   1.333   0.061
10373SOL     OW32017   1.635   6.671   5.133
10373SOL    HW132018   1.651   6.763   5.170
10373SOL    HW232019   1.699   6.607   5.174
10374SOL     OW32020   3.176   0.881   4.172
10374SOL    HW132021   3.219   0.938   4.103
10374SOL    HW232022   3.078   0.873   4.153
10375SOL     OW32023   2.016   2.028   6.278
10375SOL    HW132024   2.103   2.043   6.324
10375SOL    HW232025   2.030   2.021   6.180
10376SOL     OW32026   1.075   5.445   3.941
10376SOL    HW132027   1.024   5.416   4.021
10376SOL    HW232028   1.018   5.507   3.885
10377SOL     OW32029   6.622   0.848   3.280
10377SOL    HW132030   6.630   0.780   3.207
10377SOL    HW232031   6.544   0.908   3.263
10378SOL     OW32032   5.908   6.136   5.728
10378SOL    HW132033   5.874   6.224   5.762
10378SOL    HW232034   5.977   6.152   5.658
10379SOL     OW32035   3.430   6.674   4.100
10379SOL    HW132036   3.403   6.751   4.043
10379SOL    HW232037   3.431   6.590   4.045
10380SOL     OW32038   0.501   2.495   4.763
10380SOL    HW132039   0.503   2.461   4.857
10380SOL    HW232040   0.452   2.430   4.705
10381SOL     OW32041   4.047   4.361   1.020
10381SOL    HW132042   3.972   4.415   1.060
10381SOL    HW232043   4.051   4.272   1.065
10382SOL     OW32044   1.478   4.862   1.285
10382SOL    HW132045   1.539   4.858   1.206
10382SOL    HW232046   1.497   4.784   1.345
10383SOL     OW32047   0.884   4.247   1.073
10383SOL    HW132048   0.915   4.195   1.153
10383SOL    HW232049   0.868   4.342   1.099
10384SOL     OW32050   6.641   0.167   1.460
10384SOL    HW132051   6.587   0.097   1.413
10384SOL    HW232052   6.728   0.129   1.489
10385SOL     OW32053   4.026   6.042   6.217
10385SOL    HW132054   4.025   5.982   6.297
10385SOL    HW232055   4.116   6.086   6.210
10386SOL     OW32056   6.644   1.795   5.492
10386SOL    HW132057   6.591   1.876   5.517
10386SOL    HW232058   6.582   1.720   5.469
10387SOL     OW32059   4.242   1.539   2.654
10387SOL    HW132060   4.150   1.509   2.629
10387SOL    HW232061   4.269   1.498   2.741
10388SOL     OW32062   1.811   5.923   2.032
10388SOL    HW132063   1.881   5.862   1.995
10388SOL    HW232064   1.838   6.018   2.013
10389SOL     OW32065   6.200   5.815   1.424
10389SOL    HW132066   6.165   5.733   1.470
10389SOL    HW232067   6.300   5.817   1.433
10390SOL     OW32068   1.607   2.653   1.210
10390SOL    HW132069   1.694   2.696   1.185
10390SOL    HW232070   1.548   2.721   1.253
10391SOL     OW32071   0.143   6.744   3.910
10391SOL    HW132072   0.235   6.768   3.878
10391SOL    HW232073   0.118   6.654   3.875
10392SOL     OW32074   6.730   4.477   5.807
10392SOL    HW132075   6.768   4.393   5.769
10392SOL    HW232076   6.804   4.543   5.823
10393SOL     OW32077   2.483   2.497   3.028
10393SOL    HW132078   2.512   2.560   3.100
10393SOL    HW232079   2.389   2.518   3.001
10394SOL     OW32080   2.380   5.925   4.688
10394SOL    HW132081   2.344   6.000   4.744
10394SOL    HW232082   2.316   5.904   4.615
10395SOL     OW32083   6.836   0.973   3.372
10395SOL    HW132084   6.751   0.923   3.355
10395SOL    HW232085   6.896   0.963   3.293
10396SOL     OW32086   3.536   1.042   3.546
10396SOL    HW132087   3.492   1.122   3.588
10396SOL    HW232088   3.491   1.022   3.459
10397SOL     OW32089   2.548   1.485   4.522
10397SOL    HW132090   2.456   1.445   4.523
10397SOL    HW232091   2.577   1.496   4.427
10398SOL     OW32092   4.654   2.453   0.601
10398SOL    HW132093   4.753   2.462   0.610
10398SOL    HW232094   4.632   2.418   0.510
10399SOL     OW32095   4.678   1.882   4.369
10399SOL    HW132096   4.644   1.888   4.275
10399SOL    HW232097   4.604   1.904   4.433
10400SOL     OW32098   4.237   5.782   0.095
10400SOL    HW132099   4.149   5.737   0.085
10400SOL    HW232100   4.267   5.779   0.190
10401SOL     OW32101   0.157   6.798   2.410
10401SOL    HW132102   0.145   6.709   2.453
10401SOL    HW232103   0.073   6.852   2.420
10402SOL     OW32104   6.340   1.764   5.337
10402SOL    HW132105   6.380   1.673   5.346
10402SOL    HW232106   6.258   1.769   5.394
10403SOL     OW32107   4.496   1.734   2.756
10403SOL    HW132108   4.408   1.731   2.708
10403SOL    HW232109   4.507   1.652   2.812
10404SOL     OW32110   6.493   6.629   4.359
10404SOL    HW132111   6.397   6.630   4.333
10404SOL    HW232112   6.502   6.645   4.457
10405SOL     OW32113   1.204   6.171   4.396
10405SOL    HW132114   1.216   6.078   4.430
10405SOL    HW232115   1.141   6.170   4.318
10406SOL     OW32116   2.114   3.374   5.521
10406SOL    HW132117   2.195   3.433   5.515
10406SOL    HW232118   2.140   3.279   5.505
10407SOL     OW32119   2.538   0.493   6.831
10407SOL    HW132120   2.577   0.583   6.849
10407SOL    HW232121   2.486   0.496   6.745
10408SOL     OW32122   4.174   6.559   1.619
10408SOL    HW132123   4.247   6.627   1.621
10408SOL    HW232124   4.116   6.569   1.700
10409SOL     OW32125   0.262   3.880   0.209
10409SOL    HW132126   0.273   3.965   0.158
10409SOL    HW232127   0.310   3.887   0.296
10410SOL     OW32128   6.228   2.894   1.900
10410SOL    HW132129   6.308   2.909   1.842
10410SOL    HW232130   6.201   2.798   1.894
10411SOL     OW32131   3.283   6.440   4.246
10411SOL    HW132132   3.254   6.364   4.304
10411SOL    HW232133   3.356   6.492   4.291
10412SOL     OW32134   6.463   1.079   6.635
10412SOL    HW132135   6.451   1.175   6.613
10412SOL    HW232136   6.490   1.028   6.553
10413SOL     OW32137   6.514   2.405   1.920
10413SOL    HW132138   6.485   2.478   1.858
10413SOL    HW232139   6.457   2.405   2.002
10414SOL     OW32140   3.753   5.683   6.148
10414SOL    HW132141   3.667   5.657   6.193
10414SOL    HW232142   3.738   5.767   6.095
10415SOL     OW32143   1.996   4.335   4.209
10415SOL    HW132144   1.993   4.382   4.298
10415SOL    HW232145   1.911   4.351   4.160
10416SOL     OW32146   6.119   6.782   5.444
10416SOL    HW132147   6.213   6.788   5.480
10416SOL    HW232148   6.083   6.873   5.428
10417SOL     OW32149   4.599   5.469   4.669
10417SOL    HW132150   4.507   5.450   4.702
10417SOL    HW232151   4.665   5.450   4.742
10418SOL     OW32152   6.840   4.255   6.250
10418SOL    HW132153   6.786   4.269   6.333
10418SOL    HW232154   6.803   4.309   6.175
10419SOL     OW32155   3.344   0.010   5.859
10419SOL    HW132156   3.246   0.021   5.873
10419SOL    HW232157   3.372   0.057   5.775
10420SOL     OW32158   6.686   4.413   4.337
10420SOL    HW132159   6.652   4.382   4.426
10420SOL    HW232160   6.786   4.419   4.341
10421SOL     OW32161   1.705   3.672   4.227
10421SOL    HW132162   1.725   3.647   4.132
10421SOL    HW232163   1.755   3.611   4.288
10422SOL     OW32164   6.804   3.204   5.632
10422SOL    HW132165   6.774   3.221   5.726
10422SOL    HW232166   6.851   3.286   5.597
10423SOL     OW32167   5.196   5.676   5.656
10423SOL    HW132168   5.220   5.723   5.571
10423SOL    HW232169   5.160   5.743   5.721
10424SOL     OW32170   4.117   3.017   0.472
10424SOL    HW132171   4.114   3.098   0.413
10424SOL    HW232172   4.211   3.000   0.501
10425SOL     OW32173   0.624   6.099   2.759
10425SOL    HW132174   0.568   6.169   2.714
10425SOL    HW232175   0.653   6.032   2.691
10426SOL     OW32176   5.319   4.296   6.635
10426SOL    HW132177   5.307   4.215   6.692
10426SOL    HW232178   5.249   4.363   6.657
10427SOL     OW32179   4.889   0.605   0.120
10427SOL    HW132180   4.799   0.563   0.119
10427SOL    HW232181   4.897   0.665   0.200
10428SOL     OW32182   3.288   1.467   3.755
10428SOL    HW132183   3.325   1.535   3.819
10428SOL    HW232184   3.245   1.514   3.678
10429SOL     OW32185   0.436   4.054   2.989
10429SOL    HW132186   0.339   4.072   2.969
10429SOL    HW232187   0.451   4.063   3.087
10430SOL     OW32188   3.776   6.552   4.836
10430SOL    HW132189   3.837   6.479   4.868
10430SOL    HW232190   3.684   6.514   4.822
10431SOL     OW32191   2.650   6.663   3.990
10431SOL    HW132192   2.576   6.660   4.057
10431SOL    HW232193   2.732   6.701   4.031
10432SOL     OW32194   6.366   0.649   4.862
10432SOL    HW132195   6.371   0.589   4.942
10432SOL    HW232196   6.452   0.700   4.853
10433SOL     OW32197   0.654   6.556   2.618
10433SOL    HW132198   0.619   6.465   2.642
10433SOL    HW232199   0.753   6.559   2.637
10434SOL     OW32200   2.966   6.417   3.379
10434SOL    HW132201   3.065   6.428   3.383
10434SOL    HW232202   2.923   6.476   3.447
10435SOL     OW32203   1.916   2.147   5.004
10435SOL    HW132204   1.846   2.167   4.935
10435SOL    HW232205   1.979   2.078   4.970
10436SOL     OW32206   5.893   4.037   4.575
10436SOL    HW132207   5.952   4.008   4.500
10436SOL    HW232208   5.881   4.137   4.571
10437SOL     OW32209   5.903   4.528   6.257
10437SOL    HW132210   5.829   4.462   6.260
10437SOL    HW232211   5.941   4.532   6.164
10438SOL     OW32212   0.715   5.830   6.121
10438SOL    HW132213   0.802   5.834   6.170
10438SOL    HW232214   0.662   5.913   6.140
10439SOL     OW32215   4.450   1.083   4.727
10439SOL    HW132216   4.488   1.002   4.681
10439SOL    HW232217   4.363   1.107   4.684
10440SOL     OW32218   0.221   6.641   0.395
10440SOL    HW132219   0.195   6.669   0.487
10440SOL    HW232220   0.138   6.630   0.340
10441SOL     OW32221   3.291   1.513   1.204
10441SOL    HW132222   3.319   1.462   1.123
10441SOL    HW232223   3.192   1.520   1.207
10442SOL     OW32224   4.277   6.535   5.392
10442SOL    HW132225   4.347   6.478   5.349
10442SOL    HW232226   4.316   6.624   5.417
10443SOL     OW32227   5.024   2.283   3.385
10443SOL    HW132228   4.954   2.337   3.337
10443SOL    HW232229   5.070   2.223   3.319
10444SOL     OW32230   4.378   5.805   2.799
10444SOL    HW132231   4.401   5.729   2.738
10444SOL    HW232232   4.284   5.835   2.781
10445SOL     OW32233   0.486   4.252   3.565
10445SOL    HW132234   0.484   4.153   3.580
10445SOL    HW232235   0.393   4.289   3.571
10446SOL     OW32236   2.141   2.759   6.493
10446SOL    HW132237   2.204   2.720   6.426
10446SOL    HW232238   2.047   2.735   6.469
10447SOL     OW32239   0.042   0.585   2.948
10447SOL    HW132240   0.012   0.502   2.996
10447SOL    HW232241   6.984   0.645   2.932
10448SOL     OW32242   4.313   0.643   2.259
10448SOL    HW132243   4.260   0.706   2.315
10448SOL    HW232244   4.257   0.610   2.183
10449SOL     OW32245   1.980   5.907   5.999
10449SOL    HW132246   2.060   5.947   5.955
10449SOL    HW232247   1.975   5.810   5.976
10450SOL     OW32248   0.660   1.422   6.793
10450SOL    HW132249   0.592   1.476   6.843
10450SOL    HW232250   0.731   1.392   6.856
10451SOL     OW32251   2.035   5.838   2.492
10451SOL    HW132252   2.028   5.858   2.590
10451SOL    HW232253   2.123   5.872   2.458
10452SOL     OW32254   6.205   2.990   2.932
10452SOL    HW132255   6.261   2.913   2.899
10452SOL    HW232256   6.249   3.076   2.905
10453SOL     OW32257   5.862   6.641   1.826
10453SOL    HW132258   5.774   6.643   1.777
10453SOL    HW232259   5.934   6.611   1.763
10454SOL     OW32260   5.473   2.892   0.389
10454SOL    HW132261   5.416   2.975   0.389
10454SOL    HW232262   5.558   2.909   0.439
10455SOL     OW32263   0.277   6.491   3.681
10455SOL    HW132264   0.214   6.428   3.635
10455SOL    HW232265   0.353   6.513   3.620
10456SOL     OW32266   1.262   5.328   0.734
10456SOL    HW132267   1.265   5.348   0.636
10456SOL    HW232268   1.207   5.397   0.781
10457SOL     OW32269   3.543   2.831   0.378
10457SOL    HW132270   3.582   2.920   0.356
10457SOL    HW232271   3.528   2.779   0.294
10458SOL     OW32272   6.482   0.017   5.986
10458SOL    HW132273   6.438   0.106   6.003
10458SOL    HW232274   6.501   0.007   5.888
10459SOL     OW32275   4.289   6.024   1.513
10459SOL    HW132276   4.230   6.060   1.585
10459SOL    HW232277   4.234   5.978   1.444
10460SOL     OW32278   1.382   4.211   1.285
10460SOL    HW132279   1.461   4.272   1.277
10460SOL    HW232280   1.401   4.142   1.355
10461SOL     OW32281   6.042   5.371   5.132
10461SOL    HW132282   6.035   5.461   5.090
10461SOL    HW232283   5.952   5.341   5.163
10462SOL     OW32284   5.139   2.165   3.146
10462SOL    HW132285   5.172   2.183   3.054
10462SOL    HW232286   5.089   2.078   3.147
10463SOL     OW32287   4.445   2.615   6.250
10463SOL    HW132288   4.390   2.689   6.289
10463SOL    HW232289   4.402   2.527   6.272
10464SOL     OW32290   6.397   6.347   1.916
10464SOL    HW132291   6.455   6.428   1.921
10464SOL    HW232292   6.424   6.282   1.987
10465SOL     OW32293   6.112   5.593   1.047
10465SOL    HW132294   6.081   5.678   1.088
10465SOL    HW232295   6.175   5.613   0.972
10466SOL     OW32296   4.498   4.887   5.217
10466SOL    HW132297   4.402   4.906   5.239
10466SOL    HW232298   4.557   4.923   5.289
10467SOL     OW32299   2.363   2.057   0.136
10467SOL    HW132300   2.291   2.017   0.080
10467SOL    HW232301   2.358   2.021   0.229
10468SOL     OW32302   3.854   5.170   3.452
10468SOL    HW132303   3.811   5.085   3.424
10468SOL    HW232304   3.783   5.234   3.484
10469SOL     OW32305   3.956   3.847   5.353
10469SOL    HW132306   3.970   3.749   5.345
10469SOL    HW232307   3.864   3.871   5.323
10470SOL     OW32308   1.820   2.615   4.086
10470SOL    HW132309   1.842   2.544   4.154
10470SOL    HW232310   1.721   2.622   4.076
10471SOL     OW32311   2.585   0.383   0.539
10471SOL    HW132312   2.675   0.397   0.497
10471SOL    HW232313   2.597   0.370   0.638
10472SOL     OW32314   3.714   5.788   0.526
10472SOL    HW132315   3.793   5.794   0.465
10472SOL    HW232316   3.745   5.787   0.621
10473SOL     OW32317   6.568   0.436   6.853
10473SOL    HW132318   6.484   0.440   6.799
10473SOL    HW232319   6.578   0.520   6.906
10474SOL     OW32320   4.309   1.130   3.981
10474SOL    HW132321   4.297   1.188   4.061
10474SOL    HW232322   4.382   1.064   3.998
10475SOL     OW32323   4.401   6.594   1.180
10475SOL    HW132324   4.319   6.632   1.139
10475SOL    HW232325   4.436   6.656   1.250
10476SOL     OW32326   6.742   6.614   6.778
10476SOL    HW132327   6.750   6.708   6.746
10476SOL    HW232328   6.650   6.580   6.759
10477SOL     OW32329   6.660   0.766   4.272
10477SOL    HW132330   6.712   0.730   4.195
10477SOL    HW232331   6.601   0.840   4.240
10478SOL     OW32332   6.545   0.722   0.773
10478SOL    HW132333   6.580   0.629   0.785
10478SOL    HW232334   6.528   0.739   0.676
10479SOL     OW32335   6.671   1.477   2.883
10479SOL    HW132336   6.756   1.497   2.833
10479SOL    HW232337   6.596   1.467   2.817
10480SOL     OW32338   0.710   0.924   1.744
10480SOL    HW132339   0.673   0.848   1.798
10480SOL    HW232340   0.752   0.887   1.661
10481SOL     OW32341   1.700   6.411   4.148
10481SOL    HW132342   1.663   6.491   4.101
10481SOL    HW232343   1.800   6.417   4.150
10482SOL     OW32344   6.649   5.188   4.256
10482SOL    HW132345   6.646   5.198   4.157
10482SOL    HW232346   6.684   5.097   4.280
10483SOL     OW32347   6.710   4.865   0.296
10483SOL    HW132348   6.713   4.774   0.255
10483SOL    HW232349   6.787   4.875   0.359
10484SOL     OW32350   6.121   1.758   1.475
10484SOL    HW132351   6.171   1.739   1.390
10484SOL    HW232352   6.027   1.725   1.466
10485SOL     OW32353   3.197   3.999   0.642
10485SOL    HW132354   3.110   4.037   0.673
10485SOL    HW232355   3.253   3.976   0.722
10486SOL     OW32356   0.279   0.966   0.304
10486SOL    HW132357   0.356   0.928   0.252
10486SOL    HW232358   0.229   1.030   0.246
10487SOL     OW32359   4.470   0.789   0.975
10487SOL    HW132360   4.414   0.855   1.025
10487SOL    HW232361   4.526   0.736   1.040
10488SOL     OW32362   3.408   1.014   5.721
10488SOL    HW132363   3.481   1.008   5.653
10488SOL    HW232364   3.364   1.104   5.716
10489SOL     OW32365   0.735   6.854   5.579
10489SOL    HW132366   0.793   6.934   5.565
10489SOL    HW232367   0.771   6.801   5.656
10490SOL     OW32368   6.002   1.553   1.063
10490SOL    HW132369   5.930   1.570   1.131
10490SOL    HW232370   5.997   1.459   1.031
10491SOL     OW32371   2.110   2.278   6.934
10491SOL    HW132372   2.201   2.319   6.940
10491SOL    HW232373   2.041   2.343   6.966
10492SOL     OW32374   5.967   4.803   6.617
10492SOL    HW132375   5.929   4.891   6.586
10492SOL    HW232376   5.964   4.798   6.716
10493SOL     OW32377   3.466   0.732   2.210
10493SOL    HW132378   3.444   0.704   2.303
10493SOL    HW232379   3.556   0.777   2.209
10494SOL     OW32380   5.377   4.141   5.824
10494SOL    HW132381   5.397   4.215   5.760
10494SOL    HW232382   5.376   4.054   5.775
10495SOL     OW32383   1.484   6.982   0.503
10495SOL    HW132384   1.410   6.921   0.474
10495SOL    HW232385   1.455   0.013   0.582
10496SOL     OW32386   7.016   3.783   5.577
10496SOL    HW132387   0.005   3.686   5.601
10496SOL    HW232388   0.057   3.838   5.633
10497SOL     OW32389   2.098   6.219   2.517
10497SOL    HW132390   2.004   6.206   2.486
10497SOL    HW232391   2.111   6.314   2.545
10498SOL     OW32392   4.751   5.725   0.319
10498SOL    HW132393   4.751   5.765   0.411
10498SOL    HW232394   4.829   5.663   0.309
10499SOL     OW32395   3.981   6.938   1.794
10499SOL    HW132396   4.009   6.991   1.874
10499SOL    HW232397   4.010   6.843   1.805
10500SOL     OW32398   6.045   1.405   6.304
10500SOL    HW132399   5.961   1.438   6.346
10500SOL    HW232400   6.095   1.482   6.265
10501SOL     OW32401   2.365   5.551   2.314
10501SOL    HW132402   2.442   5.511   2.365
10501SOL    HW232403   2.400   5.599   2.233
10502SOL     OW32404   2.862   0.774   1.730
10502SOL    HW132405   2.866   0.862   1.683
10502SOL    HW232406   2.915   0.706   1.680
10503SOL     OW32407   4.136   2.551   1.014
10503SOL    HW132408   4.057   2.493   1.029
10503SOL    HW232409   4.178   2.529   0.925
10504SOL     OW32410   0.436   2.050   5.409
10504SOL    HW132411   0.399   2.103   5.485
10504SOL    HW232412   0.520   2.092   5.376
10505SOL     OW32413   5.239   5.181   0.713
10505SOL    HW132414   5.261   5.088   0.682
10505SOL    HW232415   5.149   5.207   0.677
10506SOL     OW32416   6.817   4.831   0.546
10506SOL    HW132417   6.898   4.855   0.600
10506SOL    HW232418   6.823   4.735   0.518
10507SOL     OW32419   2.303   6.868   0.364
10507SOL    HW132420   2.283   6.803   0.438
10507SOL    HW232421   2.283   6.961   0.395
10508SOL     OW32422   6.295   6.342   4.838
10508SOL    HW132423   6.374   6.387   4.879
10508SOL    HW232424   6.213   6.362   4.893
10509SOL     OW32425   0.533   5.473   4.205
10509SOL    HW132426   0.456   5.408   4.210
10509SOL    HW232427   0.560   5.498   4.298
10510SOL     OW32428   4.733   5.660   6.345
10510SOL    HW132429   4.738   5.759   6.358
10510SOL    HW232430   4.645   5.627   6.377
10511SOL     OW32431   3.857   1.213   2.252
10511SOL    HW132432   3.858   1.301   2.204
10511SOL    HW232433   3.833   1.140   2.188
10512SOL     OW32434   4.092   0.507   6.356
10512SOL    HW132435   4.003   0.475   6.388
10512SOL    HW232436   4.084   0.600   6.321
10513SOL     OW32437   5.973   2.454   4.461
10513SOL    HW132438   6.002   2.527   4.400
10513SOL    HW232439   5.874   2.453   4.467
10514SOL     OW32440   0.452   3.744   1.481
10514SOL    HW132441   0.545   3.720   1.508
10514SOL    HW232442   0.449   3.755   1.382
10515SOL     OW32443   1.055   3.656   3.569
10515SOL    HW132444   0.990   3.726   3.598
10515SOL    HW232445   1.096   3.613   3.650
10516SOL     OW32446   4.071   1.178   0.418
10516SOL    HW132447   3.996   1.218   0.366
10516SOL    HW232448   4.089   1.085   0.386
10517SOL     OW32449   1.144   2.757   2.512
10517SOL    HW132450   1.083   2.695   2.463
10517SOL    HW232451   1.239   2.727   2.500
10518SOL     OW32452   0.565   6.073   6.661
10518SOL    HW132453   0.554   5.976   6.683
10518SOL    HW232454   0.504   6.127   6.718
10519SOL     OW32455   2.431   3.720   6.939
10519SOL    HW132456   2.341   3.697   6.975
10519SOL    HW232457   2.485   3.637   6.929
10520SOL     OW32458   0.556   2.458   6.197
10520SOL    HW132459   0.655   2.454   6.192
10520SOL    HW232460   0.528   2.526   6.265
10521SOL     OW32461   6.053   5.963   2.055
10521SOL    HW132462   6.079   6.027   1.983
10521SOL    HW232463   6.029   6.013   2.138
10522SOL     OW32464   0.556   0.824   5.247
10522SOL    HW132465   0.573   0.835   5.149
10522SOL    HW232466   0.593   0.736   5.278
10523SOL     OW32467   0.605   4.895   3.623
10523SOL    HW132468   0.642   4.845   3.702
10523SOL    HW232469   0.658   4.872   3.542
10524SOL     OW32470   1.704   0.441   4.555
10524SOL    HW132471   1.750   0.520   4.596
10524SOL    HW232472   1.756   0.358   4.576
10525SOL     OW32473   3.639   6.539   6.877
10525SOL    HW132474   3.672   6.627   6.912
10525SOL    HW232475   3.675   6.465   6.933
10526SOL     OW32476   1.587   0.273   3.671
10526SOL    HW132477   1.686   0.269   3.660
10526SOL    HW232478   1.544   0.207   3.610
10527SOL     OW32479   0.380   1.575   5.265
10527SOL    HW132480   0.310   1.590   5.195
10527SOL    HW232481   0.356   1.627   5.347
10528SOL     OW32482   1.699   2.945   6.007
10528SOL    HW132483   1.689   3.011   5.933
10528SOL    HW232484   1.750   2.986   6.083
10529SOL     OW32485   3.290   5.741   3.678
10529SOL    HW132486   3.316   5.722   3.773
10529SOL    HW232487   3.370   5.772   3.627
10530SOL     OW32488   1.934   7.004   6.608
10530SOL    HW132489   2.009   6.989   6.673
10530SOL    HW232490   1.862   0.035   6.652
10531SOL     OW32491   1.503   2.697   4.589
10531SOL    HW132492   1.513   2.656   4.499
10531SOL    HW232493   1.406   2.696   4.615
10532SOL     OW32494   0.968   6.120   5.860
10532SOL    HW132495   0.929   6.211   5.849
10532SOL    HW232496   1.055   6.126   5.909
10533SOL     OW32497   3.183   0.125   4.436
10533SOL    HW132498   3.213   0.220   4.424
10533SOL    HW232499   3.184   0.078   4.348
10534SOL     OW32500   6.234   6.044   1.580
10534SOL    HW132501   6.331   6.021   1.588
10534SOL    HW232502   6.185   5.966   1.542
10535SOL     OW32503   1.349   2.383   1.733
10535SOL    HW132504   1.331   2.395   1.635
10535SOL    HW232505   1.370   2.286   1.750
10536SOL     OW32506   4.459   0.239   3.863
10536SOL    HW132507   4.369   0.223   3.902
10536SOL    HW232508   4.454   0.314   3.797
10537SOL     OW32509   3.878   5.740   3.995
10537SOL    HW132510   3.950   5.688   3.949
10537SOL    HW232511   3.840   5.806   3.931
10538SOL     OW32512   5.430   2.396   1.075
10538SOL    HW132513   5.356   2.398   1.143
10538SOL    HW232514   5.413   2.323   1.010
10539SOL     OW32515   0.610   4.617   0.051
10539SOL    HW132516   0.514   4.624   0.077
10539SOL    HW232517   0.623   4.656   6.981
10540SOL     OW32518   1.495   1.853   5.219
10540SOL    HW132519   1.510   1.774   5.159
10540SOL    HW232520   1.566   1.921   5.202
10541SOL     OW32521   3.326   4.092   2.282
10541SOL    HW132522   3.237   4.074   2.239
10541SOL    HW232523   3.312   4.103   2.381
10542SOL     OW32524   6.849   0.198   5.460
10542SOL    HW132525   6.929   0.146   5.431
10542SOL    HW232526   6.867   0.240   5.549
10543SOL     OW32527   0.443   1.067   4.138
10543SOL    HW132528   0.480   1.095   4.226
10543SOL    HW232529   0.504   1.000   4.096
10544SOL     OW32530   2.670   6.403   1.932
10544SOL    HW132531   2.595   6.466   1.948
10544SOL    HW232532   2.757   6.448   1.955
10545SOL     OW32533   6.808   2.057   2.116
10545SOL    HW132534   6.865   2.093   2.191
10545SOL    HW232535   6.779   2.132   2.057
10546SOL     OW32536   2.071   0.574   0.200
10546SOL    HW132537   2.064   0.507   0.273
10546SOL    HW232538   2.153   0.556   0.145
10547SOL     OW32539   5.675   2.835   2.629
10547SOL    HW132540   5.681   2.930   2.660
10547SOL    HW232541   5.724   2.825   2.543
10548SOL     OW32542   5.371   4.268   4.192
10548SOL    HW132543   5.367   4.335   4.267
10548SOL    HW232544   5.281   4.227   4.179
10549SOL     OW32545   0.834   6.899   2.254
10549SOL    HW132546   0.885   6.974   2.212
10549SOL    HW232547   0.753   6.878   2.198
10550SOL     OW32548   4.649   5.943   3.726
10550SOL    HW132549   4.579   6.013   3.739
10550SOL    HW232550   4.668   5.933   3.628
10551SOL     OW32551   1.200   2.459   6.764
10551SOL    HW132552   1.183   2.557   6.779
10551SOL    HW232553   1.245   2.420   6.843
10552SOL     OW32554   3.380   0.702   6.014
10552SOL    HW132555   3.374   0.652   6.101
10552SOL    HW232556   3.429   0.788   6.028
10553SOL     OW32557   0.296   4.620   2.133
10553SOL    HW132558   0.283   4.696   2.069
10553SOL    HW232559   0.346   4.653   2.214
10554SOL     OW32560   5.412   5.122   6.994
10554SOL    HW132561   5.378   5.048   6.935
10554SOL    HW232562   5.341   5.148   0.038
10555SOL     OW32563   1.805   2.899   0.392
10555SOL    HW132564   1.854   2.978   0.428
10555SOL    HW232565   1.716   2.893   0.437
10556SOL     OW32566   1.793   2.099   5.758
10556SOL    HW132567   1.797   2.011   5.712
10556SOL    HW232568   1.802   2.172   5.690
10557SOL     OW32569   2.223   2.826   3.158
10557SOL    HW132570   2.153   2.758   3.182
10557SOL    HW232571   2.258   2.806   3.066
10558SOL     OW32572   3.779   0.790   3.237
10558SOL    HW132573   3.815   0.704   3.202
10558SOL    HW232574   3.817   0.807   3.329
10559SOL     OW32575   4.783   0.716   1.179
10559SOL    HW132576   4.801   0.714   1.080
10559SOL    HW232577   4.690   0.683   1.196
10560SOL     OW32578   3.876   6.440   3.058
10560SOL    HW132579   3.904   6.511   3.123
10560SOL    HW232580   3.904   6.466   2.966
10561SOL     OW32581   3.089   3.988   1.498
10561SOL    HW132582   3.096   4.027   1.590
10561SOL    HW232583   3.081   3.888   1.505
10562SOL     OW32584   4.683   4.897   0.375
10562SOL    HW132585   4.648   4.821   0.322
10562SOL    HW232586   4.607   4.941   0.424
10563SOL     OW32587   0.603   1.700   3.549
10563SOL    HW132588   0.577   1.796   3.542
10563SOL    HW232589   0.697   1.693   3.583
10564SOL     OW32590   5.785   6.191   2.286
10564SOL    HW132591   5.759   6.112   2.231
10564SOL    HW232592   5.778   6.168   2.383
10565SOL     OW32593   0.719   0.216   5.694
10565SOL    HW132594   0.649   0.164   5.744
10565SOL    HW232595   0.676   0.295   5.650
10566SOL     OW32596   3.296   1.736   6.314
10566SOL    HW132597   3.274   1.703   6.222
10566SOL    HW232598   3.222   1.714   6.376
10567SOL     OW32599   3.469   2.084   4.347
10567SOL    HW132600   3.471   2.118   4.441
10567SOL    HW232601   3.551   2.028   4.330
10568SOL     OW32602   6.628   3.227   2.002
10568SOL    HW132603   6.634   3.215   1.903
10568SOL    HW232604   6.532   3.231   2.029
10569SOL     OW32605   5.648   1.977   1.692
10569SOL    HW132606   5.659   1.965   1.593
10569SOL    HW232607   5.701   1.907   1.740
10570SOL     OW32608   1.151   5.580   3.660
10570SOL    HW132609   1.165   5.513   3.733
10570SOL    HW232610   1.229   5.643   3.657
10571SOL     OW32611   6.993   4.507   5.894
10571SOL    HW132612   0.070   4.514   5.911
10571SOL    HW232613   6.944   4.503   5.982
10572SOL     OW32614   0.205   4.260   3.532
10572SOL    HW132615   0.126   4.206   3.504
10572SOL    HW232616   0.223   4.331   3.464
10573SOL     OW32617   4.475   0.409   5.071
10573SOL    HW132618   4.568   0.429   5.102
10573SOL    HW232619   4.477   0.389   4.973
10574SOL     OW32620   1.737   1.358   4.312
10574SOL    HW132621   1.779   1.445   4.286
10574SOL    HW232622   1.641   1.358   4.283
10575SOL     OW32623   0.388   1.249   3.292
10575SOL    HW132624   0.437   1.247   3.205
10575SOL    HW232625   0.452   1.228   3.366
10576SOL     OW32626   0.220   6.334   4.772
10576SOL    HW132627   0.182   6.303   4.684
10576SOL    HW232628   0.197   6.268   4.843
10577SOL     OW32629   1.767   4.193   0.013
10577SOL    HW132630   1.762   4.277   6.980
10577SOL    HW232631   1.863   4.168   0.026
10578SOL     OW32632   5.084   1.488   2.213
10578SOL    HW132633   5.174   1.490   2.256
10578SOL    HW232634   5.071   1.403   2.163
10579SOL     OW32635   4.300   2.851   1.291
10579SOL    HW132636   4.328   2.915   1.220
10579SOL    HW232637   4.247   2.899   1.361
10580SOL     OW32638   6.813   0.285   6.849
10580SOL    HW132639   6.727   0.330   6.872
10580SOL    HW232640   6.830   0.210   6.913
10581SOL     OW32641   6.741   6.973   2.967
10581SOL    HW132642   6.694   6.981   2.879
10581SOL    HW232643   6.749   6.876   2.992
10582SOL     OW32644   5.831   5.074   6.102
10582SOL    HW132645   5.906   5.113   6.156
10582SOL    HW232646   5.826   4.976   6.119
10583SOL     OW32647   3.978   1.272   4.209
10583SOL    HW132648   3.949   1.361   4.246
10583SOL    HW232649   3.902   1.207   4.215
10584SOL     OW32650   6.523   6.973   1.346
10584SOL    HW132651   6.575   6.891   1.321
10584SOL    HW232652   6.480   7.012   1.265
10585SOL     OW32653   1.799   2.328   5.620
10585SOL    HW132654   1.879   2.373   5.582
10585SOL    HW232655   1.732   2.310   5.548
10586SOL     OW32656   6.420   5.845   4.977
10586SOL    HW132657   6.422   5.834   4.878
10586SOL    HW232658   6.370   5.769   5.018
10587SOL     OW32659   6.262   4.683   0.439
10587SOL    HW132660   6.292   4.592   0.469
10587SOL    HW232661   6.183   4.712   0.493
10588SOL     OW32662   0.992   2.815   4.251
10588SOL    HW132663   0.927   2.767   4.310
10588SOL    HW232664   0.969   2.800   4.155
10589SOL     OW32665   6.014   1.360   4.448
10589SOL    HW132666   5.922   1.327   4.427
10589SOL    HW232667   6.042   1.324   4.537
10590SOL     OW32668   0.943   0.468   1.953
10590SOL    HW132669   0.846   0.466   1.929
10590SOL    HW232670   0.994   0.403   1.896
10591SOL     OW32671   1.473   2.105   6.777
10591SOL    HW132672   1.463   2.008   6.797
10591SOL    HW232673   1.558   2.138   6.819
10592SOL     OW32674   5.491   3.669   2.263
10592SOL    HW132675   5.478   3.607   2.340
10592SOL    HW232676   5.582   3.711   2.269
10593SOL     OW32677   2.340   5.834   0.625
10593SOL    HW132678   2.437   5.842   0.601
10593SOL    HW232679   2.306   5.744   0.598
10594SOL     OW32680   5.287   0.314   2.161
10594SOL    HW132681   5.198   0.356   2.150
10594SOL    HW232682   5.296   0.279   2.255
10595SOL     OW32683   4.889   6.119   6.411
10595SOL    HW132684   4.940   6.036   6.388
10595SOL    HW232685   4.949   6.198   6.400
10596SOL     OW32686   4.212   6.559   0.157
10596SOL    HW132687   4.176   6.565   0.250
10596SOL    HW232688   4.299   6.510   0.158
10597SOL     OW32689   3.481   0.795   5.219
10597SOL    HW132690   3.455   0.883   5.178
10597SOL    HW232691   3.542   0.746   5.157
10598SOL     OW32692   2.882   3.108   0.202
10598SOL    HW132693   2.936   3.144   0.277
10598SOL    HW232694   2.800   3.065   0.238
10599SOL     OW32695   4.930   3.091   5.699
10599SOL    HW132696   4.942   3.018   5.633
10599SOL    HW232697   4.929   3.179   5.652
10600SOL     OW32698   2.381   3.224   0.295
10600SOL    HW132699   2.466   3.276   0.306
10600SOL    HW232700   2.356   3.220   0.198
10601SOL     OW32701   2.130   4.612   5.112
10601SOL    HW132702   2.216   4.626   5.064
10601SOL    HW232703   2.055   4.607   5.046
10602SOL     OW32704   3.426   1.413   1.859
10602SOL    HW132705   3.476   1.332   1.827
10602SOL    HW232706   3.328   1.397   1.849
10603SOL     OW32707   3.522   5.861   3.273
10603SOL    HW132708   3.455   5.919   3.320
10603SOL    HW232709   3.475   5.800   3.209
10604SOL     OW32710   6.123   5.724   5.843
10604SOL    HW132711   6.123   5.824   5.852
10604SOL    HW232712   6.049   5.686   5.898
10605SOL     OW32713   1.325   6.197   0.460
10605SOL    HW132714   1.348   6.186   0.556
10605SOL    HW232715   1.399   6.160   0.403
10606SOL     OW32716   6.577   0.560   2.549
10606SOL    HW132717   6.642   0.572   2.474
10606SOL    HW232718   6.488   0.534   2.512
10607SOL     OW32719   3.771   4.823   5.240
10607SOL    HW132720   3.775   4.903   5.301
10607SOL    HW232721   3.849   4.826   5.177
10608SOL     OW32722   5.344   2.303   5.693
10608SOL    HW132723   5.317   2.395   5.668
10608SOL    HW232724   5.264   2.244   5.700
10609SOL     OW32725   2.630   6.580   0.159
10609SOL    HW132726   2.582   6.660   0.196
10609SOL    HW232727   2.619   6.503   0.222
10610SOL     OW32728   0.508   2.351   5.000
10610SOL    HW132729   0.514   2.251   5.002
10610SOL    HW232730   0.599   2.390   5.007
10611SOL     OW32731   3.571   4.155   6.448
10611SOL    HW132732   3.578   4.240   6.502
10611SOL    HW232733   3.603   4.172   6.355
10612SOL     OW32734   3.724   1.029   4.639
10612SOL    HW132735   3.759   1.078   4.559
10612SOL    HW232736   3.671   1.092   4.696
10613SOL     OW32737   6.058   6.771   4.874
10613SOL    HW132738   6.036   6.678   4.905
10613SOL    HW232739   5.990   6.835   4.909
10614SOL     OW32740   6.019   2.200   4.556
10614SOL    HW132741   6.063   2.135   4.494
10614SOL    HW232742   6.013   2.290   4.512
10615SOL     OW32743   3.658   6.908   5.553
10615SOL    HW132744   3.685   6.854   5.633
10615SOL    HW232745   3.570   6.876   5.519
10616SOL     OW32746   3.084   6.138   1.405
10616SOL    HW132747   3.018   6.161   1.334
10616SOL    HW232748   3.169   6.189   1.389
10617SOL     OW32749   2.477   3.104   1.365
10617SOL    HW132750   2.488   3.202   1.380
10617SOL    HW232751   2.553   3.055   1.407
10618SOL     OW32752   0.544   3.554   6.309
10618SOL    HW132753   0.605   3.482   6.277
10618SOL    HW232754   0.461   3.556   6.254
10619SOL     OW32755   6.970   4.266   2.345
10619SOL    HW132756   6.942   4.223   2.259
10619SOL    HW232757   0.006   4.345   2.325
10620SOL     OW32758   1.648   5.460   4.994
10620SOL    HW132759   1.629   5.382   5.053
10620SOL    HW232760   1.699   5.429   4.913
10621SOL     OW32761   0.840   5.947   1.594
10621SOL    HW132762   0.815   5.981   1.503
10621SOL    HW232763   0.936   5.920   1.594
10622SOL     OW32764   5.529   2.120   1.228
10622SOL    HW132765   5.430   2.117   1.242
10622SOL    HW232766   5.549   2.114   1.130
10623SOL     OW32767   6.568   4.443   4.991
10623SOL    HW132768   6.627   4.363   4.979
10623SOL    HW232769   6.608   4.503   5.060
10624SOL     OW32770   0.678   2.754   4.785
10624SOL    HW132771   0.643   2.662   4.803
10624SOL    HW232772   0.606   2.811   4.747
10625SOL     OW32773   0.323   4.541   0.199
10625SOL    HW132774   0.311   4.576   0.106
10625SOL    HW232775   0.282   4.450   0.206
10626SOL     OW32776   2.532   3.246   0.574
10626SOL    HW132777   2.433   3.263   0.569
10626SOL    HW232778   2.578   3.295   0.500
10627SOL     OW32779   5.390   0.586   0.776
10627SOL    HW132780   5.466   0.522   0.778
10627SOL    HW232781   5.391   0.636   0.690
10628SOL     OW32782   5.056   6.340   0.192
10628SOL    HW132783   5.083   6.342   0.096
10628SOL    HW232784   4.960   6.312   0.198
10629SOL     OW32785   2.524   4.907   5.242
10629SOL    HW132786   2.560   4.826   5.196
10629SOL    HW232787   2.540   4.988   5.185
10630SOL     OW32788   6.473   1.205   3.391
10630SOL    HW132789   6.568   1.217   3.362
10630SOL    HW232790   6.470   1.150   3.475
10631SOL     OW32791   2.594   4.797   4.595
10631SOL    HW132792   2.628   4.765   4.684
10631SOL    HW232793   2.648   4.876   4.566
10632SOL     OW32794   6.040   1.915   4.184
10632SOL    HW132795   5.985   1.832   4.181
10632SOL    HW232796   6.053   1.950   4.091
10633SOL     OW32797   3.003   2.991   1.129
10633SOL    HW132798   2.979   2.906   1.081
10633SOL    HW232799   2.957   3.068   1.086
10634SOL     OW32800   3.635   5.469   0.741
10634SOL    HW132801   3.630   5.550   0.800
10634SOL    HW232802   3.730   5.440   0.733
10635SOL     OW32803   2.659   2.310   0.825
10635SOL    HW132804   2.745   2.308   0.876
10635SOL    HW232805   2.582   2.307   0.889
10636SOL     OW32806   1.212   1.931   1.719
10636SOL    HW132807   1.278   1.935   1.644
10636SOL    HW232808   1.130   1.982   1.694
10637SOL     OW32809   2.536   4.865   5.768
10637SOL    HW132810   2.593   4.879   5.688
10637SOL    HW232811   2.589   4.819   5.839
10638SOL     OW32812   6.729   5.462   2.900
10638SOL    HW132813   6.691   5.403   2.971
10638SOL    HW232814   6.688   5.553   2.906
10639SOL     OW32815   1.077   2.946   3.774
10639SOL    HW132816   1.156   2.900   3.733
10639SOL    HW232817   1.109   3.021   3.832
10640SOL     OW32818   3.933   0.291   5.511
10640SOL    HW132819   3.989   0.209   5.498
10640SOL    HW232820   3.907   0.329   5.422
10641SOL     OW32821   2.578   1.722   1.610
10641SOL    HW132822   2.647   1.690   1.545
10641SOL    HW232823   2.529   1.800   1.571
10642SOL     OW32824   0.345   3.544   2.098
10642SOL    HW132825   0.413   3.593   2.151
10642SOL    HW232826   0.255   3.553   2.142
10643SOL     OW32827   1.675   4.996   5.479
10643SOL    HW132828   1.728   4.981   5.562
10643SOL    HW232829   1.677   4.912   5.423
10644SOL     OW32830   5.307   2.402   3.312
10644SOL    HW132831   5.221   2.436   3.349
10644SOL    HW232832   5.364   2.367   3.387
10645SOL     OW32833   1.733   2.256   4.786
10645SOL    HW132834   1.677   2.173   4.784
10645SOL    HW232835   1.676   2.336   4.769
10646SOL     OW32836   6.641   0.687   6.629
10646SOL    HW132837   6.544   0.710   6.625
10646SOL    HW232838   6.654   0.600   6.675
10647SOL     OW32839   2.894   5.460   5.094
10647SOL    HW132840   2.853   5.370   5.107
10647SOL    HW232841   2.833   5.516   5.037
10648SOL     OW32842   5.690   4.554   6.681
10648SOL    HW132843   5.700   4.469   6.732
10648SOL    HW232844   5.765   4.616   6.705
10649SOL     OW32845   0.158   4.493   3.035
10649SOL    HW132846   0.244   4.534   3.063
10649SOL    HW232847   0.173   4.438   2.952
10650SOL     OW32848   0.745   6.439   3.764
10650SOL    HW132849   0.702   6.455   3.853
10650SOL    HW232850   0.698   6.363   3.718
10651SOL     OW32851   4.869   6.527   6.277
10651SOL    HW132852   4.818   6.445   6.252
10651SOL    HW232853   4.899   6.574   6.194
10652SOL     OW32854   3.554   6.636   6.078
10652SOL    HW132855   3.580   6.655   6.172
10652SOL    HW232856   3.495   6.709   6.044
10653SOL     OW32857   4.401   4.587   4.300
10653SOL    HW132858   4.357   4.554   4.216
10653SOL    HW232859   4.464   4.661   4.277
10654SOL     OW32860   4.728   0.800   0.677
10654SOL    HW132861   4.639   0.773   0.642
10654SOL    HW232862   4.731   0.900   0.686
10655SOL     OW32863   2.768   5.421   0.622
10655SOL    HW132864   2.846   5.463   0.668
10655SOL    HW232865   2.798   5.337   0.576
10656SOL     OW32866   6.538   2.153   2.233
10656SOL    HW132867   6.631   2.171   2.201
10656SOL    HW232868   6.481   2.124   2.156
10657SOL     OW32869   6.655   6.862   6.119
10657SOL    HW132870   6.653   6.924   6.197
10657SOL    HW232871   6.596   6.897   6.046
10658SOL     OW32872   5.699   4.442   5.332
10658SOL    HW132873   5.744   4.367   5.382
10658SOL    HW232874   5.745   4.528   5.355
10659SOL     OW32875   6.497   5.558   1.337
10659SOL    HW132876   6.461   5.465   1.326
10659SOL    HW232877   6.556   5.579   1.259
10660SOL     OW32878   5.486   3.718   6.905
10660SOL    HW132879   5.583   3.722   6.927
10660SOL    HW232880   5.439   3.657   6.969
10661SOL     OW32881   1.171   0.312   2.443
10661SOL    HW132882   1.072   0.304   2.451
10661SOL    HW232883   1.211   0.317   2.535
10662SOL     OW32884   5.485   0.942   3.736
10662SOL    HW132885   5.463   1.037   3.716
10662SOL    HW232886   5.489   0.929   3.835
10663SOL     OW32887   0.818   1.095   1.368
10663SOL    HW132888   0.719   1.112   1.360
10663SOL    HW232889   0.868   1.170   1.325
10664SOL     OW32890   0.780   4.856   5.553
10664SOL    HW132891   0.682   4.838   5.562
10664SOL    HW232892   0.802   4.942   5.601
10665SOL     OW32893   1.067   0.931   0.605
10665SOL    HW132894   1.098   0.859   0.542
10665SOL    HW232895   0.998   0.894   0.666
10666SOL     OW32896   3.144   3.947   1.049
10666SOL    HW132897   3.222   3.884   1.050
10666SOL    HW232898   3.068   3.907   1.099
10667SOL     OW32899   4.080   3.353   5.569
10667SOL    HW132900   4.030   3.302   5.638
10667SOL    HW232901   4.133   3.426   5.613
10668SOL     OW32902   1.572   1.025   4.986
10668SOL    HW132903   1.640   0.954   5.004
10668SOL    HW232904   1.527   1.050   5.071
10669SOL     OW32905   5.767   6.193   1.059
10669SOL    HW132906   5.751   6.269   0.995
10669SOL    HW232907   5.729   6.109   1.021
10670SOL     OW32908   5.248   3.940   5.067
10670SOL    HW132909   5.162   3.891   5.055
10670SOL    HW232910   5.240   4.002   5.145
10671SOL     OW32911   2.722   2.285   3.265
10671SOL    HW132912   2.746   2.287   3.168
10671SOL    HW232913   2.805   2.296   3.320
10672SOL     OW32914   5.922   2.722   0.115
10672SOL    HW132915   5.970   2.639   0.085
10672SOL    HW232916   5.871   2.701   0.198
10673SOL     OW32917   1.332   1.264   0.037
10673SOL    HW132918   1.335   1.194   6.988
10673SOL    HW232919   1.415   1.319   0.034
10674SOL     OW32920   3.366   3.815   1.223
10674SOL    HW132921   3.348   3.721   1.192
10674SOL    HW232922   3.307   3.836   1.301
10675SOL     OW32923   1.845   6.757   6.600
10675SOL    HW132924   1.873   6.846   6.634
10675SOL    HW232925   1.745   6.749   6.607
10676SOL     OW32926   6.085   6.897   5.776
10676SOL    HW132927   5.997   6.901   5.729
10676SOL    HW232928   6.110   6.801   5.792
10677SOL     OW32929   0.494   0.865   2.532
10677SOL    HW132930   0.488   0.821   2.622
10677SOL    HW232931   0.418   0.929   2.521
10678SOL     OW32932   3.597   5.183   3.116
10678SOL    HW132933   3.577   5.194   3.019
10678SOL    HW232934   3.574   5.268   3.164
10679SOL     OW32935   5.239   5.534   6.509
10679SOL    HW132936   5.218   5.524   6.607
10679SOL    HW232937   5.160   5.575   6.463
10680SOL     OW32938   2.903   1.681   3.273
10680SOL    HW132939   2.935   1.766   3.314
10680SOL    HW232940   2.896   1.692   3.173
10681SOL     OW32941   0.612   4.123   0.020
10681SOL    HW132942   0.649   4.177   6.966
10681SOL    HW232943   0.685   4.102   0.085
10682SOL     OW32944   1.815   1.629   4.282
10682SOL    HW132945   1.906   1.588   4.276
10682SOL    HW232946   1.823   1.728   4.292
10683SOL     OW32947   3.376   1.690   3.942
10683SOL    HW132948   3.459   1.738   3.970
10683SOL    HW232949   3.311   1.688   4.017
10684SOL     OW32950   5.479   4.298   1.024
10684SOL    HW132951   5.437   4.210   1.046
10684SOL    HW232952   5.553   4.283   0.958
10685SOL     OW32953   0.677   5.521   3.164
10685SOL    HW132954   0.659   5.514   3.262
10685SOL    HW232955   0.607   5.579   3.122
10686SOL     OW32956   1.097   4.570   6.447
10686SOL    HW132957   1.021   4.520   6.490
10686SOL    HW232958   1.133   4.517   6.371
10687SOL     OW32959   0.095   5.475   1.692
10687SOL    HW132960   0.017   5.468   1.629
10687SOL    HW232961   0.159   5.543   1.657
10688SOL     OW32962   6.336   4.254   3.216
10688SOL    HW132963   6.269   4.201   3.267
10688SOL    HW232964   6.405   4.291   3.279
10689SOL     OW32965   0.533   0.025   3.723
10689SOL    HW132966   0.560   0.098   3.786
10689SOL    HW232967   0.564   0.048   3.631
10690SOL     OW32968   0.131   5.892   3.094
10690SOL    HW132969   0.198   5.966   3.097
10690SOL    HW232970   0.119   5.855   3.186
10691SOL     OW32971   1.442   1.408   2.046
10691SOL    HW132972   1.416   1.334   2.108
10691SOL    HW232973   1.432   1.377   1.951
10692SOL     OW32974   3.613   4.978   2.692
10692SOL    HW132975   3.515   4.965   2.681
10692SOL    HW232976   3.660   4.952   2.608
10693SOL     OW32977   2.581   6.995   1.220
10693SOL    HW132978   2.607   6.964   1.128
10693SOL    HW232979   2.537   0.063   1.213
10694SOL     OW32980   4.588   6.453   1.006
10694SOL    HW132981   4.536   6.488   1.084
10694SOL    HW232982   4.643   6.375   1.036
10695SOL     OW32983   5.463   2.224   2.749
10695SOL    HW132984   5.454   2.189   2.656
10695SOL    HW232985   5.411   2.167   2.812
10696SOL     OW32986   6.627   3.919   3.629
10696SOL    HW132987   6.693   3.930   3.555
10696SOL    HW232988   6.546   3.873   3.594
10697SOL     OW32989   0.142   5.806   5.007
10697SOL    HW132990   0.159   5.708   5.004
10697SOL    HW232991   0.053   5.824   5.049
10698SOL     OW32992   3.791   5.887   4.358
10698SOL    HW132993   3.788   5.797   4.401
10698SOL    HW232994   3.720   5.893   4.288
10699SOL     OW32995   4.176   2.303   1.836
10699SOL    HW132996   4.117   2.244   1.890
10699SOL    HW232997   4.218   2.250   1.763
10700SOL     OW32998   0.615   0.183   0.577
10700SOL    HW132999   0.519   0.179   0.605
10700SOL    HW233000   0.674   0.163   0.655
10701SOL     OW33001   3.209   5.632   0.512
10701SOL    HW133002   3.250   5.632   0.604
10701SOL    HW233003   3.127   5.575   0.512
10702SOL     OW33004   6.092   2.245   2.558
10702SOL    HW133005   6.024   2.306   2.598
10702SOL    HW233006   6.050   2.158   2.536
10703SOL     OW33007   3.011   3.155   4.239
10703SOL    HW133008   3.007   3.213   4.320
10703SOL    HW233009   3.082   3.085   4.252
10704SOL     OW33010   5.936   5.266   1.829
10704SOL    HW133011   5.857   5.281   1.768
10704SOL    HW233012   6.020   5.292   1.781
10705SOL     OW33013   6.618   4.373   2.425
10705SOL    HW133014   6.638   4.292   2.371
10705SOL    HW233015   6.624   4.455   2.367
10706SOL     OW33016   4.359   6.407   2.118
10706SOL    HW133017   4.355   6.495   2.071
10706SOL    HW233018   4.313   6.414   2.206
10707SOL     OW33019   0.750   6.850   3.774
10707SOL    HW133020   0.788   6.865   3.683
10707SOL    HW233021   0.668   6.906   3.786
10708SOL     OW33022   4.420   0.931   2.474
10708SOL    HW133023   4.497   0.932   2.411
10708SOL    HW233024   4.451   0.902   2.564
10709SOL     OW33025   6.163   0.300   5.387
10709SOL    HW133026   6.256   0.303   5.425
10709SOL    HW233027   6.143   0.387   5.341
10710SOL     OW33028   0.617   6.409   4.089
10710SOL    HW133029   0.594   6.336   4.025
10710SOL    HW233030   0.601   6.498   4.045
10711SOL     OW33031   1.657   6.524   3.605
10711SOL    HW133032   1.558   6.514   3.594
10711SOL    HW233033   1.690   6.594   3.542
10712SOL     OW33034   3.487   1.135   1.508
10712SOL    HW133035   3.474   1.232   1.493
10712SOL    HW233036   3.584   1.116   1.522
10713SOL     OW33037   0.945   4.126   1.962
10713SOL    HW133038   0.906   4.115   2.053
10713SOL    HW233039   0.907   4.057   1.901
10714SOL     OW33040   6.096   3.532   6.057
10714SOL    HW133041   6.181   3.505   6.013
10714SOL    HW233042   6.045   3.594   5.996
10715SOL     OW33043   4.958   6.919   3.023
10715SOL    HW133044   5.004   6.836   2.991
10715SOL    HW233045   5.017   6.999   3.006
10716SOL     OW33046   6.611   2.400   4.202
10716SOL    HW133047   6.535   2.387   4.265
10716SOL    HW233048   6.576   2.412   4.109
10717SOL     OW33049   0.684   2.519   0.990
10717SOL    HW133050   0.672   2.466   0.906
10717SOL    HW233051   0.729   2.461   1.059
10718SOL     OW33052   6.926   3.825   6.359
10718SOL    HW133053   7.013   3.850   6.402
10718SOL    HW233054   6.898   3.734   6.390
10719SOL     OW33055   4.795   6.034   0.152
10719SOL    HW133056   4.780   6.020   0.250
10719SOL    HW233057   4.825   5.948   0.110
10720SOL     OW33058   0.008   3.011   5.456
10720SOL    HW133059   0.043   3.078   5.391
10720SOL    HW233060   6.929   3.011   5.454
10721SOL     OW33061   5.955   3.726   5.388
10721SOL    HW133062   5.986   3.814   5.425
10721SOL    HW233063   5.877   3.693   5.441
10722SOL     OW33064   6.935   3.127   0.423
10722SOL    HW133065   6.997   3.066   0.374
10722SOL    HW233066   6.898   3.195   0.360
10723SOL     OW33067   6.666   3.766   6.870
10723SOL    HW133068   6.600   3.763   6.794
10723SOL    HW233069   6.746   3.818   6.842
10724SOL     OW33070   3.602   0.526   6.361
10724SOL    HW133071   3.537   0.571   6.422
10724SOL    HW233072   3.561   0.443   6.324
10725SOL     OW33073   7.017   5.154   4.315
10725SOL    HW133074   0.019   5.139   4.411
10725SOL    HW233075   7.003   5.065   4.270
10726SOL     OW33076   6.100   6.292   5.294
10726SOL    HW133077   6.053   6.207   5.269
10726SOL    HW233078   6.197   6.285   5.270
10727SOL     OW33079   1.338   4.586   4.039
10727SOL    HW133080   1.430   4.598   4.001
10727SOL    HW233081   1.332   4.632   4.128
10728SOL     OW33082   6.395   6.438   2.357
10728SOL    HW133083   6.346   6.463   2.273
10728SOL    HW233084   6.338   6.457   2.436
10729SOL     OW33085   6.405   1.061   3.164
10729SOL    HW133086   6.399   1.116   3.081
10729SOL    HW233087   6.442   1.117   3.238
10730SOL     OW33088   2.935   0.328   1.312
10730SOL    HW133089   2.911   0.240   1.352
10730SOL    HW233090   2.858   0.362   1.258
10731SOL     OW33091   2.114   6.184   6.592
10731SOL    HW133092   2.158   6.115   6.649
10731SOL    HW233093   2.043   6.141   6.536
10732SOL     OW33094   5.382   6.856   2.687
10732SOL    HW133095   5.315   6.924   2.716
10732SOL    HW233096   5.474   6.891   2.702
10733SOL     OW33097   5.512   2.395   6.923
10733SOL    HW133098   5.590   2.342   6.889
10733SOL    HW233099   5.530   2.425   7.016
10734SOL     OW33100   1.293   0.600   6.273
10734SOL    HW133101   1.236   0.587   6.192
10734SOL    HW233102   1.270   0.687   6.316
10735SOL     OW33103   1.235   4.911   2.226
10735SOL    HW133104   1.255   4.813   2.227
10735SOL    HW233105   1.320   4.962   2.209
10736SOL     OW33106   1.103   1.350   3.829
10736SOL    HW133107   1.138   1.305   3.747
10736SOL    HW233108   1.169   1.341   3.903
10737SOL     OW33109   1.059   2.108   0.156
10737SOL    HW133110   0.998   2.054   0.213
10737SOL    HW233111   1.114   2.169   0.214
10738SOL     OW33112   3.160   0.613   1.807
10738SOL    HW133113   3.197   0.527   1.841
10738SOL    HW233114   3.236   0.670   1.773
10739SOL     OW33115   0.831   1.296   2.511
10739SOL    HW133116   0.741   1.252   2.509
10739SOL    HW233117   0.856   1.327   2.419
10740SOL     OW33118   1.569   4.692   5.963
10740SOL    HW133119   1.597   4.626   5.894
10740SOL    HW233120   1.474   4.719   5.947
10741SOL     OW33121   1.291   1.455   3.293
10741SOL    HW133122   1.317   1.446   3.196
10741SOL    HW233123   1.217   1.392   3.314
10742SOL     OW33124   6.042   0.046   1.784
10742SOL    HW133125   6.005   0.121   1.838
10742SOL    HW233126   6.074   6.995   1.845
10743SOL     OW33127   2.466   2.546   3.563
10743SOL    HW133128   2.467   2.499   3.475
10743SOL    HW233129   2.406   2.626   3.558
10744SOL     OW33130   3.555   1.679   2.535
10744SOL    HW133131   3.571   1.610   2.606
10744SOL    HW233132   3.520   1.762   2.578
10745SOL     OW33133   1.320   4.529   0.594
10745SOL    HW133134   1.226   4.557   0.610
10745SOL    HW233135   1.379   4.609   0.589
10746SOL     OW33136   1.594   4.414   0.964
10746SOL    HW133137   1.607   4.422   1.063
10746SOL    HW233138   1.568   4.503   0.926
10747SOL     OW33139   4.871   1.668   3.696
10747SOL    HW133140   4.777   1.683   3.664
10747SOL    HW233141   4.874   1.587   3.754
10748SOL     OW33142   5.760   0.049   1.140
10748SOL    HW133143   5.666   0.062   1.107
10748SOL    HW233144   5.762   0.056   1.240
10749SOL     OW33145   0.176   5.008   3.041
10749SOL    HW133146   0.240   5.076   3.077
10749SOL    HW233147   0.195   4.919   3.082
10750SOL     OW33148   5.026   5.480   4.301
10750SOL    HW133149   4.967   5.556   4.272
10750SOL    HW233150   4.976   5.422   4.366
10751SOL     OW33151   0.733   3.755   5.356
10751SOL    HW133152   0.781   3.673   5.326
10751SOL    HW233153   0.711   3.812   5.277
10752SOL     OW33154   6.208   3.811   6.378
10752SOL    HW133155   6.222   3.714   6.357
10752SOL    HW233156   6.199   3.862   6.293
10753SOL     OW33157   6.074   0.459   3.839
10753SOL    HW133158   6.077   0.491   3.933
10753SOL    HW233159   5.979   0.449   3.809
10754SOL     OW33160   2.369   1.873   3.290
10754SOL    HW133161   2.321   1.791   3.320
10754SOL    HW233162   2.303   1.938   3.251
10755SOL     OW33163   0.202   1.329   0.883
10755SOL    HW133164   0.284   1.361   0.930
10755SOL    HW233165   0.124   1.388   0.909
10756SOL     OW33166   5.965   3.931   0.303
10756SOL    HW133167   5.995   3.835   0.307
10756SOL    HW233168   5.923   3.949   0.214
10757SOL     OW33169   6.826   3.638   0.454
10757SOL    HW133170   6.770   3.566   0.496
10757SOL    HW233171   6.844   3.614   0.359
10758SOL     OW33172   1.504   6.072   4.877
10758SOL    HW133173   1.519   6.118   4.965
10758SOL    HW233174   1.530   5.976   4.885
10759SOL     OW33175   1.691   3.531   6.936
10759SOL    HW133176   1.755   3.457   6.919
10759SOL    HW233177   1.602   3.494   6.961
10760SOL     OW33178   0.129   0.447   0.971
10760SOL    HW133179   0.172   0.518   1.025
10760SOL    HW233180   0.044   0.418   1.014
10761SOL     OW33181   0.762   1.848   6.129
10761SOL    HW133182   0.793   1.806   6.044
10761SOL    HW233183   0.815   1.932   6.146
10762SOL     OW33184   4.249   1.202   5.232
10762SOL    HW133185   4.349   1.199   5.237
10762SOL    HW233186   4.218   1.294   5.256
10763SOL     OW33187   4.632   6.198   1.535
10763SOL    HW133188   4.683   6.284   1.535
10763SOL    HW233189   4.583   6.187   1.448
10764SOL     OW33190   5.773   1.653   6.362
10764SOL    HW133191   5.725   1.705   6.291
10764SOL    HW233192   5.741   1.558   6.361
10765SOL     OW33193   5.758   2.704   1.004
10765SOL    HW133194   5.760   2.609   1.034
10765SOL    HW233195   5.762   2.764   1.084
10766SOL     OW33196   3.019   3.414   0.453
10766SOL    HW133197   3.087   3.487   0.442
10766SOL    HW233198   2.928   3.455   0.459
10767SOL     OW33199   1.239   0.584   0.779
10767SOL    HW133200   1.320   0.588   0.720
10767SOL    HW233201   1.247   0.654   0.850
10768SOL     OW33202   5.588   5.316   0.376
10768SOL    HW133203   5.634   5.392   0.329
10768SOL    HW233204   5.561   5.344   0.467
10769SOL     OW33205   2.353   5.152   4.483
10769SOL    HW133206   2.411   5.151   4.401
10769SOL    HW233207   2.264   5.112   4.462
10770SOL     OW33208   5.678   6.882   4.630
10770SOL    HW133209   5.669   6.829   4.715
10770SOL    HW233210   5.754   6.946   4.640
10771SOL     OW33211   4.624   0.110   5.316
10771SOL    HW133212   4.635   0.079   5.222
10771SOL    HW233213   4.536   0.156   5.326
10772SOL     OW33214   5.866   6.847   4.083
10772SOL    HW133215   5.804   6.911   4.037
10772SOL    HW233216   5.816   6.765   4.109
10773SOL     OW33217   6.592   4.945   6.853
10773SOL    HW133218   6.668   5.007   6.871
10773SOL    HW233219   6.521   4.993   6.802
10774SOL     OW33220   1.764   2.076   0.227
10774SOL    HW133221   1.763   2.101   0.324
10774SOL    HW233222   1.858   2.066   0.195
10775SOL     OW33223   0.934   3.847   0.445
10775SOL    HW133224   1.003   3.882   0.509
10775SOL    HW233225   0.975   3.838   0.354
10776SOL     OW33226   0.962   6.428   0.866
10776SOL    HW133227   0.949   6.485   0.785
10776SOL    HW233228   0.877   6.380   0.888
10777SOL     OW33229   3.914   6.963   3.894
10777SOL    HW133230   3.846   0.013   3.912
10777SOL    HW233231   4.005   6.998   3.917
10778SOL     OW33232   5.226   6.878   5.056
10778SOL    HW133233   5.302   6.933   5.090
10778SOL    HW233234   5.208   6.803   5.120
10779SOL     OW33235   6.681   4.679   3.195
10779SOL    HW133236   6.630   4.732   3.127
10779SOL    HW233237   6.617   4.631   3.255
10780SOL     OW33238   1.164   6.669   2.566
10780SOL    HW133239   1.165   6.737   2.493
10780SOL    HW233240   1.255   6.663   2.608
10781SOL     OW33241   3.559   1.451   3.533
10781SOL    HW133242   3.544   1.371   3.592
10781SOL    HW233243   3.603   1.523   3.586
10782SOL     OW33244   6.251   2.182   3.726
10782SOL    HW133245   6.218   2.275   3.743
10782SOL    HW233246   6.199   2.118   3.782
10783SOL     OW33247   1.255   3.156   3.262
10783SOL    HW133248   1.308   3.188   3.184
10783SOL    HW233249   1.310   3.090   3.315
10784SOL     OW33250   2.948   7.020   2.247
10784SOL    HW133251   2.969   6.981   2.337
10784SOL    HW233252   3.032   0.004   2.193
10785SOL     OW33253   0.848   5.049   1.773
10785SOL    HW133254   0.835   5.000   1.687
10785SOL    HW233255   0.805   4.998   1.847
10786SOL     OW33256   5.260   3.375   2.050
10786SOL    HW133257   5.190   3.385   1.980
10786SOL    HW233258   5.240   3.437   2.126
10787SOL     OW33259   3.554   2.138   4.638
10787SOL    HW133260   3.630   2.081   4.671
10787SOL    HW233261   3.532   2.207   4.706
10788SOL     OW33262   2.302   4.764   0.158
10788SOL    HW133263   2.359   4.751   0.077
10788SOL    HW233264   2.321   4.692   0.224
10789SOL     OW33265   5.720   1.846   0.730
10789SOL    HW133266   5.772   1.796   0.661
10789SOL    HW233267   5.686   1.781   0.799
10790SOL     OW33268   0.857   1.018   4.176
10790SOL    HW133269   0.792   0.987   4.246
10790SOL    HW233270   0.852   1.118   4.168
10791SOL     OW33271   0.436   1.028   1.578
10791SOL    HW133272   0.504   1.002   1.510
10791SOL    HW233273   0.407   1.123   1.563
10792SOL     OW33274   2.995   2.926   1.808
10792SOL    HW133275   2.987   2.827   1.800
10792SOL    HW233276   3.043   2.963   1.729
10793SOL     OW33277   5.143   2.369   4.141
10793SOL    HW133278   5.141   2.294   4.207
10793SOL    HW233279   5.051   2.386   4.106
10794SOL     OW33280   3.333   3.795   2.660
10794SOL    HW133281   3.413   3.831   2.708
10794SOL    HW233282   3.340   3.695   2.656
10795SOL     OW33283   6.247   3.958   3.853
10795SOL    HW133284   6.316   4.024   3.883
10795SOL    HW233285   6.218   3.980   3.760
10796SOL     OW33286   3.972   6.137   6.731
10796SOL    HW133287   3.982   6.064   6.798
10796SOL    HW233288   3.885   6.127   6.682
10797SOL     OW33289   4.256   2.123   0.703
10797SOL    HW133290   4.345   2.169   0.711
10797SOL    HW233291   4.253   2.072   0.617
10798SOL     OW33292   2.006   6.970   0.431
10798SOL    HW133293   1.936   0.020   0.428
10798SOL    HW233294   2.092   7.009   0.462
10799SOL     OW33295   3.857   1.621   1.714
10799SOL    HW133296   3.813   1.668   1.791
10799SOL    HW233297   3.825   1.660   1.628
10800SOL     OW33298   1.180   6.945   6.887
10800SOL    HW133299   1.105   6.906   6.940
10800SOL    HW233300   1.238   6.872   6.853
10801SOL     OW33301   0.985   6.889   5.073
10801SOL    HW133302   0.950   6.850   5.158
10801SOL    HW233303   1.035   6.973   5.093
10802SOL     OW33304   2.082   3.408   4.749
10802SOL    HW133305   2.056   3.499   4.780
10802SOL    HW233306   2.132   3.361   4.822
10803SOL     OW33307   4.595   4.669   5.025
10803SOL    HW133308   4.574   4.616   4.943
10803SOL    HW233309   4.681   4.638   5.064
10804SOL     OW33310   6.820   4.467   1.468
10804SOL    HW133311   6.803   4.375   1.433
10804SOL    HW233312   6.916   4.476   1.493
10805SOL     OW33313   3.166   6.545   6.694
10805SOL    HW133314   3.121   6.517   6.778
10805SOL    HW233315   3.265   6.537   6.704
10806SOL     OW33316   5.328   4.336   7.020
10806SOL    HW133317   5.426   4.337   7.003
10806SOL    HW233318   5.310   4.353   0.095
10807SOL     OW33319   3.085   6.875   3.257
10807SOL    HW133320   3.151   6.950   3.249
10807SOL    HW233321   3.044   6.856   3.168
10808SOL     OW33322   6.962   3.865   6.826
10808SOL    HW133323   0.025   3.917   6.816
10808SOL    HW233324   6.962   3.789   6.761
10809SOL     OW33325   2.592   6.735   3.650
10809SOL    HW133326   2.505   6.699   3.684
10809SOL    HW233327   2.595   6.834   3.663
10810SOL     OW33328   1.281   0.713   5.631
10810SOL    HW133329   1.242   0.775   5.699
10810SOL    HW233330   1.229   0.628   5.631
10811SOL     OW33331   4.721   4.951   5.394
10811SOL    HW133332   4.784   4.887   5.350
10811SOL    HW233333   4.711   4.928   5.491
10812SOL     OW33334   0.585   3.311   2.733
10812SOL    HW133335   0.617   3.237   2.793
10812SOL    HW233336   0.598   3.399   2.779
10813SOL     OW33337   2.048   6.420   0.066
10813SOL    HW133338   2.143   6.443   0.087
10813SOL    HW233339   1.994   6.504   0.060
10814SOL     OW33340   1.816   6.898   6.348
10814SOL    HW133341   1.771   6.811   6.365
10814SOL    HW233342   1.880   6.918   6.423
10815SOL     OW33343   5.049   5.055   3.210
10815SOL    HW133344   5.067   5.146   3.173
10815SOL    HW233345   5.034   4.991   3.135
10816SOL     OW33346   1.735   1.486   2.224
10816SOL    HW133347   1.662   1.554   2.213
10816SOL    HW233348   1.791   1.484   2.141
10817SOL     OW33349   5.181   0.065   3.006
10817SOL    HW133350   5.232   7.012   2.962
10817SOL    HW233351   5.235   0.101   3.082
10818SOL     OW33352   4.284   3.861   5.408
10818SOL    HW133353   4.217   3.936   5.403
10818SOL    HW233354   4.271   3.800   5.330
10819SOL     OW33355   6.758   4.685   6.986
10819SOL    HW133356   6.695   4.621   0.008
10819SOL    HW233357   6.714   4.775   6.977
10820SOL     OW33358   6.220   6.257   4.084
10820SOL    HW133359   6.312   6.227   4.058
10820SOL    HW233360   6.186   6.323   4.017
10821SOL     OW33361   4.901   6.345   1.571
10821SOL    HW133362   4.934   6.260   1.611
10821SOL    HW233363   4.886   6.413   1.644
10822SOL     OW33364   1.158   2.612   3.165
10822SOL    HW133365   1.164   2.552   3.245
10822SOL    HW233366   1.228   2.683   3.173
10823SOL     OW33367   1.468   5.053   1.526
10823SOL    HW133368   1.516   5.059   1.439
10823SOL    HW233369   1.435   4.959   1.540
10824SOL     OW33370   4.946   7.015   4.283
10824SOL    HW133371   4.973   0.087   4.302
10824SOL    HW233372   4.860   6.995   4.329
10825SOL     OW33373   2.711   0.764   0.261
10825SOL    HW133374   2.649   0.693   0.226
10825SOL    HW233375   2.665   0.853   0.258
10826SOL     OW33376   0.348   3.930   4.165
10826SOL    HW133377   0.446   3.944   4.173
10826SOL    HW233378   0.329   3.852   4.105
10827SOL     OW33379   5.382   4.078   4.685
10827SOL    HW133380   5.428   4.166   4.688
10827SOL    HW233381   5.284   4.090   4.705
10828SOL     OW33382   0.804   5.766   2.795
10828SOL    HW133383   0.705   5.753   2.787
10828SOL    HW233384   0.838   5.715   2.873
10829SOL     OW33385   3.662   2.515   0.009
10829SOL    HW133386   3.609   2.600   0.013
10829SOL    HW233387   3.600   2.437   0.002
10830SOL     OW33388   4.799   1.766   3.358
10830SOL    HW133389   4.787   1.709   3.277
10830SOL    HW233390   4.890   1.807   3.357
10831SOL     OW33391   3.925   5.637   1.785
10831SOL    HW133392   3.854   5.707   1.789
10831SOL    HW233393   3.974   5.633   1.872
10832SOL     OW33394   0.267   1.967   0.835
10832SOL    HW133395   0.265   1.878   0.788
10832SOL    HW233396   0.321   2.031   0.781
10833SOL     OW33397   1.876   0.755   4.379
10833SOL    HW133398   1.796   0.780   4.324
10833SOL    HW233399   1.959   0.785   4.332
10834SOL     OW33400   1.341   1.945   6.078
10834SOL    HW133401   1.280   1.990   6.012
10834SOL    HW233402   1.426   1.918   6.032
10835SOL     OW33403   5.863   1.923   1.187
10835SOL    HW133404   5.801   1.847   1.168
10835SOL    HW233405   5.911   1.948   1.103
10836SOL     OW33406   6.438   1.400   5.001
10836SOL    HW133407   6.457   1.313   5.047
10836SOL    HW233408   6.351   1.437   5.034
10837SOL     OW33409   0.967   4.921   0.068
10837SOL    HW133410   0.871   4.951   0.074
10837SOL    HW233411   1.027   5.000   0.076
10838SOL     OW33412   5.669   6.356   4.589
10838SOL    HW133413   5.605   6.378   4.662
10838SOL    HW233414   5.658   6.261   4.562
10839SOL     OW33415   3.149   3.100   0.407
10839SOL    HW133416   3.131   3.194   0.437
10839SOL    HW233417   3.181   3.046   0.484
10840SOL     OW33418   4.107   5.828   1.356
10840SOL    HW133419   4.080   5.877   1.440
10840SOL    HW233420   4.043   5.851   1.283
10841SOL     OW33421   3.958   6.729   6.825
10841SOL    HW133422   3.957   6.645   6.770
10841SOL    HW233423   3.867   6.746   6.860
10842SOL     OW33424   6.174   3.425   0.916
10842SOL    HW133425   6.240   3.500   0.913
10842SOL    HW233426   6.142   3.413   1.010
10843SOL     OW33427   0.835   1.887   2.022
10843SOL    HW133428   0.785   1.973   2.009
10843SOL    HW233429   0.865   1.853   1.933
10844SOL     OW33430   0.617   6.633   3.944
10844SOL    HW133431   0.530   6.675   3.970
10844SOL    HW233432   0.653   6.680   3.863
10845SOL     OW33433   2.597   1.036   0.317
10845SOL    HW133434   2.669   1.070   0.377
10845SOL    HW233435   2.517   1.011   0.372
10846SOL     OW33436   4.717   2.906   0.750
10846SOL    HW133437   4.814   2.884   0.764
10846SOL    HW233438   4.686   2.965   0.824
10847SOL     OW33439   2.907   2.104   6.490
10847SOL    HW133440   2.807   2.103   6.497
10847SOL    HW233441   2.935   2.167   6.418
10848SOL     OW33442   3.149   2.313   6.447
10848SOL    HW133443   3.186   2.222   6.430
10848SOL    HW233444   3.158   2.369   6.365
10849SOL     OW33445   3.043   5.019   3.334
10849SOL    HW133446   3.128   5.068   3.315
10849SOL    HW233447   3.059   4.953   3.408
10850SOL     OW33448   4.656   6.190   6.517
10850SOL    HW133449   4.608   6.262   6.467
10850SOL    HW233450   4.753   6.190   6.491
10851SOL     OW33451   2.874   3.089   6.486
10851SOL    HW133452   2.859   3.184   6.458
10851SOL    HW233453   2.786   3.042   6.494
10852SOL     OW33454   0.498   6.556   5.993
10852SOL    HW133455   0.471   6.470   5.948
10852SOL    HW233456   0.567   6.536   6.063
10853SOL     OW33457   3.866   1.923   5.596
10853SOL    HW133458   3.783   1.887   5.551
10853SOL    HW233459   3.842   1.959   5.686
10854SOL     OW33460   6.181   0.027   5.427
10854SOL    HW133461   6.180   0.125   5.405
10854SOL    HW233462   6.217   0.015   5.519
10855SOL     OW33463   2.950   6.183   2.349
10855SOL    HW133464   2.905   6.170   2.261
10855SOL    HW233465   3.013   6.261   2.343
10856SOL     OW33466   5.652   1.525   2.360
10856SOL    HW133467   5.608   1.481   2.439
10856SOL    HW233468   5.668   1.621   2.380
10857SOL     OW33469   5.242   3.178   3.804
10857SOL    HW133470   5.309   3.172   3.878
10857SOL    HW233471   5.192   3.092   3.796
10858SOL     OW33472   1.243   2.555   6.323
10858SOL    HW133473   1.260   2.599   6.235
10858SOL    HW233474   1.217   2.625   6.390
10859SOL     OW33475   2.250   4.216   4.448
10859SOL    HW133476   2.220   4.121   4.446
10859SOL    HW233477   2.170   4.276   4.452
10860SOL     OW33478   6.624   1.223   5.728
10860SOL    HW133479   6.540   1.175   5.706
10860SOL    HW233480   6.667   1.182   5.808
10861SOL     OW33481   3.723   2.992   2.432
10861SOL    HW133482   3.666   3.073   2.421
10861SOL    HW233483   3.813   3.019   2.466
10862SOL     OW33484   2.415   1.493   6.728
10862SOL    HW133485   2.378   1.570   6.780
10862SOL    HW233486   2.346   1.421   6.721
10863SOL     OW33487   3.994   0.400   2.209
10863SOL    HW133488   3.925   0.329   2.192
10863SOL    HW233489   4.044   0.377   2.292
10864SOL     OW33490   2.563   5.138   1.153
10864SOL    HW133491   2.612   5.051   1.164
10864SOL    HW233492   2.594   5.184   1.070
10865SOL     OW33493   5.436   2.118   3.940
10865SOL    HW133494   5.514   2.056   3.954
10865SOL    HW233495   5.467   2.201   3.895
10866SOL     OW33496   5.379   4.667   0.846
10866SOL    HW133497   5.440   4.711   0.912
10866SOL    HW233498   5.384   4.715   0.759
10867SOL     OW33499   2.868   4.166   0.513
10867SOL    HW133500   2.886   4.144   0.609
10867SOL    HW233501   2.839   4.084   0.465
10868SOL     OW33502   2.082   1.741   3.395
10868SOL    HW133503   2.014   1.702   3.458
10868SOL    HW233504   2.034   1.781   3.316
10869NA      NA33505   0.332   2.400   6.112
10870NA      NA33506   4.412   4.669   5.173
10871NA      NA33507   2.216   4.424   2.413
10872NA      NA33508   4.772   4.231   3.675
10873NA      NA33509   4.300   2.387   5.277
10874NA      NA33510   3.452   4.308   1.683
10875NA      NA33511   0.778   4.531   0.183
10876NA      NA33512   3.997   3.631   2.130
10877NA      NA33513   4.855   4.544   0.995
10878NA      NA33514   3.728   0.395   5.629
10879NA      NA33515   5.877   5.533   1.052
10880NA      NA33516   1.855   1.011   5.485
10881NA      NA33517   4.493   4.684   2.114
10882NA      NA33518   3.827   2.826   1.169
   7.02155   7.02155   7.02155
