Generated by trjconv : CNT in water t=  12.00000
33518
    1C        C    1   2.835   2.762   4.748
    1C        C    2   2.889   2.712   4.868
    1C        C    3   2.845   2.775   4.985
    1C        C    4   2.846   2.770   4.258
    1C        C    5   2.900   2.725   4.381
    1C        C    6   2.846   2.770   4.503
    1C        C    7   3.014   2.645   4.623
    1C        C    8   2.896   2.723   4.627
    1C        C    9   3.077   2.612   4.745
    1C        C   10   3.006   2.632   4.865
    1C        C   11   3.181   2.493   4.974
    1C        C   12   3.055   2.555   4.971
    1C        C   13   2.848   2.770   3.770
    1C        C   14   2.897   2.722   3.893
    1C        C   15   2.849   2.773   4.016
    1C        C   16   3.016   2.642   4.137
    1C        C   17   2.898   2.720   4.137
    1C        C   18   3.079   2.609   4.259
    1C        C   19   3.019   2.649   4.381
    1C        C   20   3.209   2.557   4.505
    1C        C   21   3.078   2.609   4.503
    1C        C   22   3.278   2.537   4.626
    1C        C   23   3.207   2.554   4.747
    1C        C   24   3.412   2.482   4.863
    1C        C   25   3.273   2.513   4.866
    1C        C   26   3.486   2.463   4.981
    1C        C   27   2.851   2.771   3.280
    1C        C   28   2.904   2.723   3.402
    1C        C   29   2.853   2.772   3.525
    1C        C   30   3.018   2.643   3.649
    1C        C   31   2.903   2.724   3.648
    1C        C   32   3.078   2.608   3.773
    1C        C   33   3.012   2.641   3.894
    1C        C   34   3.204   2.546   4.016
    1C        C   35   3.074   2.603   4.015
    1C        C   36   3.274   2.529   4.137
    1C        C   37   3.208   2.551   4.260
    1C        C   38   3.415   2.511   4.380
    1C        C   39   3.275   2.532   4.383
    1C        C   40   3.488   2.504   4.501
    1C        C   41   3.416   2.507   4.623
    1C        C   42   3.630   2.486   4.743
    1C        C   43   3.488   2.486   4.743
    1C        C   44   3.701   2.491   4.865
    1C        C   45   3.625   2.478   4.982
    1C        C   46   2.835   2.755   2.794
    1C        C   47   2.897   2.715   2.914
    1C        C   48   2.848   2.764   3.037
    1C        C   49   3.016   2.635   3.160
    1C        C   50   2.903   2.720   3.159
    1C        C   51   3.079   2.598   3.281
    1C        C   52   3.018   2.640   3.402
    1C        C   53   3.205   2.549   3.527
    1C        C   54   3.076   2.606   3.526
    1C        C   55   3.274   2.526   3.649
    1C        C   56   3.208   2.553   3.771
    1C        C   57   3.411   2.502   3.894
    1C        C   58   3.272   2.527   3.894
    1C        C   59   3.484   2.497   4.015
    1C        C   60   3.414   2.506   4.137
    1C        C   61   3.627   2.495   4.257
    1C        C   62   3.486   2.499   4.259
    1C        C   63   3.699   2.502   4.378
    1C        C   64   3.629   2.508   4.501
    1C        C   65   3.839   2.536   4.620
    1C        C   66   3.701   2.508   4.622
    1C        C   67   3.910   2.557   4.740
    1C        C   68   3.836   2.529   4.858
    1C        C   69   4.049   2.581   4.975
    1C        C   70   3.917   2.536   4.972
    1C        C   71   2.820   2.730   2.310
    1C        C   72   2.882   2.692   2.431
    1C        C   73   2.831   2.748   2.551
    1C        C   74   3.004   2.625   2.673
    1C        C   75   2.885   2.702   2.673
    1C        C   76   3.072   2.596   2.793
    1C        C   77   3.011   2.632   2.915
    1C        C   78   3.207   2.547   3.036
    1C        C   79   3.076   2.599   3.037
    1C        C   80   3.275   2.523   3.157
    1C        C   81   3.210   2.546   3.280
    1C        C   82   3.410   2.495   3.402
    1C        C   83   3.272   2.525   3.405
    1C        C   84   3.483   2.492   3.523
    1C        C   85   3.413   2.501   3.645
    1C        C   86   3.620   2.499   3.768
    1C        C   87   3.479   2.496   3.770
    1C        C   88   3.693   2.511   3.888
    1C        C   89   3.625   2.499   4.012
    1C        C   90   3.833   2.539   4.137
    1C        C   91   3.695   2.510   4.134
    1C        C   92   3.906   2.561   4.256
    1C        C   93   3.836   2.536   4.376
    1C        C   94   4.026   2.633   4.501
    1C        C   95   3.904   2.562   4.497
    1C        C   96   4.092   2.672   4.620
    1C        C   97   4.037   2.621   4.739
    1C        C   98   4.187   2.766   4.861
    1C        C   99   4.100   2.653   4.862
    1C        C  100   4.214   2.840   4.977
    1C        C  101   2.821   2.728   2.071
    1C        C  102   2.988   2.590   2.192
    1C        C  103   2.873   2.676   2.190
    1C        C  104   3.062   2.577   2.312
    1C        C  105   3.001   2.616   2.434
    1C        C  106   3.200   2.534   2.550
    1C        C  107   3.067   2.583   2.554
    1C        C  108   3.270   2.523   2.671
    1C        C  109   3.202   2.542   2.794
    1C        C  110   3.412   2.493   2.914
    1C        C  111   3.274   2.521   2.914
    1C        C  112   3.482   2.489   3.037
    1C        C  113   3.414   2.498   3.160
    1C        C  114   3.626   2.500   3.278
    1C        C  115   3.485   2.490   3.282
    1C        C  116   3.692   2.508   3.403
    1C        C  117   3.624   2.497   3.526
    1C        C  118   3.831   2.544   3.643
    1C        C  119   3.695   2.506   3.648
    1C        C  120   3.892   2.573   3.768
    1C        C  121   3.830   2.544   3.891
    1C        C  122   4.018   2.639   4.011
    1C        C  123   3.897   2.565   4.014
    1C        C  124   4.078   2.680   4.132
    1C        C  125   4.028   2.632   4.255
    1C        C  126   4.192   2.765   4.375
    1C        C  127   4.084   2.674   4.378
    1C        C  128   4.241   2.819   4.496
    1C        C  129   4.197   2.767   4.619
    1C        C  130   4.325   2.936   4.740
    1C        C  131   4.239   2.823   4.742
    1C        C  132   4.356   3.001   4.861
    1C        C  133   4.290   2.957   4.977
    1C        C  134   3.172   2.469   2.080
    1C        C  135   3.038   2.511   2.084
    1C        C  136   3.259   2.481   2.190
    1C        C  137   3.194   2.524   2.307
    1C        C  138   3.403   2.477   2.426
    1C        C  139   3.264   2.503   2.428
    1C        C  140   3.479   2.479   2.545
    1C        C  141   3.409   2.494   2.667
    1C        C  142   3.620   2.494   2.791
    1C        C  143   3.479   2.490   2.790
    1C        C  144   3.696   2.499   2.910
    1C        C  145   3.623   2.489   3.031
    1C        C  146   3.829   2.538   3.157
    1C        C  147   3.693   2.501   3.153
    1C        C  148   3.898   2.561   3.278
    1C        C  149   3.829   2.539   3.400
    1C        C  150   4.023   2.632   3.521
    1C        C  151   3.897   2.567   3.520
    1C        C  152   4.078   2.670   3.645
    1C        C  153   4.015   2.642   3.768
    1C        C  154   4.188   2.767   3.887
    1C        C  155   4.077   2.679   3.890
    1C        C  156   4.238   2.813   4.011
    1C        C  157   4.189   2.768   4.135
    1C        C  158   4.339   2.922   4.252
    1C        C  159   4.247   2.816   4.255
    1C        C  160   4.370   2.984   4.375
    1C        C  161   4.331   2.928   4.499
    1C        C  162   4.436   3.118   4.616
    1C        C  163   4.365   2.996   4.618
    1C        C  164   4.466   3.182   4.738
    1C        C  165   4.432   3.120   4.860
    1C        C  166   4.507   3.321   4.977
    1C        C  167   4.471   3.187   4.977
    1C        C  168   3.473   2.429   2.070
    1C        C  169   3.398   2.459   2.184
    1C        C  170   3.615   2.470   2.301
    1C        C  171   3.473   2.467   2.304
    1C        C  172   3.689   2.488   2.420
    1C        C  173   3.619   2.491   2.543
    1C        C  174   3.823   2.539   2.663
    1C        C  175   3.686   2.505   2.667
    1C        C  176   3.894   2.559   2.784
    1C        C  177   3.833   2.534   2.909
    1C        C  178   4.021   2.624   3.030
    1C        C  179   3.894   2.562   3.034
    1C        C  180   4.082   2.661   3.152
    1C        C  181   4.023   2.627   3.276
    1C        C  182   4.193   2.755   3.399
    1C        C  183   4.081   2.669   3.397
    1C        C  184   4.245   2.804   3.521
    1C        C  185   4.189   2.757   3.642
    1C        C  186   4.335   2.915   3.765
    1C        C  187   4.240   2.810   3.763
    1C        C  188   4.373   2.977   3.886
    1C        C  189   4.330   2.920   4.009
    1C        C  190   4.447   3.101   4.132
    1C        C  191   4.380   2.977   4.128
    1C        C  192   4.475   3.169   4.253
    1C        C  193   4.442   3.106   4.375
    1C        C  194   4.500   3.317   4.492
    1C        C  195   4.466   3.180   4.493
    1C        C  196   4.519   3.385   4.614
    1C        C  197   4.512   3.317   4.738
    1C        C  198   4.552   3.531   4.852
    1C        C  199   4.538   3.389   4.858
    1C        C  200   4.578   3.620   4.962
    1C        C  201   3.612   2.417   2.072
    1C        C  202   3.829   2.505   2.181
    1C        C  203   3.692   2.463   2.181
    1C        C  204   3.897   2.536   2.302
    1C        C  205   3.827   2.518   2.423
    1C        C  206   4.020   2.618   2.542
    1C        C  207   3.894   2.555   2.542
    1C        C  208   4.078   2.659   2.664
    1C        C  209   4.020   2.623   2.788
    1C        C  210   4.194   2.749   2.909
    1C        C  211   4.080   2.665   2.909
    1C        C  212   4.244   2.800   3.031
    1C        C  213   4.190   2.753   3.153
    1C        C  214   4.334   2.909   3.273
    1C        C  215   4.243   2.800   3.275
    1C        C  216   4.373   2.971   3.393
    1C        C  217   4.335   2.913   3.516
    1C        C  218   4.435   3.096   3.640
    1C        C  219   4.374   2.969   3.640
    1C        C  220   4.460   3.168   3.760
    1C        C  221   4.435   3.104   3.883
    1C        C  222   4.499   3.302   4.004
    1C        C  223   4.467   3.164   4.007
    1C        C  224   4.512   3.375   4.124
    1C        C  225   4.503   3.307   4.248
    1C        C  226   4.519   3.524   4.368
    1C        C  227   4.511   3.383   4.367
    1C        C  228   4.516   3.596   4.490
    1C        C  229   4.521   3.526   4.612
    1C        C  230   4.506   3.742   4.724
    1C        C  231   4.534   3.602   4.730
    1C        C  232   4.496   3.819   4.842
    1C        C  233   4.539   3.755   4.959
    1C        C  234   4.017   2.603   2.059
    1C        C  235   3.896   2.533   2.062
    1C        C  236   4.079   2.646   2.177
    1C        C  237   4.022   2.604   2.298
    1C        C  238   4.199   2.727   2.421
    1C        C  239   4.084   2.644   2.419
    1C        C  240   4.251   2.783   2.540
    1C        C  241   4.191   2.744   2.662
    1C        C  242   4.333   2.901   2.781
    1C        C  243   4.242   2.794   2.784
    1C        C  244   4.377   2.957   2.903
    1C        C  245   4.333   2.909   3.029
    1C        C  246   4.435   3.095   3.147
    1C        C  247   4.373   2.969   3.151
    1C        C  248   4.452   3.161   3.271
    1C        C  249   4.430   3.100   3.397
    1C        C  250   4.498   3.300   3.511
    1C        C  251   4.460   3.164   3.519
    1C        C  252   4.506   3.371   3.633
    1C        C  253   4.496   3.304   3.758
    1C        C  254   4.518   3.512   3.878
    1C        C  255   4.509   3.371   3.881
    1C        C  256   4.517   3.587   3.998
    1C        C  257   4.518   3.516   4.120
    1C        C  258   4.495   3.726   4.241
    1C        C  259   4.517   3.587   4.242
    1C        C  260   4.474   3.803   4.358
    1C        C  261   4.486   3.734   4.480
    1C        C  262   4.430   3.939   4.602
    1C        C  263   4.477   3.806   4.602
    1C        C  264   4.393   4.007   4.721
    1C        C  265   4.431   3.944   4.841
    1C        C  266   4.321   4.133   4.957
    1C        C  267   4.395   4.015   4.956
    1C        C  268   4.255   2.776   2.064
    1C        C  269   4.195   2.727   2.181
    1C        C  270   4.346   2.883   2.297
    1C        C  271   4.254   2.775   2.300
    1C        C  272   4.375   2.953   2.417
    1C        C  273   4.343   2.890   2.539
    1C        C  274   4.445   3.081   2.660
    1C        C  275   4.379   2.956   2.659
    1C        C  276   4.468   3.148   2.782
    1C        C  277   4.439   3.083   2.904
    1C        C  278   4.506   3.290   3.023
    1C        C  279   4.466   3.155   3.023
    1C        C  280   4.514   3.360   3.146
    1C        C  281   4.499   3.294   3.271
    1C        C  282   4.508   3.512   3.388
    1C        C  283   4.507   3.371   3.389
    1C        C  284   4.504   3.581   3.511
    1C        C  285   4.506   3.512   3.635
    1C        C  286   4.488   3.723   3.748
    1C        C  287   4.512   3.584   3.756
    1C        C  288   4.472   3.787   3.873
    1C        C  289   4.488   3.725   3.999
    1C        C  290   4.429   3.930   4.112
    1C        C  291   4.477   3.797   4.120
    1C        C  292   4.396   3.993   4.233
    1C        C  293   4.425   3.936   4.359
    1C        C  294   4.328   4.125   4.475
    1C        C  295   4.400   4.003   4.480
    1C        C  296   4.280   4.183   4.595
    1C        C  297   4.323   4.130   4.718
    1C        C  298   4.199   4.312   4.838
    1C        C  299   4.281   4.195   4.838
    1C        C  300   4.165   4.399   4.947
    1C        C  301   4.343   2.884   2.063
    1C        C  302   4.468   3.066   2.177
    1C        C  303   4.399   2.941   2.178
    1C        C  304   4.478   3.142   2.296
    1C        C  305   4.439   3.079   2.416
    1C        C  306   4.495   3.285   2.536
    1C        C  307   4.468   3.146   2.536
    1C        C  308   4.507   3.358   2.656
    1C        C  309   4.500   3.286   2.777
    1C        C  310   4.522   3.497   2.899
    1C        C  311   4.519   3.356   2.899
    1C        C  312   4.513   3.571   3.019
    1C        C  313   4.510   3.501   3.141
    1C        C  314   4.485   3.715   3.262
    1C        C  315   4.504   3.575   3.262
    1C        C  316   4.477   3.788   3.382
    1C        C  317   4.492   3.722   3.506
    1C        C  318   4.422   3.926   3.626
    1C        C  319   4.474   3.794   3.627
    1C        C  320   4.390   3.982   3.752
    1C        C  321   4.423   3.920   3.875
    1C        C  322   4.322   4.115   3.991
    1C        C  323   4.399   3.997   3.991
    1C        C  324   4.274   4.166   4.114
    1C        C  325   4.319   4.112   4.236
    1C        C  326   4.183   4.281   4.351
    1C        C  327   4.283   4.182   4.354
    1C        C  328   4.132   4.333   4.473
    1C        C  329   4.185   4.288   4.596
    1C        C  330   4.022   4.430   4.711
    1C        C  331   4.138   4.348   4.715
    1C        C  332   3.966   4.482   4.830
    1C        C  333   4.051   4.480   4.942
    1C        C  334   4.550   3.264   2.060
    1C        C  335   4.530   3.126   2.062
    1C        C  336   4.540   3.345   2.174
    1C        C  337   4.519   3.279   2.297
    1C        C  338   4.527   3.494   2.409
    1C        C  339   4.523   3.353   2.416
    1C        C  340   4.525   3.567   2.530
    1C        C  341   4.521   3.499   2.654
    1C        C  342   4.492   3.707   2.771
    1C        C  343   4.515   3.568   2.777
    1C        C  344   4.479   3.777   2.893
    1C        C  345   4.489   3.710   3.016
    1C        C  346   4.418   3.912   3.137
    1C        C  347   4.466   3.779   3.138
    1C        C  348   4.390   3.980   3.257
    1C        C  349   4.429   3.921   3.380
    1C        C  350   4.316   4.102   3.502
    1C        C  351   4.397   3.986   3.501
    1C        C  352   4.271   4.159   3.624
    1C        C  353   4.314   4.101   3.745
    1C        C  354   4.180   4.266   3.867
    1C        C  355   4.277   4.164   3.866
    1C        C  356   4.120   4.311   3.987
    1C        C  357   4.175   4.267   4.109
    1C        C  358   4.008   4.400   4.231
    1C        C  359   4.127   4.325   4.229
    1C        C  360   3.951   4.448   4.352
    1C        C  361   4.020   4.418   4.472
    1C        C  362   3.825   4.511   4.589
    1C        C  363   3.957   4.462   4.590
    1C        C  364   3.764   4.547   4.712
    1C        C  365   3.838   4.540   4.832
    1C        C  366   3.627   4.583   4.946
    1C        C  367   3.766   4.578   4.946
    1C        C  368   4.503   3.559   2.050
    1C        C  369   4.524   3.485   2.167
    1C        C  370   4.500   3.702   2.285
    1C        C  371   4.521   3.562   2.285
    1C        C  372   4.478   3.774   2.404
    1C        C  373   4.496   3.705   2.526
    1C        C  374   4.422   3.906   2.647
    1C        C  375   4.473   3.774   2.648
    1C        C  376   4.394   3.972   2.769
    1C        C  377   4.431   3.910   2.890
    1C        C  378   4.316   4.091   3.011
    1C        C  379   4.393   3.972   3.012
    1C        C  380   4.268   4.150   3.131
    1C        C  381   4.311   4.097   3.255
    1C        C  382   4.172   4.253   3.376
    1C        C  383   4.272   4.153   3.378
    1C        C  384   4.119   4.301   3.498
    1C        C  385   4.174   4.261   3.622
    1C        C  386   4.007   4.389   3.742
    1C        C  387   4.124   4.310   3.745
    1C        C  388   3.941   4.427   3.862
    1C        C  389   4.001   4.386   3.983
    1C        C  390   3.817   4.484   4.106
    1C        C  391   3.947   4.428   4.107
    1C        C  392   3.748   4.511   4.226
    1C        C  393   3.821   4.502   4.346
    1C        C  394   3.614   4.545   4.474
    1C        C  395   3.754   4.525   4.468
    1C        C  396   3.544   4.563   4.595
    1C        C  397   3.624   4.565   4.711
    1C        C  398   3.409   4.552   4.837
    1C        C  399   3.549   4.571   4.831
    1C        C  400   3.340   4.518   4.954
    1C        C  401   4.498   3.698   2.050
    1C        C  402   4.450   3.913   2.163
    1C        C  403   4.487   3.776   2.165
    1C        C  404   4.407   3.974   2.282
    1C        C  405   4.430   3.907   2.405
    1C        C  406   4.323   4.092   2.522
    1C        C  407   4.398   3.973   2.525
    1C        C  408   4.273   4.143   2.643
    1C        C  409   4.306   4.082   2.767
    1C        C  410   4.172   4.245   2.885
    1C        C  411   4.271   4.144   2.889
    1C        C  412   4.122   4.298   3.006
    1C        C  413   4.172   4.253   3.131
    1C        C  414   4.004   4.380   3.252
    1C        C  415   4.121   4.302   3.253
    1C        C  416   3.940   4.415   3.373
    1C        C  417   4.002   4.381   3.495
    1C        C  418   3.815   4.475   3.617
    1C        C  419   3.945   4.420   3.619
    1C        C  420   3.746   4.503   3.737
    1C        C  421   3.813   4.485   3.861
    1C        C  422   3.611   4.539   3.985
    1C        C  423   3.750   4.511   3.984
    1C        C  424   3.540   4.545   4.107
    1C        C  425   3.609   4.540   4.229
    1C        C  426   3.400   4.544   4.353
    1C        C  427   3.541   4.550   4.353
    1C        C  428   3.331   4.543   4.476
    1C        C  429   3.403   4.557   4.597
    1C        C  430   3.192   4.519   4.722
    1C        C  431   3.331   4.549   4.719
    1C        C  432   3.123   4.494   4.843
    1C        C  433   3.203   4.496   4.958
    1C        C  434   4.385   4.122   2.049
    1C        C  435   4.444   3.995   2.050
    1C        C  436   4.305   4.163   2.161
    1C        C  437   4.331   4.093   2.282
    1C        C  438   4.180   4.251   2.398
    1C        C  439   4.278   4.149   2.400
    1C        C  440   4.126   4.296   2.520
    1C        C  441   4.178   4.248   2.642
    1C        C  442   3.999   4.367   2.763
    1C        C  443   4.119   4.292   2.763
    1C        C  444   3.939   4.406   2.885
    1C        C  445   4.005   4.376   3.006
    1C        C  446   3.814   4.470   3.126
    1C        C  447   3.942   4.411   3.129
    1C        C  448   3.748   4.492   3.250
    1C        C  449   3.811   4.474   3.375
    1C        C  450   3.606   4.524   3.494
    1C        C  451   3.744   4.498   3.497
    1C        C  452   3.540   4.537   3.618
    1C        C  453   3.609   4.537   3.741
    1C        C  454   3.397   4.540   3.862
    1C        C  455   3.539   4.546   3.864
    1C        C  456   3.328   4.532   3.985
    1C        C  457   3.399   4.539   4.108
    1C        C  458   3.192   4.507   4.234
    1C        C  459   3.329   4.539   4.231
    1C        C  460   3.127   4.487   4.357
    1C        C  461   3.194   4.509   4.479
    1C        C  462   2.996   4.432   4.601
    1C        C  463   3.125   4.490   4.601
    1C        C  464   2.930   4.399   4.721
    1C        C  465   2.990   4.439   4.844
    1C        C  466   2.798   4.338   4.958
    1C        C  467   2.905   4.428   4.958
    1C        C  468   4.119   4.282   2.041
    1C        C  469   4.188   4.245   2.157
    1C        C  470   4.007   4.373   2.277
    1C        C  471   4.126   4.295   2.275
    1C        C  472   3.939   4.399   2.398
    1C        C  473   4.004   4.368   2.520
    1C        C  474   3.811   4.463   2.643
    1C        C  475   3.938   4.402   2.640
    1C        C  476   3.745   4.491   2.765
    1C        C  477   3.815   4.472   2.887
    1C        C  478   3.605   4.518   3.009
    1C        C  479   3.745   4.498   3.007
    1C        C  480   3.536   4.529   3.132
    1C        C  481   3.609   4.517   3.252
    1C        C  482   3.394   4.534   3.376
    1C        C  483   3.535   4.532   3.372
    1C        C  484   3.324   4.535   3.499
    1C        C  485   3.399   4.543   3.619
    1C        C  486   3.191   4.496   3.744
    1C        C  487   3.327   4.533   3.740
    1C        C  488   3.125   4.475   3.867
    1C        C  489   3.191   4.499   3.990
    1C        C  490   2.998   4.418   4.114
    1C        C  491   3.123   4.484   4.113
    1C        C  492   2.942   4.381   4.238
    1C        C  493   3.001   4.422   4.360
    1C        C  494   2.826   4.301   4.480
    1C        C  495   2.934   4.391   4.481
    1C        C  496   2.778   4.250   4.603
    1C        C  497   2.822   4.308   4.725
    1C        C  498   2.662   4.165   4.842
    1C        C  499   2.749   4.276   4.842
    1C        C  500   2.594   4.117   4.955
    1C        C  501   4.002   4.358   2.038
    1C        C  502   3.816   4.462   2.154
    1C        C  503   3.947   4.411   2.155
    1C        C  504   3.744   4.477   2.275
    1C        C  505   3.809   4.454   2.398
    1C        C  506   3.605   4.506   2.519
    1C        C  507   3.743   4.479   2.520
    1C        C  508   3.534   4.520   2.641
    1C        C  509   3.606   4.514   2.762
    1C        C  510   3.396   4.525   2.886
    1C        C  511   3.537   4.521   2.885
    1C        C  512   3.323   4.525   3.007
    1C        C  513   3.395   4.533   3.128
    1C        C  514   3.190   4.494   3.253
    1C        C  515   3.327   4.526   3.252
    1C        C  516   3.122   4.472   3.376
    1C        C  517   3.187   4.500   3.498
    1C        C  518   2.998   4.408   3.621
    1C        C  519   3.123   4.474   3.621
    1C        C  520   2.942   4.372   3.746
    1C        C  521   3.001   4.407   3.869
    1C        C  522   2.836   4.279   3.994
    1C        C  523   2.943   4.371   3.992
    1C        C  524   2.786   4.234   4.118
    1C        C  525   2.834   4.290   4.239
    1C        C  526   2.694   4.131   4.362
    1C        C  527   2.776   4.246   4.360
    1C        C  528   2.653   4.076   4.486
    1C        C  529   2.692   4.139   4.606
    1C        C  530   2.587   3.955   4.729
    1C        C  531   2.640   4.087   4.727
    1C        C  532   2.540   3.899   4.851
    1C        C  533   2.529   3.993   4.958
    1C        C  534   3.616   4.553   2.037
    1C        C  535   3.751   4.514   2.041
    1C        C  536   3.537   4.531   2.154
    1C        C  537   3.605   4.507   2.277
    1C        C  538   3.392   4.519   2.397
    1C        C  539   3.533   4.516   2.398
    1C        C  540   3.322   4.510   2.520
    1C        C  541   3.392   4.519   2.642
    1C        C  542   3.186   4.485   2.765
    1C        C  543   3.323   4.518   2.765
    1C        C  544   3.119   4.464   2.888
    1C        C  545   3.186   4.490   3.010
    1C        C  546   2.996   4.401   3.135
    1C        C  547   3.121   4.468   3.133
    1C        C  548   2.938   4.363   3.258
    1C        C  549   2.996   4.408   3.379
    1C        C  550   2.828   4.279   3.504
    1C        C  551   2.934   4.372   3.501
    1C        C  552   2.782   4.227   3.627
    1C        C  553   2.832   4.283   3.747
    1C        C  554   2.702   4.119   3.874
    1C        C  555   2.785   4.233   3.871
    1C        C  556   2.660   4.061   3.996
    1C        C  557   2.696   4.125   4.116
    1C        C  558   2.594   3.944   4.245
    1C        C  559   2.659   4.069   4.241
    1C        C  560   2.564   3.879   4.367
    1C        C  561   2.593   3.948   4.488
    1C        C  562   2.533   3.745   4.614
    1C        C  563   2.565   3.882   4.610
    1C        C  564   2.515   3.676   4.736
    1C        C  565   2.517   3.757   4.853
    1C        C  566   2.524   3.544   4.977
    1C        C  567   2.517   3.683   4.971
    1C        C  568   3.330   4.469   2.040
    1C        C  569   3.396   4.512   2.156
    1C        C  570   3.184   4.474   2.280
    1C        C  571   3.320   4.516   2.276
    1C        C  572   3.116   4.455   2.402
    1C        C  573   3.184   4.482   2.523
    1C        C  574   2.988   4.401   2.646
    1C        C  575   3.115   4.464   2.645
    1C        C  576   2.931   4.359   2.768
    1C        C  577   2.998   4.392   2.888
    1C        C  578   2.826   4.274   3.014
    1C        C  579   2.940   4.357   3.013
    1C        C  580   2.775   4.221   3.135
    1C        C  581   2.830   4.272   3.255
    1C        C  582   2.699   4.114   3.383
    1C        C  583   2.783   4.227   3.381
    1C        C  584   2.657   4.058   3.506
    1C        C  585   2.694   4.116   3.629
    1C        C  586   2.590   3.936   3.755
    1C        C  587   2.660   4.059   3.753
    1C        C  588   2.570   3.868   3.877
    1C        C  589   2.600   3.933   3.999
    1C        C  590   2.534   3.739   4.127
    1C        C  591   2.574   3.874   4.124
    1C        C  592   2.521   3.669   4.249
    1C        C  593   2.532   3.742   4.370
    1C        C  594   2.508   3.533   4.497
    1C        C  595   2.519   3.673   4.493
    1C        C  596   2.516   3.461   4.618
    1C        C  597   2.516   3.534   4.739
    1C        C  598   2.524   3.324   4.860
    1C        C  599   2.516   3.465   4.862
    1C        C  600   2.526   3.246   4.976
    1C        C  601   3.197   4.433   2.042
    1C        C  602   2.982   4.396   2.158
    1C        C  603   3.119   4.437   2.159
    1C        C  604   2.926   4.359   2.283
    1C        C  605   2.989   4.391   2.405
    1C        C  606   2.812   4.276   2.529
    1C        C  607   2.927   4.358   2.527
    1C        C  608   2.763   4.225   2.652
    1C        C  609   2.820   4.271   2.772
    1C        C  610   2.685   4.110   2.894
    1C        C  611   2.769   4.223   2.895
    1C        C  612   2.645   4.055   3.018
    1C        C  613   2.686   4.112   3.141
    1C        C  614   2.596   3.923   3.266
    1C        C  615   2.651   4.053   3.265
    1C        C  616   2.574   3.861   3.391
    1C        C  617   2.593   3.932   3.511
    1C        C  618   2.525   3.732   3.636
    1C        C  619   2.560   3.869   3.634
    1C        C  620   2.513   3.663   3.759
    1C        C  621   2.529   3.733   3.880
    1C        C  622   2.514   3.527   4.009
    1C        C  623   2.521   3.668   4.005
    1C        C  624   2.519   3.455   4.131
    1C        C  625   2.513   3.528   4.252
    1C        C  626   2.537   3.321   4.373
    1C        C  627   2.509   3.460   4.376
    1C        C  628   2.556   3.254   4.496
    1C        C  629   2.539   3.321   4.619
    1C        C  630   2.597   3.118   4.742
    1C        C  631   2.545   3.251   4.741
    1C        C  632   2.616   3.046   4.862
    1C        C  633   2.553   3.108   4.974
    1C        C  634   2.777   4.313   2.057
    1C        C  635   2.885   4.401   2.053
    1C        C  636   2.744   4.235   2.169
    1C        C  637   2.812   4.274   2.286
    1C        C  638   2.681   4.108   2.410
    1C        C  639   2.762   4.223   2.408
    1C        C  640   2.640   4.048   2.531
    1C        C  641   2.678   4.112   2.651
    1C        C  642   2.586   3.921   2.774
    1C        C  643   2.646   4.048   2.773
    1C        C  644   2.560   3.858   2.898
    1C        C  645   2.586   3.927   3.019
    1C        C  646   2.528   3.725   3.144
    1C        C  647   2.566   3.861   3.142
    1C        C  648   2.518   3.655   3.267
    1C        C  649   2.533   3.726   3.388
    1C        C  650   2.510   3.521   3.515
    1C        C  651   2.519   3.662   3.513
    1C        C  652   2.514   3.455   3.640
    1C        C  653   2.509   3.522   3.764
    1C        C  654   2.532   3.314   3.888
    1C        C  655   2.509   3.454   3.888
    1C        C  656   2.548   3.244   4.009
    1C        C  657   2.532   3.315   4.131
    1C        C  658   2.607   3.117   4.255
    1C        C  659   2.552   3.247   4.254
    1C        C  660   2.637   3.056   4.379
    1C        C  661   2.603   3.121   4.499
    1C        C  662   2.709   2.937   4.624
    1C        C  663   2.630   3.054   4.621
    1C        C  664   2.744   2.871   4.744
    1C        C  665   2.692   2.924   4.865
    1C        C  666   2.746   2.872   4.983
    1C        C  667   2.675   4.029   2.053
    1C        C  668   2.679   4.110   2.167
    1C        C  669   2.588   3.915   2.290
    1C        C  670   2.643   4.046   2.288
    1C        C  671   2.560   3.848   2.411
    1C        C  672   2.584   3.918   2.531
    1C        C  673   2.523   3.715   2.657
    1C        C  674   2.560   3.852   2.654
    1C        C  675   2.513   3.648   2.781
    1C        C  676   2.526   3.721   2.901
    1C        C  677   2.506   3.511   3.026
    1C        C  678   2.515   3.652   3.024
    1C        C  679   2.510   3.444   3.151
    1C        C  680   2.508   3.514   3.274
    1C        C  681   2.527   3.305   3.402
    1C        C  682   2.504   3.445   3.397
    1C        C  683   2.550   3.242   3.526
    1C        C  684   2.534   3.315   3.645
    1C        C  685   2.602   3.113   3.768
    1C        C  686   2.548   3.244   3.767
    1C        C  687   2.636   3.053   3.891
    1C        C  688   2.597   3.111   4.014
    1C        C  689   2.709   2.930   4.138
    1C        C  690   2.629   3.047   4.135
    1C        C  691   2.751   2.875   4.261
    1C        C  692   2.713   2.937   4.382
    1C        C  693   2.754   2.877   4.504
    1C        C  694   2.622   3.899   2.054
    1C        C  695   2.523   3.708   2.175
    1C        C  696   2.573   3.840   2.171
    1C        C  697   2.504   3.638   2.296
    1C        C  698   2.522   3.712   2.415
    1C        C  699   2.491   3.503   2.541
    1C        C  700   2.506   3.643   2.537
    1C        C  701   2.498   3.431   2.663
    1C        C  702   2.503   3.507   2.782
    1C        C  703   2.523   3.299   2.912
    1C        C  704   2.504   3.438   2.905
    1C        C  705   2.537   3.228   3.034
    1C        C  706   2.531   3.305   3.153
    1C        C  707   2.601   3.111   3.279
    1C        C  708   2.547   3.241   3.278
    1C        C  709   2.635   3.047   3.401
    1C        C  710   2.601   3.110   3.523
    1C        C  711   2.714   2.933   3.647
    1C        C  712   2.632   3.048   3.646
    1C        C  713   2.757   2.879   3.770
    1C        C  714   2.715   2.936   3.892
    1C        C  715   2.756   2.880   4.015
    1C        C  716   2.453   3.497   2.058
    1C        C  717   2.492   3.632   2.062
    1C        C  718   2.463   3.422   2.179
    1C        C  719   2.487   3.497   2.298
    1C        C  720   2.513   3.289   2.422
    1C        C  721   2.485   3.427   2.421
    1C        C  722   2.532   3.221   2.544
    1C        C  723   2.517   3.291   2.666
    1C        C  724   2.590   3.097   2.788
    1C        C  725   2.540   3.229   2.790
    1C        C  726   2.618   3.036   2.912
    1C        C  727   2.588   3.096   3.036
    1C        C  728   2.706   2.924   3.156
    1C        C  729   2.622   3.038   3.160
    1C        C  730   2.752   2.872   3.279
    1C        C  731   2.711   2.928   3.402
    1C        C  732   2.756   2.875   3.525
    1C        C  733   2.497   3.198   2.070
    1C        C  734   2.482   3.280   2.183
    1C        C  735   2.585   3.087   2.304
    1C        C  736   2.521   3.215   2.302
    1C        C  737   2.612   3.021   2.426
    1C        C  738   2.579   3.088   2.546
    1C        C  739   2.694   2.908   2.670
    1C        C  740   2.619   3.028   2.668
    1C        C  741   2.739   2.859   2.794
    1C        C  742   2.699   2.920   2.915
    1C        C  743   2.753   2.869   3.035
    1C        C  744   2.548   3.068   2.071
    1C        C  745   2.686   2.897   2.185
    1C        C  746   2.608   3.015   2.185
    1C        C  747   2.725   2.836   2.306
    1C        C  748   2.684   2.900   2.425
    1C        C  749   2.739   2.854   2.547
    1C        C  750   2.729   2.832   2.069
    1C        C  751   3.659   2.321   1.969
    1C        O  752   3.643   2.198   1.988
    1C        O  753   3.697   2.358   1.839
    1C        C  754   4.632   3.060   1.977
    1C        O  755   4.612   3.043   1.854
    1C        O  756   4.769   3.065   2.007
    1C        C  757   4.448   4.223   1.960
    1C        O  758   4.571   4.244   1.970
    1C        O  759   4.410   4.215   1.826
    1C        C  760   3.571   4.627   1.917
    1C        O  761   3.644   4.726   1.887
    1C        O  762   3.533   4.562   1.800
    1C        C  763   2.856   4.527   1.981
    1C        O  764   2.808   4.519   1.864
    1C        O  765   2.826   4.637   2.062
    1C        C  766   2.349   3.465   1.958
    1C        O  767   2.369   3.437   1.837
    1C        O  768   2.218   3.497   1.994
    1C        C  769   4.671   3.604   5.075
    1C        O  770   4.621   3.588   5.189
    1C        O  771   4.804   3.562   5.066
    1C        C  772   4.270   4.441   5.043
    1C        O  773   4.261   4.421   5.167
    1C        O  774   4.344   4.557   5.016
    1C        C  775   4.137   2.492   5.055
    1C        O  776   4.166   2.372   5.032
    1C        O  777   4.205   2.531   5.171
    1C        C  778   2.884   4.549   5.042
    1C        O  779   2.782   4.620   5.025
    1C        O  780   2.928   4.541   5.174
    1C        C  781   2.470   3.035   5.073
    1C        O  782   2.354   3.008   5.033
    1C        O  783   2.477   3.074   5.206
    1C        C  784   2.400   3.998   5.030
    1C        O  785   2.295   3.941   4.988
    1C        O  786   2.380   4.027   5.165
    1C        C  787   2.943   2.421   2.014
    1C        O  788   2.942   2.407   1.889
    1C        O  789   2.882   2.314   2.078
    1C        C  790   3.180   2.362   5.043
    1C        O  791   3.174   2.250   4.985
    1C        O  792   3.181   2.352   5.183
    1C        H  793   4.285   3.030   5.055
    1C        H  794   4.167   2.813   5.069
    1C        H  795   4.530   3.128   5.044
    1C        H  796   4.512   3.371   5.072
    1C        H  797   4.565   3.816   5.043
    1C        H  798   4.438   3.985   5.050
    1C        H  799   4.281   4.163   5.051
    1C        H  800   4.043   4.565   5.006
    1C        H  801   3.819   4.616   5.031
    1C        H  802   3.581   4.619   5.036
    1C        H  803   3.389   4.456   5.027
    1C        H  804   3.155   4.490   5.054
    1C        H  805   3.865   2.550   5.065
    1C        H  806   3.660   2.519   5.074
    1C        H  807   3.004   2.553   5.066
    1C        H  808   3.439   2.414   5.063
    1C        H  809   2.912   2.781   5.069
    1C        H  810   2.742   2.933   5.071
    1C        H  811   2.560   3.285   5.070
    1C        H  812   2.514   3.496   5.072
    1C        H  813   2.547   3.733   5.061
    1C        H  814   2.541   4.196   5.004
    1C        H  815   2.761   4.304   5.052
    1C        H  816   2.651   2.814   1.997
    1C        H  817   2.858   2.684   1.980
    1C        H  818   3.211   2.460   1.981
    1C        H  819   3.428   2.447   1.974
    1C        H  820   3.862   2.487   1.972
    1C        H  821   4.075   2.608   1.969
    1C        H  822   4.276   2.701   1.991
    1C        H  823   4.350   2.943   1.973
    1C        H  824   4.526   3.309   1.966
    1C        H  825   4.521   3.517   1.953
    1C        H  826   4.533   3.745   1.960
    1C        H  827   3.794   4.500   1.944
    1C        H  828   3.952   4.370   1.944
    1C        H  829   4.130   4.225   1.951
    1C        H  830   4.454   3.953   1.952
    1C        H  831   2.588   3.871   1.956
    1C        H  832   2.736   4.057   1.969
    1C        H  833   2.700   4.315   1.983
    1C        H  834   3.369   4.475   1.941
    1C        H  835   3.160   4.395   1.949
    1C        H  836   2.521   3.005   1.988
    1C        H  837   2.447   3.229   1.981
    1C        H  838   2.487   3.683   1.968
    2V3OU   H29  839   2.814   3.547   0.679
    2V3OU   C27  840   2.780   3.495   0.772
    2V3OU   H27  841   2.724   3.570   0.832
    2V3OU   H28  842   2.728   3.397   0.761
    2V3OU   O11  843   2.905   3.476   0.840
    2V3OU   C15  844   2.913   3.394   0.951
    2V3OU   C13  845   3.045   3.378   1.000
    2V3OU   C14  846   3.072   3.270   1.084
    2V3OU   C16  847   2.967   3.187   1.122
    2V3OU    H6  848   2.992   3.098   1.182
    2V3OU   C12  849   3.211   3.227   1.112
    2V3OU    O2  850   3.232   3.120   1.172
    2V3OU   C10  851   3.324   3.305   1.059
    2V3OU    C8  852   3.456   3.268   1.083
    2V3OU   O10  853   3.486   3.156   1.154
    2V3OU   H26  854   3.398   3.117   1.165
    2V3OU    C6  855   3.562   3.349   1.033
    2V3OU    C5  856   3.534   3.468   0.967
    2V3OU    C4  857   3.700   3.293   1.032
    2V3OU    H4  858   3.719   3.224   1.119
    2V3OU    H5  859   3.712   3.231   0.938
    2V3OU    C2  860   3.815   3.393   1.038
    2V3OU    O6  861   3.799   3.466   1.160
    2V3OU   H21  862   3.764   3.555   1.143
    2V3OU    C3  863   3.781   3.493   0.927
    2V3OU    H2  864   3.864   3.569   0.926
    2V3OU    H3  865   3.778   3.438   0.829
    2V3OU   C25  866   3.951   3.324   1.021
    2V3OU    O7  867   3.993   3.292   0.910
    2V3OU   C26  868   4.024   3.285   1.148
    2V3OU   H22  869   4.074   3.374   1.195
    2V3OU   H23  870   4.114   3.223   1.121
    2V3OU    O8  871   3.959   3.206   1.245
    2V3OU   H24  872   3.919   3.265   1.311
    2V3OU    C1  873   3.648   3.563   0.944
    2V3OU    H1  874   3.626   3.621   0.849
    2V3OU    O3  875   3.660   3.654   1.054
    2V3OU   C19  876   3.618   3.789   1.033
    2V3OU    H9  877   3.519   3.792   0.979
    2V3OU    O4  878   3.717   3.847   0.950
    2V3OU   C20  879   3.840   3.874   1.017
    2V3OU   H10  880   3.894   3.774   1.014
    2V3OU   C24  881   3.607   3.847   1.174
    2V3OU   H16  882   3.538   3.785   1.238
    2V3OU   H17  883   3.562   3.948   1.161
    2V3OU   C23  884   3.744   3.869   1.238
    2V3OU   H15  885   3.785   3.766   1.262
    2V3OU    N1  886   3.733   3.945   1.361
    2V3OU   H19  887   3.808   3.919   1.421
    2V3OU   H20  888   3.643   3.926   1.400
    2V3OU   C21  889   3.845   3.949   1.150
    2V3OU   H11  890   3.948   3.924   1.189
    2V3OU    O5  891   3.829   4.090   1.153
    2V3OU   H18  892   3.781   4.105   1.236
    2V3OU   C22  893   3.908   3.950   0.903
    2V3OU   H12  894   3.859   4.049   0.887
    2V3OU   H13  895   3.898   3.893   0.807
    2V3OU   H14  896   4.017   3.959   0.924
    2V3OU   C11  897   3.154   3.465   0.956
    2V3OU    O1  898   3.131   3.586   0.932
    2V3OU    C9  899   3.293   3.424   0.989
    2V3OU    C7  900   3.397   3.502   0.940
    2V3OU    O9  901   3.387   3.613   0.859
    2V3OU   H25  902   3.292   3.630   0.858
    2V3OU   C17  903   2.808   3.312   0.995
    2V3OU    H7  904   2.706   3.342   0.969
    2V3OU   C18  905   2.836   3.205   1.078
    2V3OU    H8  906   2.759   3.136   1.116
    3SOL     OW  907   0.687   4.508   1.051
    3SOL    HW1  908   0.600   4.483   1.093
    3SOL    HW2  909   0.706   4.605   1.070
    4SOL     OW  910   6.342   1.568   2.057
    4SOL    HW1  911   6.245   1.551   2.040
    4SOL    HW2  912   6.390   1.579   1.970
    5SOL     OW  913   3.647   2.993   0.991
    5SOL    HW1  914   3.595   3.002   0.906
    5SOL    HW2  915   3.617   3.064   1.055
    6SOL     OW  916   3.202   2.046   0.337
    6SOL    HW1  917   3.106   2.018   0.334
    6SOL    HW2  918   3.244   2.033   0.247
    7SOL     OW  919   5.760   0.998   1.839
    7SOL    HW1  920   5.749   0.899   1.839
    7SOL    HW2  921   5.705   1.037   1.913
    8SOL     OW  922   3.065   1.996   3.305
    8SOL    HW1  923   3.067   2.093   3.282
    8SOL    HW2  924   3.156   1.966   3.332
    9SOL     OW  925   6.262   4.265   6.681
    9SOL    HW1  926   6.270   4.357   6.718
    9SOL    HW2  927   6.173   4.255   6.635
   10SOL     OW  928   0.173   4.393   1.675
   10SOL    HW1  929   0.194   4.473   1.730
   10SOL    HW2  930   0.180   4.416   1.578
   11SOL     OW  931   3.931   6.634   6.823
   11SOL    HW1  932   4.022   6.642   6.864
   11SOL    HW2  933   3.896   6.541   6.838
   12SOL     OW  934   5.682   6.872   2.346
   12SOL    HW1  935   5.666   6.883   2.248
   12SOL    HW2  936   5.607   6.820   2.387
   13SOL     OW  937   2.317   6.782   2.567
   13SOL    HW1  938   2.281   6.791   2.474
   13SOL    HW2  939   2.292   6.693   2.604
   14SOL     OW  940   2.818   0.269   3.142
   14SOL    HW1  941   2.847   0.250   3.236
   14SOL    HW2  942   2.880   0.335   3.100
   15SOL     OW  943   2.656   6.829   6.011
   15SOL    HW1  944   2.705   6.807   6.096
   15SOL    HW2  945   2.587   6.759   5.993
   16SOL     OW  946   6.436   2.391   0.594
   16SOL    HW1  947   6.463   2.470   0.538
   16SOL    HW2  948   6.347   2.358   0.564
   17SOL     OW  949   4.000   5.541   3.617
   17SOL    HW1  950   4.045   5.459   3.652
   17SOL    HW2  951   4.062   5.619   3.626
   18SOL     OW  952   1.506   0.414   6.954
   18SOL    HW1  953   1.576   0.400   0.004
   18SOL    HW2  954   1.427   0.459   6.995
   19SOL     OW  955   0.520   6.654   0.917
   19SOL    HW1  956   0.489   6.695   1.002
   19SOL    HW2  957   0.508   6.718   0.842
   20SOL     OW  958   3.419   0.299   4.398
   20SOL    HW1  959   3.507   0.342   4.420
   20SOL    HW2  960   3.345   0.358   4.428
   21SOL     OW  961   2.948   2.892   1.328
   21SOL    HW1  962   2.899   2.874   1.413
   21SOL    HW2  963   3.020   2.823   1.316
   22SOL     OW  964   1.470   0.896   5.424
   22SOL    HW1  965   1.410   0.975   5.421
   22SOL    HW2  966   1.549   0.915   5.482
   23SOL     OW  967   2.654   6.503   4.599
   23SOL    HW1  968   2.628   6.414   4.637
   23SOL    HW2  969   2.751   6.520   4.616
   24SOL     OW  970   4.802   1.471   4.926
   24SOL    HW1  971   4.733   1.542   4.907
   24SOL    HW2  972   4.853   1.451   4.842
   25SOL     OW  973   2.607   6.160   0.954
   25SOL    HW1  974   2.627   6.253   0.926
   25SOL    HW2  975   2.512   6.154   0.985
   26SOL     OW  976   5.783   1.215   2.875
   26SOL    HW1  977   5.733   1.228   2.961
   26SOL    HW2  978   5.881   1.227   2.891
   27SOL     OW  979   5.942   0.111   2.628
   27SOL    HW1  980   5.888   0.192   2.610
   27SOL    HW2  981   6.017   0.105   2.562
   28SOL     OW  982   2.896   1.062   0.136
   28SOL    HW1  983   2.966   0.995   0.111
   28SOL    HW2  984   2.888   1.066   0.236
   29SOL     OW  985   4.812   2.998   1.677
   29SOL    HW1  986   4.727   3.012   1.727
   29SOL    HW2  987   4.883   2.966   1.739
   30SOL     OW  988   4.196   1.402   6.237
   30SOL    HW1  989   4.147   1.373   6.319
   30SOL    HW2  990   4.236   1.322   6.192
   31SOL     OW  991   0.941   1.764   5.376
   31SOL    HW1  992   1.027   1.785   5.329
   31SOL    HW2  993   0.877   1.840   5.365
   32SOL     OW  994   6.596   1.759   2.208
   32SOL    HW1  995   6.610   1.806   2.121
   32SOL    HW2  996   6.505   1.780   2.243
   33SOL     OW  997   1.553   1.113   5.019
   33SOL    HW1  998   1.461   1.135   4.988
   33SOL    HW2  999   1.602   1.198   5.040
   34SOL     OW 1000   0.730   0.574   5.115
   34SOL    HW1 1001   0.802   0.555   5.182
   34SOL    HW2 1002   0.711   0.490   5.064
   35SOL     OW 1003   4.727   2.366   6.211
   35SOL    HW1 1004   4.814   2.408   6.236
   35SOL    HW2 1005   4.693   2.313   6.289
   36SOL     OW 1006   0.939   2.463   6.054
   36SOL    HW1 1007   1.025   2.453   6.003
   36SOL    HW2 1008   0.862   2.451   5.991
   37SOL     OW 1009   3.317   6.527   1.817
   37SOL    HW1 1010   3.349   6.611   1.861
   37SOL    HW2 1011   3.225   6.505   1.852
   38SOL     OW 1012   6.607   5.782   1.893
   38SOL    HW1 1013   6.513   5.787   1.858
   38SOL    HW2 1014   6.663   5.851   1.847
   39SOL     OW 1015   6.979   2.561   6.597
   39SOL    HW1 1016   0.011   2.646   6.597
   39SOL    HW2 1017   6.947   2.542   6.503
   40SOL     OW 1018   0.204   1.656   1.844
   40SOL    HW1 1019   0.121   1.707   1.865
   40SOL    HW2 1020   0.182   1.560   1.829
   41SOL     OW 1021   0.651   1.310   6.354
   41SOL    HW1 1022   0.713   1.364   6.411
   41SOL    HW2 1023   0.618   1.231   6.405
   42SOL     OW 1024   3.822   6.968   0.715
   42SOL    HW1 1025   3.874   6.892   0.755
   42SOL    HW2 1026   3.837   6.970   0.616
   43SOL     OW 1027   4.559   5.608   5.183
   43SOL    HW1 1028   4.507   5.678   5.134
   43SOL    HW2 1029   4.511   5.585   5.268
   44SOL     OW 1030   0.835   4.506   6.644
   44SOL    HW1 1031   0.804   4.412   6.632
   44SOL    HW2 1032   0.855   4.546   6.555
   45SOL     OW 1033   2.754   0.166   1.009
   45SOL    HW1 1034   2.848   0.188   0.982
   45SOL    HW2 1035   2.751   0.071   1.042
   46SOL     OW 1036   0.582   5.614   3.740
   46SOL    HW1 1037   0.492   5.576   3.720
   46SOL    HW2 1038   0.642   5.603   3.661
   47SOL     OW 1039   6.559   4.326   2.724
   47SOL    HW1 1040   6.597   4.333   2.631
   47SOL    HW2 1041   6.536   4.231   2.743
   48SOL     OW 1042   0.684   1.624   5.338
   48SOL    HW1 1043   0.766   1.681   5.351
   48SOL    HW2 1044   0.612   1.679   5.295
   49SOL     OW 1045   5.684   3.314   0.115
   49SOL    HW1 1046   5.649   3.236   0.063
   49SOL    HW2 1047   5.762   3.286   0.170
   50SOL     OW 1048   0.633   3.965   4.714
   50SOL    HW1 1049   0.710   4.022   4.744
   50SOL    HW2 1050   0.667   3.891   4.656
   51SOL     OW 1051   2.986   6.078   2.092
   51SOL    HW1 1052   3.008   5.983   2.115
   51SOL    HW2 1053   2.918   6.079   2.018
   52SOL     OW 1054   0.380   2.166   2.172
   52SOL    HW1 1055   0.477   2.145   2.164
   52SOL    HW2 1056   0.369   2.256   2.214
   53SOL     OW 1057   4.684   6.806   3.997
   53SOL    HW1 1058   4.644   6.877   3.939
   53SOL    HW2 1059   4.638   6.805   4.085
   54SOL     OW 1060   4.468   4.696   5.614
   54SOL    HW1 1061   4.456   4.792   5.586
   54SOL    HW2 1062   4.458   4.637   5.534
   55SOL     OW 1063   3.818   2.304   1.301
   55SOL    HW1 1064   3.884   2.341   1.367
   55SOL    HW2 1065   3.762   2.379   1.265
   56SOL     OW 1066   0.274   0.716   1.931
   56SOL    HW1 1067   0.196   0.688   1.987
   56SOL    HW2 1068   0.359   0.692   1.978
   57SOL     OW 1069   5.297   0.688   0.159
   57SOL    HW1 1070   5.250   0.747   0.093
   57SOL    HW2 1071   5.396   0.701   0.150
   58SOL     OW 1072   6.818   0.517   0.055
   58SOL    HW1 1073   6.887   0.587   0.035
   58SOL    HW2 1074   6.727   0.559   0.053
   59SOL     OW 1075   0.077   6.803   5.763
   59SOL    HW1 1076   7.011   6.793   5.714
   59SOL    HW2 1077   0.131   6.720   5.754
   60SOL     OW 1078   4.876   6.897   5.133
   60SOL    HW1 1079   4.819   6.879   5.053
   60SOL    HW2 1080   4.830   6.965   5.191
   61SOL     OW 1081   3.510   6.932   5.498
   61SOL    HW1 1082   3.426   6.949   5.445
   61SOL    HW2 1083   3.585   6.911   5.435
   62SOL     OW 1084   2.647   7.018   4.682
   62SOL    HW1 1085   2.686   6.976   4.764
   62SOL    HW2 1086   2.594   6.950   4.632
   63SOL     OW 1087   6.840   2.950   4.021
   63SOL    HW1 1088   6.897   2.950   3.939
   63SOL    HW2 1089   6.778   2.871   4.018
   64SOL     OW 1090   6.815   2.463   5.331
   64SOL    HW1 1091   6.809   2.562   5.344
   64SOL    HW2 1092   6.911   2.435   5.322
   65SOL     OW 1093   1.323   4.248   5.634
   65SOL    HW1 1094   1.255   4.203   5.577
   65SOL    HW2 1095   1.322   4.346   5.616
   66SOL     OW 1096   2.591   0.917   1.438
   66SOL    HW1 1097   2.503   0.949   1.404
   66SOL    HW2 1098   2.653   0.901   1.361
   67SOL     OW 1099   4.499   5.145   4.229
   67SOL    HW1 1100   4.500   5.081   4.152
   67SOL    HW2 1101   4.455   5.102   4.308
   68SOL     OW 1102   5.170   2.881   6.880
   68SOL    HW1 1103   5.123   2.812   6.934
   68SOL    HW2 1104   5.137   2.878   6.786
   69SOL     OW 1105   2.349   3.110   5.523
   69SOL    HW1 1106   2.347   3.209   5.507
   69SOL    HW2 1107   2.375   3.063   5.439
   70SOL     OW 1108   5.867   0.824   2.635
   70SOL    HW1 1109   5.771   0.838   2.656
   70SOL    HW2 1110   5.924   0.871   2.703
   71SOL     OW 1111   1.923   4.453   1.940
   71SOL    HW1 1112   1.933   4.476   2.037
   71SOL    HW2 1113   1.971   4.520   1.884
   72SOL     OW 1114   4.229   5.392   3.960
   72SOL    HW1 1115   4.325   5.388   3.931
   72SOL    HW2 1116   4.178   5.317   3.918
   73SOL     OW 1117   3.152   2.860   6.842
   73SOL    HW1 1118   3.198   2.890   6.925
   73SOL    HW2 1119   3.053   2.867   6.854
   74SOL     OW 1120   4.888   0.147   5.995
   74SOL    HW1 1121   4.808   0.086   6.000
   74SOL    HW2 1122   4.885   0.212   6.071
   75SOL     OW 1123   3.728   5.482   5.750
   75SOL    HW1 1124   3.751   5.561   5.693
   75SOL    HW2 1125   3.736   5.398   5.696
   76SOL     OW 1126   2.735   2.845   0.832
   76SOL    HW1 1127   2.764   2.858   0.927
   76SOL    HW2 1128   2.736   2.747   0.810
   77SOL     OW 1129   5.826   3.918   6.553
   77SOL    HW1 1130   5.780   4.003   6.525
   77SOL    HW2 1131   5.835   3.857   6.474
   78SOL     OW 1132   6.103   0.308   5.579
   78SOL    HW1 1133   6.149   0.270   5.659
   78SOL    HW2 1134   6.005   0.318   5.597
   79SOL     OW 1135   3.549   6.540   0.613
   79SOL    HW1 1136   3.647   6.523   0.625
   79SOL    HW2 1137   3.511   6.579   0.697
   80SOL     OW 1138   0.368   1.102   4.143
   80SOL    HW1 1139   0.360   1.017   4.195
   80SOL    HW2 1140   0.280   1.150   4.142
   81SOL     OW 1141   1.761   6.025   2.547
   81SOL    HW1 1142   1.793   6.082   2.623
   81SOL    HW2 1143   1.760   6.078   2.463
   82SOL     OW 1144   6.413   4.369   5.808
   82SOL    HW1 1145   6.500   4.334   5.773
   82SOL    HW2 1146   6.396   4.459   5.767
   83SOL     OW 1147   5.701   0.065   5.700
   83SOL    HW1 1148   5.748   0.026   5.621
   83SOL    HW2 1149   5.603   0.075   5.679
   84SOL     OW 1150   6.680   3.297   2.056
   84SOL    HW1 1151   6.746   3.240   2.006
   84SOL    HW2 1152   6.589   3.257   2.048
   85SOL     OW 1153   1.292   1.394   5.043
   85SOL    HW1 1154   1.287   1.333   4.964
   85SOL    HW2 1155   1.348   1.353   5.114
   86SOL     OW 1156   2.136   0.791   4.652
   86SOL    HW1 1157   2.202   0.866   4.653
   86SOL    HW2 1158   2.046   0.825   4.681
   87SOL     OW 1159   4.505   6.945   2.161
   87SOL    HW1 1160   4.409   6.954   2.185
   87SOL    HW2 1161   4.520   6.856   2.117
   88SOL     OW 1162   5.783   0.839   1.436
   88SOL    HW1 1163   5.855   0.785   1.392
   88SOL    HW2 1164   5.745   0.789   1.513
   89SOL     OW 1165   2.166   1.938   5.115
   89SOL    HW1 1166   2.130   1.936   5.022
   89SOL    HW2 1167   2.157   1.847   5.156
   90SOL     OW 1168   5.942   5.925   3.688
   90SOL    HW1 1169   5.870   5.987   3.657
   90SOL    HW2 1170   6.027   5.946   3.639
   91SOL     OW 1171   4.986   4.980   4.406
   91SOL    HW1 1172   4.937   5.066   4.391
   91SOL    HW2 1173   4.921   4.911   4.440
   92SOL     OW 1174   3.748   5.858   1.217
   92SOL    HW1 1175   3.665   5.867   1.163
   92SOL    HW2 1176   3.828   5.869   1.158
   93SOL     OW 1177   2.811   5.176   6.053
   93SOL    HW1 1178   2.813   5.210   5.959
   93SOL    HW2 1179   2.879   5.103   6.064
   94SOL     OW 1180   1.794   6.670   2.021
   94SOL    HW1 1181   1.696   6.689   2.016
   94SOL    HW2 1182   1.826   6.631   1.935
   95SOL     OW 1183   0.198   6.835   4.382
   95SOL    HW1 1184   0.188   6.900   4.306
   95SOL    HW2 1185   0.107   6.812   4.418
   96SOL     OW 1186   1.760   6.416   4.411
   96SOL    HW1 1187   1.839   6.370   4.371
   96SOL    HW2 1188   1.769   6.515   4.398
   97SOL     OW 1189   6.344   2.659   4.164
   97SOL    HW1 1190   6.321   2.627   4.072
   97SOL    HW2 1191   6.430   2.618   4.193
   98SOL     OW 1192   4.715   0.806   5.329
   98SOL    HW1 1193   4.672   0.882   5.280
   98SOL    HW2 1194   4.665   0.721   5.311
   99SOL     OW 1195   4.749   0.801   0.750
   99SOL    HW1 1196   4.845   0.777   0.766
   99SOL    HW2 1197   4.690   0.733   0.796
  100SOL     OW 1198   6.634   5.839   0.480
  100SOL    HW1 1199   6.559   5.855   0.416
  100SOL    HW2 1200   6.656   5.742   0.482
  101SOL     OW 1201   1.722   6.923   3.831
  101SOL    HW1 1202   1.650   6.988   3.857
  101SOL    HW2 1203   1.808   6.950   3.875
  102SOL     OW 1204   4.672   0.497   2.656
  102SOL    HW1 1205   4.745   0.471   2.720
  102SOL    HW2 1206   4.660   0.596   2.658
  103SOL     OW 1207   4.184   1.610   2.563
  103SOL    HW1 1208   4.141   1.692   2.603
  103SOL    HW2 1209   4.165   1.531   2.622
  104SOL     OW 1210   6.067   6.209   2.251
  104SOL    HW1 1211   6.062   6.215   2.350
  104SOL    HW2 1212   6.118   6.288   2.216
  105SOL     OW 1213   5.824   0.977   6.182
  105SOL    HW1 1214   5.827   1.009   6.087
  105SOL    HW2 1215   5.730   0.954   6.207
  106SOL     OW 1216   3.585   6.844   1.061
  106SOL    HW1 1217   3.633   6.797   1.135
  106SOL    HW2 1218   3.505   6.891   1.098
  107SOL     OW 1219   2.552   3.434   0.006
  107SOL    HW1 1220   2.623   3.424   0.076
  107SOL    HW2 1221   2.479   3.367   0.022
  108SOL     OW 1222   4.601   4.024   5.371
  108SOL    HW1 1223   4.631   3.931   5.388
  108SOL    HW2 1224   4.508   4.036   5.405
  109SOL     OW 1225   5.931   0.627   2.096
  109SOL    HW1 1226   5.845   0.663   2.061
  109SOL    HW2 1227   6.000   0.700   2.100
  110SOL     OW 1228   3.574   6.367   4.300
  110SOL    HW1 1229   3.577   6.277   4.258
  110SOL    HW2 1230   3.641   6.427   4.255
  111SOL     OW 1231   3.206   1.213   3.193
  111SOL    HW1 1232   3.175   1.238   3.102
  111SOL    HW2 1233   3.184   1.117   3.211
  112SOL     OW 1234   6.971   1.865   6.553
  112SOL    HW1 1235   6.948   1.825   6.464
  112SOL    HW2 1236   6.938   1.804   6.625
  113SOL     OW 1237   6.755   6.688   3.760
  113SOL    HW1 1238   6.658   6.706   3.773
  113SOL    HW2 1239   6.776   6.595   3.791
  114SOL     OW 1240   1.418   6.226   0.342
  114SOL    HW1 1241   1.319   6.211   0.336
  114SOL    HW2 1242   1.460   6.147   0.386
  115SOL     OW 1243   5.329   1.136   5.713
  115SOL    HW1 1244   5.307   1.092   5.626
  115SOL    HW2 1245   5.254   1.121   5.777
  116SOL     OW 1246   6.355   4.077   2.974
  116SOL    HW1 1247   6.395   4.167   2.993
  116SOL    HW2 1248   6.314   4.077   2.883
  117SOL     OW 1249   0.736   6.812   6.275
  117SOL    HW1 1250   0.758   6.815   6.372
  117SOL    HW2 1251   0.683   6.894   6.251
  118SOL     OW 1252   2.377   1.308   3.249
  118SOL    HW1 1253   2.458   1.279   3.301
  118SOL    HW2 1254   2.295   1.286   3.302
  119SOL     OW 1255   6.537   2.158   6.563
  119SOL    HW1 1256   6.496   2.145   6.653
  119SOL    HW2 1257   6.571   2.252   6.556
  120SOL     OW 1258   4.401   6.070   1.518
  120SOL    HW1 1259   4.468   6.140   1.544
  120SOL    HW2 1260   4.401   6.060   1.418
  121SOL     OW 1261   2.449   2.889   5.992
  121SOL    HW1 1262   2.545   2.867   6.010
  121SOL    HW2 1263   2.391   2.844   6.060
  122SOL     OW 1264   1.335   3.379   4.985
  122SOL    HW1 1265   1.366   3.354   4.893
  122SOL    HW2 1266   1.365   3.472   5.006
  123SOL     OW 1267   6.506   1.361   1.937
  123SOL    HW1 1268   6.575   1.408   1.992
  123SOL    HW2 1269   6.546   1.281   1.895
  124SOL     OW 1270   5.270   3.867   1.279
  124SOL    HW1 1271   5.220   3.783   1.259
  124SOL    HW2 1272   5.261   3.888   1.377
  125SOL     OW 1273   2.391   3.616   1.561
  125SOL    HW1 1274   2.429   3.707   1.575
  125SOL    HW2 1275   2.399   3.563   1.646
  126SOL     OW 1276   3.806   4.578   0.342
  126SOL    HW1 1277   3.779   4.591   0.247
  126SOL    HW2 1278   3.906   4.587   0.350
  127SOL     OW 1279   0.794   5.902   5.727
  127SOL    HW1 1280   0.728   5.832   5.752
  127SOL    HW2 1281   0.785   5.923   5.629
  128SOL     OW 1282   5.104   2.415   0.407
  128SOL    HW1 1283   5.084   2.447   0.315
  128SOL    HW2 1284   5.200   2.389   0.413
  129SOL     OW 1285   2.717   3.761   6.961
  129SOL    HW1 1286   2.736   3.784   0.036
  129SOL    HW2 1287   2.739   3.840   6.903
  130SOL     OW 1288   1.606   2.059   4.629
  130SOL    HW1 1289   1.530   2.037   4.568
  130SOL    HW2 1290   1.632   1.977   4.681
  131SOL     OW 1291   5.882   1.241   2.314
  131SOL    HW1 1292   5.872   1.206   2.221
  131SOL    HW2 1293   5.968   1.292   2.322
  132SOL     OW 1294   0.926   1.842   1.820
  132SOL    HW1 1295   0.928   1.941   1.831
  132SOL    HW2 1296   0.991   1.800   1.883
  133SOL     OW 1297   0.073   5.851   3.051
  133SOL    HW1 1298   0.091   5.824   3.146
  133SOL    HW2 1299   0.113   5.940   3.034
  134SOL     OW 1300   1.302   3.574   3.078
  134SOL    HW1 1301   1.361   3.500   3.046
  134SOL    HW2 1302   1.309   3.652   3.015
  135SOL     OW 1303   4.445   0.919   4.541
  135SOL    HW1 1304   4.395   0.933   4.627
  135SOL    HW2 1305   4.392   0.957   4.465
  136SOL     OW 1306   5.016   4.441   6.281
  136SOL    HW1 1307   4.936   4.454   6.340
  136SOL    HW2 1308   5.098   4.437   6.337
  137SOL     OW 1309   4.189   0.889   5.438
  137SOL    HW1 1310   4.094   0.884   5.406
  137SOL    HW2 1311   4.220   0.984   5.437
  138SOL     OW 1312   5.633   4.465   5.479
  138SOL    HW1 1313   5.672   4.556   5.498
  138SOL    HW2 1314   5.535   4.473   5.467
  139SOL     OW 1315   3.411   5.992   5.606
  139SOL    HW1 1316   3.352   6.073   5.607
  139SOL    HW2 1317   3.356   5.910   5.620
  140SOL     OW 1318   6.447   4.117   4.644
  140SOL    HW1 1319   6.408   4.152   4.559
  140SOL    HW2 1320   6.524   4.174   4.672
  141SOL     OW 1321   1.528   2.045   2.705
  141SOL    HW1 1322   1.511   2.113   2.634
  141SOL    HW2 1323   1.547   2.091   2.791
  142SOL     OW 1324   1.060   4.962   1.060
  142SOL    HW1 1325   1.146   4.955   1.111
  142SOL    HW2 1326   1.020   5.053   1.074
  143SOL     OW 1327   5.017   4.489   1.946
  143SOL    HW1 1328   4.986   4.434   1.868
  143SOL    HW2 1329   4.993   4.442   2.031
  144SOL     OW 1330   3.059   6.756   0.696
  144SOL    HW1 1331   3.084   6.663   0.722
  144SOL    HW2 1332   3.135   6.817   0.716
  145SOL     OW 1333   6.430   5.409   0.878
  145SOL    HW1 1334   6.396   5.503   0.871
  145SOL    HW2 1335   6.530   5.409   0.867
  146SOL     OW 1336   0.211   4.378   0.659
  146SOL    HW1 1337   0.269   4.314   0.610
  146SOL    HW2 1338   0.138   4.411   0.599
  147SOL     OW 1339   5.671   2.396   0.696
  147SOL    HW1 1340   5.592   2.361   0.746
  147SOL    HW2 1341   5.693   2.488   0.730
  148SOL     OW 1342   0.775   5.570   5.120
  148SOL    HW1 1343   0.714   5.548   5.044
  148SOL    HW2 1344   0.825   5.487   5.147
  149SOL     OW 1345   3.009   0.760   6.390
  149SOL    HW1 1346   2.925   0.783   6.440
  149SOL    HW2 1347   3.069   0.840   6.387
  150SOL     OW 1348   0.035   5.847   5.076
  150SOL    HW1 1349   0.025   5.752   5.105
  150SOL    HW2 1350   7.001   5.906   5.135
  151SOL     OW 1351   4.679   0.325   2.131
  151SOL    HW1 1352   4.630   0.377   2.201
  151SOL    HW2 1353   4.654   0.229   2.137
  152SOL     OW 1354   2.701   0.768   4.382
  152SOL    HW1 1355   2.650   0.829   4.443
  152SOL    HW2 1356   2.795   0.801   4.373
  153SOL     OW 1357   1.070   0.417   2.532
  153SOL    HW1 1358   1.088   0.321   2.556
  153SOL    HW2 1359   1.119   0.477   2.595
  154SOL     OW 1360   0.520   1.642   2.982
  154SOL    HW1 1361   0.567   1.716   2.934
  154SOL    HW2 1362   0.423   1.641   2.956
  155SOL     OW 1363   0.970   1.325   3.471
  155SOL    HW1 1364   0.916   1.271   3.535
  155SOL    HW2 1365   1.005   1.407   3.517
  156SOL     OW 1366   0.101   2.608   1.345
  156SOL    HW1 1367   0.030   2.626   1.414
  156SOL    HW2 1368   0.146   2.521   1.367
  157SOL     OW 1369   0.333   2.274   2.575
  157SOL    HW1 1370   0.335   2.374   2.569
  157SOL    HW2 1371   0.258   2.239   2.519
  158SOL     OW 1372   2.284   1.255   3.620
  158SOL    HW1 1373   2.339   1.172   3.630
  158SOL    HW2 1374   2.275   1.300   3.709
  159SOL     OW 1375   5.282   3.662   1.639
  159SOL    HW1 1376   5.191   3.621   1.643
  159SOL    HW2 1377   5.312   3.687   1.732
  160SOL     OW 1378   6.378   4.703   6.624
  160SOL    HW1 1379   6.353   4.754   6.542
  160SOL    HW2 1380   6.477   4.691   6.626
  161SOL     OW 1381   2.791   4.525   5.392
  161SOL    HW1 1382   2.843   4.534   5.307
  161SOL    HW2 1383   2.829   4.451   5.447
  162SOL     OW 1384   4.523   5.620   2.500
  162SOL    HW1 1385   4.530   5.532   2.547
  162SOL    HW2 1386   4.517   5.693   2.568
  163SOL     OW 1387   5.819   0.408   1.423
  163SOL    HW1 1388   5.763   0.325   1.433
  163SOL    HW2 1389   5.891   0.392   1.356
  164SOL     OW 1390   6.247   3.371   1.783
  164SOL    HW1 1391   6.324   3.425   1.816
  164SOL    HW2 1392   6.187   3.349   1.860
  165SOL     OW 1393   6.223   3.388   6.951
  165SOL    HW1 1394   6.124   3.373   6.944
  165SOL    HW2 1395   6.259   3.336   0.007
  166SOL     OW 1396   1.500   7.001   0.638
  166SOL    HW1 1397   1.405   6.978   0.658
  166SOL    HW2 1398   1.504   0.050   0.568
  167SOL     OW 1399   6.565   2.660   1.524
  167SOL    HW1 1400   6.479   2.611   1.536
  167SOL    HW2 1401   6.610   2.671   1.612
  168SOL     OW 1402   2.387   5.338   1.380
  168SOL    HW1 1403   2.452   5.288   1.437
  168SOL    HW2 1404   2.312   5.372   1.437
  169SOL     OW 1405   0.797   0.232   1.397
  169SOL    HW1 1406   0.827   0.310   1.342
  169SOL    HW2 1407   0.840   0.149   1.365
  170SOL     OW 1408   0.274   1.550   3.668
  170SOL    HW1 1409   0.325   1.474   3.709
  170SOL    HW2 1410   0.253   1.617   3.739
  171SOL     OW 1411   3.340   4.109   0.677
  171SOL    HW1 1412   3.346   4.171   0.756
  171SOL    HW2 1413   3.397   4.029   0.693
  172SOL     OW 1414   0.297   2.938   2.151
  172SOL    HW1 1415   0.381   2.984   2.120
  172SOL    HW2 1416   0.282   2.959   2.248
  173SOL     OW 1417   6.775   7.011   5.743
  173SOL    HW1 1418   6.730   7.015   5.832
  173SOL    HW2 1419   6.740   0.063   5.684
  174SOL     OW 1420   2.441   5.880   3.642
  174SOL    HW1 1421   2.386   5.963   3.642
  174SOL    HW2 1422   2.522   5.893   3.698
  175SOL     OW 1423   0.338   4.953   3.815
  175SOL    HW1 1424   0.428   4.993   3.796
  175SOL    HW2 1425   0.280   4.963   3.734
  176SOL     OW 1426   2.782   5.795   0.035
  176SOL    HW1 1427   2.823   5.828   6.971
  176SOL    HW2 1428   2.682   5.797   0.027
  177SOL     OW 1429   4.557   1.343   2.785
  177SOL    HW1 1430   4.582   1.282   2.709
  177SOL    HW2 1431   4.553   1.290   2.870
  178SOL     OW 1432   5.543   3.874   6.169
  178SOL    HW1 1433   5.640   3.861   6.149
  178SOL    HW2 1434   5.495   3.786   6.165
  179SOL     OW 1435   3.180   6.659   0.098
  179SOL    HW1 1436   3.273   6.696   0.099
  179SOL    HW2 1437   3.162   6.610   0.183
  180SOL     OW 1438   0.844   2.323   6.986
  180SOL    HW1 1439   0.911   2.283   0.028
  180SOL    HW2 1440   0.811   2.252   6.923
  181SOL     OW 1441   2.913   3.620   4.146
  181SOL    HW1 1442   3.005   3.657   4.159
  181SOL    HW2 1443   2.907   3.576   4.056
  182SOL     OW 1444   5.547   2.356   5.039
  182SOL    HW1 1445   5.522   2.401   4.953
  182SOL    HW2 1446   5.468   2.306   5.075
  183SOL     OW 1447   6.516   1.456   2.843
  183SOL    HW1 1448   6.575   1.537   2.846
  183SOL    HW2 1449   6.443   1.470   2.777
  184SOL     OW 1450   0.264   4.904   2.358
  184SOL    HW1 1451   0.282   4.856   2.443
  184SOL    HW2 1452   0.216   4.844   2.294
  185SOL     OW 1453   3.144   3.643   6.106
  185SOL    HW1 1454   3.141   3.544   6.090
  185SOL    HW2 1455   3.192   3.687   6.030
  186SOL     OW 1456   6.209   6.830   3.093
  186SOL    HW1 1457   6.297   6.877   3.087
  186SOL    HW2 1458   6.224   6.732   3.096
  187SOL     OW 1459   5.692   0.229   4.184
  187SOL    HW1 1460   5.760   0.290   4.142
  187SOL    HW2 1461   5.627   0.284   4.236
  188SOL     OW 1462   5.976   2.356   4.945
  188SOL    HW1 1463   5.900   2.369   5.009
  188SOL    HW2 1464   6.015   2.445   4.920
  189SOL     OW 1465   2.057   4.669   3.432
  189SOL    HW1 1466   2.135   4.673   3.495
  189SOL    HW2 1467   1.997   4.594   3.459
  190SOL     OW 1468   3.398   1.260   7.016
  190SOL    HW1 1469   3.428   1.171   6.982
  190SOL    HW2 1470   3.445   1.280   0.081
  191SOL     OW 1471   5.372   5.943   6.203
  191SOL    HW1 1472   5.368   6.018   6.270
  191SOL    HW2 1473   5.281   5.925   6.167
  192SOL     OW 1474   6.738   0.643   6.806
  192SOL    HW1 1475   6.816   0.653   6.744
  192SOL    HW2 1476   6.705   0.549   6.803
  193SOL     OW 1477   6.072   3.967   6.958
  193SOL    HW1 1478   6.014   3.965   0.019
  193SOL    HW2 1479   6.149   3.905   6.971
  194SOL     OW 1480   4.100   0.288   4.814
  194SOL    HW1 1481   4.098   0.211   4.751
  194SOL    HW2 1482   4.182   0.282   4.872
  195SOL     OW 1483   0.263   5.715   3.492
  195SOL    HW1 1484   0.355   5.683   3.467
  195SOL    HW2 1485   0.238   5.678   3.582
  196SOL     OW 1486   0.427   1.181   0.929
  196SOL    HW1 1487   0.440   1.122   1.009
  196SOL    HW2 1488   0.474   1.141   0.850
  197SOL     OW 1489   2.221   1.037   0.772
  197SOL    HW1 1490   2.205   0.947   0.811
  197SOL    HW2 1491   2.147   1.059   0.707
  198SOL     OW 1492   3.140   1.455   5.001
  198SOL    HW1 1493   3.180   1.410   5.081
  198SOL    HW2 1494   3.056   1.501   5.028
  199SOL     OW 1495   2.011   1.132   4.396
  199SOL    HW1 1496   1.987   1.203   4.330
  199SOL    HW2 1497   1.975   1.156   4.486
  200SOL     OW 1498   6.109   2.314   0.615
  200SOL    HW1 1499   6.010   2.301   0.615
  200SOL    HW2 1500   6.149   2.269   0.535
  201SOL     OW 1501   0.406   1.827   5.821
  201SOL    HW1 1502   0.470   1.814   5.746
  201SOL    HW2 1503   0.353   1.744   5.837
  202SOL     OW 1504   5.626   6.978   0.458
  202SOL    HW1 1505   5.616   6.882   0.433
  202SOL    HW2 1506   5.555   0.012   0.412
  203SOL     OW 1507   6.736   3.942   0.088
  203SOL    HW1 1508   6.664   3.903   0.146
  203SOL    HW2 1509   6.699   3.957   7.016
  204SOL     OW 1510   6.415   0.759   5.352
  204SOL    HW1 1511   6.443   0.715   5.267
  204SOL    HW2 1512   6.496   0.786   5.405
  205SOL     OW 1513   2.094   4.693   3.770
  205SOL    HW1 1514   2.179   4.734   3.736
  205SOL    HW2 1515   2.115   4.627   3.842
  206SOL     OW 1516   0.827   4.079   1.394
  206SOL    HW1 1517   0.760   4.082   1.320
  206SOL    HW2 1518   0.783   4.106   1.480
  207SOL     OW 1519   7.004   2.680   4.128
  207SOL    HW1 1520   6.942   2.685   4.049
  207SOL    HW2 1521   0.049   2.755   4.124
  208SOL     OW 1522   1.264   3.091   5.086
  208SOL    HW1 1523   1.225   3.178   5.056
  208SOL    HW2 1524   1.356   3.081   5.047
  209SOL     OW 1525   5.891   3.799   2.267
  209SOL    HW1 1526   5.965   3.748   2.309
  209SOL    HW2 1527   5.905   3.897   2.280
  210SOL     OW 1528   4.857   3.898   1.103
  210SOL    HW1 1529   4.879   3.803   1.126
  210SOL    HW2 1530   4.934   3.940   1.056
  211SOL     OW 1531   1.573   1.364   1.536
  211SOL    HW1 1532   1.588   1.319   1.624
  211SOL    HW2 1533   1.548   1.296   1.468
  212SOL     OW 1534   2.196   4.200   1.732
  212SOL    HW1 1535   2.211   4.104   1.756
  212SOL    HW2 1536   2.113   4.208   1.676
  213SOL     OW 1537   1.020   5.277   0.998
  213SOL    HW1 1538   1.098   5.232   1.042
  213SOL    HW2 1539   1.009   5.369   1.035
  214SOL     OW 1540   5.924   6.524   2.472
  214SOL    HW1 1541   6.003   6.567   2.517
  214SOL    HW2 1542   5.924   6.426   2.492
  215SOL     OW 1543   2.482   4.726   2.543
  215SOL    HW1 1544   2.396   4.774   2.559
  215SOL    HW2 1545   2.532   4.769   2.468
  216SOL     OW 1546   1.604   6.059   2.847
  216SOL    HW1 1547   1.637   5.970   2.877
  216SOL    HW2 1548   1.554   6.049   2.761
  217SOL     OW 1549   0.116   4.707   5.024
  217SOL    HW1 1550   0.172   4.771   4.971
  217SOL    HW2 1551   0.044   4.670   4.966
  218SOL     OW 1552   3.126   2.421   5.833
  218SOL    HW1 1553   3.082   2.360   5.767
  218SOL    HW2 1554   3.211   2.379   5.865
  219SOL     OW 1555   5.261   2.131   1.499
  219SOL    HW1 1556   5.267   2.097   1.593
  219SOL    HW2 1557   5.301   2.063   1.437
  220SOL     OW 1558   2.470   6.553   0.419
  220SOL    HW1 1559   2.392   6.499   0.388
  220SOL    HW2 1560   2.460   6.647   0.387
  221SOL     OW 1561   4.752   4.650   2.096
  221SOL    HW1 1562   4.840   4.606   2.111
  221SOL    HW2 1563   4.685   4.582   2.066
  222SOL     OW 1564   1.628   4.122   6.313
  222SOL    HW1 1565   1.599   4.162   6.226
  222SOL    HW2 1566   1.562   4.145   6.384
  223SOL     OW 1567   6.561   2.143   5.002
  223SOL    HW1 1568   6.492   2.073   4.982
  223SOL    HW2 1569   6.600   2.127   5.092
  224SOL     OW 1570   3.474   2.587   5.791
  224SOL    HW1 1571   3.492   2.643   5.872
  224SOL    HW2 1572   3.530   2.620   5.714
  225SOL     OW 1573   4.268   5.983   6.156
  225SOL    HW1 1574   4.340   6.022   6.099
  225SOL    HW2 1575   4.214   6.057   6.196
  226SOL     OW 1576   1.796   2.555   7.014
  226SOL    HW1 1577   1.834   2.531   0.083
  226SOL    HW2 1578   1.697   2.569   0.001
  227SOL     OW 1579   1.526   3.692   1.303
  227SOL    HW1 1580   1.558   3.774   1.255
  227SOL    HW2 1581   1.583   3.614   1.276
  228SOL     OW 1582   0.895   0.482   2.326
  228SOL    HW1 1583   0.893   0.410   2.257
  228SOL    HW2 1584   0.963   0.459   2.396
  229SOL     OW 1585   4.172   0.841   6.206
  229SOL    HW1 1586   4.205   0.931   6.236
  229SOL    HW2 1587   4.104   0.853   6.133
  230SOL     OW 1588   5.693   3.645   5.769
  230SOL    HW1 1589   5.728   3.737   5.748
  230SOL    HW2 1590   5.743   3.608   5.848
  231SOL     OW 1591   4.847   1.503   0.067
  231SOL    HW1 1592   4.913   1.436   0.034
  231SOL    HW2 1593   4.885   1.551   0.146
  232SOL     OW 1594   1.262   2.832   5.042
  232SOL    HW1 1595   1.241   2.929   5.053
  232SOL    HW2 1596   1.246   2.784   5.128
  233SOL     OW 1597   3.717   1.802   3.577
  233SOL    HW1 1598   3.749   1.829   3.486
  233SOL    HW2 1599   3.754   1.712   3.600
  234SOL     OW 1600   5.516   6.739   0.327
  234SOL    HW1 1601   5.531   6.710   0.232
  234SOL    HW2 1602   5.422   6.773   0.336
  235SOL     OW 1603   5.126   3.544   2.400
  235SOL    HW1 1604   5.163   3.636   2.410
  235SOL    HW2 1605   5.036   3.549   2.356
  236SOL     OW 1606   3.579   3.231   5.873
  236SOL    HW1 1607   3.625   3.285   5.803
  236SOL    HW2 1608   3.601   3.134   5.861
  237SOL     OW 1609   6.079   3.570   3.130
  237SOL    HW1 1610   6.089   3.570   3.229
  237SOL    HW2 1611   6.109   3.658   3.094
  238SOL     OW 1612   6.409   1.888   0.206
  238SOL    HW1 1613   6.340   1.867   0.275
  238SOL    HW2 1614   6.415   1.813   0.140
  239SOL     OW 1615   1.918   3.317   0.618
  239SOL    HW1 1616   1.861   3.240   0.646
  239SOL    HW2 1617   1.958   3.299   0.529
  240SOL     OW 1618   5.504   3.425   4.397
  240SOL    HW1 1619   5.428   3.443   4.334
  240SOL    HW2 1620   5.509   3.327   4.415
  241SOL     OW 1621   2.039   2.799   3.717
  241SOL    HW1 1622   2.132   2.826   3.744
  241SOL    HW2 1623   2.005   2.729   3.780
  242SOL     OW 1624   3.808   3.362   2.185
  242SOL    HW1 1625   3.899   3.330   2.210
  242SOL    HW2 1626   3.739   3.303   2.228
  243SOL     OW 1627   4.138   3.037   6.391
  243SOL    HW1 1628   4.094   2.955   6.354
  243SOL    HW2 1629   4.217   3.010   6.446
  244SOL     OW 1630   4.923   3.414   4.867
  244SOL    HW1 1631   4.894   3.336   4.922
  244SOL    HW2 1632   4.895   3.499   4.911
  245SOL     OW 1633   3.495   1.086   2.998
  245SOL    HW1 1634   3.573   1.068   2.938
  245SOL    HW2 1635   3.417   1.115   2.944
  246SOL     OW 1636   6.979   1.465   2.296
  246SOL    HW1 1637   7.008   1.543   2.240
  246SOL    HW2 1638   0.038   1.407   2.316
  247SOL     OW 1639   2.584   0.875   2.096
  247SOL    HW1 1640   2.502   0.821   2.077
  247SOL    HW2 1641   2.558   0.966   2.127
  248SOL     OW 1642   3.339   3.582   1.408
  248SOL    HW1 1643   3.298   3.630   1.331
  248SOL    HW2 1644   3.286   3.500   1.429
  249SOL     OW 1645   4.800   6.347   5.622
  249SOL    HW1 1646   4.863   6.281   5.582
  249SOL    HW2 1647   4.785   6.422   5.558
  250SOL     OW 1648   4.309   2.355   0.229
  250SOL    HW1 1649   4.218   2.339   0.189
  250SOL    HW2 1650   4.320   2.453   0.249
  251SOL     OW 1651   4.625   5.142   5.029
  251SOL    HW1 1652   4.576   5.067   4.985
  251SOL    HW2 1653   4.560   5.213   5.057
  252SOL     OW 1654   6.601   6.133   5.145
  252SOL    HW1 1655   6.608   6.033   5.134
  252SOL    HW2 1656   6.663   6.178   5.081
  253SOL     OW 1657   4.527   5.857   5.741
  253SOL    HW1 1658   4.505   5.881   5.836
  253SOL    HW2 1659   4.574   5.933   5.697
  254SOL     OW 1660   6.257   2.458   5.387
  254SOL    HW1 1661   6.190   2.481   5.317
  254SOL    HW2 1662   6.232   2.501   5.473
  255SOL     OW 1663   1.565   4.381   6.504
  255SOL    HW1 1664   1.497   4.369   6.432
  255SOL    HW2 1665   1.527   4.439   6.576
  256SOL     OW 1666   4.848   2.340   5.273
  256SOL    HW1 1667   4.766   2.355   5.218
  256SOL    HW2 1668   4.833   2.377   5.365
  257SOL     OW 1669   4.981   6.603   2.319
  257SOL    HW1 1670   4.913   6.595   2.392
  257SOL    HW2 1671   4.989   6.698   2.291
  258SOL     OW 1672   1.959   3.365   6.100
  258SOL    HW1 1673   1.994   3.315   6.179
  258SOL    HW2 1674   1.989   3.319   6.016
  259SOL     OW 1675   3.231   0.830   4.237
  259SOL    HW1 1676   3.224   0.877   4.149
  259SOL    HW2 1677   3.245   0.732   4.222
  260SOL     OW 1678   3.587   5.873   3.360
  260SOL    HW1 1679   3.655   5.839   3.296
  260SOL    HW2 1680   3.632   5.924   3.433
  261SOL     OW 1681   3.796   4.693   6.849
  261SOL    HW1 1682   3.862   4.767   6.865
  261SOL    HW2 1683   3.795   4.631   6.927
  262SOL     OW 1684   0.736   3.546   6.279
  262SOL    HW1 1685   0.790   3.494   6.346
  262SOL    HW2 1686   0.797   3.587   6.212
  263SOL     OW 1687   2.149   0.026   3.714
  263SOL    HW1 1688   2.225   0.050   3.775
  263SOL    HW2 1689   2.120   6.953   3.734
  264SOL     OW 1690   6.384   3.025   6.356
  264SOL    HW1 1691   6.431   2.958   6.413
  264SOL    HW2 1692   6.286   3.008   6.357
  265SOL     OW 1693   0.248   6.996   3.052
  265SOL    HW1 1694   0.265   6.962   3.144
  265SOL    HW2 1695   0.187   6.934   3.003
  266SOL     OW 1696   3.787   0.682   6.052
  266SOL    HW1 1697   3.693   0.652   6.035
  266SOL    HW2 1698   3.827   0.626   6.124
  267SOL     OW 1699   2.622   0.001   2.510
  267SOL    HW1 1700   2.571   6.936   2.516
  267SOL    HW2 1701   2.720   7.002   2.507
  268SOL     OW 1702   4.126   2.271   0.530
  268SOL    HW1 1703   4.137   2.256   0.628
  268SOL    HW2 1704   4.096   2.366   0.514
  269SOL     OW 1705   5.425   2.038   6.827
  269SOL    HW1 1706   5.456   2.126   6.862
  269SOL    HW2 1707   5.326   2.030   6.837
  270SOL     OW 1708   5.348   1.399   0.465
  270SOL    HW1 1709   5.262   1.405   0.514
  270SOL    HW2 1710   5.331   1.367   0.371
  271SOL     OW 1711   6.907   4.993   5.939
  271SOL    HW1 1712   6.997   4.997   5.983
  271SOL    HW2 1713   6.844   4.941   5.996
  272SOL     OW 1714   3.278   5.926   3.100
  272SOL    HW1 1715   3.202   5.865   3.075
  272SOL    HW2 1716   3.266   5.959   3.193
  273SOL     OW 1717   1.369   5.482   6.244
  273SOL    HW1 1718   1.422   5.518   6.167
  273SOL    HW2 1719   1.378   5.544   6.322
  274SOL     OW 1720   4.570   2.100   3.865
  274SOL    HW1 1721   4.513   2.036   3.814
  274SOL    HW2 1722   4.607   2.169   3.802
  275SOL     OW 1723   5.416   0.765   1.172
  275SOL    HW1 1724   5.371   0.776   1.083
  275SOL    HW2 1725   5.514   0.780   1.162
  276SOL     OW 1726   0.469   7.007   4.209
  276SOL    HW1 1727   0.371   6.990   4.220
  276SOL    HW2 1728   0.514   6.923   4.179
  277SOL     OW 1729   2.367   4.720   1.098
  277SOL    HW1 1730   2.458   4.714   1.139
  277SOL    HW2 1731   2.318   4.799   1.135
  278SOL     OW 1732   0.855   2.615   3.746
  278SOL    HW1 1733   0.769   2.580   3.709
  278SOL    HW2 1734   0.854   2.609   3.846
  279SOL     OW 1735   6.088   1.590   3.382
  279SOL    HW1 1736   6.095   1.582   3.282
  279SOL    HW2 1737   6.178   1.612   3.419
  280SOL     OW 1738   1.834   5.349   2.605
  280SOL    HW1 1739   1.814   5.443   2.576
  280SOL    HW2 1740   1.833   5.345   2.705
  281SOL     OW 1741   2.582   4.175   1.084
  281SOL    HW1 1742   2.512   4.141   1.147
  281SOL    HW2 1743   2.547   4.256   1.037
  282SOL     OW 1744   1.707   1.331   5.079
  282SOL    HW1 1745   1.761   1.358   5.159
  282SOL    HW2 1746   1.657   1.409   5.044
  283SOL     OW 1747   2.897   2.874   6.587
  283SOL    HW1 1748   2.976   2.909   6.536
  283SOL    HW2 1749   2.912   2.778   6.611
  284SOL     OW 1750   0.595   3.976   4.001
  284SOL    HW1 1751   0.593   3.931   4.090
  284SOL    HW2 1752   0.683   4.022   3.988
  285SOL     OW 1753   5.223   3.732   3.881
  285SOL    HW1 1754   5.193   3.827   3.869
  285SOL    HW2 1755   5.144   3.675   3.904
  286SOL     OW 1756   2.668   3.909   1.086
  286SOL    HW1 1757   2.679   3.869   0.995
  286SOL    HW2 1758   2.651   4.007   1.077
  287SOL     OW 1759   1.037   3.102   7.020
  287SOL    HW1 1760   1.027   3.104   6.921
  287SOL    HW2 1761   0.948   3.113   0.043
  288SOL     OW 1762   5.519   3.102   1.685
  288SOL    HW1 1763   5.462   3.159   1.625
  288SOL    HW2 1764   5.596   3.156   1.719
  289SOL     OW 1765   3.641   5.765   6.707
  289SOL    HW1 1766   3.649   5.821   6.790
  289SOL    HW2 1767   3.595   5.817   6.636
  290SOL     OW 1768   1.907   1.144   4.968
  290SOL    HW1 1769   1.877   1.066   5.024
  290SOL    HW2 1770   1.850   1.223   4.988
  291SOL     OW 1771   7.009   1.355   2.931
  291SOL    HW1 1772   0.059   1.313   2.875
  291SOL    HW2 1773   0.029   1.423   2.992
  292SOL     OW 1774   3.483   6.799   3.980
  292SOL    HW1 1775   3.397   6.838   4.013
  292SOL    HW2 1776   3.535   6.869   3.933
  293SOL     OW 1777   3.417   5.075   3.216
  293SOL    HW1 1778   3.513   5.053   3.200
  293SOL    HW2 1779   3.371   5.091   3.129
  294SOL     OW 1780   4.978   0.154   0.525
  294SOL    HW1 1781   4.897   0.142   0.583
  294SOL    HW2 1782   5.060   0.159   0.582
  295SOL     OW 1783   5.900   0.638   4.042
  295SOL    HW1 1784   5.924   0.666   4.135
  295SOL    HW2 1785   5.805   0.607   4.040
  296SOL     OW 1786   2.771   2.134   3.082
  296SOL    HW1 1787   2.736   2.116   2.990
  296SOL    HW2 1788   2.793   2.047   3.127
  297SOL     OW 1789   1.690   5.125   2.014
  297SOL    HW1 1790   1.758   5.187   2.052
  297SOL    HW2 1791   1.650   5.165   1.931
  298SOL     OW 1792   6.521   5.007   0.908
  298SOL    HW1 1793   6.496   5.074   0.978
  298SOL    HW2 1794   6.438   4.972   0.864
  299SOL     OW 1795   5.614   2.904   3.657
  299SOL    HW1 1796   5.533   2.930   3.709
  299SOL    HW2 1797   5.647   2.983   3.605
  300SOL     OW 1798   5.940   6.885   1.516
  300SOL    HW1 1799   5.939   6.820   1.440
  300SOL    HW2 1800   5.970   6.975   1.483
  301SOL     OW 1801   5.188   2.910   5.797
  301SOL    HW1 1802   5.229   2.928   5.708
  301SOL    HW2 1803   5.105   2.856   5.786
  302SOL     OW 1804   1.173   5.587   4.656
  302SOL    HW1 1805   1.250   5.588   4.593
  302SOL    HW2 1806   1.148   5.493   4.677
  303SOL     OW 1807   6.461   0.110   3.586
  303SOL    HW1 1808   6.473   0.021   3.630
  303SOL    HW2 1809   6.488   0.182   3.650
  304SOL     OW 1810   3.613   0.464   4.466
  304SOL    HW1 1811   3.597   0.525   4.544
  304SOL    HW2 1812   3.674   0.508   4.400
  305SOL     OW 1813   1.696   4.217   0.655
  305SOL    HW1 1814   1.676   4.307   0.615
  305SOL    HW2 1815   1.786   4.187   0.623
  306SOL     OW 1816   2.112   0.941   3.436
  306SOL    HW1 1817   2.023   0.908   3.403
  306SOL    HW2 1818   2.107   0.954   3.535
  307SOL     OW 1819   3.233   0.487   1.357
  307SOL    HW1 1820   3.136   0.477   1.379
  307SOL    HW2 1821   3.285   0.494   1.441
  308SOL     OW 1822   0.758   4.984   4.047
  308SOL    HW1 1823   0.701   4.922   4.101
  308SOL    HW2 1824   0.704   5.021   3.971
  309SOL     OW 1825   3.488   4.552   5.360
  309SOL    HW1 1826   3.537   4.560   5.447
  309SOL    HW2 1827   3.528   4.478   5.306
  310SOL     OW 1828   1.409   5.992   6.606
  310SOL    HW1 1829   1.361   5.944   6.680
  310SOL    HW2 1830   1.488   6.040   6.643
  311SOL     OW 1831   6.969   0.547   1.336
  311SOL    HW1 1832   0.034   0.519   1.292
  311SOL    HW2 1833   6.900   0.565   1.266
  312SOL     OW 1834   3.878   1.489   6.263
  312SOL    HW1 1835   3.779   1.482   6.258
  312SOL    HW2 1836   3.913   1.540   6.184
  313SOL     OW 1837   6.801   4.710   1.232
  313SOL    HW1 1838   6.722   4.771   1.242
  313SOL    HW2 1839   6.810   4.654   1.314
  314SOL     OW 1840   3.539   5.786   2.378
  314SOL    HW1 1841   3.595   5.738   2.311
  314SOL    HW2 1842   3.506   5.872   2.338
  315SOL     OW 1843   0.857   3.892   2.783
  315SOL    HW1 1844   0.806   3.815   2.821
  315SOL    HW2 1845   0.925   3.924   2.849
  316SOL     OW 1846   2.167   3.167   3.837
  316SOL    HW1 1847   2.086   3.132   3.791
  316SOL    HW2 1848   2.180   3.119   3.923
  317SOL     OW 1849   6.986   1.909   0.772
  317SOL    HW1 1850   0.059   1.943   0.777
  317SOL    HW2 1851   6.940   1.925   0.860
  318SOL     OW 1852   2.610   4.132   0.745
  318SOL    HW1 1853   2.525   4.175   0.715
  318SOL    HW2 1854   2.605   4.033   0.730
  319SOL     OW 1855   0.276   1.431   6.428
  319SOL    HW1 1856   0.337   1.488   6.372
  319SOL    HW2 1857   0.303   1.335   6.418
  320SOL     OW 1858   5.655   3.228   2.325
  320SOL    HW1 1859   5.689   3.320   2.344
  320SOL    HW2 1860   5.634   3.182   2.411
  321SOL     OW 1861   2.072   1.368   1.987
  321SOL    HW1 1862   2.026   1.403   1.905
  321SOL    HW2 1863   2.169   1.357   1.969
  322SOL     OW 1864   3.575   2.986   5.667
  322SOL    HW1 1865   3.645   3.038   5.618
  322SOL    HW2 1866   3.588   2.888   5.650
  323SOL     OW 1867   1.532   4.187   1.950
  323SOL    HW1 1868   1.506   4.159   1.857
  323SOL    HW2 1869   1.472   4.262   1.980
  324SOL     OW 1870   0.312   2.630   3.848
  324SOL    HW1 1871   0.401   2.619   3.892
  324SOL    HW2 1872   0.249   2.561   3.883
  325SOL     OW 1873   2.121   2.186   2.549
  325SOL    HW1 1874   2.147   2.094   2.579
  325SOL    HW2 1875   2.058   2.180   2.471
  326SOL     OW 1876   1.929   4.464   4.687
  326SOL    HW1 1877   2.025   4.447   4.663
  326SOL    HW2 1878   1.907   4.419   4.773
  327SOL     OW 1879   6.196   3.597   6.329
  327SOL    HW1 1880   6.139   3.573   6.408
  327SOL    HW2 1881   6.253   3.676   6.351
  328SOL     OW 1882   3.316   5.994   3.375
  328SOL    HW1 1883   3.410   5.959   3.376
  328SOL    HW2 1884   3.262   5.945   3.443
  329SOL     OW 1885   3.576   4.152   2.028
  329SOL    HW1 1886   3.652   4.124   2.087
  329SOL    HW2 1887   3.489   4.130   2.073
  330SOL     OW 1888   2.665   2.667   1.738
  330SOL    HW1 1889   2.697   2.667   1.643
  330SOL    HW2 1890   2.726   2.609   1.793
  331SOL     OW 1891   6.715   3.984   5.651
  331SOL    HW1 1892   6.743   3.990   5.555
  331SOL    HW2 1893   6.618   3.958   5.656
  332SOL     OW 1894   4.066   1.916   3.279
  332SOL    HW1 1895   4.102   1.846   3.217
  332SOL    HW2 1896   4.053   1.877   3.370
  333SOL     OW 1897   4.563   6.517   1.097
  333SOL    HW1 1898   4.523   6.608   1.089
  333SOL    HW2 1899   4.596   6.487   1.007
  334SOL     OW 1900   5.241   6.933   2.792
  334SOL    HW1 1901   5.251   6.834   2.799
  334SOL    HW2 1902   5.287   6.978   2.868
  335SOL     OW 1903   3.434   0.452   2.054
  335SOL    HW1 1904   3.504   0.422   2.119
  335SOL    HW2 1905   3.390   0.534   2.090
  336SOL     OW 1906   3.504   1.187   4.898
  336SOL    HW1 1907   3.550   1.131   4.829
  336SOL    HW2 1908   3.485   1.131   4.978
  337SOL     OW 1909   1.427   4.251   2.377
  337SOL    HW1 1910   1.334   4.286   2.374
  337SOL    HW2 1911   1.485   4.304   2.315
  338SOL     OW 1912   2.212   2.820   0.816
  338SOL    HW1 1913   2.178   2.909   0.845
  338SOL    HW2 1914   2.301   2.802   0.858
  339SOL     OW 1915   4.771   0.578   3.175
  339SOL    HW1 1916   4.747   0.672   3.151
  339SOL    HW2 1917   4.709   0.544   3.245
  340SOL     OW 1918   5.330   3.604   4.492
  340SOL    HW1 1919   5.415   3.552   4.490
  340SOL    HW2 1920   5.256   3.547   4.528
  341SOL     OW 1921   4.303   4.383   5.633
  341SOL    HW1 1922   4.289   4.431   5.546
  341SOL    HW2 1923   4.216   4.347   5.666
  342SOL     OW 1924   5.771   3.034   0.712
  342SOL    HW1 1925   5.863   3.063   0.684
  342SOL    HW2 1926   5.734   3.100   0.778
  343SOL     OW 1927   2.385   0.463   2.612
  343SOL    HW1 1928   2.345   0.525   2.544
  343SOL    HW2 1929   2.331   0.466   2.696
  344SOL     OW 1930   3.841   7.012   0.429
  344SOL    HW1 1931   3.816   0.076   0.382
  344SOL    HW2 1932   3.922   6.972   0.387
  345SOL     OW 1933   1.221   0.624   5.512
  345SOL    HW1 1934   1.211   0.531   5.475
  345SOL    HW2 1935   1.288   0.674   5.457
  346SOL     OW 1936   2.406   0.688   5.217
  346SOL    HW1 1937   2.472   0.617   5.191
  346SOL    HW2 1938   2.317   0.666   5.178
  347SOL     OW 1939   5.434   6.050   5.649
  347SOL    HW1 1940   5.531   6.037   5.627
  347SOL    HW2 1941   5.404   5.977   5.711
  348SOL     OW 1942   3.026   0.019   3.914
  348SOL    HW1 1943   3.043   0.101   3.861
  348SOL    HW2 1944   2.936   0.025   3.958
  349SOL     OW 1945   2.282   5.431   1.963
  349SOL    HW1 1946   2.292   5.376   1.880
  349SOL    HW2 1947   2.242   5.374   2.035
  350SOL     OW 1948   5.268   3.387   1.799
  350SOL    HW1 1949   5.330   3.317   1.834
  350SOL    HW2 1950   5.213   3.350   1.724
  351SOL     OW 1951   3.259   1.450   0.435
  351SOL    HW1 1952   3.183   1.477   0.494
  351SOL    HW2 1953   3.264   1.513   0.357
  352SOL     OW 1954   2.676   1.294   6.624
  352SOL    HW1 1955   2.605   1.250   6.569
  352SOL    HW2 1956   2.731   1.353   6.565
  353SOL     OW 1957   2.429   6.680   1.306
  353SOL    HW1 1958   2.486   6.598   1.297
  353SOL    HW2 1959   2.334   6.653   1.321
  354SOL     OW 1960   5.405   0.292   2.166
  354SOL    HW1 1961   5.402   0.207   2.219
  354SOL    HW2 1962   5.451   0.362   2.220
  355SOL     OW 1963   1.071   0.907   2.286
  355SOL    HW1 1964   1.020   0.947   2.362
  355SOL    HW2 1965   1.023   0.825   2.254
  356SOL     OW 1966   3.059   0.372   3.313
  356SOL    HW1 1967   3.089   0.374   3.408
  356SOL    HW2 1968   3.073   0.462   3.271
  357SOL     OW 1969   1.294   4.800   4.336
  357SOL    HW1 1970   1.339   4.713   4.361
  357SOL    HW2 1971   1.201   4.782   4.306
  358SOL     OW 1972   5.006   0.933   3.373
  358SOL    HW1 1973   5.026   1.031   3.368
  358SOL    HW2 1974   5.069   0.883   3.314
  359SOL     OW 1975   0.614   1.755   0.603
  359SOL    HW1 1976   0.533   1.784   0.655
  359SOL    HW2 1977   0.587   1.730   0.510
  360SOL     OW 1978   5.243   0.086   6.746
  360SOL    HW1 1979   5.313   0.138   6.796
  360SOL    HW2 1980   5.287   0.021   6.685
  361SOL     OW 1981   3.034   0.533   2.119
  361SOL    HW1 1982   3.057   0.629   2.102
  361SOL    HW2 1983   3.036   0.515   2.217
  362SOL     OW 1984   2.761   3.441   0.203
  362SOL    HW1 1985   2.710   3.457   0.288
  362SOL    HW2 1986   2.859   3.456   0.220
  363SOL     OW 1987   4.631   4.747   4.286
  363SOL    HW1 1988   4.545   4.697   4.281
  363SOL    HW2 1989   4.627   4.826   4.225
  364SOL     OW 1990   2.848   5.782   6.351
  364SOL    HW1 1991   2.872   5.877   6.371
  364SOL    HW2 1992   2.888   5.722   6.420
  365SOL     OW 1993   5.120   6.390   3.045
  365SOL    HW1 1994   5.025   6.364   3.061
  365SOL    HW2 1995   5.175   6.308   3.026
  366SOL     OW 1996   4.970   1.628   0.292
  366SOL    HW1 1997   5.051   1.660   0.241
  366SOL    HW2 1998   4.998   1.560   0.359
  367SOL     OW 1999   6.517   2.747   2.437
  367SOL    HW1 2000   6.609   2.712   2.454
  367SOL    HW2 2001   6.460   2.674   2.399
  368SOL     OW 2002   6.918   5.265   4.869
  368SOL    HW1 2003   6.887   5.246   4.775
  368SOL    HW2 2004   6.972   5.348   4.869
  369SOL     OW 2005   1.097   4.276   1.882
  369SOL    HW1 2006   1.059   4.368   1.874
  369SOL    HW2 2007   1.047   4.214   1.822
  370SOL     OW 2008   3.856   2.298   6.442
  370SOL    HW1 2009   3.833   2.395   6.430
  370SOL    HW2 2010   3.896   2.262   6.358
  371SOL     OW 2011   3.211   2.350   6.699
  371SOL    HW1 2012   3.289   2.299   6.735
  371SOL    HW2 2013   3.233   2.447   6.696
  372SOL     OW 2014   2.063   5.319   0.343
  372SOL    HW1 2015   1.983   5.314   0.403
  372SOL    HW2 2016   2.033   5.332   0.249
  373SOL     OW 2017   6.341   6.874   6.607
  373SOL    HW1 2018   6.388   6.944   6.661
  373SOL    HW2 2019   6.243   6.879   6.624
  374SOL     OW 2020   5.017   0.726   0.749
  374SOL    HW1 2021   5.049   0.650   0.805
  374SOL    HW2 2022   5.095   0.785   0.726
  375SOL     OW 2023   6.941   3.902   2.007
  375SOL    HW1 2024   7.001   3.824   2.024
  375SOL    HW2 2025   6.866   3.874   1.947
  376SOL     OW 2026   2.344   4.291   5.201
  376SOL    HW1 2027   2.425   4.328   5.247
  376SOL    HW2 2028   2.351   4.191   5.198
  377SOL     OW 2029   4.731   0.817   3.938
  377SOL    HW1 2030   4.656   0.856   3.991
  377SOL    HW2 2031   4.804   0.884   3.929
  378SOL     OW 2032   5.854   1.929   5.507
  378SOL    HW1 2033   5.797   1.968   5.435
  378SOL    HW2 2034   5.800   1.920   5.591
  379SOL     OW 2035   6.347   2.987   0.717
  379SOL    HW1 2036   6.392   2.930   0.786
  379SOL    HW2 2037   6.250   2.996   0.739
  380SOL     OW 2038   0.051   2.287   0.252
  380SOL    HW1 2039   7.007   2.212   0.239
  380SOL    HW2 2040   0.132   2.254   0.299
  381SOL     OW 2041   4.658   4.620   0.180
  381SOL    HW1 2042   4.647   4.646   0.276
  381SOL    HW2 2043   4.701   4.696   0.131
  382SOL     OW 2044   1.755   5.323   6.869
  382SOL    HW1 2045   1.852   5.348   6.875
  382SOL    HW2 2046   1.721   5.345   6.777
  383SOL     OW 2047   5.992   1.574   6.924
  383SOL    HW1 2048   5.942   1.657   6.899
  383SOL    HW2 2049   5.946   1.529   7.000
  384SOL     OW 2050   1.517   5.319   4.459
  384SOL    HW1 2051   1.609   5.279   4.455
  384SOL    HW2 2052   1.477   5.300   4.549
  385SOL     OW 2053   4.731   4.769   1.128
  385SOL    HW1 2054   4.634   4.772   1.152
  385SOL    HW2 2055   4.778   4.700   1.183
  386SOL     OW 2056   2.328   5.969   4.593
  386SOL    HW1 2057   2.259   6.013   4.650
  386SOL    HW2 2058   2.407   5.942   4.649
  387SOL     OW 2059   0.502   0.552   5.484
  387SOL    HW1 2060   0.491   0.547   5.583
  387SOL    HW2 2061   0.529   0.645   5.458
  388SOL     OW 2062   0.281   2.369   4.403
  388SOL    HW1 2063   0.239   2.279   4.389
  388SOL    HW2 2064   0.253   2.431   4.330
  389SOL     OW 2065   4.863   3.574   2.737
  389SOL    HW1 2066   4.838   3.479   2.718
  389SOL    HW2 2067   4.916   3.610   2.660
  390SOL     OW 2068   3.364   2.684   0.251
  390SOL    HW1 2069   3.386   2.588   0.236
  390SOL    HW2 2070   3.428   2.723   0.317
  391SOL     OW 2071   3.910   3.995   3.560
  391SOL    HW1 2072   3.994   3.948   3.587
  391SOL    HW2 2073   3.834   3.963   3.616
  392SOL     OW 2074   1.789   3.030   2.214
  392SOL    HW1 2075   1.830   2.942   2.235
  392SOL    HW2 2076   1.718   3.051   2.281
  393SOL     OW 2077   1.429   6.226   1.024
  393SOL    HW1 2078   1.377   6.295   0.975
  393SOL    HW2 2079   1.447   6.258   1.117
  394SOL     OW 2080   5.878   1.943   5.999
  394SOL    HW1 2081   5.927   1.863   6.032
  394SOL    HW2 2082   5.938   2.023   6.000
  395SOL     OW 2083   6.913   5.137   6.681
  395SOL    HW1 2084   6.999   5.183   6.703
  395SOL    HW2 2085   6.930   5.067   6.612
  396SOL     OW 2086   0.527   1.061   1.397
  396SOL    HW1 2087   0.564   1.153   1.379
  396SOL    HW2 2088   0.435   1.069   1.435
  397SOL     OW 2089   4.746   2.026   4.980
  397SOL    HW1 2090   4.782   1.942   5.021
  397SOL    HW2 2091   4.821   2.078   4.940
  398SOL     OW 2092   6.973   1.470   3.285
  398SOL    HW1 2093   6.897   1.406   3.277
  398SOL    HW2 2094   6.970   1.536   3.209
  399SOL     OW 2095   5.892   5.669   4.685
  399SOL    HW1 2096   5.914   5.690   4.589
  399SOL    HW2 2097   5.894   5.570   4.698
  400SOL     OW 2098   6.653   6.042   3.283
  400SOL    HW1 2099   6.658   6.141   3.281
  400SOL    HW2 2100   6.630   6.007   3.192
  401SOL     OW 2101   1.184   5.995   4.357
  401SOL    HW1 2102   1.122   5.918   4.349
  401SOL    HW2 2103   1.256   5.973   4.424
  402SOL     OW 2104   6.094   1.313   4.339
  402SOL    HW1 2105   6.060   1.405   4.359
  402SOL    HW2 2106   6.139   1.312   4.250
  403SOL     OW 2107   2.470   1.798   5.136
  403SOL    HW1 2108   2.384   1.813   5.184
  403SOL    HW2 2109   2.517   1.885   5.121
  404SOL     OW 2110   3.301   5.569   3.355
  404SOL    HW1 2111   3.373   5.634   3.380
  404SOL    HW2 2112   3.215   5.618   3.344
  405SOL     OW 2113   3.110   4.884   3.982
  405SOL    HW1 2114   3.154   4.859   3.896
  405SOL    HW2 2115   3.178   4.923   4.044
  406SOL     OW 2116   0.983   0.376   0.476
  406SOL    HW1 2117   1.014   0.463   0.436
  406SOL    HW2 2118   1.056   0.337   0.532
  407SOL     OW 2119   2.184   3.860   4.049
  407SOL    HW1 2120   2.100   3.837   3.999
  407SOL    HW2 2121   2.241   3.779   4.057
  408SOL     OW 2122   2.708   2.342   1.722
  408SOL    HW1 2123   2.724   2.273   1.651
  408SOL    HW2 2124   2.780   2.337   1.790
  409SOL     OW 2125   0.295   1.989   2.346
  409SOL    HW1 2126   0.360   1.914   2.336
  409SOL    HW2 2127   0.313   2.059   2.277
  410SOL     OW 2128   1.600   3.406   2.337
  410SOL    HW1 2129   1.614   3.446   2.246
  410SOL    HW2 2130   1.685   3.367   2.370
  411SOL     OW 2131   0.024   1.444   1.983
  411SOL    HW1 2132   6.969   1.415   1.925
  411SOL    HW2 2133   0.016   1.542   2.003
  412SOL     OW 2134   2.560   4.553   3.146
  412SOL    HW1 2135   2.548   4.529   3.050
  412SOL    HW2 2136   2.492   4.504   3.201
  413SOL     OW 2137   6.795   4.737   2.702
  413SOL    HW1 2138   6.860   4.812   2.695
  413SOL    HW2 2139   6.812   4.670   2.630
  414SOL     OW 2140   2.261   0.112   2.451
  414SOL    HW1 2141   2.274   0.167   2.368
  414SOL    HW2 2142   2.253   0.016   2.426
  415SOL     OW 2143   5.893   3.149   1.558
  415SOL    HW1 2144   5.882   3.053   1.585
  415SOL    HW2 2145   5.894   3.206   1.640
  416SOL     OW 2146   5.906   3.611   6.984
  416SOL    HW1 2147   5.865   3.644   0.049
  416SOL    HW2 2148   5.926   3.688   6.924
  417SOL     OW 2149   2.594   1.937   5.941
  417SOL    HW1 2150   2.598   1.962   5.845
  417SOL    HW2 2151   2.668   1.982   5.991
  418SOL     OW 2152   4.502   5.402   6.375
  418SOL    HW1 2153   4.540   5.423   6.285
  418SOL    HW2 2154   4.405   5.377   6.365
  419SOL     OW 2155   5.578   0.054   0.770
  419SOL    HW1 2156   5.569   0.134   0.829
  419SOL    HW2 2157   5.571   0.083   0.674
  420SOL     OW 2158   3.100   6.502   0.730
  420SOL    HW1 2159   3.155   6.423   0.703
  420SOL    HW2 2160   3.008   6.494   0.690
  421SOL     OW 2161   5.372   4.658   3.337
  421SOL    HW1 2162   5.313   4.737   3.349
  421SOL    HW2 2163   5.322   4.585   3.291
  422SOL     OW 2164   4.078   1.472   2.336
  422SOL    HW1 2165   4.035   1.509   2.253
  422SOL    HW2 2166   4.116   1.548   2.390
  423SOL     OW 2167   2.621   0.848   6.287
  423SOL    HW1 2168   2.537   0.898   6.307
  423SOL    HW2 2169   2.654   0.875   6.196
  424SOL     OW 2170   1.735   4.774   4.179
  424SOL    HW1 2171   1.796   4.796   4.102
  424SOL    HW2 2172   1.782   4.796   4.265
  425SOL     OW 2173   3.592   1.477   6.273
  425SOL    HW1 2174   3.512   1.532   6.297
  425SOL    HW2 2175   3.563   1.400   6.216
  426SOL     OW 2176   2.418   2.637   2.866
  426SOL    HW1 2177   2.335   2.581   2.861
  426SOL    HW2 2178   2.410   2.701   2.943
  427SOL     OW 2179   4.765   1.068   4.469
  427SOL    HW1 2180   4.844   1.045   4.525
  427SOL    HW2 2181   4.694   0.999   4.481
  428SOL     OW 2182   2.299   1.538   6.000
  428SOL    HW1 2183   2.315   1.453   5.951
  428SOL    HW2 2184   2.259   1.518   6.089
  429SOL     OW 2185   0.101   6.883   3.452
  429SOL    HW1 2186   0.192   6.876   3.410
  429SOL    HW2 2187   0.093   6.971   3.500
  430SOL     OW 2188   1.636   0.969   3.698
  430SOL    HW1 2189   1.714   0.941   3.753
  430SOL    HW2 2190   1.571   0.893   3.690
  431SOL     OW 2191   2.691   1.130   1.796
  431SOL    HW1 2192   2.659   1.147   1.703
  431SOL    HW2 2193   2.741   1.209   1.830
  432SOL     OW 2194   6.039   1.880   2.078
  432SOL    HW1 2195   5.948   1.894   2.037
  432SOL    HW2 2196   6.031   1.815   2.153
  433SOL     OW 2197   1.684   3.467   0.016
  433SOL    HW1 2198   1.763   3.496   0.070
  433SOL    HW2 2199   1.652   3.544   6.982
  434SOL     OW 2200   3.665   5.738   2.883
  434SOL    HW1 2201   3.739   5.804   2.887
  434SOL    HW2 2202   3.661   5.698   2.792
  435SOL     OW 2203   2.231   2.042   6.595
  435SOL    HW1 2204   2.247   1.968   6.660
  435SOL    HW2 2205   2.270   2.018   6.506
  436SOL     OW 2206   5.690   6.284   2.314
  436SOL    HW1 2207   5.785   6.284   2.345
  436SOL    HW2 2208   5.656   6.378   2.312
  437SOL     OW 2209   6.797   1.541   5.790
  437SOL    HW1 2210   6.803   1.454   5.839
  437SOL    HW2 2211   6.717   1.592   5.823
  438SOL     OW 2212   0.793   3.528   1.575
  438SOL    HW1 2213   0.848   3.522   1.658
  438SOL    HW2 2214   0.834   3.595   1.513
  439SOL     OW 2215   0.821   1.415   6.535
  439SOL    HW1 2216   0.879   1.385   6.611
  439SOL    HW2 2217   0.870   1.484   6.482
  440SOL     OW 2218   3.656   1.583   1.729
  440SOL    HW1 2219   3.654   1.555   1.633
  440SOL    HW2 2220   3.740   1.633   1.748
  441SOL     OW 2221   1.497   4.589   2.824
  441SOL    HW1 2222   1.471   4.497   2.793
  441SOL    HW2 2223   1.573   4.582   2.888
  442SOL     OW 2224   3.030   3.546   4.912
  442SOL    HW1 2225   3.045   3.465   4.855
  442SOL    HW2 2226   3.104   3.554   4.978
  443SOL     OW 2227   5.331   2.707   1.925
  443SOL    HW1 2228   5.325   2.640   1.851
  443SOL    HW2 2229   5.342   2.798   1.886
  444SOL     OW 2230   4.063   2.097   1.533
  444SOL    HW1 2231   4.092   2.148   1.453
  444SOL    HW2 2232   4.024   2.159   1.601
  445SOL     OW 2233   2.350   6.149   3.974
  445SOL    HW1 2234   2.253   6.148   3.999
  445SOL    HW2 2235   2.390   6.059   3.993
  446SOL     OW 2236   6.906   0.155   0.284
  446SOL    HW1 2237   6.924   0.162   0.186
  446SOL    HW2 2238   6.853   0.073   0.303
  447SOL     OW 2239   6.039   3.423   0.385
  447SOL    HW1 2240   6.093   3.340   0.370
  447SOL    HW2 2241   5.945   3.408   0.353
  448SOL     OW 2242   3.520   6.924   4.856
  448SOL    HW1 2243   3.541   6.841   4.804
  448SOL    HW2 2244   3.553   7.004   4.806
  449SOL     OW 2245   1.077   4.376   4.884
  449SOL    HW1 2246   1.112   4.348   4.973
  449SOL    HW2 2247   1.152   4.381   4.818
  450SOL     OW 2248   6.735   3.610   3.913
  450SOL    HW1 2249   6.674   3.688   3.894
  450SOL    HW2 2250   6.685   3.541   3.965
  451SOL     OW 2251   2.702   1.174   6.295
  451SOL    HW1 2252   2.607   1.180   6.327
  451SOL    HW2 2253   2.703   1.163   6.195
  452SOL     OW 2254   4.660   5.184   1.078
  452SOL    HW1 2255   4.665   5.277   1.043
  452SOL    HW2 2256   4.696   5.182   1.171
  453SOL     OW 2257   4.636   0.900   0.249
  453SOL    HW1 2258   4.695   0.875   0.173
  453SOL    HW2 2259   4.691   0.932   0.326
  454SOL     OW 2260   0.246   2.695   3.579
  454SOL    HW1 2261   0.289   2.670   3.665
  454SOL    HW2 2262   0.262   2.792   3.560
  455SOL     OW 2263   5.904   5.842   0.220
  455SOL    HW1 2264   5.870   5.883   0.136
  455SOL    HW2 2265   5.899   5.742   0.213
  456SOL     OW 2266   1.402   0.849   3.179
  456SOL    HW1 2267   1.307   0.870   3.155
  456SOL    HW2 2268   1.408   0.824   3.275
  457SOL     OW 2269   3.296   5.944   0.658
  457SOL    HW1 2270   3.265   6.016   0.721
  457SOL    HW2 2271   3.381   5.974   0.614
  458SOL     OW 2272   3.377   1.326   4.289
  458SOL    HW1 2273   3.282   1.322   4.258
  458SOL    HW2 2274   3.386   1.274   4.374
  459SOL     OW 2275   3.404   1.443   3.810
  459SOL    HW1 2276   3.467   1.436   3.732
  459SOL    HW2 2277   3.400   1.355   3.858
  460SOL     OW 2278   0.822   1.906   6.535
  460SOL    HW1 2279   0.835   1.808   6.552
  460SOL    HW2 2280   0.726   1.923   6.511
  461SOL     OW 2281   1.071   6.864   4.559
  461SOL    HW1 2282   1.020   6.790   4.603
  461SOL    HW2 2283   1.150   6.887   4.615
  462SOL     OW 2284   3.539   4.104   5.383
  462SOL    HW1 2285   3.548   4.023   5.325
  462SOL    HW2 2286   3.444   4.135   5.382
  463SOL     OW 2287   6.006   6.279   3.251
  463SOL    HW1 2288   6.076   6.285   3.322
  463SOL    HW2 2289   6.040   6.223   3.175
  464SOL     OW 2290   4.797   6.087   4.521
  464SOL    HW1 2291   4.888   6.126   4.528
  464SOL    HW2 2292   4.797   5.993   4.557
  465SOL     OW 2293   0.340   5.359   0.798
  465SOL    HW1 2294   0.270   5.426   0.823
  465SOL    HW2 2295   0.370   5.310   0.881
  466SOL     OW 2296   3.780   4.913   3.680
  466SOL    HW1 2297   3.731   4.910   3.767
  466SOL    HW2 2298   3.717   4.891   3.605
  467SOL     OW 2299   6.778   6.981   0.977
  467SOL    HW1 2300   6.687   6.995   0.937
  467SOL    HW2 2301   6.770   6.972   1.076
  468SOL     OW 2302   2.589   6.672   6.419
  468SOL    HW1 2303   2.665   6.652   6.357
  468SOL    HW2 2304   2.510   6.703   6.365
  469SOL     OW 2305   4.272   4.946   5.265
  469SOL    HW1 2306   4.182   4.981   5.240
  469SOL    HW2 2307   4.277   4.848   5.243
  470SOL     OW 2308   2.726   5.247   2.038
  470SOL    HW1 2309   2.769   5.335   2.020
  470SOL    HW2 2310   2.730   5.190   1.956
  471SOL     OW 2311   1.878   2.567   4.260
  471SOL    HW1 2312   1.951   2.564   4.329
  471SOL    HW2 2313   1.819   2.487   4.271
  472SOL     OW 2314   4.318   3.883   6.341
  472SOL    HW1 2315   4.225   3.903   6.311
  472SOL    HW2 2316   4.317   3.858   6.438
  473SOL     OW 2317   5.644   3.531   2.002
  473SOL    HW1 2318   5.588   3.549   2.083
  473SOL    HW2 2319   5.605   3.579   1.923
  474SOL     OW 2320   4.610   5.261   3.740
  474SOL    HW1 2321   4.690   5.243   3.797
  474SOL    HW2 2322   4.631   5.240   3.645
  475SOL     OW 2323   4.620   1.253   1.012
  475SOL    HW1 2324   4.677   1.324   0.972
  475SOL    HW2 2325   4.523   1.272   0.993
  476SOL     OW 2326   1.187   2.679   0.298
  476SOL    HW1 2327   1.286   2.683   0.311
  476SOL    HW2 2328   1.165   2.685   0.200
  477SOL     OW 2329   5.702   6.257   4.400
  477SOL    HW1 2330   5.693   6.294   4.308
  477SOL    HW2 2331   5.630   6.293   4.459
  478SOL     OW 2332   6.606   4.899   1.662
  478SOL    HW1 2333   6.676   4.861   1.601
  478SOL    HW2 2334   6.616   4.998   1.666
  479SOL     OW 2335   3.758   3.335   2.923
  479SOL    HW1 2336   3.799   3.426   2.919
  479SOL    HW2 2337   3.771   3.297   3.015
  480SOL     OW 2338   6.640   0.419   1.337
  480SOL    HW1 2339   6.686   0.386   1.255
  480SOL    HW2 2340   6.708   0.436   1.408
  481SOL     OW 2341   5.915   6.619   0.794
  481SOL    HW1 2342   5.921   6.534   0.743
  481SOL    HW2 2343   5.829   6.665   0.773
  482SOL     OW 2344   3.866   5.214   2.674
  482SOL    HW1 2345   3.788   5.221   2.613
  482SOL    HW2 2346   3.867   5.293   2.736
  483SOL     OW 2347   6.053   2.601   4.905
  483SOL    HW1 2348   6.118   2.600   4.981
  483SOL    HW2 2349   6.011   2.692   4.899
  484SOL     OW 2350   2.546   5.445   4.283
  484SOL    HW1 2351   2.586   5.384   4.215
  484SOL    HW2 2352   2.470   5.399   4.329
  485SOL     OW 2353   4.830   2.531   1.003
  485SOL    HW1 2354   4.803   2.606   1.064
  485SOL    HW2 2355   4.842   2.447   1.057
  486SOL     OW 2356   6.177   6.162   5.538
  486SOL    HW1 2357   6.202   6.239   5.479
  486SOL    HW2 2358   6.194   6.076   5.490
  487SOL     OW 2359   6.303   1.367   6.973
  487SOL    HW1 2360   6.217   1.376   6.923
  487SOL    HW2 2361   6.300   1.426   0.034
  488SOL     OW 2362   1.624   6.104   3.788
  488SOL    HW1 2363   1.652   6.126   3.695
  488SOL    HW2 2364   1.585   6.185   3.832
  489SOL     OW 2365   2.503   4.380   5.415
  489SOL    HW1 2366   2.588   4.398   5.465
  489SOL    HW2 2367   2.427   4.428   5.459
  490SOL     OW 2368   0.866   3.733   4.916
  490SOL    HW1 2369   0.908   3.778   4.837
  490SOL    HW2 2370   0.795   3.791   4.954
  491SOL     OW 2371   6.570   3.380   1.638
  491SOL    HW1 2372   6.569   3.451   1.709
  491SOL    HW2 2373   6.539   3.293   1.677
  492SOL     OW 2374   1.642   1.993   6.093
  492SOL    HW1 2375   1.711   2.049   6.047
  492SOL    HW2 2376   1.582   2.053   6.146
  493SOL     OW 2377   1.747   5.771   4.055
  493SOL    HW1 2378   1.711   5.703   4.119
  493SOL    HW2 2379   1.846   5.763   4.049
  494SOL     OW 2380   3.133   0.022   2.533
  494SOL    HW1 2381   3.201   7.011   2.467
  494SOL    HW2 2382   3.141   0.121   2.543
  495SOL     OW 2383   3.670   4.510   6.237
  495SOL    HW1 2384   3.685   4.517   6.139
  495SOL    HW2 2385   3.608   4.434   6.256
  496SOL     OW 2386   5.026   0.158   2.815
  496SOL    HW1 2387   5.100   0.163   2.883
  496SOL    HW2 2388   4.950   0.105   2.852
  497SOL     OW 2389   4.464   2.930   1.205
  497SOL    HW1 2390   4.413   2.847   1.229
  497SOL    HW2 2391   4.401   3.008   1.203
  498SOL     OW 2392   0.865   6.787   0.856
  498SOL    HW1 2393   0.811   6.768   0.774
  498SOL    HW2 2394   0.884   6.885   0.861
  499SOL     OW 2395   2.755   6.619   6.210
  499SOL    HW1 2396   2.705   6.562   6.145
  499SOL    HW2 2397   2.849   6.586   6.218
  500SOL     OW 2398   6.159   1.503   5.970
  500SOL    HW1 2399   6.116   1.413   5.967
  500SOL    HW2 2400   6.205   1.515   6.058
  501SOL     OW 2401   1.945   1.992   4.668
  501SOL    HW1 2402   1.936   2.008   4.570
  501SOL    HW2 2403   1.963   2.079   4.715
  502SOL     OW 2404   3.248   2.896   0.093
  502SOL    HW1 2405   3.287   2.810   0.126
  502SOL    HW2 2406   3.164   2.917   0.145
  503SOL     OW 2407   3.847   5.605   1.361
  503SOL    HW1 2408   3.793   5.669   1.306
  503SOL    HW2 2409   3.799   5.518   1.369
  504SOL     OW 2410   6.233   0.531   6.821
  504SOL    HW1 2411   6.265   0.468   6.891
  504SOL    HW2 2412   6.311   0.579   6.781
  505SOL     OW 2413   0.435   4.056   5.327
  505SOL    HW1 2414   0.403   4.073   5.420
  505SOL    HW2 2415   0.363   4.081   5.262
  506SOL     OW 2416   3.000   6.100   2.357
  506SOL    HW1 2417   3.013   6.093   2.258
  506SOL    HW2 2418   2.908   6.068   2.381
  507SOL     OW 2419   2.258   0.220   3.903
  507SOL    HW1 2420   2.225   0.307   3.941
  507SOL    HW2 2421   2.351   0.203   3.936
  508SOL     OW 2422   0.499   4.993   2.928
  508SOL    HW1 2423   0.457   4.918   2.878
  508SOL    HW2 2424   0.594   5.004   2.899
  509SOL     OW 2425   4.473   0.627   5.977
  509SOL    HW1 2426   4.384   0.621   5.931
  509SOL    HW2 2427   4.475   0.708   6.036
  510SOL     OW 2428   6.378   4.590   0.353
  510SOL    HW1 2429   6.326   4.666   0.314
  510SOL    HW2 2430   6.385   4.517   0.285
  511SOL     OW 2431   6.827   2.213   0.479
  511SOL    HW1 2432   6.917   2.188   0.515
  511SOL    HW2 2433   6.828   2.205   0.379
  512SOL     OW 2434   1.664   1.598   4.945
  512SOL    HW1 2435   1.753   1.644   4.953
  512SOL    HW2 2436   1.597   1.661   4.906
  513SOL     OW 2437   5.653   5.432   2.296
  513SOL    HW1 2438   5.629   5.528   2.285
  513SOL    HW2 2439   5.570   5.376   2.296
  514SOL     OW 2440   5.260   1.295   4.914
  514SOL    HW1 2441   5.191   1.354   4.955
  514SOL    HW2 2442   5.290   1.228   4.982
  515SOL     OW 2443   3.004   0.362   6.478
  515SOL    HW1 2444   3.101   0.344   6.463
  515SOL    HW2 2445   2.989   0.461   6.482
  516SOL     OW 2446   0.707   5.925   2.707
  516SOL    HW1 2447   0.687   5.944   2.610
  516SOL    HW2 2448   0.771   5.993   2.742
  517SOL     OW 2449   3.251   5.103   0.639
  517SOL    HW1 2450   3.346   5.117   0.668
  517SOL    HW2 2451   3.190   5.118   0.717
  518SOL     OW 2452   1.989   0.257   3.757
  518SOL    HW1 2453   1.952   0.255   3.664
  518SOL    HW2 2454   2.080   0.214   3.758
  519SOL     OW 2455   6.990   6.700   2.750
  519SOL    HW1 2456   0.045   6.684   2.686
  519SOL    HW2 2457   6.933   6.618   2.755
  520SOL     OW 2458   3.730   5.571   0.775
  520SOL    HW1 2459   3.771   5.646   0.826
  520SOL    HW2 2460   3.652   5.605   0.722
  521SOL     OW 2461   0.249   6.755   5.009
  521SOL    HW1 2462   0.231   6.844   5.049
  521SOL    HW2 2463   0.162   6.708   4.991
  522SOL     OW 2464   3.153   5.416   6.143
  522SOL    HW1 2465   3.163   5.439   6.240
  522SOL    HW2 2466   3.222   5.466   6.090
  523SOL     OW 2467   1.896   6.637   6.470
  523SOL    HW1 2468   1.882   6.736   6.474
  523SOL    HW2 2469   1.807   6.591   6.467
  524SOL     OW 2470   6.984   2.000   1.605
  524SOL    HW1 2471   6.890   1.969   1.616
  524SOL    HW2 2472   6.988   2.100   1.613
  525SOL     OW 2473   0.367   3.409   3.379
  525SOL    HW1 2474   0.315   3.404   3.464
  525SOL    HW2 2475   0.373   3.504   3.349
  526SOL     OW 2476   4.224   6.021   4.780
  526SOL    HW1 2477   4.205   5.945   4.718
  526SOL    HW2 2478   4.150   6.089   4.773
  527SOL     OW 2479   6.859   1.874   0.509
  527SOL    HW1 2480   6.932   1.897   0.445
  527SOL    HW2 2481   6.895   1.875   0.602
  528SOL     OW 2482   6.709   1.721   3.346
  528SOL    HW1 2483   6.705   1.634   3.296
  528SOL    HW2 2484   6.703   1.704   3.444
  529SOL     OW 2485   0.763   1.618   5.703
  529SOL    HW1 2486   0.715   1.548   5.756
  529SOL    HW2 2487   0.814   1.574   5.629
  530SOL     OW 2488   3.552   4.285   1.789
  530SOL    HW1 2489   3.583   4.244   1.875
  530SOL    HW2 2490   3.552   4.385   1.798
  531SOL     OW 2491   0.040   1.668   5.777
  531SOL    HW1 2492   6.978   1.613   5.790
  531SOL    HW2 2493   0.029   1.756   5.822
  532SOL     OW 2494   3.490   0.746   6.521
  532SOL    HW1 2495   3.453   0.664   6.477
  532SOL    HW2 2496   3.589   0.750   6.507
  533SOL     OW 2497   3.307   0.037   4.570
  533SOL    HW1 2498   3.356   0.122   4.549
  533SOL    HW2 2499   3.368   6.980   4.558
  534SOL     OW 2500   2.199   4.446   0.723
  534SOL    HW1 2501   2.264   4.472   0.795
  534SOL    HW2 2502   2.227   4.357   0.685
  535SOL     OW 2503   4.748   4.087   3.552
  535SOL    HW1 2504   4.823   4.109   3.490
  535SOL    HW2 2505   4.681   4.161   3.552
  536SOL     OW 2506   6.512   0.661   1.163
  536SOL    HW1 2507   6.458   0.745   1.163
  536SOL    HW2 2508   6.514   0.623   1.256
  537SOL     OW 2509   3.411   2.120   2.436
  537SOL    HW1 2510   3.320   2.149   2.407
  537SOL    HW2 2511   3.470   2.111   2.356
  538SOL     OW 2512   4.184   5.639   6.493
  538SOL    HW1 2513   4.096   5.624   6.539
  538SOL    HW2 2514   4.170   5.694   6.411
  539SOL     OW 2515   3.229   0.113   6.824
  539SOL    HW1 2516   3.296   0.047   6.790
  539SOL    HW2 2517   3.137   0.087   6.791
  540SOL     OW 2518   1.808   1.777   5.397
  540SOL    HW1 2519   1.773   1.870   5.400
  540SOL    HW2 2520   1.741   1.717   5.352
  541SOL     OW 2521   6.118   5.715   1.550
  541SOL    HW1 2522   6.027   5.737   1.514
  541SOL    HW2 2523   6.188   5.758   1.492
  542SOL     OW 2524   4.079   5.848   5.983
  542SOL    HW1 2525   4.033   5.905   5.915
  542SOL    HW2 2526   4.148   5.901   6.032
  543SOL     OW 2527   6.901   1.918   4.796
  543SOL    HW1 2528   6.934   1.957   4.882
  543SOL    HW2 2529   6.824   1.973   4.762
  544SOL     OW 2530   1.215   2.151   1.074
  544SOL    HW1 2531   1.138   2.125   1.132
  544SOL    HW2 2532   1.221   2.089   0.996
  545SOL     OW 2533   0.275   5.097   0.669
  545SOL    HW1 2534   0.300   5.193   0.680
  545SOL    HW2 2535   0.329   5.040   0.732
  546SOL     OW 2536   6.555   5.978   2.569
  546SOL    HW1 2537   6.511   6.058   2.608
  546SOL    HW2 2538   6.651   5.999   2.550
  547SOL     OW 2539   3.577   6.205   6.956
  547SOL    HW1 2540   3.555   6.204   0.033
  547SOL    HW2 2541   3.504   6.252   6.906
  548SOL     OW 2542   4.002   3.264   5.987
  548SOL    HW1 2543   3.927   3.200   6.004
  548SOL    HW2 2544   4.051   3.283   6.072
  549SOL     OW 2545   5.102   2.627   4.242
  549SOL    HW1 2546   5.120   2.638   4.339
  549SOL    HW2 2547   5.070   2.533   4.225
  550SOL     OW 2548   6.933   5.722   4.304
  550SOL    HW1 2549   6.904   5.818   4.307
  550SOL    HW2 2550   0.010   5.717   4.286
  551SOL     OW 2551   5.516   1.109   6.934
  551SOL    HW1 2552   5.528   1.014   6.965
  551SOL    HW2 2553   5.574   1.126   6.855
  552SOL     OW 2554   1.250   0.487   4.138
  552SOL    HW1 2555   1.254   0.531   4.048
  552SOL    HW2 2556   1.263   0.389   4.128
  553SOL     OW 2557   4.138   2.587   5.732
  553SOL    HW1 2558   4.214   2.613   5.674
  553SOL    HW2 2559   4.171   2.530   5.808
  554SOL     OW 2560   0.085   4.991   0.511
  554SOL    HW1 2561   0.036   4.908   0.538
  554SOL    HW2 2562   0.149   5.018   0.583
  555SOL     OW 2563   4.178   5.148   5.893
  555SOL    HW1 2564   4.212   5.242   5.891
  555SOL    HW2 2565   4.121   5.135   5.974
  556SOL     OW 2566   5.401   6.006   3.161
  556SOL    HW1 2567   5.398   5.941   3.084
  556SOL    HW2 2568   5.437   6.093   3.129
  557SOL     OW 2569   6.816   3.651   0.272
  557SOL    HW1 2570   6.793   3.555   0.255
  557SOL    HW2 2571   6.915   3.659   0.288
  558SOL     OW 2572   3.568   3.665   1.859
  558SOL    HW1 2573   3.526   3.703   1.941
  558SOL    HW2 2574   3.569   3.734   1.787
  559SOL     OW 2575   6.057   1.341   6.416
  559SOL    HW1 2576   6.013   1.391   6.341
  559SOL    HW2 2577   6.055   1.243   6.396
  560SOL     OW 2578   1.902   2.450   2.606
  560SOL    HW1 2579   1.991   2.468   2.648
  560SOL    HW2 2580   1.876   2.355   2.622
  561SOL     OW 2581   6.680   3.970   0.485
  561SOL    HW1 2582   6.624   4.010   0.557
  561SOL    HW2 2583   6.693   4.037   0.412
  562SOL     OW 2584   3.305   6.326   3.183
  562SOL    HW1 2585   3.322   6.423   3.169
  562SOL    HW2 2586   3.209   6.306   3.165
  563SOL     OW 2587   0.810   0.704   4.405
  563SOL    HW1 2588   0.808   0.786   4.347
  563SOL    HW2 2589   0.737   0.641   4.377
  564SOL     OW 2590   5.981   2.386   5.935
  564SOL    HW1 2591   6.010   2.367   5.841
  564SOL    HW2 2592   5.890   2.345   5.950
  565SOL     OW 2593   3.225   3.422   3.672
  565SOL    HW1 2594   3.125   3.423   3.674
  565SOL    HW2 2595   3.258   3.330   3.690
  566SOL     OW 2596   1.119   2.669   3.157
  566SOL    HW1 2597   1.184   2.731   3.112
  566SOL    HW2 2598   1.048   2.643   3.091
  567SOL     OW 2599   1.519   2.948   5.439
  567SOL    HW1 2600   1.531   2.853   5.411
  567SOL    HW2 2601   1.568   3.008   5.377
  568SOL     OW 2602   0.680   0.177   6.507
  568SOL    HW1 2603   0.777   0.194   6.522
  568SOL    HW2 2604   0.648   0.232   6.430
  569SOL     OW 2605   5.176   3.361   5.040
  569SOL    HW1 2606   5.083   3.397   5.029
  569SOL    HW2 2607   5.215   3.396   5.125
  570SOL     OW 2608   2.832   0.076   5.344
  570SOL    HW1 2609   2.784   7.009   5.350
  570SOL    HW2 2610   2.766   0.150   5.341
  571SOL     OW 2611   2.152   4.556   2.410
  571SOL    HW1 2612   2.127   4.585   2.502
  571SOL    HW2 2613   2.207   4.473   2.414
  572SOL     OW 2614   2.300   1.771   4.737
  572SOL    HW1 2615   2.366   1.702   4.766
  572SOL    HW2 2616   2.295   1.773   4.637
  573SOL     OW 2617   0.394   6.979   5.910
  573SOL    HW1 2618   0.308   6.988   5.859
  573SOL    HW2 2619   0.373   6.965   6.007
  574SOL     OW 2620   2.362   0.827   5.822
  574SOL    HW1 2621   2.306   0.817   5.904
  574SOL    HW2 2622   2.354   0.744   5.766
  575SOL     OW 2623   3.745   4.021   0.019
  575SOL    HW1 2624   3.733   3.958   0.096
  575SOL    HW2 2625   3.656   4.058   7.014
  576SOL     OW 2626   6.903   0.500   4.002
  576SOL    HW1 2627   6.937   0.568   4.067
  576SOL    HW2 2628   6.938   0.409   4.026
  577SOL     OW 2629   6.507   0.605   1.984
  577SOL    HW1 2630   6.432   0.577   1.924
  577SOL    HW2 2631   6.495   0.564   2.074
  578SOL     OW 2632   3.935   6.785   0.880
  578SOL    HW1 2633   3.969   6.871   0.918
  578SOL    HW2 2634   3.943   6.713   0.949
  579SOL     OW 2635   0.701   3.849   2.019
  579SOL    HW1 2636   0.628   3.906   1.982
  579SOL    HW2 2637   0.784   3.861   1.964
  580SOL     OW 2638   4.789   4.608   4.742
  580SOL    HW1 2639   4.775   4.706   4.748
  580SOL    HW2 2640   4.701   4.562   4.736
  581SOL     OW 2641   2.633   2.420   3.752
  581SOL    HW1 2642   2.533   2.418   3.757
  581SOL    HW2 2643   2.662   2.392   3.660
  582SOL     OW 2644   6.075   4.659   5.429
  582SOL    HW1 2645   6.096   4.563   5.409
  582SOL    HW2 2646   6.011   4.694   5.360
  583SOL     OW 2647   3.032   6.018   5.530
  583SOL    HW1 2648   3.054   5.922   5.517
  583SOL    HW2 2649   3.117   6.069   5.547
  584SOL     OW 2650   3.758   0.415   5.226
  584SOL    HW1 2651   3.738   0.364   5.142
  584SOL    HW2 2652   3.690   0.392   5.296
  585SOL     OW 2653   3.989   6.673   1.606
  585SOL    HW1 2654   3.892   6.653   1.618
  585SOL    HW2 2655   4.033   6.596   1.561
  586SOL     OW 2656   3.782   6.283   0.831
  586SOL    HW1 2657   3.757   6.259   0.924
  586SOL    HW2 2658   3.795   6.382   0.824
  587SOL     OW 2659   5.328   0.586   2.770
  587SOL    HW1 2660   5.352   0.503   2.819
  587SOL    HW2 2661   5.351   0.666   2.825
  588SOL     OW 2662   2.274   4.300   2.616
  588SOL    HW1 2663   2.353   4.352   2.649
  588SOL    HW2 2664   2.209   4.288   2.692
  589SOL     OW 2665   3.852   4.859   5.658
  589SOL    HW1 2666   3.827   4.901   5.745
  589SOL    HW2 2667   3.872   4.762   5.672
  590SOL     OW 2668   1.989   1.141   6.481
  590SOL    HW1 2669   1.993   1.204   6.403
  590SOL    HW2 2670   2.076   1.143   6.530
  591SOL     OW 2671   2.777   0.211   3.829
  591SOL    HW1 2672   2.863   0.250   3.861
  591SOL    HW2 2673   2.707   0.220   3.900
  592SOL     OW 2674   4.645   1.886   4.238
  592SOL    HW1 2675   4.572   1.925   4.181
  592SOL    HW2 2676   4.684   1.806   4.192
  593SOL     OW 2677   1.290   6.834   0.121
  593SOL    HW1 2678   1.296   6.748   0.172
  593SOL    HW2 2679   1.259   6.907   0.181
  594SOL     OW 2680   2.898   1.138   5.345
  594SOL    HW1 2681   2.894   1.234   5.316
  594SOL    HW2 2682   2.992   1.107   5.343
  595SOL     OW 2683   5.746   3.849   2.517
  595SOL    HW1 2684   5.767   3.803   2.431
  595SOL    HW2 2685   5.745   3.948   2.503
  596SOL     OW 2686   6.303   4.932   4.996
  596SOL    HW1 2687   6.358   4.856   5.030
  596SOL    HW2 2688   6.353   5.017   5.007
  597SOL     OW 2689   4.049   1.299   6.893
  597SOL    HW1 2690   3.961   1.311   6.847
  597SOL    HW2 2691   4.058   1.205   6.924
  598SOL     OW 2692   3.085   3.125   1.941
  598SOL    HW1 2693   3.135   3.192   1.886
  598SOL    HW2 2694   3.130   3.116   2.030
  599SOL     OW 2695   1.903   5.402   1.491
  599SOL    HW1 2696   1.850   5.389   1.574
  599SOL    HW2 2697   1.928   5.312   1.454
  600SOL     OW 2698   0.471   3.193   5.772
  600SOL    HW1 2699   0.440   3.116   5.716
  600SOL    HW2 2700   0.408   3.269   5.762
  601SOL     OW 2701   6.800   0.273   5.893
  601SOL    HW1 2702   6.702   0.251   5.899
  601SOL    HW2 2703   6.839   0.274   5.985
  602SOL     OW 2704   0.303   0.423   3.404
  602SOL    HW1 2705   0.220   0.371   3.423
  602SOL    HW2 2706   0.371   0.362   3.363
  603SOL     OW 2707   1.443   1.146   3.894
  603SOL    HW1 2708   1.347   1.138   3.867
  603SOL    HW2 2709   1.492   1.200   3.826
  604SOL     OW 2710   5.533   2.083   1.298
  604SOL    HW1 2711   5.588   2.081   1.381
  604SOL    HW2 2712   5.471   2.005   1.297
  605SOL     OW 2713   5.866   6.633   1.915
  605SOL    HW1 2714   5.924   6.697   1.966
  605SOL    HW2 2715   5.872   6.654   1.818
  606SOL     OW 2716   2.584   6.470   5.426
  606SOL    HW1 2717   2.599   6.378   5.464
  606SOL    HW2 2718   2.603   6.539   5.496
  607SOL     OW 2719   1.747   3.216   6.465
  607SOL    HW1 2720   1.656   3.254   6.476
  607SOL    HW2 2721   1.791   3.208   6.555
  608SOL     OW 2722   2.449   1.038   6.801
  608SOL    HW1 2723   2.465   0.946   6.767
  608SOL    HW2 2724   2.535   1.077   6.833
  609SOL     OW 2725   4.091   3.330   2.861
  609SOL    HW1 2726   4.000   3.300   2.836
  609SOL    HW2 2727   4.095   3.430   2.858
  610SOL     OW 2728   5.576   2.725   2.058
  610SOL    HW1 2729   5.558   2.814   2.100
  610SOL    HW2 2730   5.496   2.697   2.005
  611SOL     OW 2731   4.035   1.206   2.093
  611SOL    HW1 2732   4.071   1.299   2.086
  611SOL    HW2 2733   3.985   1.183   2.009
  612SOL     OW 2734   4.236   5.601   4.136
  612SOL    HW1 2735   4.240   5.686   4.083
  612SOL    HW2 2736   4.245   5.523   4.074
  613SOL     OW 2737   3.674   6.030   6.567
  613SOL    HW1 2738   3.714   6.090   6.637
  613SOL    HW2 2739   3.741   6.014   6.495
  614SOL     OW 2740   3.701   6.119   5.837
  614SOL    HW1 2741   3.694   6.199   5.777
  614SOL    HW2 2742   3.768   6.056   5.799
  615SOL     OW 2743   0.266   5.352   4.068
  615SOL    HW1 2744   0.294   5.262   4.100
  615SOL    HW2 2745   0.322   5.422   4.112
  616SOL     OW 2746   6.351   2.868   3.544
  616SOL    HW1 2747   6.322   2.897   3.453
  616SOL    HW2 2748   6.297   2.915   3.613
  617SOL     OW 2749   2.680   0.155   6.127
  617SOL    HW1 2750   2.583   0.149   6.149
  617SOL    HW2 2751   2.726   0.216   6.192
  618SOL     OW 2752   2.242   0.444   2.854
  618SOL    HW1 2753   2.308   0.512   2.886
  618SOL    HW2 2754   2.151   0.487   2.848
  619SOL     OW 2755   1.452   2.892   7.014
  619SOL    HW1 2756   1.533   2.941   0.026
  619SOL    HW2 2757   1.436   2.915   6.918
  620SOL     OW 2758   5.258   3.480   1.093
  620SOL    HW1 2759   5.197   3.515   1.022
  620SOL    HW2 2760   5.255   3.541   1.172
  621SOL     OW 2761   0.045   5.891   0.907
  621SOL    HW1 2762   6.998   5.828   0.945
  621SOL    HW2 2763   0.099   5.844   0.837
  622SOL     OW 2764   1.030   1.323   6.754
  622SOL    HW1 2765   1.050   1.253   6.686
  622SOL    HW2 2766   1.092   1.401   6.740
  623SOL     OW 2767   6.170   5.482   5.331
  623SOL    HW1 2768   6.147   5.392   5.293
  623SOL    HW2 2769   6.128   5.492   5.421
  624SOL     OW 2770   6.806   1.570   1.449
  624SOL    HW1 2771   6.715   1.579   1.408
  624SOL    HW2 2772   6.876   1.593   1.381
  625SOL     OW 2773   1.742   0.976   1.796
  625SOL    HW1 2774   1.798   0.974   1.879
  625SOL    HW2 2775   1.702   0.886   1.781
  626SOL     OW 2776   4.142   5.594   5.483
  626SOL    HW1 2777   4.084   5.623   5.408
  626SOL    HW2 2778   4.121   5.499   5.507
  627SOL     OW 2779   4.083   5.334   0.118
  627SOL    HW1 2780   4.092   5.292   0.209
  627SOL    HW2 2781   4.079   5.262   0.049
  628SOL     OW 2782   4.927   3.641   3.791
  628SOL    HW1 2783   4.920   3.582   3.870
  628SOL    HW2 2784   4.876   3.601   3.715
  629SOL     OW 2785   1.061   6.969   1.559
  629SOL    HW1 2786   0.962   6.974   1.547
  629SOL    HW2 2787   1.095   0.036   1.593
  630SOL     OW 2788   2.726   1.601   2.127
  630SOL    HW1 2789   2.826   1.602   2.132
  630SOL    HW2 2790   2.689   1.678   2.178
  631SOL     OW 2791   2.658   1.428   4.139
  631SOL    HW1 2792   2.562   1.440   4.166
  631SOL    HW2 2793   2.707   1.514   4.151
  632SOL     OW 2794   3.269   0.901   0.268
  632SOL    HW1 2795   3.229   0.981   0.312
  632SOL    HW2 2796   3.209   0.871   0.193
  633SOL     OW 2797   2.168   0.265   4.516
  633SOL    HW1 2798   2.161   0.364   4.509
  633SOL    HW2 2799   2.259   0.236   4.485
  634SOL     OW 2800   2.536   5.508   2.066
  634SOL    HW1 2801   2.545   5.412   2.093
  634SOL    HW2 2802   2.441   5.528   2.043
  635SOL     OW 2803   3.099   0.351   1.947
  635SOL    HW1 2804   3.146   0.399   1.873
  635SOL    HW2 2805   3.077   0.416   2.020
  636SOL     OW 2806   4.995   4.923   6.579
  636SOL    HW1 2807   5.017   4.830   6.608
  636SOL    HW2 2808   4.967   4.922   6.483
  637SOL     OW 2809   6.105   4.486   6.519
  637SOL    HW1 2810   6.050   4.566   6.543
  637SOL    HW2 2811   6.197   4.516   6.492
  638SOL     OW 2812   5.376   1.735   3.343
  638SOL    HW1 2813   5.447   1.768   3.407
  638SOL    HW2 2814   5.414   1.661   3.287
  639SOL     OW 2815   3.845   3.586   1.399
  639SOL    HW1 2816   3.843   3.601   1.498
  639SOL    HW2 2817   3.761   3.539   1.371
  640SOL     OW 2818   3.384   2.582   5.304
  640SOL    HW1 2819   3.332   2.499   5.282
  640SOL    HW2 2820   3.327   2.662   5.288
  641SOL     OW 2821   0.048   0.540   5.288
  641SOL    HW1 2822   0.076   0.612   5.224
  641SOL    HW2 2823   0.125   0.517   5.348
  642SOL     OW 2824   0.782   5.147   6.055
  642SOL    HW1 2825   0.692   5.117   6.087
  642SOL    HW2 2826   0.789   5.129   5.957
  643SOL     OW 2827   5.418   6.832   4.708
  643SOL    HW1 2828   5.383   6.905   4.648
  643SOL    HW2 2829   5.420   6.864   4.802
  644SOL     OW 2830   3.491   5.623   1.718
  644SOL    HW1 2831   3.485   5.702   1.780
  644SOL    HW2 2832   3.433   5.639   1.638
  645SOL     OW 2833   0.926   2.965   2.975
  645SOL    HW1 2834   1.010   2.942   2.925
  645SOL    HW2 2835   0.919   3.064   2.984
  646SOL     OW 2836   1.822   3.182   4.255
  646SOL    HW1 2837   1.865   3.165   4.167
  646SOL    HW2 2838   1.892   3.181   4.327
  647SOL     OW 2839   5.640   5.304   1.069
  647SOL    HW1 2840   5.708   5.244   1.027
  647SOL    HW2 2841   5.641   5.292   1.168
  648SOL     OW 2842   4.285   2.373   3.857
  648SOL    HW1 2843   4.215   2.333   3.917
  648SOL    HW2 2844   4.260   2.356   3.762
  649SOL     OW 2845   4.320   4.570   1.491
  649SOL    HW1 2846   4.260   4.493   1.473
  649SOL    HW2 2847   4.370   4.555   1.576
  650SOL     OW 2848   5.595   5.601   0.220
  650SOL    HW1 2849   5.691   5.600   0.193
  650SOL    HW2 2850   5.552   5.514   0.194
  651SOL     OW 2851   1.141   5.488   6.590
  651SOL    HW1 2852   1.064   5.428   6.607
  651SOL    HW2 2853   1.225   5.448   6.628
  652SOL     OW 2854   4.755   2.795   1.492
  652SOL    HW1 2855   4.769   2.877   1.548
  652SOL    HW2 2856   4.669   2.751   1.519
  653SOL     OW 2857   3.422   5.348   2.696
  653SOL    HW1 2858   3.471   5.357   2.783
  653SOL    HW2 2859   3.485   5.317   2.625
  654SOL     OW 2860   6.805   4.571   0.085
  654SOL    HW1 2861   6.904   4.562   0.094
  654SOL    HW2 2862   6.784   4.632   0.009
  655SOL     OW 2863   1.912   1.303   0.620
  655SOL    HW1 2864   1.842   1.342   0.679
  655SOL    HW2 2865   1.953   1.375   0.564
  656SOL     OW 2866   1.973   6.240   1.034
  656SOL    HW1 2867   1.908   6.164   1.039
  656SOL    HW2 2868   1.928   6.320   0.994
  657SOL     OW 2869   3.703   0.275   6.467
  657SOL    HW1 2870   3.661   0.305   6.552
  657SOL    HW2 2871   3.800   0.255   6.483
  658SOL     OW 2872   4.207   5.571   0.464
  658SOL    HW1 2873   4.135   5.635   0.489
  658SOL    HW2 2874   4.212   5.564   0.364
  659SOL     OW 2875   3.522   0.595   5.983
  659SOL    HW1 2876   3.439   0.650   5.974
  659SOL    HW2 2877   3.512   0.530   6.057
  660SOL     OW 2878   2.954   6.021   3.407
  660SOL    HW1 2879   2.945   5.992   3.502
  660SOL    HW2 2880   2.973   6.119   3.403
  661SOL     OW 2881   0.195   5.252   3.294
  661SOL    HW1 2882   0.236   5.161   3.290
  661SOL    HW2 2883   0.126   5.254   3.366
  662SOL     OW 2884   4.152   2.249   6.832
  662SOL    HW1 2885   4.240   2.277   6.872
  662SOL    HW2 2886   4.086   2.324   6.842
  663SOL     OW 2887   1.705   3.834   4.814
  663SOL    HW1 2888   1.770   3.879   4.753
  663SOL    HW2 2889   1.741   3.744   4.840
  664SOL     OW 2890   5.432   0.339   5.971
  664SOL    HW1 2891   5.421   0.306   6.065
  664SOL    HW2 2892   5.436   0.261   5.909
  665SOL     OW 2893   1.709   3.809   2.145
  665SOL    HW1 2894   1.796   3.853   2.123
  665SOL    HW2 2895   1.636   3.848   2.087
  666SOL     OW 2896   3.998   0.893   2.662
  666SOL    HW1 2897   4.019   0.842   2.745
  666SOL    HW2 2898   3.993   0.831   2.584
  667SOL     OW 2899   6.503   0.291   1.040
  667SOL    HW1 2900   6.514   0.231   0.961
  667SOL    HW2 2901   6.556   0.254   1.117
  668SOL     OW 2902   4.977   3.404   6.847
  668SOL    HW1 2903   5.015   3.327   6.796
  668SOL    HW2 2904   5.024   3.412   6.935
  669SOL     OW 2905   5.398   1.029   3.369
  669SOL    HW1 2906   5.354   1.066   3.451
  669SOL    HW2 2907   5.496   1.018   3.386
  670SOL     OW 2908   4.136   1.442   2.019
  670SOL    HW1 2909   4.219   1.497   2.016
  670SOL    HW2 2910   4.059   1.500   2.046
  671SOL     OW 2911   1.153   5.772   2.156
  671SOL    HW1 2912   1.165   5.683   2.200
  671SOL    HW2 2913   1.180   5.766   2.060
  672SOL     OW 2914   0.070   0.130   1.415
  672SOL    HW1 2915   0.004   0.155   1.487
  672SOL    HW2 2916   0.122   0.211   1.389
  673SOL     OW 2917   6.343   6.674   6.285
  673SOL    HW1 2918   6.330   6.622   6.369
  673SOL    HW2 2919   6.374   6.766   6.307
  674SOL     OW 2920   4.438   6.786   4.490
  674SOL    HW1 2921   4.515   6.773   4.554
  674SOL    HW2 2922   4.356   6.743   4.527
  675SOL     OW 2923   0.690   5.269   2.363
  675SOL    HW1 2924   0.599   5.244   2.399
  675SOL    HW2 2925   0.700   5.368   2.364
  676SOL     OW 2926   2.066   5.841   6.726
  676SOL    HW1 2927   2.073   5.770   6.656
  676SOL    HW2 2928   2.112   5.810   6.809
  677SOL     OW 2929   5.246   1.159   1.132
  677SOL    HW1 2930   5.174   1.096   1.102
  677SOL    HW2 2931   5.282   1.129   1.221
  678SOL     OW 2932   0.587   5.400   4.347
  678SOL    HW1 2933   0.685   5.418   4.353
  678SOL    HW2 2934   0.545   5.418   4.436
  679SOL     OW 2935   5.474   1.027   5.959
  679SOL    HW1 2936   5.397   1.011   6.021
  679SOL    HW2 2937   5.540   0.953   5.966
  680SOL     OW 2938   6.086   0.311   3.831
  680SOL    HW1 2939   6.100   0.357   3.744
  680SOL    HW2 2940   6.012   0.244   3.822
  681SOL     OW 2941   4.817   4.514   3.027
  681SOL    HW1 2942   4.762   4.595   3.011
  681SOL    HW2 2943   4.757   4.434   3.036
  682SOL     OW 2944   6.329   1.912   3.184
  682SOL    HW1 2945   6.389   1.888   3.260
  682SOL    HW2 2946   6.234   1.913   3.216
  683SOL     OW 2947   3.262   5.325   0.202
  683SOL    HW1 2948   3.358   5.338   0.227
  683SOL    HW2 2949   3.245   5.228   0.185
  684SOL     OW 2950   5.562   2.217   6.253
  684SOL    HW1 2951   5.543   2.130   6.298
  684SOL    HW2 2952   5.493   2.234   6.183
  685SOL     OW 2953   3.275   6.843   3.551
  685SOL    HW1 2954   3.196   6.821   3.494
  685SOL    HW2 2955   3.325   6.920   3.510
  686SOL     OW 2956   2.624   0.272   5.396
  686SOL    HW1 2957   2.550   0.271   5.328
  686SOL    HW2 2958   2.594   0.321   5.477
  687SOL     OW 2959   0.195   1.012   4.526
  687SOL    HW1 2960   0.177   0.988   4.621
  687SOL    HW2 2961   0.281   1.063   4.520
  688SOL     OW 2962   4.770   3.526   6.742
  688SOL    HW1 2963   4.792   3.622   6.723
  688SOL    HW2 2964   4.847   3.483   6.789
  689SOL     OW 2965   2.181   6.042   0.094
  689SOL    HW1 2966   2.195   6.017   7.019
  689SOL    HW2 2967   2.223   5.973   0.153
  690SOL     OW 2968   6.015   3.528   3.818
  690SOL    HW1 2969   6.076   3.458   3.781
  690SOL    HW2 2970   5.935   3.484   3.858
  691SOL     OW 2971   5.680   0.517   2.728
  691SOL    HW1 2972   5.638   0.547   2.642
  691SOL    HW2 2973   5.750   0.448   2.709
  692SOL     OW 2974   1.409   6.763   3.585
  692SOL    HW1 2975   1.378   6.854   3.613
  692SOL    HW2 2976   1.502   6.770   3.549
  693SOL     OW 2977   6.060   4.057   1.997
  693SOL    HW1 2978   6.155   4.085   1.985
  693SOL    HW2 2979   6.003   4.103   1.928
  694SOL     OW 2980   4.119   4.932   4.558
  694SOL    HW1 2981   4.137   4.873   4.636
  694SOL    HW2 2982   4.021   4.954   4.555
  695SOL     OW 2983   4.623   0.300   4.207
  695SOL    HW1 2984   4.653   0.385   4.251
  695SOL    HW2 2985   4.645   0.223   4.266
  696SOL     OW 2986   0.018   4.696   1.664
  696SOL    HW1 2987   0.036   4.772   1.603
  696SOL    HW2 2988   0.103   4.668   1.710
  697SOL     OW 2989   0.475   6.303   3.084
  697SOL    HW1 2990   0.455   6.335   3.176
  697SOL    HW2 2991   0.533   6.221   3.088
  698SOL     OW 2992   5.907   6.416   5.882
  698SOL    HW1 2993   5.980   6.415   5.950
  698SOL    HW2 2994   5.938   6.462   5.799
  699SOL     OW 2995   4.246   2.841   0.756
  699SOL    HW1 2996   4.337   2.864   0.791
  699SOL    HW2 2997   4.248   2.750   0.715
  700SOL     OW 2998   3.555   6.494   5.234
  700SOL    HW1 2999   3.513   6.549   5.307
  700SOL    HW2 3000   3.563   6.399   5.265
  701SOL     OW 3001   4.432   4.456   1.710
  701SOL    HW1 3002   4.526   4.460   1.676
  701SOL    HW2 3003   4.418   4.369   1.758
  702SOL     OW 3004   3.185   0.855   5.170
  702SOL    HW1 3005   3.122   0.834   5.095
  702SOL    HW2 3006   3.279   0.846   5.138
  703SOL     OW 3007   3.801   2.971   0.415
  703SOL    HW1 3008   3.852   2.886   0.407
  703SOL    HW2 3009   3.790   3.012   0.325
  704SOL     OW 3010   3.734   1.441   0.334
  704SOL    HW1 3011   3.685   1.415   0.417
  704SOL    HW2 3012   3.779   1.529   0.348
  705SOL     OW 3013   6.739   6.762   6.043
  705SOL    HW1 3014   6.687   6.704   6.107
  705SOL    HW2 3015   6.688   6.846   6.026
  706SOL     OW 3016   3.457   0.472   5.249
  706SOL    HW1 3017   3.365   0.511   5.243
  706SOL    HW2 3018   3.450   0.375   5.275
  707SOL     OW 3019   3.714   4.931   4.259
  707SOL    HW1 3020   3.779   4.881   4.201
  707SOL    HW2 3021   3.626   4.936   4.211
  708SOL     OW 3022   2.762   6.166   4.182
  708SOL    HW1 3023   2.836   6.212   4.231
  708SOL    HW2 3024   2.773   6.067   4.191
  709SOL     OW 3025   2.013   6.745   1.641
  709SOL    HW1 3026   1.943   6.746   1.569
  709SOL    HW2 3027   2.008   6.831   1.693
  710SOL     OW 3028   4.872   3.034   2.724
  710SOL    HW1 3029   4.960   3.046   2.678
  710SOL    HW2 3030   4.887   3.021   2.822
  711SOL     OW 3031   6.779   1.014   0.452
  711SOL    HW1 3032   6.839   0.983   0.379
  711SOL    HW2 3033   6.722   1.090   0.418
  712SOL     OW 3034   4.980   4.470   6.857
  712SOL    HW1 3035   4.948   4.486   6.951
  712SOL    HW2 3036   4.924   4.400   6.814
  713SOL     OW 3037   2.502   2.847   5.662
  713SOL    HW1 3038   2.573   2.783   5.690
  713SOL    HW2 3039   2.487   2.839   5.563
  714SOL     OW 3040   3.826   6.854   2.984
  714SOL    HW1 3041   3.873   6.883   2.900
  714SOL    HW2 3042   3.763   6.925   3.013
  715SOL     OW 3043   6.155   3.877   6.150
  715SOL    HW1 3044   6.227   3.822   6.193
  715SOL    HW2 3045   6.119   3.828   6.070
  716SOL     OW 3046   3.283   0.965   3.141
  716SOL    HW1 3047   3.375   0.998   3.120
  716SOL    HW2 3048   3.260   0.889   3.081
  717SOL     OW 3049   5.368   4.553   3.613
  717SOL    HW1 3050   5.458   4.532   3.652
  717SOL    HW2 3051   5.381   4.599   3.525
  718SOL     OW 3052   6.499   2.364   5.367
  718SOL    HW1 3053   6.564   2.429   5.330
  718SOL    HW2 3054   6.406   2.401   5.359
  719SOL     OW 3055   4.623   5.622   2.256
  719SOL    HW1 3056   4.698   5.557   2.245
  719SOL    HW2 3057   4.594   5.623   2.352
  720SOL     OW 3058   2.971   1.457   1.095
  720SOL    HW1 3059   2.939   1.507   1.176
  720SOL    HW2 3060   3.046   1.508   1.053
  721SOL     OW 3061   6.900   2.679   2.682
  721SOL    HW1 3062   6.983   2.633   2.712
  721SOL    HW2 3063   6.846   2.706   2.762
  722SOL     OW 3064   5.581   5.681   2.260
  722SOL    HW1 3065   5.505   5.732   2.301
  722SOL    HW2 3066   5.574   5.686   2.160
  723SOL     OW 3067   2.252   0.249   4.935
  723SOL    HW1 3068   2.179   0.309   4.969
  723SOL    HW2 3069   2.313   0.301   4.876
  724SOL     OW 3070   1.320   2.499   4.811
  724SOL    HW1 3071   1.290   2.403   4.809
  724SOL    HW2 3072   1.310   2.539   4.720
  725SOL     OW 3073   1.838   3.899   3.405
  725SOL    HW1 3074   1.911   3.886   3.339
  725SOL    HW2 3075   1.816   3.811   3.449
  726SOL     OW 3076   2.380   3.136   0.338
  726SOL    HW1 3077   2.360   3.196   0.415
  726SOL    HW2 3078   2.477   3.143   0.315
  727SOL     OW 3079   3.969   5.254   5.333
  727SOL    HW1 3080   3.932   5.162   5.330
  727SOL    HW2 3081   3.895   5.320   5.345
  728SOL     OW 3082   6.467   3.623   3.165
  728SOL    HW1 3083   6.496   3.535   3.128
  728SOL    HW2 3084   6.535   3.693   3.142
  729SOL     OW 3085   0.297   4.962   0.299
  729SOL    HW1 3086   0.389   4.991   0.323
  729SOL    HW2 3087   0.240   4.960   0.381
  730SOL     OW 3088   3.785   1.071   3.595
  730SOL    HW1 3089   3.712   1.133   3.568
  730SOL    HW2 3090   3.746   0.981   3.617
  731SOL     OW 3091   4.944   4.368   4.844
  731SOL    HW1 3092   4.988   4.291   4.798
  731SOL    HW2 3093   4.853   4.342   4.875
  732SOL     OW 3094   4.957   0.440   4.379
  732SOL    HW1 3095   4.872   0.477   4.342
  732SOL    HW2 3096   4.942   0.406   4.472
  733SOL     OW 3097   0.629   4.863   4.498
  733SOL    HW1 3098   0.612   4.878   4.595
  733SOL    HW2 3099   0.649   4.767   4.482
  734SOL     OW 3100   6.494   5.705   3.234
  734SOL    HW1 3101   6.560   5.661   3.295
  734SOL    HW2 3102   6.404   5.707   3.278
  735SOL     OW 3103   4.927   0.427   2.792
  735SOL    HW1 3104   4.956   0.332   2.779
  735SOL    HW2 3105   4.954   0.480   2.712
  736SOL     OW 3106   2.117   1.195   3.322
  736SOL    HW1 3107   2.116   1.107   3.369
  736SOL    HW2 3108   2.099   1.268   3.388
  737SOL     OW 3109   3.229   1.355   6.138
  737SOL    HW1 3110   3.198   1.450   6.150
  737SOL    HW2 3111   3.218   1.306   6.224
  738SOL     OW 3112   1.201   5.309   0.487
  738SOL    HW1 3113   1.105   5.325   0.464
  738SOL    HW2 3114   1.208   5.268   0.578
  739SOL     OW 3115   1.451   0.921   2.797
  739SOL    HW1 3116   1.434   1.020   2.799
  739SOL    HW2 3117   1.513   0.897   2.873
  740SOL     OW 3118   4.731   2.769   2.768
  740SOL    HW1 3119   4.722   2.867   2.785
  740SOL    HW2 3120   4.801   2.753   2.699
  741SOL     OW 3121   3.308   0.869   2.763
  741SOL    HW1 3122   3.276   0.852   2.670
  741SOL    HW2 3123   3.288   0.964   2.789
  742SOL     OW 3124   2.284   0.594   2.376
  742SOL    HW1 3125   2.200   0.645   2.394
  742SOL    HW2 3126   2.261   0.507   2.331
  743SOL     OW 3127   0.042   6.332   3.005
  743SOL    HW1 3128   0.097   6.393   3.063
  743SOL    HW2 3129   0.056   6.355   2.909
  744SOL     OW 3130   5.916   1.210   0.871
  744SOL    HW1 3131   5.933   1.288   0.811
  744SOL    HW2 3132   5.944   1.126   0.825
  745SOL     OW 3133   0.687   6.856   5.614
  745SOL    HW1 3134   0.665   6.831   5.708
  745SOL    HW2 3135   0.646   6.791   5.551
  746SOL     OW 3136   6.387   5.367   5.744
  746SOL    HW1 3137   6.391   5.343   5.841
  746SOL    HW2 3138   6.431   5.295   5.690
  747SOL     OW 3139   3.453   5.016   2.238
  747SOL    HW1 3140   3.412   4.978   2.321
  747SOL    HW2 3141   3.443   5.115   2.238
  748SOL     OW 3142   6.442   5.296   2.995
  748SOL    HW1 3143   6.348   5.276   2.967
  748SOL    HW2 3144   6.453   5.276   3.092
  749SOL     OW 3145   4.673   4.295   4.874
  749SOL    HW1 3146   4.620   4.362   4.823
  749SOL    HW2 3147   4.640   4.292   4.969
  750SOL     OW 3148   2.904   1.908   2.720
  750SOL    HW1 3149   2.878   1.820   2.681
  750SOL    HW2 3150   3.004   1.915   2.723
  751SOL     OW 3151   4.463   0.133   0.470
  751SOL    HW1 3152   4.449   0.171   0.379
  751SOL    HW2 3153   4.379   0.088   0.501
  752SOL     OW 3154   3.084   3.249   3.989
  752SOL    HW1 3155   3.120   3.300   4.067
  752SOL    HW2 3156   3.127   3.158   3.987
  753SOL     OW 3157   3.368   3.844   3.757
  753SOL    HW1 3158   3.302   3.909   3.720
  753SOL    HW2 3159   3.443   3.894   3.801
  754SOL     OW 3160   4.316   0.983   5.877
  754SOL    HW1 3161   4.412   0.993   5.852
  754SOL    HW2 3162   4.281   0.897   5.839
  755SOL     OW 3163   5.138   4.512   5.220
  755SOL    HW1 3164   5.126   4.605   5.255
  755SOL    HW2 3165   5.123   4.511   5.121
  756SOL     OW 3166   3.301   5.599   5.984
  756SOL    HW1 3167   3.359   5.571   5.908
  756SOL    HW2 3168   3.275   5.695   5.972
  757SOL     OW 3169   0.810   6.885   1.636
  757SOL    HW1 3170   0.755   6.899   1.554
  757SOL    HW2 3171   0.810   6.788   1.660
  758SOL     OW 3172   3.624   0.982   5.694
  758SOL    HW1 3173   3.609   0.898   5.642
  758SOL    HW2 3174   3.559   1.052   5.665
  759SOL     OW 3175   0.000   2.495   3.508
  759SOL    HW1 3176   0.092   2.533   3.494
  759SOL    HW2 3177   6.957   2.535   3.442
  760SOL     OW 3178   6.832   5.720   4.561
  760SOL    HW1 3179   6.779   5.805   4.567
  760SOL    HW2 3180   6.852   5.700   4.465
  761SOL     OW 3181   4.716   4.299   6.058
  761SOL    HW1 3182   4.756   4.391   6.050
  761SOL    HW2 3183   4.643   4.301   6.127
  762SOL     OW 3184   4.146   6.019   3.499
  762SOL    HW1 3185   4.094   5.935   3.484
  762SOL    HW2 3186   4.087   6.087   3.544
  763SOL     OW 3187   5.861   1.455   0.468
  763SOL    HW1 3188   5.864   1.540   0.415
  763SOL    HW2 3189   5.774   1.408   0.449
  764SOL     OW 3190   5.054   6.132   4.491
  764SOL    HW1 3191   5.135   6.146   4.548
  764SOL    HW2 3192   5.080   6.139   4.394
  765SOL     OW 3193   5.512   6.255   6.835
  765SOL    HW1 3194   5.505   6.279   6.932
  765SOL    HW2 3195   5.440   6.190   6.812
  766SOL     OW 3196   2.951   1.757   3.901
  766SOL    HW1 3197   2.945   1.856   3.888
  766SOL    HW2 3198   2.910   1.710   3.822
  767SOL     OW 3199   6.509   6.395   3.539
  767SOL    HW1 3200   6.411   6.414   3.530
  767SOL    HW2 3201   6.524   6.296   3.529
  768SOL     OW 3202   2.962   5.705   1.419
  768SOL    HW1 3203   2.971   5.615   1.376
  768SOL    HW2 3204   2.915   5.696   1.507
  769SOL     OW 3205   3.671   1.925   5.453
  769SOL    HW1 3206   3.745   1.955   5.513
  769SOL    HW2 3207   3.628   2.005   5.410
  770SOL     OW 3208   0.387   4.413   5.766
  770SOL    HW1 3209   0.433   4.483   5.712
  770SOL    HW2 3210   0.368   4.449   5.857
  771SOL     OW 3211   1.718   5.062   2.605
  771SOL    HW1 3212   1.738   5.155   2.574
  771SOL    HW2 3213   1.785   4.999   2.566
  772SOL     OW 3214   6.199   4.817   0.306
  772SOL    HW1 3215   6.101   4.800   0.292
  772SOL    HW2 3216   6.211   4.879   0.384
  773SOL     OW 3217   1.285   4.713   3.626
  773SOL    HW1 3218   1.189   4.726   3.600
  773SOL    HW2 3219   1.343   4.772   3.570
  774SOL     OW 3220   2.103   2.635   3.363
  774SOL    HW1 3221   2.020   2.684   3.390
  774SOL    HW2 3222   2.079   2.549   3.319
  775SOL     OW 3223   0.907   5.059   2.311
  775SOL    HW1 3224   0.825   5.114   2.292
  775SOL    HW2 3225   0.988   5.116   2.301
  776SOL     OW 3226   2.131   4.671   0.303
  776SOL    HW1 3227   2.093   4.707   0.218
  776SOL    HW2 3228   2.111   4.733   0.379
  777SOL     OW 3229   1.535   3.111   6.851
  777SOL    HW1 3230   1.458   3.173   6.870
  777SOL    HW2 3231   1.621   3.156   6.874
  778SOL     OW 3232   3.679   5.968   6.877
  778SOL    HW1 3233   3.607   6.036   6.890
  778SOL    HW2 3234   3.765   6.002   6.917
  779SOL     OW 3235   5.895   2.354   3.406
  779SOL    HW1 3236   5.937   2.376   3.494
  779SOL    HW2 3237   5.796   2.352   3.417
  780SOL     OW 3238   6.214   1.643   5.243
  780SOL    HW1 3239   6.167   1.591   5.171
  780SOL    HW2 3240   6.295   1.686   5.205
  781SOL     OW 3241   0.031   5.047   6.951
  781SOL    HW1 3242   6.972   5.007   6.996
  781SOL    HW2 3243   0.013   5.144   6.933
  782SOL     OW 3244   2.166   3.677   5.409
  782SOL    HW1 3245   2.142   3.774   5.402
  782SOL    HW2 3246   2.082   3.622   5.408
  783SOL     OW 3247   6.948   5.017   5.682
  783SOL    HW1 3248   6.896   5.094   5.645
  783SOL    HW2 3249   6.931   5.008   5.780
  784SOL     OW 3250   1.367   6.017   5.967
  784SOL    HW1 3251   1.313   6.098   5.945
  784SOL    HW2 3252   1.388   5.967   5.883
  785SOL     OW 3253   0.717   0.034   3.958
  785SOL    HW1 3254   0.760   0.102   3.899
  785SOL    HW2 3255   0.649   0.078   4.016
  786SOL     OW 3256   6.358   1.983   4.879
  786SOL    HW1 3257   6.297   1.954   4.952
  786SOL    HW2 3258   6.309   2.042   4.815
  787SOL     OW 3259   2.084   6.583   0.797
  787SOL    HW1 3260   2.156   6.548   0.857
  787SOL    HW2 3261   2.081   6.683   0.803
  788SOL     OW 3262   2.095   3.275   2.320
  788SOL    HW1 3263   2.097   3.242   2.226
  788SOL    HW2 3264   2.124   3.202   2.382
  789SOL     OW 3265   3.397   5.323   1.963
  789SOL    HW1 3266   3.315   5.363   1.922
  789SOL    HW2 3267   3.436   5.255   1.901
  790SOL     OW 3268   0.112   3.481   2.852
  790SOL    HW1 3269   0.027   3.464   2.903
  790SOL    HW2 3270   0.173   3.403   2.862
  791SOL     OW 3271   3.642   0.588   4.058
  791SOL    HW1 3272   3.693   0.503   4.042
  791SOL    HW2 3273   3.631   0.636   3.971
  792SOL     OW 3274   3.028   0.746   0.375
  792SOL    HW1 3275   2.994   0.741   0.469
  792SOL    HW2 3276   3.125   0.722   0.373
  793SOL     OW 3277   2.113   5.561   4.990
  793SOL    HW1 3278   2.028   5.596   5.029
  793SOL    HW2 3279   2.100   5.542   4.892
  794SOL     OW 3280   3.672   3.003   2.158
  794SOL    HW1 3281   3.620   2.957   2.231
  794SOL    HW2 3282   3.615   3.073   2.116
  795SOL     OW 3283   3.693   6.580   6.009
  795SOL    HW1 3284   3.755   6.548   5.938
  795SOL    HW2 3285   3.621   6.635   5.969
  796SOL     OW 3286   0.891   2.276   6.601
  796SOL    HW1 3287   0.916   2.305   6.508
  796SOL    HW2 3288   0.798   2.241   6.602
  797SOL     OW 3289   2.924   6.759   0.192
  797SOL    HW1 3290   2.998   6.727   0.133
  797SOL    HW2 3291   2.836   6.734   0.150
  798SOL     OW 3292   5.338   4.460   1.894
  798SOL    HW1 3293   5.245   4.491   1.913
  798SOL    HW2 3294   5.335   4.385   1.828
  799SOL     OW 3295   3.295   3.508   4.996
  799SOL    HW1 3296   3.331   3.416   4.981
  799SOL    HW2 3297   3.294   3.558   4.910
  800SOL     OW 3298   5.201   2.986   3.244
  800SOL    HW1 3299   5.206   3.065   3.304
  800SOL    HW2 3300   5.169   2.906   3.295
  801SOL     OW 3301   2.043   4.705   0.042
  801SOL    HW1 3302   2.065   4.742   6.972
  801SOL    HW2 3303   2.059   4.607   0.043
  802SOL     OW 3304   3.913   2.575   5.558
  802SOL    HW1 3305   3.873   2.486   5.581
  802SOL    HW2 3306   3.998   2.588   5.610
  803SOL     OW 3307   3.340   1.960   3.380
  803SOL    HW1 3308   3.324   1.888   3.447
  803SOL    HW2 3309   3.430   2.001   3.395
  804SOL     OW 3310   4.186   0.091   3.112
  804SOL    HW1 3311   4.091   0.114   3.087
  804SOL    HW2 3312   4.209   0.136   3.198
  805SOL     OW 3313   3.416   1.712   3.543
  805SOL    HW1 3314   3.426   1.617   3.513
  805SOL    HW2 3315   3.503   1.760   3.530
  806SOL     OW 3316   4.311   6.198   5.788
  806SOL    HW1 3317   4.340   6.275   5.732
  806SOL    HW2 3318   4.277   6.125   5.728
  807SOL     OW 3319   1.005   6.523   6.217
  807SOL    HW1 3320   1.067   6.568   6.152
  807SOL    HW2 3321   1.059   6.469   6.282
  808SOL     OW 3322   5.150   2.020   5.725
  808SOL    HW1 3323   5.171   1.923   5.733
  808SOL    HW2 3324   5.060   2.038   5.764
  809SOL     OW 3325   2.488   6.025   5.158
  809SOL    HW1 3326   2.572   6.040   5.210
  809SOL    HW2 3327   2.423   5.972   5.212
  810SOL     OW 3328   3.802   3.940   6.375
  810SOL    HW1 3329   3.710   3.903   6.392
  810SOL    HW2 3330   3.845   3.889   6.301
  811SOL     OW 3331   5.405   4.729   5.569
  811SOL    HW1 3332   5.367   4.822   5.572
  811SOL    HW2 3333   5.352   4.674   5.505
  812SOL     OW 3334   1.570   2.163   0.185
  812SOL    HW1 3335   1.502   2.167   0.258
  812SOL    HW2 3336   1.539   2.218   0.107
  813SOL     OW 3337   2.735   1.749   4.970
  813SOL    HW1 3338   2.647   1.759   5.016
  813SOL    HW2 3339   2.770   1.839   4.945
  814SOL     OW 3340   0.484   4.720   1.312
  814SOL    HW1 3341   0.564   4.778   1.301
  814SOL    HW2 3342   0.461   4.712   1.409
  815SOL     OW 3343   4.180   0.648   4.018
  815SOL    HW1 3344   4.184   0.558   3.975
  815SOL    HW2 3345   4.180   0.719   3.947
  816SOL     OW 3346   4.460   3.640   6.626
  816SOL    HW1 3347   4.436   3.543   6.635
  816SOL    HW2 3348   4.522   3.666   6.700
  817SOL     OW 3349   6.869   5.408   0.381
  817SOL    HW1 3350   6.845   5.311   0.393
  817SOL    HW2 3351   6.787   5.464   0.396
  818SOL     OW 3352   6.549   1.128   5.192
  818SOL    HW1 3353   6.556   1.227   5.180
  818SOL    HW2 3354   6.535   1.107   5.289
  819SOL     OW 3355   5.584   3.755   1.807
  819SOL    HW1 3356   5.494   3.753   1.851
  819SOL    HW2 3357   5.634   3.836   1.837
  820SOL     OW 3358   2.338   2.054   5.277
  820SOL    HW1 3359   2.429   2.049   5.236
  820SOL    HW2 3360   2.269   2.031   5.209
  821SOL     OW 3361   4.520   4.105   6.440
  821SOL    HW1 3362   4.441   4.068   6.392
  821SOL    HW2 3363   4.550   4.041   6.510
  822SOL     OW 3364   6.929   4.383   3.186
  822SOL    HW1 3365   6.893   4.465   3.141
  822SOL    HW2 3366   7.020   4.402   3.221
  823SOL     OW 3367   1.778   2.797   4.287
  823SOL    HW1 3368   1.801   2.702   4.265
  823SOL    HW2 3369   1.691   2.799   4.337
  824SOL     OW 3370   5.214   0.610   5.932
  824SOL    HW1 3371   5.274   0.659   5.868
  824SOL    HW2 3372   5.137   0.570   5.881
  825SOL     OW 3373   6.357   6.344   1.571
  825SOL    HW1 3374   6.381   6.420   1.631
  825SOL    HW2 3375   6.408   6.262   1.599
  826SOL     OW 3376   3.472   2.029   0.153
  826SOL    HW1 3377   3.550   2.084   0.125
  826SOL    HW2 3378   3.498   1.970   0.229
  827SOL     OW 3379   3.433   3.236   4.946
  827SOL    HW1 3380   3.509   3.301   4.940
  827SOL    HW2 3381   3.442   3.182   5.029
  828SOL     OW 3382   0.652   6.306   6.343
  828SOL    HW1 3383   0.641   6.381   6.278
  828SOL    HW2 3384   0.577   6.309   6.410
  829SOL     OW 3385   3.691   3.213   1.499
  829SOL    HW1 3386   3.644   3.287   1.452
  829SOL    HW2 3387   3.647   3.126   1.477
  830SOL     OW 3388   0.738   3.323   5.812
  830SOL    HW1 3389   0.655   3.279   5.778
  830SOL    HW2 3390   0.712   3.400   5.871
  831SOL     OW 3391   5.585   2.114   3.356
  831SOL    HW1 3392   5.605   2.202   3.397
  831SOL    HW2 3393   5.597   2.120   3.257
  832SOL     OW 3394   3.070   2.245   4.750
  832SOL    HW1 3395   3.111   2.271   4.837
  832SOL    HW2 3396   3.142   2.226   4.684
  833SOL     OW 3397   3.313   2.874   6.539
  833SOL    HW1 3398   3.303   2.855   6.637
  833SOL    HW2 3399   3.409   2.890   6.518
  834SOL     OW 3400   6.193   3.615   1.395
  834SOL    HW1 3401   6.217   3.550   1.323
  834SOL    HW2 3402   6.094   3.629   1.397
  835SOL     OW 3403   6.526   6.493   5.049
  835SOL    HW1 3404   6.474   6.410   5.070
  835SOL    HW2 3405   6.596   6.508   5.119
  836SOL     OW 3406   6.555   0.311   3.804
  836SOL    HW1 3407   6.573   0.389   3.864
  836SOL    HW2 3408   6.617   0.315   3.726
  837SOL     OW 3409   0.465   6.901   6.403
  837SOL    HW1 3410   0.423   6.815   6.433
  837SOL    HW2 3411   0.541   6.923   6.464
  838SOL     OW 3412   0.975   6.349   2.893
  838SOL    HW1 3413   0.944   6.379   2.983
  838SOL    HW2 3414   1.002   6.429   2.839
  839SOL     OW 3415   1.775   1.931   6.972
  839SOL    HW1 3416   1.783   1.920   0.051
  839SOL    HW2 3417   1.862   1.904   6.929
  840SOL     OW 3418   5.064   5.229   0.378
  840SOL    HW1 3419   5.118   5.146   0.389
  840SOL    HW2 3420   4.994   5.214   0.308
  841SOL     OW 3421   2.842   4.585   6.769
  841SOL    HW1 3422   2.879   4.656   6.828
  841SOL    HW2 3423   2.779   4.626   6.703
  842SOL     OW 3424   3.948   5.833   1.043
  842SOL    HW1 3425   4.027   5.803   1.097
  842SOL    HW2 3426   3.911   5.754   0.993
  843SOL     OW 3427   1.910   6.899   2.078
  843SOL    HW1 3428   1.861   6.813   2.064
  843SOL    HW2 3429   1.908   6.923   2.175
  844SOL     OW 3430   6.889   0.018   1.259
  844SOL    HW1 3431   6.856   0.007   1.353
  844SOL    HW2 3432   6.989   0.014   1.259
  845SOL     OW 3433   4.261   1.406   1.561
  845SOL    HW1 3434   4.285   1.313   1.533
  845SOL    HW2 3435   4.210   1.451   1.488
  846SOL     OW 3436   1.426   0.668   1.170
  846SOL    HW1 3437   1.496   0.611   1.127
  846SOL    HW2 3438   1.396   0.738   1.105
  847SOL     OW 3439   3.109   3.019   1.608
  847SOL    HW1 3440   3.159   2.999   1.523
  847SOL    HW2 3441   3.116   2.940   1.670
  848SOL     OW 3442   6.500   6.036   0.984
  848SOL    HW1 3443   6.467   5.957   0.933
  848SOL    HW2 3444   6.517   6.112   0.922
  849SOL     OW 3445   5.422   3.198   6.250
  849SOL    HW1 3446   5.477   3.122   6.214
  849SOL    HW2 3447   5.363   3.233   6.177
  850SOL     OW 3448   2.428   1.194   4.462
  850SOL    HW1 3449   2.392   1.273   4.413
  850SOL    HW2 3450   2.366   1.117   4.451
  851SOL     OW 3451   4.591   2.826   6.031
  851SOL    HW1 3452   4.538   2.899   6.074
  851SOL    HW2 3453   4.624   2.763   6.102
  852SOL     OW 3454   0.288   4.869   1.174
  852SOL    HW1 3455   0.361   4.809   1.208
  852SOL    HW2 3456   0.327   4.938   1.114
  853SOL     OW 3457   3.877   2.730   0.680
  853SOL    HW1 3458   3.892   2.809   0.740
  853SOL    HW2 3459   3.856   2.650   0.736
  854SOL     OW 3460   6.737   0.928   6.510
  854SOL    HW1 3461   6.641   0.907   6.527
  854SOL    HW2 3462   6.795   0.852   6.540
  855SOL     OW 3463   4.476   2.059   6.870
  855SOL    HW1 3464   4.528   2.001   6.933
  855SOL    HW2 3465   4.489   2.028   6.776
  856SOL     OW 3466   1.451   5.783   1.622
  856SOL    HW1 3467   1.543   5.752   1.599
  856SOL    HW2 3468   1.392   5.774   1.542
  857SOL     OW 3469   6.944   6.377   5.203
  857SOL    HW1 3470   6.957   6.309   5.276
  857SOL    HW2 3471   6.853   6.416   5.209
  858SOL     OW 3472   2.906   4.332   0.570
  858SOL    HW1 3473   2.865   4.246   0.538
  858SOL    HW2 3474   2.834   4.399   0.588
  859SOL     OW 3475   4.675   6.079   5.644
  859SOL    HW1 3476   4.707   6.163   5.688
  859SOL    HW2 3477   4.729   6.061   5.562
  860SOL     OW 3478   4.336   2.890   0.417
  860SOL    HW1 3479   4.280   2.962   0.460
  860SOL    HW2 3480   4.385   2.928   0.339
  861SOL     OW 3481   0.948   5.839   2.457
  861SOL    HW1 3482   0.913   5.749   2.487
  861SOL    HW2 3483   1.039   5.853   2.495
  862SOL     OW 3484   0.618   4.811   4.196
  862SOL    HW1 3485   0.561   4.838   4.273
  862SOL    HW2 3486   0.660   4.722   4.214
  863SOL     OW 3487   5.158   0.392   1.239
  863SOL    HW1 3488   5.091   0.319   1.225
  863SOL    HW2 3489   5.176   0.402   1.337
  864SOL     OW 3490   6.105   3.568   3.421
  864SOL    HW1 3491   6.121   3.660   3.458
  864SOL    HW2 3492   6.017   3.534   3.453
  865SOL     OW 3493   2.262   4.910   4.724
  865SOL    HW1 3494   2.170   4.870   4.729
  865SOL    HW2 3495   2.264   4.978   4.650
  866SOL     OW 3496   3.480   6.665   0.849
  866SOL    HW1 3497   3.401   6.726   0.858
  866SOL    HW2 3498   3.559   6.707   0.894
  867SOL     OW 3499   6.076   3.624   4.908
  867SOL    HW1 3500   6.012   3.549   4.923
  867SOL    HW2 3501   6.058   3.697   4.974
  868SOL     OW 3502   0.471   1.663   1.931
  868SOL    HW1 3503   0.507   1.618   1.849
  868SOL    HW2 3504   0.373   1.679   1.919
  869SOL     OW 3505   0.735   2.938   2.015
  869SOL    HW1 3506   0.775   3.008   1.956
  869SOL    HW2 3507   0.735   2.850   1.967
  870SOL     OW 3508   3.913   4.754   1.824
  870SOL    HW1 3509   3.818   4.771   1.850
  870SOL    HW2 3510   3.921   4.661   1.788
  871SOL     OW 3511   4.885   1.959   3.607
  871SOL    HW1 3512   4.810   1.893   3.606
  871SOL    HW2 3513   4.902   1.991   3.514
  872SOL     OW 3514   1.868   2.477   5.819
  872SOL    HW1 3515   1.807   2.416   5.768
  872SOL    HW2 3516   1.875   2.445   5.914
  873SOL     OW 3517   3.828   0.956   6.183
  873SOL    HW1 3518   3.882   0.898   6.123
  873SOL    HW2 3519   3.732   0.955   6.153
  874SOL     OW 3520   5.471   3.782   2.877
  874SOL    HW1 3521   5.477   3.684   2.863
  874SOL    HW2 3522   5.377   3.807   2.902
  875SOL     OW 3523   5.259   5.015   2.145
  875SOL    HW1 3524   5.333   5.079   2.164
  875SOL    HW2 3525   5.175   5.047   2.190
  876SOL     OW 3526   6.286   1.546   6.229
  876SOL    HW1 3527   6.274   1.642   6.252
  876SOL    HW2 3528   6.341   1.501   6.299
  877SOL     OW 3529   0.994   3.143   6.310
  877SOL    HW1 3530   1.021   3.103   6.222
  877SOL    HW2 3531   1.053   3.107   6.382
  878SOL     OW 3532   4.444   6.475   4.634
  878SOL    HW1 3533   4.507   6.505   4.706
  878SOL    HW2 3534   4.493   6.467   4.548
  879SOL     OW 3535   5.945   7.001   6.225
  879SOL    HW1 3536   5.846   6.993   6.231
  879SOL    HW2 3537   5.982   6.921   6.178
  880SOL     OW 3538   3.469   2.935   3.122
  880SOL    HW1 3539   3.435   2.905   3.032
  880SOL    HW2 3540   3.533   3.011   3.109
  881SOL     OW 3541   5.072   2.184   0.565
  881SOL    HW1 3542   5.091   2.280   0.545
  881SOL    HW2 3543   4.982   2.176   0.608
  882SOL     OW 3544   1.675   2.315   3.916
  882SOL    HW1 3545   1.643   2.382   3.983
  882SOL    HW2 3546   1.643   2.224   3.942
  883SOL     OW 3547   2.501   6.759   2.990
  883SOL    HW1 3548   2.500   6.754   2.890
  883SOL    HW2 3549   2.540   6.675   3.027
  884SOL     OW 3550   2.514   3.438   6.189
  884SOL    HW1 3551   2.492   3.485   6.103
  884SOL    HW2 3552   2.440   3.455   6.255
  885SOL     OW 3553   4.006   3.192   6.598
  885SOL    HW1 3554   4.043   3.129   6.530
  885SOL    HW2 3555   3.998   3.145   6.686
  886SOL     OW 3556   3.825   1.271   5.790
  886SOL    HW1 3557   3.749   1.218   5.825
  886SOL    HW2 3558   3.875   1.313   5.866
  887SOL     OW 3559   3.910   0.970   5.682
  887SOL    HW1 3560   3.822   0.997   5.723
  887SOL    HW2 3561   3.918   1.012   5.591
  888SOL     OW 3562   0.164   7.009   1.870
  888SOL    HW1 3563   0.243   0.045   1.897
  888SOL    HW2 3564   0.094   7.015   1.940
  889SOL     OW 3565   0.544   3.809   1.335
  889SOL    HW1 3566   0.461   3.755   1.348
  889SOL    HW2 3567   0.573   3.803   1.240
  890SOL     OW 3568   2.799   6.135   4.831
  890SOL    HW1 3569   2.850   6.049   4.828
  890SOL    HW2 3570   2.862   6.211   4.844
  891SOL     OW 3571   4.593   4.461   2.347
  891SOL    HW1 3572   4.635   4.550   2.360
  891SOL    HW2 3573   4.518   4.450   2.413
  892SOL     OW 3574   2.371   4.138   1.258
  892SOL    HW1 3575   2.363   4.183   1.347
  892SOL    HW2 3576   2.299   4.171   1.197
  893SOL     OW 3577   1.498   5.369   2.197
  893SOL    HW1 3578   1.454   5.280   2.208
  893SOL    HW2 3579   1.464   5.432   2.267
  894SOL     OW 3580   1.550   4.021   0.804
  894SOL    HW1 3581   1.607   4.086   0.753
  894SOL    HW2 3582   1.487   3.976   0.741
  895SOL     OW 3583   6.419   5.833   5.062
  895SOL    HW1 3584   6.342   5.781   5.101
  895SOL    HW2 3585   6.440   5.797   4.971
  896SOL     OW 3586   0.014   0.800   6.269
  896SOL    HW1 3587   0.075   0.740   6.216
  896SOL    HW2 3588   6.974   0.745   6.325
  897SOL     OW 3589   6.115   1.344   0.494
  897SOL    HW1 3590   6.026   1.380   0.465
  897SOL    HW2 3591   6.101   1.262   0.550
  898SOL     OW 3592   4.376   1.418   3.559
  898SOL    HW1 3593   4.377   1.496   3.622
  898SOL    HW2 3594   4.467   1.376   3.557
  899SOL     OW 3595   6.367   0.082   6.835
  899SOL    HW1 3596   6.439   0.014   6.848
  899SOL    HW2 3597   6.288   0.059   6.892
  900SOL     OW 3598   5.223   4.768   6.160
  900SOL    HW1 3599   5.263   4.750   6.250
  900SOL    HW2 3600   5.137   4.719   6.151
  901SOL     OW 3601   1.304   0.681   2.463
  901SOL    HW1 3602   1.260   0.753   2.516
  901SOL    HW2 3603   1.238   0.644   2.397
  902SOL     OW 3604   0.141   2.862   2.804
  902SOL    HW1 3605   0.050   2.899   2.786
  902SOL    HW2 3606   0.134   2.764   2.826
  903SOL     OW 3607   6.537   1.575   0.515
  903SOL    HW1 3608   6.467   1.534   0.574
  903SOL    HW2 3609   6.619   1.593   0.568
  904SOL     OW 3610   3.037   1.152   3.479
  904SOL    HW1 3611   3.052   1.054   3.485
  904SOL    HW2 3612   2.990   1.174   3.394
  905SOL     OW 3613   5.140   2.378   6.359
  905SOL    HW1 3614   5.204   2.338   6.426
  905SOL    HW2 3615   5.191   2.410   6.280
  906SOL     OW 3616   6.079   3.123   1.351
  906SOL    HW1 3617   6.002   3.098   1.409
  906SOL    HW2 3618   6.060   3.210   1.305
  907SOL     OW 3619   5.578   4.954   0.055
  907SOL    HW1 3620   5.563   4.923   6.982
  907SOL    HW2 3621   5.597   5.052   0.055
  908SOL     OW 3622   0.717   3.886   3.373
  908SOL    HW1 3623   0.686   3.928   3.459
  908SOL    HW2 3624   0.695   3.789   3.373
  909SOL     OW 3625   4.802   4.502   5.812
  909SOL    HW1 3626   4.819   4.407   5.785
  909SOL    HW2 3627   4.703   4.518   5.816
  910SOL     OW 3628   3.459   4.908   0.562
  910SOL    HW1 3629   3.360   4.921   0.571
  910SOL    HW2 3630   3.485   4.913   0.466
  911SOL     OW 3631   1.099   4.312   6.109
  911SOL    HW1 3632   1.162   4.326   6.186
  911SOL    HW2 3633   1.141   4.347   6.025
  912SOL     OW 3634   5.561   1.606   5.076
  912SOL    HW1 3635   5.648   1.594   5.124
  912SOL    HW2 3636   5.504   1.672   5.125
  913SOL     OW 3637   5.812   5.673   3.714
  913SOL    HW1 3638   5.868   5.591   3.724
  913SOL    HW2 3639   5.870   5.754   3.715
  914SOL     OW 3640   2.302   6.365   5.314
  914SOL    HW1 3641   2.295   6.286   5.375
  914SOL    HW2 3642   2.398   6.391   5.305
  915SOL     OW 3643   5.412   4.806   2.020
  915SOL    HW1 3644   5.472   4.776   2.095
  915SOL    HW2 3645   5.359   4.885   2.050
  916SOL     OW 3646   1.088   3.970   2.977
  916SOL    HW1 3647   1.068   3.946   3.072
  916SOL    HW2 3648   1.172   3.923   2.948
  917SOL     OW 3649   0.658   6.948   0.112
  917SOL    HW1 3650   0.724   6.875   0.127
  917SOL    HW2 3651   0.570   6.922   0.152
  918SOL     OW 3652   3.477   5.792   6.441
  918SOL    HW1 3653   3.533   5.869   6.412
  918SOL    HW2 3654   3.418   5.763   6.365
  919SOL     OW 3655   4.277   0.068   5.795
  919SOL    HW1 3656   4.183   0.099   5.806
  919SOL    HW2 3657   4.311   0.033   5.882
  920SOL     OW 3658   3.103   4.536   1.487
  920SOL    HW1 3659   3.053   4.460   1.445
  920SOL    HW2 3660   3.201   4.525   1.470
  921SOL     OW 3661   5.088   5.949   5.412
  921SOL    HW1 3662   5.109   5.898   5.495
  921SOL    HW2 3663   5.167   6.006   5.388
  922SOL     OW 3664   3.152   3.983   2.789
  922SOL    HW1 3665   3.117   3.969   2.881
  922SOL    HW2 3666   3.137   3.901   2.735
  923SOL     OW 3667   2.511   4.074   5.525
  923SOL    HW1 3668   2.430   4.124   5.494
  923SOL    HW2 3669   2.544   4.016   5.450
  924SOL     OW 3670   1.010   2.591   0.858
  924SOL    HW1 3671   1.014   2.499   0.897
  924SOL    HW2 3672   0.914   2.617   0.846
  925SOL     OW 3673   0.671   1.650   0.041
  925SOL    HW1 3674   0.737   1.685   6.996
  925SOL    HW2 3675   0.581   1.644   7.019
  926SOL     OW 3676   1.944   2.647   1.027
  926SOL    HW1 3677   1.902   2.564   1.063
  926SOL    HW2 3678   1.992   2.626   0.942
  927SOL     OW 3679   0.486   3.495   5.339
  927SOL    HW1 3680   0.541   3.578   5.349
  927SOL    HW2 3681   0.390   3.516   5.355
  928SOL     OW 3682   2.881   5.328   6.295
  928SOL    HW1 3683   2.978   5.340   6.316
  928SOL    HW2 3684   2.872   5.280   6.208
  929SOL     OW 3685   1.596   2.394   4.714
  929SOL    HW1 3686   1.528   2.322   4.728
  929SOL    HW2 3687   1.617   2.438   4.802
  930SOL     OW 3688   6.016   5.522   5.554
  930SOL    HW1 3689   5.931   5.529   5.604
  930SOL    HW2 3690   6.073   5.450   5.594
  931SOL     OW 3691   5.928   0.653   3.178
  931SOL    HW1 3692   5.920   0.596   3.096
  931SOL    HW2 3693   6.019   0.641   3.218
  932SOL     OW 3694   4.459   6.915   3.397
  932SOL    HW1 3695   4.528   6.863   3.447
  932SOL    HW2 3696   4.479   7.012   3.405
  933SOL     OW 3697   1.042   5.858   1.652
  933SOL    HW1 3698   1.003   5.782   1.600
  933SOL    HW2 3699   1.072   5.930   1.590
  934SOL     OW 3700   1.767   2.852   0.995
  934SOL    HW1 3701   1.838   2.784   1.011
  934SOL    HW2 3702   1.766   2.917   1.071
  935SOL     OW 3703   5.363   2.934   5.564
  935SOL    HW1 3704   5.429   3.007   5.547
  935SOL    HW2 3705   5.396   2.849   5.521
  936SOL     OW 3706   1.486   1.410   6.262
  936SOL    HW1 3707   1.423   1.332   6.255
  936SOL    HW2 3708   1.494   1.454   6.173
  937SOL     OW 3709   3.041   1.614   6.165
  937SOL    HW1 3710   3.071   1.709   6.156
  937SOL    HW2 3711   2.968   1.596   6.100
  938SOL     OW 3712   5.054   6.567   4.865
  938SOL    HW1 3713   5.054   6.482   4.812
  938SOL    HW2 3714   5.088   6.549   4.957
  939SOL     OW 3715   1.669   0.261   4.785
  939SOL    HW1 3716   1.709   0.183   4.835
  939SOL    HW2 3717   1.698   0.257   4.689
  940SOL     OW 3718   1.932   5.112   0.741
  940SOL    HW1 3719   1.883   5.047   0.683
  940SOL    HW2 3720   2.030   5.095   0.735
  941SOL     OW 3721   3.869   6.779   1.291
  941SOL    HW1 3722   3.838   6.873   1.275
  941SOL    HW2 3723   3.953   6.762   1.238
  942SOL     OW 3724   0.241   5.125   0.093
  942SOL    HW1 3725   0.149   5.097   0.067
  942SOL    HW2 3726   0.269   5.074   0.175
  943SOL     OW 3727   3.084   6.870   1.334
  943SOL    HW1 3728   3.080   6.835   1.428
  943SOL    HW2 3729   3.001   6.922   1.314
  944SOL     OW 3730   6.267   5.720   3.736
  944SOL    HW1 3731   6.316   5.804   3.758
  944SOL    HW2 3732   6.235   5.677   3.820
  945SOL     OW 3733   0.209   4.999   6.407
  945SOL    HW1 3734   0.216   5.098   6.418
  945SOL    HW2 3735   0.300   4.960   6.394
  946SOL     OW 3736   6.038   1.992   4.180
  946SOL    HW1 3737   6.022   2.052   4.102
  946SOL    HW2 3738   6.137   1.984   4.196
  947SOL     OW 3739   3.412   4.058   2.701
  947SOL    HW1 3740   3.316   4.048   2.729
  947SOL    HW2 3741   3.416   4.109   2.615
  948SOL     OW 3742   3.597   1.970   3.751
  948SOL    HW1 3743   3.661   1.934   3.683
  948SOL    HW2 3744   3.513   1.999   3.706
  949SOL     OW 3745   1.985   0.214   5.538
  949SOL    HW1 3746   2.048   0.268   5.593
  949SOL    HW2 3747   1.939   0.147   5.596
  950SOL     OW 3748   6.804   0.517   1.581
  950SOL    HW1 3749   6.768   0.608   1.602
  950SOL    HW2 3750   6.900   0.525   1.553
  951SOL     OW 3751   1.442   0.259   2.490
  951SOL    HW1 3752   1.523   0.210   2.459
  951SOL    HW2 3753   1.464   0.312   2.572
  952SOL     OW 3754   3.429   1.706   2.817
  952SOL    HW1 3755   3.425   1.613   2.782
  952SOL    HW2 3756   3.339   1.731   2.854
  953SOL     OW 3757   0.886   6.295   5.488
  953SOL    HW1 3758   0.847   6.384   5.512
  953SOL    HW2 3759   0.864   6.273   5.393
  954SOL     OW 3760   4.299   6.383   2.449
  954SOL    HW1 3761   4.358   6.384   2.530
  954SOL    HW2 3762   4.203   6.383   2.478
  955SOL     OW 3763   3.275   4.236   1.298
  955SOL    HW1 3764   3.252   4.244   1.201
  955SOL    HW2 3765   3.373   4.220   1.307
  956SOL     OW 3766   3.440   0.167   0.693
  956SOL    HW1 3767   3.494   0.102   0.747
  956SOL    HW2 3768   3.459   0.153   0.596
  957SOL     OW 3769   6.191   0.277   2.898
  957SOL    HW1 3770   6.153   0.369   2.883
  957SOL    HW2 3771   6.286   0.285   2.929
  958SOL     OW 3772   5.659   5.210   1.844
  958SOL    HW1 3773   5.672   5.202   1.746
  958SOL    HW2 3774   5.641   5.306   1.868
  959SOL     OW 3775   5.470   6.113   1.974
  959SOL    HW1 3776   5.416   6.187   1.933
  959SOL    HW2 3777   5.460   6.031   1.919
  960SOL     OW 3778   1.045   6.890   6.174
  960SOL    HW1 3779   1.129   6.897   6.228
  960SOL    HW2 3780   0.966   6.907   6.233
  961SOL     OW 3781   4.017   1.176   3.903
  961SOL    HW1 3782   4.030   1.159   3.805
  961SOL    HW2 3783   3.988   1.271   3.916
  962SOL     OW 3784   7.013   0.983   4.984
  962SOL    HW1 3785   6.916   1.006   4.992
  962SOL    HW2 3786   0.042   1.020   5.063
  963SOL     OW 3787   5.836   2.428   1.213
  963SOL    HW1 3788   5.857   2.372   1.133
  963SOL    HW2 3789   5.745   2.468   1.203
  964SOL     OW 3790   4.002   6.203   4.798
  964SOL    HW1 3791   3.988   6.133   4.867
  964SOL    HW2 3792   3.973   6.169   4.709
  965SOL     OW 3793   4.657   1.738   4.452
  965SOL    HW1 3794   4.630   1.799   4.378
  965SOL    HW2 3795   4.756   1.727   4.453
  966SOL     OW 3796   5.027   1.101   3.124
  966SOL    HW1 3797   4.971   1.165   3.177
  966SOL    HW2 3798   5.070   1.150   3.048
  967SOL     OW 3799   4.700   5.642   5.674
  967SOL    HW1 3800   4.769   5.713   5.659
  967SOL    HW2 3801   4.617   5.683   5.709
  968SOL     OW 3802   4.508   6.932   1.374
  968SOL    HW1 3803   4.506   7.014   1.432
  968SOL    HW2 3804   4.564   6.862   1.417
  969SOL     OW 3805   3.202   3.321   6.629
  969SOL    HW1 3806   3.276   3.388   6.637
  969SOL    HW2 3807   3.222   3.259   6.554
  970SOL     OW 3808   4.463   6.148   5.371
  970SOL    HW1 3809   4.559   6.169   5.392
  970SOL    HW2 3810   4.447   6.162   5.274
  971SOL     OW 3811   4.824   3.174   3.817
  971SOL    HW1 3812   4.787   3.266   3.824
  971SOL    HW2 3813   4.792   3.119   3.894
  972SOL     OW 3814   0.890   1.771   1.091
  972SOL    HW1 3815   0.873   1.733   1.000
  972SOL    HW2 3816   0.805   1.772   1.143
  973SOL     OW 3817   6.693   2.718   5.017
  973SOL    HW1 3818   6.772   2.671   4.978
  973SOL    HW2 3819   6.642   2.764   4.943
  974SOL     OW 3820   1.612   3.331   1.784
  974SOL    HW1 3821   1.566   3.246   1.761
  974SOL    HW2 3822   1.610   3.344   1.883
  975SOL     OW 3823   3.232   0.595   2.411
  975SOL    HW1 3824   3.136   0.581   2.433
  975SOL    HW2 3825   3.285   0.515   2.441
  976SOL     OW 3826   0.406   3.065   3.727
  976SOL    HW1 3827   0.461   3.141   3.760
  976SOL    HW2 3828   0.359   3.022   3.804
  977SOL     OW 3829   6.946   1.678   2.083
  977SOL    HW1 3830   6.974   1.742   2.154
  977SOL    HW2 3831   6.871   1.719   2.030
  978SOL     OW 3832   5.754   1.992   0.613
  978SOL    HW1 3833   5.801   1.904   0.609
  978SOL    HW2 3834   5.689   1.992   0.689
  979SOL     OW 3835   0.127   5.276   6.762
  979SOL    HW1 3836   0.158   5.320   6.677
  979SOL    HW2 3837   0.203   5.225   6.802
  980SOL     OW 3838   5.227   1.672   4.129
  980SOL    HW1 3839   5.220   1.681   4.029
  980SOL    HW2 3840   5.180   1.749   4.173
  981SOL     OW 3841   0.692   6.037   5.979
  981SOL    HW1 3842   0.727   5.998   5.894
  981SOL    HW2 3843   0.597   6.008   5.992
  982SOL     OW 3844   6.881   0.344   6.517
  982SOL    HW1 3845   6.830   0.334   6.603
  982SOL    HW2 3846   6.907   0.253   6.484
  983SOL     OW 3847   6.944   4.049   2.254
  983SOL    HW1 3848   6.947   3.989   2.173
  983SOL    HW2 3849   0.010   4.098   2.262
  984SOL     OW 3850   0.142   3.843   4.583
  984SOL    HW1 3851   0.223   3.903   4.583
  984SOL    HW2 3852   0.172   3.748   4.586
  985SOL     OW 3853   5.484   4.691   6.050
  985SOL    HW1 3854   5.500   4.648   5.962
  985SOL    HW2 3855   5.386   4.687   6.073
  986SOL     OW 3856   3.952   5.643   1.655
  986SOL    HW1 3857   3.880   5.649   1.723
  986SOL    HW2 3858   3.917   5.596   1.574
  987SOL     OW 3859   4.176   4.734   4.208
  987SOL    HW1 3860   4.084   4.697   4.217
  987SOL    HW2 3861   4.172   4.834   4.210
  988SOL     OW 3862   3.092   4.893   1.655
  988SOL    HW1 3863   3.155   4.821   1.685
  988SOL    HW2 3864   2.998   4.868   1.678
  989SOL     OW 3865   0.682   2.141   1.427
  989SOL    HW1 3866   0.770   2.171   1.390
  989SOL    HW2 3867   0.656   2.054   1.385
  990SOL     OW 3868   3.259   6.945   4.952
  990SOL    HW1 3869   3.349   6.926   4.912
  990SOL    HW2 3870   3.243   0.024   4.953
  991SOL     OW 3871   1.368   6.327   4.154
  991SOL    HW1 3872   1.270   6.322   4.173
  991SOL    HW2 3873   1.419   6.299   4.236
  992SOL     OW 3874   6.499   3.505   1.415
  992SOL    HW1 3875   6.407   3.544   1.416
  992SOL    HW2 3876   6.518   3.461   1.502
  993SOL     OW 3877   1.968   5.047   0.062
  993SOL    HW1 3878   1.943   4.990   0.140
  993SOL    HW2 3879   2.060   5.084   0.076
  994SOL     OW 3880   2.637   6.871   1.480
  994SOL    HW1 3881   2.595   6.789   1.519
  994SOL    HW2 3882   2.577   6.910   1.411
  995SOL     OW 3883   5.371   4.339   4.903
  995SOL    HW1 3884   5.334   4.268   4.962
  995SOL    HW2 3885   5.468   4.323   4.887
  996SOL     OW 3886   3.887   6.670   5.487
  996SOL    HW1 3887   3.939   6.626   5.413
  996SOL    HW2 3888   3.823   6.736   5.447
  997SOL     OW 3889   1.351   6.412   3.251
  997SOL    HW1 3890   1.287   6.414   3.328
  997SOL    HW2 3891   1.340   6.495   3.197
  998SOL     OW 3892   4.464   7.017   6.749
  998SOL    HW1 3893   4.538   0.043   6.797
  998SOL    HW2 3894   4.420   6.952   6.811
  999SOL     OW 3895   6.117   3.272   2.298
  999SOL    HW1 3896   6.168   3.327   2.364
  999SOL    HW2 3897   6.167   3.188   2.279
 1000SOL     OW 3898   6.079   1.569   1.987
 1000SOL    HW1 3899   6.048   1.630   1.914
 1000SOL    HW2 3900   6.070   1.615   2.075
 1001SOL     OW 3901   2.573   7.009   3.325
 1001SOL    HW1 3902   2.567   7.002   3.425
 1001SOL    HW2 3903   2.652   0.045   3.301
 1002SOL     OW 3904   4.577   2.482   0.408
 1002SOL    HW1 3905   4.660   2.448   0.451
 1002SOL    HW2 3906   4.523   2.405   0.374
 1003SOL     OW 3907   1.099   1.902   4.076
 1003SOL    HW1 3908   1.046   1.925   3.994
 1003SOL    HW2 3909   1.184   1.954   4.076
 1004SOL     OW 3910   4.295   1.464   5.018
 1004SOL    HW1 3911   4.298   1.514   5.105
 1004SOL    HW2 3912   4.201   1.457   4.987
 1005SOL     OW 3913   0.690   5.749   1.780
 1005SOL    HW1 3914   0.724   5.655   1.789
 1005SOL    HW2 3915   0.590   5.749   1.791
 1006SOL     OW 3916   1.707   4.060   1.622
 1006SOL    HW1 3917   1.721   4.068   1.720
 1006SOL    HW2 3918   1.685   3.965   1.599
 1007SOL     OW 3919   4.803   0.894   6.035
 1007SOL    HW1 3920   4.828   0.797   6.037
 1007SOL    HW2 3921   4.763   0.919   6.124
 1008SOL     OW 3922   0.486   4.436   4.321
 1008SOL    HW1 3923   0.453   4.497   4.249
 1008SOL    HW2 3924   0.423   4.437   4.398
 1009SOL     OW 3925   6.406   5.962   6.476
 1009SOL    HW1 3926   6.450   5.982   6.564
 1009SOL    HW2 3927   6.473   5.922   6.414
 1010SOL     OW 3928   3.309   3.839   7.016
 1010SOL    HW1 3929   3.355   3.763   6.970
 1010SOL    HW2 3930   3.210   3.825   7.014
 1011SOL     OW 3931   6.765   5.385   2.622
 1011SOL    HW1 3932   6.751   5.447   2.699
 1011SOL    HW2 3933   6.700   5.407   2.549
 1012SOL     OW 3934   4.937   6.193   3.021
 1012SOL    HW1 3935   4.970   6.135   3.095
 1012SOL    HW2 3936   4.979   6.164   2.935
 1013SOL     OW 3937   0.474   1.178   6.098
 1013SOL    HW1 3938   0.460   1.257   6.038
 1013SOL    HW2 3939   0.415   1.188   6.179
 1014SOL     OW 3940   0.792   4.590   4.292
 1014SOL    HW1 3941   0.779   4.500   4.251
 1014SOL    HW2 3942   0.771   4.586   4.390
 1015SOL     OW 3943   3.060   5.962   6.687
 1015SOL    HW1 3944   3.043   6.039   6.626
 1015SOL    HW2 3945   3.109   5.890   6.637
 1016SOL     OW 3946   6.766   4.783   0.568
 1016SOL    HW1 3947   6.795   4.831   0.651
 1016SOL    HW2 3948   6.842   4.730   0.531
 1017SOL     OW 3949   1.314   0.314   1.661
 1017SOL    HW1 3950   1.239   0.281   1.604
 1017SOL    HW2 3951   1.286   0.315   1.757
 1018SOL     OW 3952   5.806   5.908   6.381
 1018SOL    HW1 3953   5.853   5.946   6.301
 1018SOL    HW2 3954   5.730   5.968   6.406
 1019SOL     OW 3955   6.753   3.646   2.164
 1019SOL    HW1 3956   6.770   3.653   2.065
 1019SOL    HW2 3957   6.837   3.618   2.210
 1020SOL     OW 3958   5.328   1.423   1.412
 1020SOL    HW1 3959   5.256   1.450   1.348
 1020SOL    HW2 3960   5.288   1.364   1.483
 1021SOL     OW 3961   1.225   7.018   0.596
 1021SOL    HW1 3962   1.167   0.063   0.644
 1021SOL    HW2 3963   1.180   6.929   0.594
 1022SOL     OW 3964   1.846   5.154   6.236
 1022SOL    HW1 3965   1.772   5.162   6.168
 1022SOL    HW2 3966   1.849   5.061   6.270
 1023SOL     OW 3967   0.817   2.147   2.460
 1023SOL    HW1 3968   0.777   2.200   2.534
 1023SOL    HW2 3969   0.802   2.195   2.373
 1024SOL     OW 3970   1.798   2.833   4.770
 1024SOL    HW1 3971   1.816   2.866   4.677
 1024SOL    HW2 3972   1.846   2.891   4.835
 1025SOL     OW 3973   4.291   4.486   0.895
 1025SOL    HW1 3974   4.231   4.427   0.950
 1025SOL    HW2 3975   4.378   4.440   0.878
 1026SOL     OW 3976   3.485   2.681   1.595
 1026SOL    HW1 3977   3.511   2.630   1.513
 1026SOL    HW2 3978   3.561   2.682   1.659
 1027SOL     OW 3979   6.154   0.838   0.553
 1027SOL    HW1 3980   6.074   0.800   0.600
 1027SOL    HW2 3981   6.193   0.769   0.492
 1028SOL     OW 3982   0.761   5.558   3.543
 1028SOL    HW1 3983   0.760   5.506   3.457
 1028SOL    HW2 3984   0.839   5.620   3.542
 1029SOL     OW 3985   0.964   0.435   5.234
 1029SOL    HW1 3986   0.980   0.391   5.146
 1029SOL    HW2 3987   0.903   0.379   5.289
 1030SOL     OW 3988   4.513   3.526   0.923
 1030SOL    HW1 3989   4.551   3.553   1.012
 1030SOL    HW2 3990   4.438   3.461   0.938
 1031SOL     OW 3991   4.179   2.632   0.340
 1031SOL    HW1 3992   4.245   2.707   0.337
 1031SOL    HW2 3993   4.174   2.595   0.433
 1032SOL     OW 3994   1.248   1.388   0.971
 1032SOL    HW1 3995   1.325   1.367   1.030
 1032SOL    HW2 3996   1.198   1.467   1.007
 1033SOL     OW 3997   5.974   0.149   1.675
 1033SOL    HW1 3998   5.963   0.248   1.663
 1033SOL    HW2 3999   6.071   0.127   1.678
 1034SOL     OW 4000   2.126   0.311   5.186
 1034SOL    HW1 4001   2.179   0.315   5.270
 1034SOL    HW2 4002   2.057   0.238   5.194
 1035SOL     OW 4003   1.627   0.049   0.121
 1035SOL    HW1 4004   1.661   0.076   0.211
 1035SOL    HW2 4005   1.703   0.047   0.056
 1036SOL     OW 4006   5.443   1.377   2.551
 1036SOL    HW1 4007   5.442   1.292   2.499
 1036SOL    HW2 4008   5.484   1.360   2.641
 1037SOL     OW 4009   0.558   4.309   2.548
 1037SOL    HW1 4010   0.645   4.351   2.522
 1037SOL    HW2 4011   0.574   4.229   2.605
 1038SOL     OW 4012   1.453   6.443   6.606
 1038SOL    HW1 4013   1.445   6.426   6.704
 1038SOL    HW2 4014   1.549   6.436   6.579
 1039SOL     OW 4015   2.935   3.753   2.967
 1039SOL    HW1 4016   2.854   3.771   2.911
 1039SOL    HW2 4017   2.929   3.661   3.006
 1040SOL     OW 4018   3.852   1.833   2.855
 1040SOL    HW1 4019   3.880   1.770   2.928
 1040SOL    HW2 4020   3.805   1.911   2.894
 1041SOL     OW 4021   0.121   6.977   6.660
 1041SOL    HW1 4022   0.129   6.894   6.605
 1041SOL    HW2 4023   0.202   6.988   6.717
 1042SOL     OW 4024   5.563   3.388   4.080
 1042SOL    HW1 4025   5.500   3.378   4.003
 1042SOL    HW2 4026   5.512   3.420   4.160
 1043SOL     OW 4027   1.970   2.332   3.830
 1043SOL    HW1 4028   2.044   2.367   3.888
 1043SOL    HW2 4029   1.919   2.262   3.879
 1044SOL     OW 4030   4.930   4.422   2.198
 1044SOL    HW1 4031   4.906   4.326   2.211
 1044SOL    HW2 4032   4.971   4.458   2.282
 1045SOL     OW 4033   2.052   0.319   2.504
 1045SOL    HW1 4034   2.085   0.391   2.443
 1045SOL    HW2 4035   2.097   0.233   2.481
 1046SOL     OW 4036   3.791   2.505   0.832
 1046SOL    HW1 4037   3.866   2.469   0.887
 1046SOL    HW2 4038   3.704   2.493   0.881
 1047SOL     OW 4039   3.913   0.786   3.799
 1047SOL    HW1 4040   3.823   0.808   3.835
 1047SOL    HW2 4041   3.920   0.686   3.787
 1048SOL     OW 4042   6.737   6.937   2.053
 1048SOL    HW1 4043   6.683   6.904   1.976
 1048SOL    HW2 4044   6.716   6.883   2.135
 1049SOL     OW 4045   3.269   6.748   0.424
 1049SOL    HW1 4046   3.298   6.788   0.510
 1049SOL    HW2 4047   3.210   6.813   0.375
 1050SOL     OW 4048   2.555   1.578   4.455
 1050SOL    HW1 4049   2.651   1.591   4.430
 1050SOL    HW2 4050   2.548   1.561   4.553
 1051SOL     OW 4051   1.740   2.304   5.627
 1051SOL    HW1 4052   1.693   2.362   5.560
 1051SOL    HW2 4053   1.684   2.224   5.646
 1052SOL     OW 4054   4.686   2.633   6.191
 1052SOL    HW1 4055   4.763   2.670   6.242
 1052SOL    HW2 4056   4.687   2.533   6.197
 1053SOL     OW 4057   4.567   2.663   4.972
 1053SOL    HW1 4058   4.565   2.654   4.872
 1053SOL    HW2 4059   4.516   2.745   4.999
 1054SOL     OW 4060   5.111   5.428   6.590
 1054SOL    HW1 4061   5.117   5.328   6.596
 1054SOL    HW2 4062   5.082   5.454   6.498
 1055SOL     OW 4063   5.547   5.693   5.895
 1055SOL    HW1 4064   5.545   5.609   5.840
 1055SOL    HW2 4065   5.604   5.678   5.976
 1056SOL     OW 4066   3.546   3.488   6.922
 1056SOL    HW1 4067   3.640   3.464   6.946
 1056SOL    HW2 4068   3.482   3.438   6.980
 1057SOL     OW 4069   2.879   3.899   6.772
 1057SOL    HW1 4070   2.912   3.993   6.776
 1057SOL    HW2 4071   2.930   3.849   6.702
 1058SOL     OW 4072   2.722   2.164   1.524
 1058SOL    HW1 4073   2.791   2.113   1.474
 1058SOL    HW2 4074   2.640   2.173   1.468
 1059SOL     OW 4075   2.138   6.292   2.823
 1059SOL    HW1 4076   2.184   6.358   2.882
 1059SOL    HW2 4077   2.156   6.199   2.857
 1060SOL     OW 4078   6.536   6.634   4.828
 1060SOL    HW1 4079   6.477   6.715   4.829
 1060SOL    HW2 4080   6.524   6.583   4.914
 1061SOL     OW 4081   0.337   3.815   5.948
 1061SOL    HW1 4082   0.404   3.889   5.944
 1061SOL    HW2 4083   0.359   3.755   6.025
 1062SOL     OW 4084   4.137   5.006   5.680
 1062SOL    HW1 4085   4.051   5.051   5.657
 1062SOL    HW2 4086   4.178   5.050   5.760
 1063SOL     OW 4087   2.936   5.992   3.697
 1063SOL    HW1 4088   2.916   6.050   3.776
 1063SOL    HW2 4089   3.029   5.956   3.703
 1064SOL     OW 4090   1.029   3.980   0.156
 1064SOL    HW1 4091   0.929   3.984   0.161
 1064SOL    HW2 4092   1.062   3.905   0.212
 1065SOL     OW 4093   5.847   1.203   5.739
 1065SOL    HW1 4094   5.761   1.213   5.688
 1065SOL    HW2 4095   5.896   1.291   5.739
 1066SOL     OW 4096   4.859   6.063   0.902
 1066SOL    HW1 4097   4.928   5.994   0.924
 1066SOL    HW2 4098   4.777   6.047   0.957
 1067SOL     OW 4099   3.910   1.404   0.618
 1067SOL    HW1 4100   3.897   1.332   0.550
 1067SOL    HW2 4101   3.896   1.366   0.710
 1068SOL     OW 4102   5.960   2.710   2.387
 1068SOL    HW1 4103   6.023   2.637   2.413
 1068SOL    HW2 4104   6.008   2.774   2.327
 1069SOL     OW 4105   0.685   1.443   2.940
 1069SOL    HW1 4106   0.625   1.515   2.975
 1069SOL    HW2 4107   0.696   1.454   2.841
 1070SOL     OW 4108   1.189   0.292   1.913
 1070SOL    HW1 4109   1.197   0.376   1.966
 1070SOL    HW2 4110   1.162   0.217   1.973
 1071SOL     OW 4111   1.123   3.055   5.704
 1071SOL    HW1 4112   1.125   3.146   5.661
 1071SOL    HW2 4113   1.029   3.034   5.732
 1072SOL     OW 4114   2.288   1.516   1.724
 1072SOL    HW1 4115   2.281   1.423   1.688
 1072SOL    HW2 4116   2.374   1.525   1.775
 1073SOL     OW 4117   5.126   1.836   2.545
 1073SOL    HW1 4118   5.063   1.761   2.564
 1073SOL    HW2 4119   5.144   1.840   2.447
 1074SOL     OW 4120   3.191   6.212   1.600
 1074SOL    HW1 4121   3.096   6.217   1.569
 1074SOL    HW2 4122   3.244   6.160   1.533
 1075SOL     OW 4123   6.940   4.045   4.545
 1075SOL    HW1 4124   0.009   4.009   4.572
 1075SOL    HW2 4125   6.898   4.093   4.622
 1076SOL     OW 4126   2.554   4.469   5.771
 1076SOL    HW1 4127   2.602   4.542   5.722
 1076SOL    HW2 4128   2.604   4.383   5.760
 1077SOL     OW 4129   6.624   6.584   0.724
 1077SOL    HW1 4130   6.568   6.505   0.748
 1077SOL    HW2 4131   6.579   6.668   0.754
 1078SOL     OW 4132   5.920   0.082   3.837
 1078SOL    HW1 4133   5.861   0.100   3.758
 1078SOL    HW2 4134   5.892   7.018   3.881
 1079SOL     OW 4135   1.035   5.474   1.208
 1079SOL    HW1 4136   0.962   5.541   1.217
 1079SOL    HW2 4137   1.124   5.520   1.211
 1080SOL     OW 4138   5.063   6.094   0.582
 1080SOL    HW1 4139   5.130   6.044   0.527
 1080SOL    HW2 4140   4.991   6.128   0.522
 1081SOL     OW 4141   7.012   6.756   3.222
 1081SOL    HW1 4142   7.016   6.799   3.132
 1081SOL    HW2 4143   0.009   6.825   3.292
 1082SOL     OW 4144   4.828   6.791   0.139
 1082SOL    HW1 4145   4.915   6.840   0.152
 1082SOL    HW2 4146   4.789   6.814   0.050
 1083SOL     OW 4147   6.285   3.904   2.492
 1083SOL    HW1 4148   6.210   3.847   2.458
 1083SOL    HW2 4149   6.334   3.943   2.414
 1084SOL     OW 4150   3.961   6.965   5.298
 1084SOL    HW1 4151   4.012   0.018   5.343
 1084SOL    HW2 4152   3.935   6.995   5.206
 1085SOL     OW 4153   2.198   3.259   4.614
 1085SOL    HW1 4154   2.158   3.341   4.572
 1085SOL    HW2 4155   2.292   3.248   4.582
 1086SOL     OW 4156   5.097   4.097   2.847
 1086SOL    HW1 4157   5.065   4.018   2.793
 1086SOL    HW2 4158   5.137   4.064   2.933
 1087SOL     OW 4159   3.511   0.404   5.764
 1087SOL    HW1 4160   3.581   0.333   5.777
 1087SOL    HW2 4161   3.510   0.464   5.844
 1088SOL     OW 4162   6.265   5.911   4.285
 1088SOL    HW1 4163   6.327   5.970   4.234
 1088SOL    HW2 4164   6.315   5.865   4.358
 1089SOL     OW 4165   6.208   5.050   4.647
 1089SOL    HW1 4166   6.185   4.962   4.605
 1089SOL    HW2 4167   6.124   5.094   4.679
 1090SOL     OW 4168   5.946   2.877   4.947
 1090SOL    HW1 4169   6.002   2.931   5.011
 1090SOL    HW2 4170   5.956   2.914   4.855
 1091SOL     OW 4171   1.859   3.444   3.613
 1091SOL    HW1 4172   1.809   3.525   3.583
 1091SOL    HW2 4173   1.952   3.447   3.578
 1092SOL     OW 4174   0.914   6.005   0.234
 1092SOL    HW1 4175   0.957   5.938   0.174
 1092SOL    HW2 4176   0.831   6.041   0.191
 1093SOL     OW 4177   2.003   0.483   3.075
 1093SOL    HW1 4178   1.994   0.400   3.020
 1093SOL    HW2 4179   2.095   0.486   3.115
 1094SOL     OW 4180   0.413   0.053   3.600
 1094SOL    HW1 4181   0.320   0.053   3.563
 1094SOL    HW2 4182   0.436   0.145   3.631
 1095SOL     OW 4183   6.540   4.868   1.220
 1095SOL    HW1 4184   6.507   4.862   1.126
 1095SOL    HW2 4185   6.494   4.798   1.276
 1096SOL     OW 4186   2.115   6.260   2.316
 1096SOL    HW1 4187   2.136   6.188   2.381
 1096SOL    HW2 4188   2.181   6.334   2.325
 1097SOL     OW 4189   3.217   5.542   4.636
 1097SOL    HW1 4190   3.275   5.552   4.555
 1097SOL    HW2 4191   3.196   5.445   4.650
 1098SOL     OW 4192   0.178   4.046   0.224
 1098SOL    HW1 4193   0.082   4.035   0.249
 1098SOL    HW2 4194   0.233   3.979   0.275
 1099SOL     OW 4195   5.515   0.169   6.879
 1099SOL    HW1 4196   5.513   0.268   6.894
 1099SOL    HW2 4197   5.607   0.143   6.848
 1100SOL     OW 4198   4.868   0.761   4.174
 1100SOL    HW1 4199   4.920   0.816   4.240
 1100SOL    HW2 4200   4.896   0.787   4.081
 1101SOL     OW 4201   4.706   2.663   0.168
 1101SOL    HW1 4202   4.655   2.602   0.227
 1101SOL    HW2 4203   4.652   2.745   0.149
 1102SOL     OW 4204   3.878   1.291   4.554
 1102SOL    HW1 4205   3.839   1.269   4.465
 1102SOL    HW2 4206   3.956   1.231   4.572
 1103SOL     OW 4207   3.199   6.240   0.745
 1103SOL    HW1 4208   3.247   6.225   0.832
 1103SOL    HW2 4209   3.103   6.213   0.755
 1104SOL     OW 4210   6.502   1.090   3.507
 1104SOL    HW1 4211   6.410   1.089   3.547
 1104SOL    HW2 4212   6.553   1.169   3.541
 1105SOL     OW 4213   4.945   0.464   5.418
 1105SOL    HW1 4214   4.904   0.420   5.338
 1105SOL    HW2 4215   4.890   0.443   5.499
 1106SOL     OW 4216   6.344   1.334   2.182
 1106SOL    HW1 4217   6.340   1.419   2.129
 1106SOL    HW2 4218   6.426   1.334   2.240
 1107SOL     OW 4219   1.157   2.387   6.642
 1107SOL    HW1 4220   1.194   2.425   6.557
 1107SOL    HW2 4221   1.085   2.322   6.620
 1108SOL     OW 4222   2.596   1.539   2.372
 1108SOL    HW1 4223   2.666   1.551   2.302
 1108SOL    HW2 4224   2.507   1.529   2.328
 1109SOL     OW 4225   5.248   1.629   5.295
 1109SOL    HW1 4226   5.186   1.648   5.371
 1109SOL    HW2 4227   5.226   1.540   5.255
 1110SOL     OW 4228   1.587   0.255   2.150
 1110SOL    HW1 4229   1.662   0.282   2.090
 1110SOL    HW2 4230   1.556   0.334   2.203
 1111SOL     OW 4231   5.066   3.459   6.167
 1111SOL    HW1 4232   5.127   3.450   6.246
 1111SOL    HW2 4233   5.013   3.543   6.175
 1112SOL     OW 4234   6.101   0.533   2.845
 1112SOL    HW1 4235   6.169   0.589   2.892
 1112SOL    HW2 4236   6.010   0.554   2.879
 1113SOL     OW 4237   0.782   1.456   2.659
 1113SOL    HW1 4238   0.781   1.357   2.646
 1113SOL    HW2 4239   0.876   1.490   2.650
 1114SOL     OW 4240   3.490   3.230   4.489
 1114SOL    HW1 4241   3.527   3.323   4.499
 1114SOL    HW2 4242   3.528   3.172   4.561
 1115SOL     OW 4243   1.962   5.379   6.160
 1115SOL    HW1 4244   1.938   5.287   6.188
 1115SOL    HW2 4245   2.050   5.378   6.112
 1116SOL     OW 4246   4.559   6.767   0.238
 1116SOL    HW1 4247   4.657   6.751   0.235
 1116SOL    HW2 4248   4.537   6.851   0.189
 1117SOL     OW 4249   2.015   2.417   1.669
 1117SOL    HW1 4250   2.106   2.455   1.687
 1117SOL    HW2 4251   1.990   2.434   1.574
 1118SOL     OW 4252   4.398   6.822   6.925
 1118SOL    HW1 4253   4.415   6.878   7.007
 1118SOL    HW2 4254   4.467   6.750   6.920
 1119SOL     OW 4255   3.128   6.387   4.053
 1119SOL    HW1 4256   3.074   6.374   3.970
 1119SOL    HW2 4257   3.067   6.386   4.133
 1120SOL     OW 4258   0.557   3.164   1.769
 1120SOL    HW1 4259   0.526   3.222   1.694
 1120SOL    HW2 4260   0.488   3.093   1.787
 1121SOL     OW 4261   5.627   4.020   5.839
 1121SOL    HW1 4262   5.533   4.008   5.870
 1121SOL    HW2 4263   5.684   4.047   5.917
 1122SOL     OW 4264   5.793   0.618   2.465
 1122SOL    HW1 4265   5.821   0.706   2.504
 1122SOL    HW2 4266   5.715   0.632   2.404
 1123SOL     OW 4267   3.494   1.814   4.823
 1123SOL    HW1 4268   3.420   1.800   4.889
 1123SOL    HW2 4269   3.485   1.905   4.783
 1124SOL     OW 4270   2.647   2.502   3.446
 1124SOL    HW1 4271   2.609   2.528   3.535
 1124SOL    HW2 4272   2.588   2.538   3.374
 1125SOL     OW 4273   1.212   3.175   3.897
 1125SOL    HW1 4274   1.260   3.137   3.976
 1125SOL    HW2 4275   1.232   3.119   3.816
 1126SOL     OW 4276   4.713   4.637   3.572
 1126SOL    HW1 4277   4.626   4.616   3.616
 1126SOL    HW2 4278   4.768   4.695   3.632
 1127SOL     OW 4279   5.723   6.837   1.099
 1127SOL    HW1 4280   5.815   6.800   1.088
 1127SOL    HW2 4281   5.675   6.788   1.171
 1128SOL     OW 4282   3.141   1.855   4.664
 1128SOL    HW1 4283   3.066   1.808   4.710
 1128SOL    HW2 4284   3.163   1.807   4.579
 1129SOL     OW 4285   1.274   0.547   0.050
 1129SOL    HW1 4286   1.242   0.563   6.977
 1129SOL    HW2 4287   1.218   0.599   0.114
 1130SOL     OW 4288   2.216   5.759   0.992
 1130SOL    HW1 4289   2.293   5.726   1.046
 1130SOL    HW2 4290   2.237   5.749   0.894
 1131SOL     OW 4291   1.305   5.628   3.453
 1131SOL    HW1 4292   1.237   5.575   3.504
 1131SOL    HW2 4293   1.371   5.566   3.411
 1132SOL     OW 4294   1.289   2.435   3.205
 1132SOL    HW1 4295   1.255   2.524   3.175
 1132SOL    HW2 4296   1.253   2.364   3.145
 1133SOL     OW 4297   1.238   6.150   6.987
 1133SOL    HW1 4298   1.236   6.225   6.920
 1133SOL    HW2 4299   1.201   6.183   0.054
 1134SOL     OW 4300   4.033   5.336   1.046
 1134SOL    HW1 4301   4.067   5.418   1.092
 1134SOL    HW2 4302   4.065   5.335   0.952
 1135SOL     OW 4303   1.936   6.644   3.159
 1135SOL    HW1 4304   1.994   6.573   3.200
 1135SOL    HW2 4305   1.854   6.602   3.120
 1136SOL     OW 4306   1.656   5.001   2.923
 1136SOL    HW1 4307   1.618   5.045   2.842
 1136SOL    HW2 4308   1.732   4.942   2.896
 1137SOL     OW 4309   1.100   5.009   4.169
 1137SOL    HW1 4310   1.090   4.910   4.175
 1137SOL    HW2 4311   1.026   5.053   4.219
 1138SOL     OW 4312   2.442   4.539   4.219
 1138SOL    HW1 4313   2.453   4.634   4.190
 1138SOL    HW2 4314   2.490   4.525   4.306
 1139SOL     OW 4315   3.568   5.755   4.817
 1139SOL    HW1 4316   3.609   5.754   4.726
 1139SOL    HW2 4317   3.552   5.661   4.848
 1140SOL     OW 4318   2.125   2.991   1.249
 1140SOL    HW1 4319   2.034   2.982   1.290
 1140SOL    HW2 4320   2.183   2.916   1.280
 1141SOL     OW 4321   5.991   4.644   5.813
 1141SOL    HW1 4322   5.976   4.666   5.717
 1141SOL    HW2 4323   5.918   4.583   5.844
 1142SOL     OW 4324   0.325   5.804   2.577
 1142SOL    HW1 4325   0.226   5.788   2.575
 1142SOL    HW2 4326   0.373   5.716   2.574
 1143SOL     OW 4327   0.118   4.166   1.840
 1143SOL    HW1 4328   0.161   4.235   1.782
 1143SOL    HW2 4329   0.021   4.190   1.853
 1144SOL     OW 4330   5.191   4.929   6.861
 1144SOL    HW1 4331   5.135   4.918   6.779
 1144SOL    HW2 4332   5.276   4.877   6.850
 1145SOL     OW 4333   5.586   0.284   1.294
 1145SOL    HW1 4334   5.540   0.252   1.377
 1145SOL    HW2 4335   5.550   0.373   1.269
 1146SOL     OW 4336   1.526   0.332   1.243
 1146SOL    HW1 4337   1.518   0.428   1.218
 1146SOL    HW2 4338   1.611   0.318   1.294
 1147SOL     OW 4339   1.535   5.960   0.472
 1147SOL    HW1 4340   1.496   5.962   0.564
 1147SOL    HW2 4341   1.517   5.872   0.430
 1148SOL     OW 4342   3.735   6.027   1.645
 1148SOL    HW1 4343   3.824   5.992   1.675
 1148SOL    HW2 4344   3.747   6.086   1.566
 1149SOL     OW 4345   6.116   1.797   1.827
 1149SOL    HW1 4346   6.099   1.841   1.915
 1149SOL    HW2 4347   6.050   1.829   1.759
 1150SOL     OW 4348   1.344   1.708   0.833
 1150SOL    HW1 4349   1.302   1.660   0.909
 1150SOL    HW2 4350   1.335   1.654   0.750
 1151SOL     OW 4351   5.655   5.856   4.629
 1151SOL    HW1 4352   5.741   5.808   4.644
 1151SOL    HW2 4353   5.673   5.954   4.617
 1152SOL     OW 4354   3.267   6.246   5.859
 1152SOL    HW1 4355   3.308   6.204   5.939
 1152SOL    HW2 4356   3.167   6.236   5.863
 1153SOL     OW 4357   5.539   0.006   1.132
 1153SOL    HW1 4358   5.615   6.967   1.105
 1153SOL    HW2 4359   5.576   0.090   1.170
 1154SOL     OW 4360   1.668   3.074   1.179
 1154SOL    HW1 4361   1.585   3.087   1.233
 1154SOL    HW2 4362   1.695   3.161   1.138
 1155SOL     OW 4363   3.661   5.719   3.766
 1155SOL    HW1 4364   3.752   5.753   3.744
 1155SOL    HW2 4365   3.659   5.689   3.861
 1156SOL     OW 4366   2.811   0.811   1.262
 1156SOL    HW1 4367   2.782   0.797   1.168
 1156SOL    HW2 4368   2.906   0.841   1.263
 1157SOL     OW 4369   2.214   2.180   0.923
 1157SOL    HW1 4370   2.245   2.272   0.899
 1157SOL    HW2 4371   2.273   2.112   0.879
 1158SOL     OW 4372   5.666   4.457   3.953
 1158SOL    HW1 4373   5.696   4.363   3.936
 1158SOL    HW2 4374   5.678   4.512   3.871
 1159SOL     OW 4375   5.217   4.984   0.672
 1159SOL    HW1 4376   5.273   5.045   0.727
 1159SOL    HW2 4377   5.121   4.994   0.698
 1160SOL     OW 4378   4.116   1.869   1.093
 1160SOL    HW1 4379   4.179   1.793   1.076
 1160SOL    HW2 4380   4.087   1.867   1.189
 1161SOL     OW 4381   0.386   4.600   0.672
 1161SOL    HW1 4382   0.407   4.648   0.758
 1161SOL    HW2 4383   0.322   4.526   0.690
 1162SOL     OW 4384   2.181   3.051   4.816
 1162SOL    HW1 4385   2.193   3.143   4.780
 1162SOL    HW2 4386   2.255   3.031   4.881
 1163SOL     OW 4387   4.599   1.523   2.148
 1163SOL    HW1 4388   4.632   1.617   2.142
 1163SOL    HW2 4389   4.512   1.521   2.198
 1164SOL     OW 4390   3.846   2.042   5.989
 1164SOL    HW1 4391   3.862   1.971   6.057
 1164SOL    HW2 4392   3.885   2.128   6.020
 1165SOL     OW 4393   4.043   0.215   2.822
 1165SOL    HW1 4394   4.011   0.224   2.727
 1165SOL    HW2 4395   4.141   0.238   2.826
 1166SOL     OW 4396   3.908   3.870   6.810
 1166SOL    HW1 4397   3.938   3.901   6.719
 1166SOL    HW2 4398   3.815   3.902   6.827
 1167SOL     OW 4399   5.377   3.960   3.526
 1167SOL    HW1 4400   5.306   3.973   3.596
 1167SOL    HW2 4401   5.335   3.926   3.442
 1168SOL     OW 4402   0.325   6.928   0.483
 1168SOL    HW1 4403   0.369   7.017   0.497
 1168SOL    HW2 4404   0.227   6.937   0.496
 1169SOL     OW 4405   4.963   2.009   5.396
 1169SOL    HW1 4406   5.028   2.076   5.431
 1169SOL    HW2 4407   4.955   2.020   5.297
 1170SOL     OW 4408   5.301   4.374   3.130
 1170SOL    HW1 4409   5.387   4.322   3.128
 1170SOL    HW2 4410   5.231   4.325   3.078
 1171SOL     OW 4411   0.047   6.188   0.635
 1171SOL    HW1 4412   0.120   6.128   0.666
 1171SOL    HW2 4413   6.981   6.138   0.632
 1172SOL     OW 4414   5.619   2.821   6.682
 1172SOL    HW1 4415   5.696   2.827   6.746
 1172SOL    HW2 4416   5.533   2.831   6.732
 1173SOL     OW 4417   4.546   2.662   1.568
 1173SOL    HW1 4418   4.546   2.721   1.649
 1173SOL    HW2 4419   4.601   2.581   1.586
 1174SOL     OW 4420   2.578   5.274   0.023
 1174SOL    HW1 4421   2.486   5.303   0.050
 1174SOL    HW2 4422   2.580   5.258   6.945
 1175SOL     OW 4423   3.124   4.021   3.990
 1175SOL    HW1 4424   3.088   3.943   3.939
 1175SOL    HW2 4425   3.078   4.027   4.079
 1176SOL     OW 4426   5.505   3.493   0.411
 1176SOL    HW1 4427   5.517   3.591   0.429
 1176SOL    HW2 4428   5.412   3.476   0.380
 1177SOL     OW 4429   1.227   0.747   4.689
 1177SOL    HW1 4430   1.272   0.668   4.647
 1177SOL    HW2 4431   1.132   0.723   4.712
 1178SOL     OW 4432   4.261   6.443   6.812
 1178SOL    HW1 4433   4.260   6.517   6.879
 1178SOL    HW2 4434   4.356   6.417   6.792
 1179SOL     OW 4435   0.255   5.944   1.393
 1179SOL    HW1 4436   0.265   5.858   1.444
 1179SOL    HW2 4437   0.225   5.923   1.300
 1180SOL     OW 4438   3.811   6.493   0.499
 1180SOL    HW1 4439   3.751   6.434   0.445
 1180SOL    HW2 4440   3.879   6.438   0.546
 1181SOL     OW 4441   6.140   6.094   6.591
 1181SOL    HW1 4442   6.136   5.995   6.584
 1181SOL    HW2 4443   6.058   6.128   6.637
 1182SOL     OW 4444   4.901   3.609   4.481
 1182SOL    HW1 4445   4.894   3.509   4.487
 1182SOL    HW2 4446   4.954   3.643   4.559
 1183SOL     OW 4447   1.820   4.382   0.242
 1183SOL    HW1 4448   1.817   4.468   0.190
 1183SOL    HW2 4449   1.833   4.403   0.339
 1184SOL     OW 4450   0.386   1.474   5.158
 1184SOL    HW1 4451   0.383   1.388   5.208
 1184SOL    HW2 4452   0.399   1.549   5.223
 1185SOL     OW 4453   6.738   1.948   6.350
 1185SOL    HW1 4454   6.666   1.914   6.410
 1185SOL    HW2 4455   6.805   1.876   6.334
 1186SOL     OW 4456   4.887   6.438   3.912
 1186SOL    HW1 4457   4.882   6.349   3.958
 1186SOL    HW2 4458   4.983   6.468   3.908
 1187SOL     OW 4459   5.879   2.032   6.949
 1187SOL    HW1 4460   5.951   1.989   7.004
 1187SOL    HW2 4461   5.914   2.116   6.908
 1188SOL     OW 4462   4.152   1.969   6.249
 1188SOL    HW1 4463   4.055   1.944   6.241
 1188SOL    HW2 4464   4.206   1.889   6.272
 1189SOL     OW 4465   6.205   3.744   3.624
 1189SOL    HW1 4466   6.149   3.756   3.705
 1189SOL    HW2 4467   6.265   3.664   3.636
 1190SOL     OW 4468   2.586   1.003   3.809
 1190SOL    HW1 4469   2.585   1.099   3.836
 1190SOL    HW2 4470   2.611   0.946   3.887
 1191SOL     OW 4471   3.213   0.348   2.867
 1191SOL    HW1 4472   3.159   0.264   2.878
 1191SOL    HW2 4473   3.289   0.332   2.805
 1192SOL     OW 4474   5.610   5.742   4.217
 1192SOL    HW1 4475   5.678   5.806   4.253
 1192SOL    HW2 4476   5.633   5.717   4.123
 1193SOL     OW 4477   6.682   6.023   4.613
 1193SOL    HW1 4478   6.670   6.075   4.529
 1193SOL    HW2 4479   6.758   6.060   4.665
 1194SOL     OW 4480   3.602   0.514   1.148
 1194SOL    HW1 4481   3.559   0.561   1.226
 1194SOL    HW2 4482   3.651   0.433   1.181
 1195SOL     OW 4483   5.097   3.285   2.908
 1195SOL    HW1 4484   5.131   3.191   2.917
 1195SOL    HW2 4485   5.162   3.339   2.855
 1196SOL     OW 4486   0.158   6.250   5.152
 1196SOL    HW1 4487   0.209   6.325   5.109
 1196SOL    HW2 4488   0.062   6.276   5.160
 1197SOL     OW 4489   2.717   6.201   6.496
 1197SOL    HW1 4490   2.673   6.290   6.481
 1197SOL    HW2 4491   2.814   6.215   6.516
 1198SOL     OW 4492   1.339   2.768   0.690
 1198SOL    HW1 4493   1.360   2.821   0.608
 1198SOL    HW2 4494   1.276   2.820   0.748
 1199SOL     OW 4495   5.598   4.442   2.861
 1199SOL    HW1 4496   5.619   4.440   2.959
 1199SOL    HW2 4497   5.552   4.356   2.836
 1200SOL     OW 4498   3.335   4.054   2.177
 1200SOL    HW1 4499   3.331   3.970   2.230
 1200SOL    HW2 4500   3.242   4.088   2.161
 1201SOL     OW 4501   1.639   2.403   4.975
 1201SOL    HW1 4502   1.625   2.500   4.993
 1201SOL    HW2 4503   1.572   2.349   5.026
 1202SOL     OW 4504   0.908   6.302   4.851
 1202SOL    HW1 4505   0.942   6.296   4.758
 1202SOL    HW2 4506   0.964   6.245   4.911
 1203SOL     OW 4507   4.450   5.336   5.075
 1203SOL    HW1 4508   4.485   5.425   5.045
 1203SOL    HW2 4509   4.350   5.338   5.075
 1204SOL     OW 4510   2.293   0.189   2.746
 1204SOL    HW1 4511   2.293   0.189   2.646
 1204SOL    HW2 4512   2.276   0.282   2.779
 1205SOL     OW 4513   5.768   3.481   2.336
 1205SOL    HW1 4514   5.700   3.553   2.320
 1205SOL    HW2 4515   5.858   3.513   2.307
 1206SOL     OW 4516   3.024   3.322   4.353
 1206SOL    HW1 4517   2.931   3.349   4.379
 1206SOL    HW2 4518   3.045   3.233   4.395
 1207SOL     OW 4519   0.875   5.976   3.427
 1207SOL    HW1 4520   0.864   5.966   3.328
 1207SOL    HW2 4521   0.907   6.068   3.447
 1208SOL     OW 4522   3.588   2.489   6.680
 1208SOL    HW1 4523   3.596   2.394   6.712
 1208SOL    HW2 4524   3.505   2.499   6.627
 1209SOL     OW 4525   4.127   6.730   5.252
 1209SOL    HW1 4526   4.212   6.769   5.216
 1209SOL    HW2 4527   4.062   6.804   5.272
 1210SOL     OW 4528   2.608   1.301   2.942
 1210SOL    HW1 4529   2.578   1.212   2.977
 1210SOL    HW2 4530   2.593   1.371   3.011
 1211SOL     OW 4531   1.071   3.084   0.826
 1211SOL    HW1 4532   1.093   3.136   0.909
 1211SOL    HW2 4533   1.114   2.993   0.831
 1212SOL     OW 4534   0.771   6.819   0.385
 1212SOL    HW1 4535   0.694   6.789   0.329
 1212SOL    HW2 4536   0.857   6.806   0.335
 1213SOL     OW 4537   6.080   2.882   2.210
 1213SOL    HW1 4538   6.013   2.914   2.143
 1213SOL    HW2 4539   6.160   2.942   2.207
 1214SOL     OW 4540   0.445   2.401   2.302
 1214SOL    HW1 4541   0.459   2.468   2.230
 1214SOL    HW2 4542   0.412   2.446   2.385
 1215SOL     OW 4543   2.454   5.517   3.037
 1215SOL    HW1 4544   2.553   5.529   3.030
 1215SOL    HW2 4545   2.410   5.607   3.039
 1216SOL     OW 4546   4.117   6.900   2.055
 1216SOL    HW1 4547   4.178   6.894   1.976
 1216SOL    HW2 4548   4.037   6.843   2.039
 1217SOL     OW 4549   2.580   4.254   0.345
 1217SOL    HW1 4550   2.493   4.252   0.296
 1217SOL    HW2 4551   2.608   4.349   0.358
 1218SOL     OW 4552   2.270   5.313   4.355
 1218SOL    HW1 4553   2.261   5.263   4.268
 1218SOL    HW2 4554   2.186   5.363   4.373
 1219SOL     OW 4555   3.552   5.170   1.802
 1219SOL    HW1 4556   3.631   5.197   1.858
 1219SOL    HW2 4557   3.543   5.071   1.804
 1220SOL     OW 4558   0.780   4.929   1.753
 1220SOL    HW1 4559   0.747   4.876   1.832
 1220SOL    HW2 4560   0.866   4.974   1.777
 1221SOL     OW 4561   4.506   4.576   6.981
 1221SOL    HW1 4562   4.559   4.567   6.896
 1221SOL    HW2 4563   4.569   4.573   0.038
 1222SOL     OW 4564   6.755   1.446   6.612
 1222SOL    HW1 4565   6.759   1.476   6.517
 1222SOL    HW2 4566   6.818   1.370   6.626
 1223SOL     OW 4567   4.202   5.787   1.122
 1223SOL    HW1 4568   4.281   5.771   1.062
 1223SOL    HW2 4569   4.177   5.702   1.168
 1224SOL     OW 4570   2.835   1.573   1.341
 1224SOL    HW1 4571   2.845   1.654   1.399
 1224SOL    HW2 4572   2.883   1.496   1.383
 1225SOL     OW 4573   3.731   4.539   5.962
 1225SOL    HW1 4574   3.727   4.609   5.891
 1225SOL    HW2 4575   3.721   4.449   5.921
 1226SOL     OW 4576   2.355   5.268   0.964
 1226SOL    HW1 4577   2.364   5.362   0.932
 1226SOL    HW2 4578   2.442   5.239   1.006
 1227SOL     OW 4579   1.256   4.367   5.881
 1227SOL    HW1 4580   1.273   4.317   5.796
 1227SOL    HW2 4581   1.334   4.425   5.902
 1228SOL     OW 4582   3.678   2.177   0.066
 1228SOL    HW1 4583   3.772   2.151   0.045
 1228SOL    HW2 4584   3.641   2.233   7.013
 1229SOL     OW 4585   2.841   3.846   0.181
 1229SOL    HW1 4586   2.851   3.786   0.261
 1229SOL    HW2 4587   2.855   3.941   0.209
 1230SOL     OW 4588   4.527   0.152   3.410
 1230SOL    HW1 4589   4.469   0.203   3.348
 1230SOL    HW2 4590   4.619   0.145   3.372
 1231SOL     OW 4591   0.701   3.136   3.224
 1231SOL    HW1 4592   0.723   3.040   3.241
 1231SOL    HW2 4593   0.733   3.162   3.133
 1232SOL     OW 4594   1.980   1.889   2.694
 1232SOL    HW1 4595   1.965   1.834   2.612
 1232SOL    HW2 4596   1.959   1.834   2.775
 1233SOL     OW 4597   0.948   2.112   4.490
 1233SOL    HW1 4598   0.855   2.140   4.514
 1233SOL    HW2 4599   0.993   2.074   4.570
 1234SOL     OW 4600   6.487   4.556   4.557
 1234SOL    HW1 4601   6.435   4.641   4.549
 1234SOL    HW2 4602   6.583   4.578   4.573
 1235SOL     OW 4603   0.002   4.980   3.654
 1235SOL    HW1 4604   0.000   5.071   3.613
 1235SOL    HW2 4605   0.005   4.911   3.583
 1236SOL     OW 4606   5.762   0.495   0.009
 1236SOL    HW1 4607   5.743   0.563   0.081
 1236SOL    HW2 4608   5.858   0.499   7.005
 1237SOL     OW 4609   2.242   4.411   6.625
 1237SOL    HW1 4610   2.223   4.355   6.706
 1237SOL    HW2 4611   2.170   4.398   6.557
 1238SOL     OW 4612   2.126   1.592   1.357
 1238SOL    HW1 4613   2.218   1.628   1.371
 1238SOL    HW2 4614   2.068   1.663   1.317
 1239SOL     OW 4615   0.965   0.584   5.593
 1239SOL    HW1 4616   1.053   0.601   5.549
 1239SOL    HW2 4617   0.929   0.670   5.630
 1240SOL     OW 4618   6.066   4.937   0.869
 1240SOL    HW1 4619   6.028   4.899   0.954
 1240SOL    HW2 4620   6.069   5.036   0.875
 1241SOL     OW 4621   0.719   1.819   4.535
 1241SOL    HW1 4622   0.693   1.912   4.509
 1241SOL    HW2 4623   0.778   1.780   4.464
 1242SOL     OW 4624   1.884   2.375   6.735
 1242SOL    HW1 4625   1.850   2.347   6.825
 1242SOL    HW2 4626   1.818   2.436   6.692
 1243SOL     OW 4627   3.499   4.985   5.330
 1243SOL    HW1 4628   3.453   4.911   5.280
 1243SOL    HW2 4629   3.455   4.996   5.419
 1244SOL     OW 4630   1.225   1.461   3.342
 1244SOL    HW1 4631   1.263   1.537   3.288
 1244SOL    HW2 4632   1.228   1.377   3.288
 1245SOL     OW 4633   3.356   2.942   5.268
 1245SOL    HW1 4634   3.289   2.956   5.341
 1245SOL    HW2 4635   3.312   2.953   5.179
 1246SOL     OW 4636   1.546   6.577   1.697
 1246SOL    HW1 4637   1.465   6.522   1.678
 1246SOL    HW2 4638   1.518   6.671   1.718
 1247SOL     OW 4639   0.812   6.493   6.611
 1247SOL    HW1 4640   0.908   6.474   6.633
 1247SOL    HW2 4641   0.772   6.415   6.562
 1248SOL     OW 4642   2.211   6.859   4.250
 1248SOL    HW1 4643   2.305   6.825   4.248
 1248SOL    HW2 4644   2.212   6.958   4.265
 1249SOL     OW 4645   6.255   2.988   3.325
 1249SOL    HW1 4646   6.253   3.083   3.358
 1249SOL    HW2 4647   6.164   2.963   3.291
 1250SOL     OW 4648   6.616   3.644   4.488
 1250SOL    HW1 4649   6.628   3.568   4.424
 1250SOL    HW2 4650   6.697   3.702   4.486
 1251SOL     OW 4651   3.268   1.107   6.705
 1251SOL    HW1 4652   3.265   1.207   6.700
 1251SOL    HW2 4653   3.176   1.070   6.716
 1252SOL     OW 4654   3.727   3.859   0.251
 1252SOL    HW1 4655   3.670   3.782   0.278
 1252SOL    HW2 4656   3.741   3.919   0.330
 1253SOL     OW 4657   4.505   1.624   3.018
 1253SOL    HW1 4658   4.454   1.597   2.937
 1253SOL    HW2 4659   4.493   1.722   3.034
 1254SOL     OW 4660   5.676   1.091   3.442
 1254SOL    HW1 4661   5.624   1.173   3.465
 1254SOL    HW2 4662   5.678   1.030   3.522
 1255SOL     OW 4663   5.660   0.605   1.552
 1255SOL    HW1 4664   5.730   0.538   1.527
 1255SOL    HW2 4665   5.569   0.563   1.542
 1256SOL     OW 4666   5.332   3.324   3.559
 1256SOL    HW1 4667   5.315   3.406   3.613
 1256SOL    HW2 4668   5.423   3.331   3.516
 1257SOL     OW 4669   6.156   1.603   4.224
 1257SOL    HW1 4670   6.218   1.643   4.291
 1257SOL    HW2 4671   6.070   1.655   4.223
 1258SOL     OW 4672   0.162   4.685   3.873
 1258SOL    HW1 4673   0.259   4.703   3.856
 1258SOL    HW2 4674   0.148   4.588   3.888
 1259SOL     OW 4675   5.442   2.216   4.555
 1259SOL    HW1 4676   5.404   2.256   4.472
 1259SOL    HW2 4677   5.398   2.258   4.635
 1260SOL     OW 4678   0.836   1.553   4.645
 1260SOL    HW1 4679   0.739   1.552   4.667
 1260SOL    HW2 4680   0.885   1.496   4.711
 1261SOL     OW 4681   6.791   2.938   1.407
 1261SOL    HW1 4682   6.814   3.030   1.437
 1261SOL    HW2 4683   6.696   2.937   1.373
 1262SOL     OW 4684   5.354   5.890   1.823
 1262SOL    HW1 4685   5.261   5.854   1.834
 1262SOL    HW2 4686   5.380   5.887   1.727
 1263SOL     OW 4687   1.297   1.999   2.977
 1263SOL    HW1 4688   1.201   1.974   2.966
 1263SOL    HW2 4689   1.315   2.085   2.931
 1264SOL     OW 4690   1.248   2.985   5.469
 1264SOL    HW1 4691   1.209   3.008   5.558
 1264SOL    HW2 4692   1.347   2.979   5.476
 1265SOL     OW 4693   6.705   0.780   6.132
 1265SOL    HW1 4694   6.774   0.841   6.170
 1265SOL    HW2 4695   6.742   0.687   6.124
 1266SOL     OW 4696   3.602   1.968   5.948
 1266SOL    HW1 4697   3.696   2.001   5.955
 1266SOL    HW2 4698   3.592   1.912   5.866
 1267SOL     OW 4699   3.106   1.135   2.130
 1267SOL    HW1 4700   3.154   1.094   2.053
 1267SOL    HW2 4701   3.158   1.213   2.164
 1268SOL     OW 4702   4.428   2.141   5.092
 1268SOL    HW1 4703   4.512   2.145   5.146
 1268SOL    HW2 4704   4.408   2.046   5.068
 1269SOL     OW 4705   5.105   1.927   3.068
 1269SOL    HW1 4706   5.197   1.929   3.027
 1269SOL    HW2 4707   5.113   1.928   3.168
 1270SOL     OW 4708   6.051   5.535   3.523
 1270SOL    HW1 4709   6.026   5.518   3.618
 1270SOL    HW2 4710   6.150   5.536   3.514
 1271SOL     OW 4711   1.512   6.788   1.964
 1271SOL    HW1 4712   1.415   6.769   1.981
 1271SOL    HW2 4713   1.532   6.882   1.990
 1272SOL     OW 4714   6.251   2.113   1.067
 1272SOL    HW1 4715   6.208   2.124   0.978
 1272SOL    HW2 4716   6.350   2.126   1.059
 1273SOL     OW 4717   2.122   4.443   5.265
 1273SOL    HW1 4718   2.139   4.469   5.361
 1273SOL    HW2 4719   2.206   4.411   5.223
 1274SOL     OW 4720   6.997   4.544   4.549
 1274SOL    HW1 4721   6.971   4.573   4.457
 1274SOL    HW2 4722   0.047   4.474   4.544
 1275SOL     OW 4723   1.697   1.283   2.777
 1275SOL    HW1 4724   1.699   1.211   2.847
 1275SOL    HW2 4725   1.761   1.355   2.803
 1276SOL     OW 4726   5.765   4.151   3.821
 1276SOL    HW1 4727   5.705   4.093   3.766
 1276SOL    HW2 4728   5.843   4.098   3.853
 1277SOL     OW 4729   1.456   6.071   6.354
 1277SOL    HW1 4730   1.456   5.990   6.294
 1277SOL    HW2 4731   1.461   6.041   6.449
 1278SOL     OW 4732   0.096   6.445   2.473
 1278SOL    HW1 4733   0.014   6.467   2.419
 1278SOL    HW2 4734   0.115   6.347   2.465
 1279SOL     OW 4735   3.364   2.348   0.824
 1279SOL    HW1 4736   3.352   2.406   0.743
 1279SOL    HW2 4737   3.274   2.323   0.861
 1280SOL     OW 4738   2.992   2.232   3.209
 1280SOL    HW1 4739   3.055   2.274   3.143
 1280SOL    HW2 4740   2.901   2.223   3.168
 1281SOL     OW 4741   5.796   5.809   5.738
 1281SOL    HW1 4742   5.790   5.856   5.826
 1281SOL    HW2 4743   5.706   5.772   5.714
 1282SOL     OW 4744   0.909   2.576   1.269
 1282SOL    HW1 4745   0.830   2.515   1.263
 1282SOL    HW2 4746   0.989   2.530   1.229
 1283SOL     OW 4747   1.539   0.497   4.822
 1283SOL    HW1 4748   1.551   0.406   4.781
 1283SOL    HW2 4749   1.582   0.498   4.912
 1284SOL     OW 4750   3.903   2.287   1.697
 1284SOL    HW1 4751   3.814   2.315   1.734
 1284SOL    HW2 4752   3.972   2.291   1.770
 1285SOL     OW 4753   3.825   1.541   4.355
 1285SOL    HW1 4754   3.884   1.540   4.436
 1285SOL    HW2 4755   3.732   1.516   4.382
 1286SOL     OW 4756   4.936   0.857   2.098
 1286SOL    HW1 4757   4.927   0.804   2.182
 1286SOL    HW2 4758   4.961   0.797   2.023
 1287SOL     OW 4759   5.789   5.100   6.830
 1287SOL    HW1 4760   5.768   5.198   6.820
 1287SOL    HW2 4761   5.858   5.088   6.902
 1288SOL     OW 4762   4.973   4.714   5.902
 1288SOL    HW1 4763   4.932   4.644   5.843
 1288SOL    HW2 4764   4.950   4.694   5.997
 1289SOL     OW 4765   1.516   6.680   0.842
 1289SOL    HW1 4766   1.571   6.751   0.799
 1289SOL    HW2 4767   1.557   6.653   0.929
 1290SOL     OW 4768   1.234   6.844   4.334
 1290SOL    HW1 4769   1.175   6.846   4.415
 1290SOL    HW2 4770   1.326   6.816   4.361
 1291SOL     OW 4771   5.072   5.947   3.438
 1291SOL    HW1 4772   5.040   5.853   3.447
 1291SOL    HW2 4773   5.027   5.991   3.360
 1292SOL     OW 4774   0.113   6.823   2.543
 1292SOL    HW1 4775   0.022   6.858   2.565
 1292SOL    HW2 4776   0.177   6.900   2.534
 1293SOL     OW 4777   4.760   6.895   1.223
 1293SOL    HW1 4778   4.721   6.812   1.261
 1293SOL    HW2 4779   4.743   6.898   1.124
 1294SOL     OW 4780   2.260   4.524   5.497
 1294SOL    HW1 4781   2.321   4.597   5.466
 1294SOL    HW2 4782   2.213   4.552   5.580
 1295SOL     OW 4783   6.987   4.678   0.419
 1295SOL    HW1 4784   0.026   4.720   0.351
 1295SOL    HW2 4785   7.015   4.583   0.433
 1296SOL     OW 4786   3.415   0.850   5.926
 1296SOL    HW1 4787   3.331   0.900   5.950
 1296SOL    HW2 4788   3.471   0.907   5.866
 1297SOL     OW 4789   6.046   6.705   0.297
 1297SOL    HW1 4790   5.948   6.711   0.275
 1297SOL    HW2 4791   6.058   6.722   0.395
 1298SOL     OW 4792   5.043   0.188   3.234
 1298SOL    HW1 4793   5.039   0.106   3.176
 1298SOL    HW2 4794   5.019   0.268   3.179
 1299SOL     OW 4795   1.204   5.036   4.801
 1299SOL    HW1 4796   1.157   5.029   4.713
 1299SOL    HW2 4797   1.136   5.049   4.873
 1300SOL     OW 4798   1.281   5.317   0.138
 1300SOL    HW1 4799   1.205   5.287   0.081
 1300SOL    HW2 4800   1.344   5.373   0.084
 1301SOL     OW 4801   6.174   1.852   6.984
 1301SOL    HW1 4802   6.219   1.779   6.932
 1301SOL    HW2 4803   6.114   1.811   0.031
 1302SOL     OW 4804   6.757   6.978   4.794
 1302SOL    HW1 4805   6.793   0.044   4.829
 1302SOL    HW2 4806   6.749   6.912   4.869
 1303SOL     OW 4807   2.649   6.366   1.492
 1303SOL    HW1 4808   2.572   6.427   1.507
 1303SOL    HW2 4809   2.715   6.409   1.430
 1304SOL     OW 4810   6.954   0.915   0.268
 1304SOL    HW1 4811   0.004   0.846   0.282
 1304SOL    HW2 4812   6.997   1.001   0.241
 1305SOL     OW 4813   3.625   4.155   6.025
 1305SOL    HW1 4814   3.624   4.156   5.925
 1305SOL    HW2 4815   3.718   4.174   6.057
 1306SOL     OW 4816   2.172   6.431   4.314
 1306SOL    HW1 4817   2.249   6.393   4.262
 1306SOL    HW2 4818   2.088   6.383   4.290
 1307SOL     OW 4819   2.186   3.870   3.512
 1307SOL    HW1 4820   2.124   3.851   3.588
 1307SOL    HW2 4821   2.214   3.967   3.515
 1308SOL     OW 4822   1.181   3.657   5.574
 1308SOL    HW1 4823   1.233   3.585   5.528
 1308SOL    HW2 4824   1.158   3.728   5.507
 1309SOL     OW 4825   5.909   3.953   0.144
 1309SOL    HW1 4826   5.835   3.903   0.099
 1309SOL    HW2 4827   5.880   3.979   0.236
 1310SOL     OW 4828   2.301   2.464   3.488
 1310SOL    HW1 4829   2.201   2.474   3.489
 1310SOL    HW2 4830   2.341   2.538   3.433
 1311SOL     OW 4831   6.233   5.516   0.263
 1311SOL    HW1 4832   6.269   5.572   0.338
 1311SOL    HW2 4833   6.230   5.572   0.180
 1312SOL     OW 4834   2.375   1.386   6.807
 1312SOL    HW1 4835   2.355   1.391   6.709
 1312SOL    HW2 4836   2.453   1.445   6.828
 1313SOL     OW 4837   5.060   5.162   2.923
 1313SOL    HW1 4838   4.978   5.123   2.881
 1313SOL    HW2 4839   5.044   5.176   3.020
 1314SOL     OW 4840   2.717   1.824   3.592
 1314SOL    HW1 4841   2.797   1.769   3.619
 1314SOL    HW2 4842   2.642   1.808   3.657
 1315SOL     OW 4843   5.610   0.492   3.649
 1315SOL    HW1 4844   5.600   0.436   3.731
 1315SOL    HW2 4845   5.605   0.589   3.673
 1316SOL     OW 4846   5.096   0.279   6.312
 1316SOL    HW1 4847   5.122   0.283   6.215
 1316SOL    HW2 4848   4.999   0.253   6.318
 1317SOL     OW 4849   3.759   3.121   4.285
 1317SOL    HW1 4850   3.691   3.193   4.267
 1317SOL    HW2 4851   3.738   3.077   4.373
 1318SOL     OW 4852   1.676   1.285   6.962
 1318SOL    HW1 4853   1.646   1.270   6.868
 1318SOL    HW2 4854   1.742   1.361   6.964
 1319SOL     OW 4855   6.708   1.882   0.242
 1319SOL    HW1 4856   6.610   1.877   0.222
 1319SOL    HW2 4857   6.722   1.889   0.340
 1320SOL     OW 4858   2.702   2.633   5.777
 1320SOL    HW1 4859   2.770   2.634   5.850
 1320SOL    HW2 4860   2.713   2.551   5.722
 1321SOL     OW 4861   0.202   2.395   1.489
 1321SOL    HW1 4862   0.299   2.417   1.478
 1321SOL    HW2 4863   0.190   2.296   1.481
 1322SOL     OW 4864   2.114   2.757   0.235
 1322SOL    HW1 4865   2.127   2.807   0.321
 1322SOL    HW2 4866   2.110   2.659   0.254
 1323SOL     OW 4867   4.545   0.696   0.950
 1323SOL    HW1 4868   4.529   0.724   1.045
 1323SOL    HW2 4869   4.570   0.599   0.947
 1324SOL     OW 4870   2.525   3.860   6.062
 1324SOL    HW1 4871   2.528   3.776   6.007
 1324SOL    HW2 4872   2.618   3.889   6.085
 1325SOL     OW 4873   4.426   4.980   4.438
 1325SOL    HW1 4874   4.457   4.921   4.512
 1325SOL    HW2 4875   4.349   5.036   4.470
 1326SOL     OW 4876   4.255   1.651   5.219
 1326SOL    HW1 4877   4.212   1.637   5.308
 1326SOL    HW2 4878   4.238   1.745   5.189
 1327SOL     OW 4879   4.786   5.931   1.825
 1327SOL    HW1 4880   4.709   5.929   1.761
 1327SOL    HW2 4881   4.753   5.953   1.917
 1328SOL     OW 4882   1.254   2.400   5.242
 1328SOL    HW1 4883   1.201   2.456   5.179
 1328SOL    HW2 4884   1.193   2.335   5.288
 1329SOL     OW 4885   1.548   2.777   4.404
 1329SOL    HW1 4886   1.503   2.694   4.436
 1329SOL    HW2 4887   1.479   2.846   4.382
 1330SOL     OW 4888   6.438   3.278   2.495
 1330SOL    HW1 4889   6.503   3.279   2.419
 1330SOL    HW2 4890   6.480   3.230   2.573
 1331SOL     OW 4891   3.665   1.664   2.718
 1331SOL    HW1 4892   3.751   1.710   2.742
 1331SOL    HW2 4893   3.589   1.709   2.766
 1332SOL     OW 4894   2.254   6.491   7.003
 1332SOL    HW1 4895   2.305   6.453   6.926
 1332SOL    HW2 4896   2.250   6.425   0.057
 1333SOL     OW 4897   3.633   3.442   2.420
 1333SOL    HW1 4898   3.599   3.502   2.492
 1333SOL    HW2 4899   3.579   3.458   2.337
 1334SOL     OW 4900   0.488   4.057   1.546
 1334SOL    HW1 4901   0.582   4.046   1.514
 1334SOL    HW2 4902   0.471   4.152   1.570
 1335SOL     OW 4903   0.135   3.353   3.172
 1335SOL    HW1 4904   0.158   3.305   3.087
 1335SOL    HW2 4905   0.213   3.349   3.234
 1336SOL     OW 4906   2.235   6.408   5.757
 1336SOL    HW1 4907   2.188   6.479   5.810
 1336SOL    HW2 4908   2.200   6.408   5.663
 1337SOL     OW 4909   6.810   6.868   1.766
 1337SOL    HW1 4910   6.900   6.894   1.733
 1337SOL    HW2 4911   6.815   6.778   1.809
 1338SOL     OW 4912   0.855   4.224   4.816
 1338SOL    HW1 4913   0.935   4.282   4.830
 1338SOL    HW2 4914   0.880   4.128   4.833
 1339SOL     OW 4915   5.107   1.116   6.561
 1339SOL    HW1 4916   5.140   1.200   6.603
 1339SOL    HW2 4917   5.019   1.133   6.516
 1340SOL     OW 4918   2.391   2.800   1.016
 1340SOL    HW1 4919   2.309   2.759   1.054
 1340SOL    HW2 4920   2.445   2.842   1.089
 1341SOL     OW 4921   5.950   6.225   6.751
 1341SOL    HW1 4922   6.017   6.180   6.810
 1341SOL    HW2 4923   5.873   6.164   6.735
 1342SOL     OW 4924   1.739   5.712   1.593
 1342SOL    HW1 4925   1.781   5.646   1.656
 1342SOL    HW2 4926   1.797   5.793   1.588
 1343SOL     OW 4927   5.063   5.784   2.837
 1343SOL    HW1 4928   5.132   5.812   2.770
 1343SOL    HW2 4929   4.980   5.838   2.823
 1344SOL     OW 4930   1.594   0.536   3.561
 1344SOL    HW1 4931   1.569   0.454   3.612
 1344SOL    HW2 4932   1.587   0.519   3.463
 1345SOL     OW 4933   1.194   6.478   5.248
 1345SOL    HW1 4934   1.116   6.504   5.191
 1345SOL    HW2 4935   1.168   6.480   5.344
 1346SOL     OW 4936   3.248   5.829   3.576
 1346SOL    HW1 4937   3.205   5.741   3.595
 1346SOL    HW2 4938   3.242   5.887   3.658
 1347SOL     OW 4939   0.029   1.070   6.258
 1347SOL    HW1 4940   6.961   1.109   6.283
 1347SOL    HW2 4941   0.028   0.972   6.277
 1348SOL     OW 4942   1.732   6.919   4.683
 1348SOL    HW1 4943   1.787   6.946   4.762
 1348SOL    HW2 4944   1.729   6.820   4.677
 1349SOL     OW 4945   5.025   3.702   4.256
 1349SOL    HW1 4946   5.125   3.700   4.256
 1349SOL    HW2 4947   4.991   3.668   4.343
 1350SOL     OW 4948   5.366   4.553   6.647
 1350SOL    HW1 4949   5.363   4.642   6.691
 1350SOL    HW2 4950   5.349   4.481   6.715
 1351SOL     OW 4951   6.576   3.384   0.135
 1351SOL    HW1 4952   6.643   3.412   0.066
 1351SOL    HW2 4953   6.614   3.399   0.226
 1352SOL     OW 4954   0.241   1.155   3.555
 1352SOL    HW1 4955   0.217   1.062   3.528
 1352SOL    HW2 4956   0.174   1.188   3.621
 1353SOL     OW 4957   6.699   3.327   6.161
 1353SOL    HW1 4958   6.774   3.369   6.109
 1353SOL    HW2 4959   6.624   3.306   6.099
 1354SOL     OW 4960   4.898   4.867   3.121
 1354SOL    HW1 4961   4.882   4.854   3.023
 1354SOL    HW2 4962   4.855   4.792   3.172
 1355SOL     OW 4963   3.694   3.589   4.312
 1355SOL    HW1 4964   3.690   3.647   4.393
 1355SOL    HW2 4965   3.745   3.635   4.240
 1356SOL     OW 4966   2.903   3.325   6.662
 1356SOL    HW1 4967   2.839   3.271   6.607
 1356SOL    HW2 4968   2.996   3.312   6.627
 1357SOL     OW 4969   0.255   3.245   4.840
 1357SOL    HW1 4970   0.200   3.169   4.806
 1357SOL    HW2 4971   0.280   3.228   4.935
 1358SOL     OW 4972   2.125   6.301   6.420
 1358SOL    HW1 4973   2.193   6.229   6.435
 1358SOL    HW2 4974   2.169   6.391   6.430
 1359SOL     OW 4975   5.938   5.263   0.244
 1359SOL    HW1 4976   5.849   5.222   0.222
 1359SOL    HW2 4977   5.927   5.332   0.316
 1360SOL     OW 4978   2.140   1.743   5.908
 1360SOL    HW1 4979   2.195   1.670   5.947
 1360SOL    HW2 4980   2.173   1.764   5.816
 1361SOL     OW 4981   5.901   5.079   4.965
 1361SOL    HW1 4982   5.895   5.169   5.008
 1361SOL    HW2 4983   5.934   5.089   4.871
 1362SOL     OW 4984   3.063   3.996   4.295
 1362SOL    HW1 4985   3.016   4.083   4.304
 1362SOL    HW2 4986   3.001   3.922   4.320
 1363SOL     OW 4987   6.953   6.449   3.742
 1363SOL    HW1 4988   6.979   6.539   3.705
 1363SOL    HW2 4989   7.001   6.378   3.691
 1364SOL     OW 4990   3.526   4.256   0.183
 1364SOL    HW1 4991   3.496   4.161   0.183
 1364SOL    HW2 4992   3.538   4.288   0.277
 1365SOL     OW 4993   5.075   2.252   6.017
 1365SOL    HW1 4994   5.061   2.275   5.921
 1365SOL    HW2 4995   5.003   2.190   6.047
 1366SOL     OW 4996   1.636   0.964   4.815
 1366SOL    HW1 4997   1.589   0.876   4.806
 1366SOL    HW2 4998   1.590   1.019   4.884
 1367SOL     OW 4999   2.531   1.482   1.873
 1367SOL    HW1 5000   2.606   1.419   1.853
 1367SOL    HW2 5001   2.567   1.572   1.894
 1368SOL     OW 5002   6.775   0.827   3.344
 1368SOL    HW1 5003   6.744   0.796   3.434
 1368SOL    HW2 5004   6.790   0.926   3.347
 1369SOL     OW 5005   0.119   0.139   2.700
 1369SOL    HW1 5006   0.091   0.147   2.796
 1369SOL    HW2 5007   0.199   0.197   2.684
 1370SOL     OW 5008   0.953   1.229   2.698
 1370SOL    HW1 5009   1.038   1.259   2.742
 1370SOL    HW2 5010   0.905   1.165   2.758
 1371SOL     OW 5011   2.207   7.000   5.587
 1371SOL    HW1 5012   2.138   6.949   5.637
 1371SOL    HW2 5013   2.162   0.046   5.527
 1372SOL     OW 5014   2.924   1.999   1.433
 1372SOL    HW1 5015   2.963   1.917   1.473
 1372SOL    HW2 5016   2.987   2.035   1.364
 1373SOL     OW 5017   1.151   5.319   6.188
 1373SOL    HW1 5018   1.239   5.364   6.177
 1373SOL    HW2 5019   1.165   5.228   6.226
 1374SOL     OW 5020   5.715   3.592   4.449
 1374SOL    HW1 5021   5.646   3.533   4.408
 1374SOL    HW2 5022   5.678   3.684   4.461
 1375SOL     OW 5023   0.833   4.104   3.967
 1375SOL    HW1 5024   0.834   4.202   3.948
 1375SOL    HW2 5025   0.927   4.070   3.973
 1376SOL     OW 5026   5.094   0.165   2.493
 1376SOL    HW1 5027   5.145   0.230   2.549
 1376SOL    HW2 5028   5.116   0.071   2.522
 1377SOL     OW 5029   0.240   4.134   5.178
 1377SOL    HW1 5030   0.152   4.100   5.211
 1377SOL    HW2 5031   0.239   4.234   5.178
 1378SOL     OW 5032   1.620   1.642   0.289
 1378SOL    HW1 5033   1.565   1.712   0.334
 1378SOL    HW2 5034   1.565   1.593   0.222
 1379SOL     OW 5035   4.424   5.254   1.642
 1379SOL    HW1 5036   4.446   5.348   1.617
 1379SOL    HW2 5037   4.325   5.246   1.656
 1380SOL     OW 5038   6.129   5.257   2.938
 1380SOL    HW1 5039   6.114   5.172   2.887
 1380SOL    HW2 5040   6.058   5.267   3.008
 1381SOL     OW 5041   3.884   6.902   2.374
 1381SOL    HW1 5042   3.965   6.954   2.401
 1381SOL    HW2 5043   3.857   6.841   2.448
 1382SOL     OW 5044   6.709   4.315   0.638
 1382SOL    HW1 5045   6.788   4.273   0.593
 1382SOL    HW2 5046   6.689   4.403   0.596
 1383SOL     OW 5047   3.501   0.114   0.433
 1383SOL    HW1 5048   3.507   0.016   0.448
 1383SOL    HW2 5049   3.494   0.133   0.335
 1384SOL     OW 5050   1.036   1.355   2.351
 1384SOL    HW1 5051   1.099   1.376   2.426
 1384SOL    HW2 5052   0.956   1.307   2.387
 1385SOL     OW 5053   4.931   3.354   4.582
 1385SOL    HW1 5054   4.941   3.365   4.681
 1385SOL    HW2 5055   4.905   3.259   4.562
 1386SOL     OW 5056   2.598   2.420   2.915
 1386SOL    HW1 5057   2.618   2.447   3.009
 1386SOL    HW2 5058   2.549   2.494   2.869
 1387SOL     OW 5059   3.437   0.852   4.439
 1387SOL    HW1 5060   3.524   0.900   4.432
 1387SOL    HW2 5061   3.381   0.872   4.358
 1388SOL     OW 5062   5.001   2.458   3.751
 1388SOL    HW1 5063   5.008   2.436   3.654
 1388SOL    HW2 5064   5.019   2.556   3.764
 1389SOL     OW 5065   6.783   0.944   4.653
 1389SOL    HW1 5066   6.719   0.885   4.604
 1389SOL    HW2 5067   6.735   0.995   4.724
 1390SOL     OW 5068   5.652   2.427   2.627
 1390SOL    HW1 5069   5.598   2.510   2.638
 1390SOL    HW2 5070   5.673   2.413   2.530
 1391SOL     OW 5071   5.924   0.959   5.204
 1391SOL    HW1 5072   5.879   0.875   5.235
 1391SOL    HW2 5073   5.854   1.025   5.174
 1392SOL     OW 5074   3.132   6.874   4.690
 1392SOL    HW1 5075   3.199   6.938   4.653
 1392SOL    HW2 5076   3.166   6.835   4.776
 1393SOL     OW 5077   4.742   6.782   6.881
 1393SOL    HW1 5078   4.681   6.706   6.901
 1393SOL    HW2 5079   4.833   6.747   6.858
 1394SOL     OW 5080   4.041   1.381   4.940
 1394SOL    HW1 5081   3.960   1.339   4.981
 1394SOL    HW2 5082   4.019   1.474   4.911
 1395SOL     OW 5083   0.878   5.004   2.592
 1395SOL    HW1 5084   0.864   4.905   2.596
 1395SOL    HW2 5085   0.896   5.032   2.498
 1396SOL     OW 5086   1.602   1.567   3.178
 1396SOL    HW1 5087   1.566   1.649   3.134
 1396SOL    HW2 5088   1.689   1.588   3.224
 1397SOL     OW 5089   2.119   4.916   5.904
 1397SOL    HW1 5090   2.064   4.927   5.821
 1397SOL    HW2 5091   2.215   4.937   5.883
 1398SOL     OW 5092   3.065   6.819   6.326
 1398SOL    HW1 5093   3.131   6.855   6.392
 1398SOL    HW2 5094   2.988   6.882   6.319
 1399SOL     OW 5095   3.637   6.903   0.168
 1399SOL    HW1 5096   3.717   6.887   0.225
 1399SOL    HW2 5097   3.571   6.829   0.181
 1400SOL     OW 5098   0.545   2.333   5.529
 1400SOL    HW1 5099   0.627   2.344   5.473
 1400SOL    HW2 5100   0.485   2.265   5.487
 1401SOL     OW 5101   4.245   6.759   2.662
 1401SOL    HW1 5102   4.204   6.750   2.753
 1401SOL    HW2 5103   4.345   6.762   2.671
 1402SOL     OW 5104   5.181   4.070   2.510
 1402SOL    HW1 5105   5.084   4.061   2.531
 1402SOL    HW2 5106   5.234   4.015   2.573
 1403SOL     OW 5107   2.937   2.586   6.619
 1403SOL    HW1 5108   2.959   2.545   6.707
 1403SOL    HW2 5109   2.965   2.525   6.545
 1404SOL     OW 5110   3.941   5.710   6.705
 1404SOL    HW1 5111   3.991   5.795   6.689
 1404SOL    HW2 5112   3.844   5.730   6.718
 1405SOL     OW 5113   0.840   4.713   6.838
 1405SOL    HW1 5114   0.871   4.624   6.804
 1405SOL    HW2 5115   0.917   4.761   6.879
 1406SOL     OW 5116   1.877   2.410   0.225
 1406SOL    HW1 5117   1.796   2.424   0.282
 1406SOL    HW2 5118   1.903   2.314   0.229
 1407SOL     OW 5119   6.539   2.835   1.315
 1407SOL    HW1 5120   6.440   2.840   1.309
 1407SOL    HW2 5121   6.566   2.771   1.387
 1408SOL     OW 5122   5.645   5.996   1.409
 1408SOL    HW1 5123   5.623   6.056   1.332
 1408SOL    HW2 5124   5.678   6.052   1.486
 1409SOL     OW 5125   5.629   2.195   5.783
 1409SOL    HW1 5126   5.555   2.127   5.785
 1409SOL    HW2 5127   5.660   2.213   5.876
 1410SOL     OW 5128   3.618   0.547   0.693
 1410SOL    HW1 5129   3.613   0.590   0.602
 1410SOL    HW2 5130   3.543   0.582   0.750
 1411SOL     OW 5131   3.231   0.078   0.069
 1411SOL    HW1 5132   3.190   0.157   0.114
 1411SOL    HW2 5133   3.227   0.091   6.990
 1412SOL     OW 5134   1.444   1.005   6.348
 1412SOL    HW1 5135   1.538   1.004   6.314
 1412SOL    HW2 5136   1.393   1.077   6.301
 1413SOL     OW 5137   1.746   1.459   4.721
 1413SOL    HW1 5138   1.734   1.519   4.800
 1413SOL    HW2 5139   1.831   1.483   4.674
 1414SOL     OW 5140   0.438   5.555   2.657
 1414SOL    HW1 5141   0.475   5.472   2.700
 1414SOL    HW2 5142   0.395   5.612   2.727
 1415SOL     OW 5143   3.052   1.848   5.127
 1415SOL    HW1 5144   2.985   1.774   5.122
 1415SOL    HW2 5145   3.102   1.854   5.041
 1416SOL     OW 5146   4.000   0.535   5.304
 1416SOL    HW1 5147   3.907   0.503   5.284
 1416SOL    HW2 5148   4.048   0.554   5.218
 1417SOL     OW 5149   3.776   4.038   4.499
 1417SOL    HW1 5150   3.756   4.068   4.406
 1417SOL    HW2 5151   3.726   4.097   4.564
 1418SOL     OW 5152   3.457   3.896   5.574
 1418SOL    HW1 5153   3.502   3.968   5.521
 1418SOL    HW2 5154   3.417   3.936   5.657
 1419SOL     OW 5155   0.373   5.414   1.769
 1419SOL    HW1 5156   0.296   5.351   1.761
 1419SOL    HW2 5157   0.439   5.396   1.695
 1420SOL     OW 5158   2.408   6.872   3.830
 1420SOL    HW1 5159   2.337   6.830   3.887
 1420SOL    HW2 5160   2.480   6.908   3.889
 1421SOL     OW 5161   1.563   5.098   1.009
 1421SOL    HW1 5162   1.520   5.122   0.922
 1421SOL    HW2 5163   1.645   5.043   0.992
 1422SOL     OW 5164   1.367   3.600   6.973
 1422SOL    HW1 5165   1.380   3.607   6.874
 1422SOL    HW2 5166   1.422   3.670   7.019
 1423SOL     OW 5167   5.049   0.877   4.866
 1423SOL    HW1 5168   5.061   0.976   4.859
 1423SOL    HW2 5169   5.058   0.835   4.776
 1424SOL     OW 5170   6.039   4.179   1.556
 1424SOL    HW1 5171   6.028   4.277   1.569
 1424SOL    HW2 5172   5.971   4.146   1.492
 1425SOL     OW 5173   5.841   0.520   2.953
 1425SOL    HW1 5174   5.821   0.423   2.967
 1425SOL    HW2 5175   5.771   0.561   2.894
 1426SOL     OW 5176   3.853   0.601   0.937
 1426SOL    HW1 5177   3.854   0.600   1.037
 1426SOL    HW2 5178   3.766   0.565   0.904
 1427SOL     OW 5179   1.469   0.749   3.677
 1427SOL    HW1 5180   1.406   0.723   3.750
 1427SOL    HW2 5181   1.506   0.667   3.633
 1428SOL     OW 5182   2.308   4.103   4.045
 1428SOL    HW1 5183   2.292   4.004   4.053
 1428SOL    HW2 5184   2.306   4.144   4.136
 1429SOL     OW 5185   5.733   0.624   0.887
 1429SOL    HW1 5186   5.711   0.570   0.807
 1429SOL    HW2 5187   5.832   0.625   0.901
 1430SOL     OW 5188   2.137   4.072   4.512
 1430SOL    HW1 5189   2.198   3.996   4.533
 1430SOL    HW2 5190   2.090   4.054   4.425
 1431SOL     OW 5191   3.551   1.690   0.755
 1431SOL    HW1 5192   3.485   1.618   0.777
 1431SOL    HW2 5193   3.506   1.762   0.704
 1432SOL     OW 5194   2.809   0.293   2.427
 1432SOL    HW1 5195   2.741   0.332   2.365
 1432SOL    HW2 5196   2.769   0.281   2.518
 1433SOL     OW 5197   4.088   1.728   3.492
 1433SOL    HW1 5198   4.075   1.629   3.490
 1433SOL    HW2 5199   4.077   1.760   3.587
 1434SOL     OW 5200   6.284   3.443   1.149
 1434SOL    HW1 5201   6.342   3.368   1.181
 1434SOL    HW2 5202   6.191   3.410   1.135
 1435SOL     OW 5203   6.689   6.464   4.189
 1435SOL    HW1 5204   6.748   6.463   4.109
 1435SOL    HW2 5205   6.604   6.415   4.169
 1436SOL     OW 5206   6.069   0.235   6.743
 1436SOL    HW1 5207   6.047   0.310   6.805
 1436SOL    HW2 5208   6.108   0.159   6.796
 1437SOL     OW 5209   4.004   0.906   0.428
 1437SOL    HW1 5210   4.103   0.912   0.441
 1437SOL    HW2 5211   3.962   0.864   0.509
 1438SOL     OW 5212   2.794   6.724   3.752
 1438SOL    HW1 5213   2.892   6.708   3.763
 1438SOL    HW2 5214   2.777   6.822   3.740
 1439SOL     OW 5215   6.846   5.216   4.561
 1439SOL    HW1 5216   6.883   5.234   4.470
 1439SOL    HW2 5217   6.755   5.258   4.569
 1440SOL     OW 5218   3.490   2.897   2.339
 1440SOL    HW1 5219   3.405   2.925   2.295
 1440SOL    HW2 5220   3.473   2.879   2.436
 1441SOL     OW 5221   0.029   2.294   6.564
 1441SOL    HW1 5222   0.012   2.251   6.475
 1441SOL    HW2 5223   7.013   2.387   6.563
 1442SOL     OW 5224   5.322   6.151   0.047
 1442SOL    HW1 5225   5.275   6.122   0.130
 1442SOL    HW2 5226   5.408   6.196   0.071
 1443SOL     OW 5227   1.972   3.103   4.456
 1443SOL    HW1 5228   2.039   3.029   4.465
 1443SOL    HW2 5229   1.967   3.154   4.542
 1444SOL     OW 5230   4.163   6.840   4.876
 1444SOL    HW1 5231   4.172   6.817   4.973
 1444SOL    HW2 5232   4.067   6.861   4.856
 1445SOL     OW 5233   6.546   2.652   6.861
 1445SOL    HW1 5234   6.587   2.658   6.952
 1445SOL    HW2 5235   6.479   2.725   6.850
 1446SOL     OW 5236   2.874   6.194   2.669
 1446SOL    HW1 5237   2.942   6.246   2.617
 1446SOL    HW2 5238   2.914   6.108   2.701
 1447SOL     OW 5239   6.294   0.846   4.930
 1447SOL    HW1 5240   6.236   0.902   4.870
 1447SOL    HW2 5241   6.255   0.846   5.023
 1448SOL     OW 5242   5.575   1.701   1.054
 1448SOL    HW1 5243   5.551   1.616   1.007
 1448SOL    HW2 5244   5.575   1.776   0.989
 1449SOL     OW 5245   4.963   6.058   0.074
 1449SOL    HW1 5246   5.040   5.996   0.058
 1449SOL    HW2 5247   4.900   6.054   7.017
 1450SOL     OW 5248   5.673   1.306   4.237
 1450SOL    HW1 5249   5.598   1.370   4.254
 1450SOL    HW2 5250   5.637   1.213   4.233
 1451SOL     OW 5251   0.166   6.738   2.288
 1451SOL    HW1 5252   0.147   6.749   2.386
 1451SOL    HW2 5253   0.220   6.816   2.256
 1452SOL     OW 5254   1.672   0.011   6.520
 1452SOL    HW1 5255   1.768   0.033   6.538
 1452SOL    HW2 5256   1.652   6.938   6.550
 1453SOL     OW 5257   6.302   4.338   3.882
 1453SOL    HW1 5258   6.347   4.336   3.793
 1453SOL    HW2 5259   6.265   4.429   3.899
 1454SOL     OW 5260   6.054   4.450   1.697
 1454SOL    HW1 5261   5.975   4.489   1.745
 1454SOL    HW2 5262   6.100   4.522   1.645
 1455SOL     OW 5263   2.229   1.746   1.890
 1455SOL    HW1 5264   2.242   1.782   1.798
 1455SOL    HW2 5265   2.318   1.726   1.931
 1456SOL     OW 5266   5.538   5.232   4.958
 1456SOL    HW1 5267   5.466   5.194   4.900
 1456SOL    HW2 5268   5.605   5.281   4.902
 1457SOL     OW 5269   2.106   1.768   4.316
 1457SOL    HW1 5270   2.158   1.810   4.242
 1457SOL    HW2 5271   2.167   1.755   4.395
 1458SOL     OW 5272   6.512   5.528   6.913
 1458SOL    HW1 5273   6.529   5.617   6.870
 1458SOL    HW2 5274   6.594   5.499   6.962
 1459SOL     OW 5275   3.248   6.810   1.100
 1459SOL    HW1 5276   3.290   6.728   1.139
 1459SOL    HW2 5277   3.192   6.855   1.170
 1460SOL     OW 5278   0.693   1.596   6.731
 1460SOL    HW1 5279   0.645   1.537   6.795
 1460SOL    HW2 5280   0.723   1.543   6.652
 1461SOL     OW 5281   4.956   3.883   2.738
 1461SOL    HW1 5282   4.893   3.862   2.813
 1461SOL    HW2 5283   4.922   3.842   2.654
 1462SOL     OW 5284   5.651   0.297   5.239
 1462SOL    HW1 5285   5.632   0.199   5.232
 1462SOL    HW2 5286   5.732   0.320   5.185
 1463SOL     OW 5287   0.857   2.536   5.720
 1463SOL    HW1 5288   0.778   2.514   5.777
 1463SOL    HW2 5289   0.836   2.515   5.624
 1464SOL     OW 5290   0.585   0.742   1.062
 1464SOL    HW1 5291   0.670   0.761   1.111
 1464SOL    HW2 5292   0.571   0.643   1.057
 1465SOL     OW 5293   1.972   1.117   3.924
 1465SOL    HW1 5294   2.019   1.063   3.995
 1465SOL    HW2 5295   1.891   1.160   3.965
 1466SOL     OW 5296   5.707   6.056   5.046
 1466SOL    HW1 5297   5.664   6.143   5.069
 1466SOL    HW2 5298   5.762   6.024   5.123
 1467SOL     OW 5299   0.799   4.338   4.243
 1467SOL    HW1 5300   0.741   4.261   4.269
 1467SOL    HW2 5301   0.875   4.305   4.187
 1468SOL     OW 5302   4.862   7.016   2.632
 1468SOL    HW1 5303   4.812   0.033   2.553
 1468SOL    HW2 5304   4.919   0.067   2.672
 1469SOL     OW 5305   6.619   0.272   2.292
 1469SOL    HW1 5306   6.645   0.308   2.202
 1469SOL    HW2 5307   6.630   0.344   2.361
 1470SOL     OW 5308   6.762   0.474   1.983
 1470SOL    HW1 5309   6.842   0.489   1.925
 1470SOL    HW2 5310   6.680   0.504   1.935
 1471SOL     OW 5311   6.687   1.111   0.961
 1471SOL    HW1 5312   6.695   1.163   1.046
 1471SOL    HW2 5313   6.601   1.060   0.961
 1472SOL     OW 5314   4.797   4.800   4.493
 1472SOL    HW1 5315   4.722   4.786   4.428
 1472SOL    HW2 5316   4.851   4.716   4.501
 1473SOL     OW 5317   0.647   3.223   3.854
 1473SOL    HW1 5318   0.702   3.284   3.911
 1473SOL    HW2 5319   0.699   3.142   3.832
 1474SOL     OW 5320   4.751   6.370   2.444
 1474SOL    HW1 5321   4.662   6.383   2.399
 1474SOL    HW2 5322   4.804   6.301   2.394
 1475SOL     OW 5323   6.820   0.075   2.975
 1475SOL    HW1 5324   6.835   0.114   2.883
 1475SOL    HW2 5325   6.734   0.109   3.012
 1476SOL     OW 5326   1.009   2.198   0.778
 1476SOL    HW1 5327   0.988   2.251   0.860
 1476SOL    HW2 5328   0.986   2.102   0.793
 1477SOL     OW 5329   2.502   6.503   4.363
 1477SOL    HW1 5330   2.547   6.489   4.451
 1477SOL    HW2 5331   2.403   6.493   4.374
 1478SOL     OW 5332   0.086   4.252   0.878
 1478SOL    HW1 5333   0.140   4.299   0.808
 1478SOL    HW2 5334   0.017   4.194   0.835
 1479SOL     OW 5335   1.088   4.630   7.017
 1479SOL    HW1 5336   1.029   4.566   6.967
 1479SOL    HW2 5337   1.170   4.648   6.962
 1480SOL     OW 5338   3.647   0.628   0.047
 1480SOL    HW1 5339   3.556   0.612   0.009
 1480SOL    HW2 5340   3.679   0.545   0.093
 1481SOL     OW 5341   0.153   2.955   1.024
 1481SOL    HW1 5342   0.098   3.027   1.066
 1481SOL    HW2 5343   0.098   2.906   0.956
 1482SOL     OW 5344   5.728   0.530   5.655
 1482SOL    HW1 5345   5.672   0.528   5.738
 1482SOL    HW2 5346   5.815   0.575   5.674
 1483SOL     OW 5347   0.324   2.183   1.210
 1483SOL    HW1 5348   0.227   2.196   1.233
 1483SOL    HW2 5349   0.376   2.170   1.294
 1484SOL     OW 5350   5.367   6.784   3.183
 1484SOL    HW1 5351   5.366   6.860   3.118
 1484SOL    HW2 5352   5.273   6.761   3.208
 1485SOL     OW 5353   5.309   4.127   4.608
 1485SOL    HW1 5354   5.267   4.087   4.527
 1485SOL    HW2 5355   5.344   4.218   4.586
 1486SOL     OW 5356   5.032   2.853   1.785
 1486SOL    HW1 5357   5.115   2.850   1.839
 1486SOL    HW2 5358   5.055   2.856   1.688
 1487SOL     OW 5359   0.650   0.097   5.548
 1487SOL    HW1 5360   0.678   0.169   5.611
 1487SOL    HW2 5361   0.673   0.007   5.586
 1488SOL     OW 5362   4.715   2.309   3.650
 1488SOL    HW1 5363   4.811   2.334   3.637
 1488SOL    HW2 5364   4.665   2.385   3.690
 1489SOL     OW 5365   3.584   5.486   4.905
 1489SOL    HW1 5366   3.555   5.390   4.899
 1489SOL    HW2 5367   3.538   5.529   4.983
 1490SOL     OW 5368   2.965   2.892   0.540
 1490SOL    HW1 5369   2.879   2.845   0.520
 1490SOL    HW2 5370   3.040   2.827   0.533
 1491SOL     OW 5371   1.487   1.483   3.883
 1491SOL    HW1 5372   1.586   1.487   3.870
 1491SOL    HW2 5373   1.457   1.564   3.934
 1492SOL     OW 5374   6.759   2.423   1.627
 1492SOL    HW1 5375   6.757   2.359   1.704
 1492SOL    HW2 5376   6.718   2.510   1.655
 1493SOL     OW 5377   6.559   3.197   4.800
 1493SOL    HW1 5378   6.579   3.294   4.793
 1493SOL    HW2 5379   6.582   3.165   4.892
 1494SOL     OW 5380   5.570   2.052   3.877
 1494SOL    HW1 5381   5.613   2.015   3.959
 1494SOL    HW2 5382   5.484   2.004   3.859
 1495SOL     OW 5383   1.339   3.836   1.446
 1495SOL    HW1 5384   1.363   3.764   1.382
 1495SOL    HW2 5385   1.421   3.867   1.493
 1496SOL     OW 5386   6.813   0.416   2.867
 1496SOL    HW1 5387   6.849   0.488   2.928
 1496SOL    HW2 5388   6.727   0.448   2.827
 1497SOL     OW 5389   5.343   3.913   5.822
 1497SOL    HW1 5390   5.287   3.938   5.900
 1497SOL    HW2 5391   5.297   3.942   5.738
 1498SOL     OW 5392   2.892   5.602   6.558
 1498SOL    HW1 5393   2.967   5.641   6.612
 1498SOL    HW2 5394   2.884   5.505   6.579
 1499SOL     OW 5395   1.853   4.224   3.941
 1499SOL    HW1 5396   1.841   4.321   3.963
 1499SOL    HW2 5397   1.780   4.194   3.880
 1500SOL     OW 5398   4.233   6.052   5.533
 1500SOL    HW1 5399   4.314   6.099   5.499
 1500SOL    HW2 5400   4.188   6.004   5.457
 1501SOL     OW 5401   3.702   1.154   1.515
 1501SOL    HW1 5402   3.734   1.060   1.505
 1501SOL    HW2 5403   3.624   1.170   1.455
 1502SOL     OW 5404   6.982   0.353   6.828
 1502SOL    HW1 5405   0.052   0.315   6.811
 1502SOL    HW2 5406   6.991   0.448   6.861
 1503SOL     OW 5407   3.511   3.527   5.245
 1503SOL    HW1 5408   3.439   3.495   5.183
 1503SOL    HW2 5409   3.526   3.459   5.316
 1504SOL     OW 5410   2.859   0.594   3.646
 1504SOL    HW1 5411   2.880   0.649   3.565
 1504SOL    HW2 5412   2.811   0.511   3.619
 1505SOL     OW 5413   5.770   6.409   3.172
 1505SOL    HW1 5414   5.797   6.494   3.127
 1505SOL    HW2 5415   5.851   6.358   3.199
 1506SOL     OW 5416   0.210   6.974   4.138
 1506SOL    HW1 5417   0.272   6.998   4.063
 1506SOL    HW2 5418   0.134   6.919   4.102
 1507SOL     OW 5419   2.199   1.673   6.728
 1507SOL    HW1 5420   2.179   1.641   6.821
 1507SOL    HW2 5421   2.255   1.755   6.733
 1508SOL     OW 5422   4.176   6.302   0.833
 1508SOL    HW1 5423   4.209   6.353   0.913
 1508SOL    HW2 5424   4.191   6.205   0.848
 1509SOL     OW 5425   5.129   2.084   6.279
 1509SOL    HW1 5426   5.180   2.146   6.219
 1509SOL    HW2 5427   5.033   2.083   6.250
 1510SOL     OW 5428   0.010   1.799   2.316
 1510SOL    HW1 5429   6.935   1.788   2.342
 1510SOL    HW2 5430   0.068   1.760   2.387
 1511SOL     OW 5431   0.273   2.492   0.615
 1511SOL    HW1 5432   0.353   2.541   0.582
 1511SOL    HW2 5433   0.196   2.508   0.553
 1512SOL     OW 5434   0.454   0.563   2.823
 1512SOL    HW1 5435   0.408   0.591   2.908
 1512SOL    HW2 5436   0.418   0.474   2.794
 1513SOL     OW 5437   2.467   0.628   2.828
 1513SOL    HW1 5438   2.470   0.721   2.790
 1513SOL    HW2 5439   2.552   0.580   2.806
 1514SOL     OW 5440   4.491   0.359   5.867
 1514SOL    HW1 5441   4.482   0.443   5.922
 1514SOL    HW2 5442   4.495   0.280   5.928
 1515SOL     OW 5443   5.205   5.489   5.626
 1515SOL    HW1 5444   5.131   5.431   5.661
 1515SOL    HW2 5445   5.188   5.509   5.529
 1516SOL     OW 5446   6.276   2.097   2.332
 1516SOL    HW1 5447   6.187   2.112   2.289
 1516SOL    HW2 5448   6.314   2.010   2.300
 1517SOL     OW 5449   3.267   5.086   1.578
 1517SOL    HW1 5450   3.331   5.025   1.531
 1517SOL    HW2 5451   3.193   5.033   1.617
 1518SOL     OW 5452   0.995   4.993   0.624
 1518SOL    HW1 5453   1.000   4.974   0.526
 1518SOL    HW2 5454   0.904   4.971   0.658
 1519SOL     OW 5455   0.971   4.238   1.096
 1519SOL    HW1 5456   0.923   4.267   1.178
 1519SOL    HW2 5457   1.032   4.162   1.118
 1520SOL     OW 5458   1.697   4.061   2.723
 1520SOL    HW1 5459   1.655   4.143   2.686
 1520SOL    HW2 5460   1.791   4.080   2.751
 1521SOL     OW 5461   2.045   5.663   5.603
 1521SOL    HW1 5462   2.069   5.753   5.638
 1521SOL    HW2 5463   1.950   5.641   5.628
 1522SOL     OW 5464   1.588   1.845   5.845
 1522SOL    HW1 5465   1.652   1.803   5.780
 1522SOL    HW2 5466   1.638   1.907   5.905
 1523SOL     OW 5467   5.649   1.160   0.760
 1523SOL    HW1 5468   5.730   1.167   0.819
 1523SOL    HW2 5469   5.567   1.176   0.814
 1524SOL     OW 5470   1.175   1.838   1.347
 1524SOL    HW1 5471   1.252   1.887   1.388
 1524SOL    HW2 5472   1.155   1.757   1.402
 1525SOL     OW 5473   4.673   2.058   5.233
 1525SOL    HW1 5474   4.712   2.032   5.144
 1525SOL    HW2 5475   4.728   2.131   5.273
 1526SOL     OW 5476   5.427   2.570   0.970
 1526SOL    HW1 5477   5.360   2.515   0.920
 1526SOL    HW2 5478   5.434   2.660   0.927
 1527SOL     OW 5479   1.869   0.238   5.005
 1527SOL    HW1 5480   1.869   0.241   5.105
 1527SOL    HW2 5481   1.860   0.144   4.975
 1528SOL     OW 5482   4.960   5.979   3.183
 1528SOL    HW1 5483   4.994   5.895   3.141
 1528SOL    HW2 5484   4.868   5.999   3.149
 1529SOL     OW 5485   1.272   6.423   5.526
 1529SOL    HW1 5486   1.341   6.495   5.521
 1529SOL    HW2 5487   1.201   6.449   5.592
 1530SOL     OW 5488   3.465   0.035   1.208
 1530SOL    HW1 5489   3.430   0.125   1.182
 1530SOL    HW2 5490   3.433   0.012   1.300
 1531SOL     OW 5491   5.498   1.465   6.599
 1531SOL    HW1 5492   5.468   1.467   6.503
 1531SOL    HW2 5493   5.589   1.508   6.606
 1532SOL     OW 5494   2.931   1.181   4.870
 1532SOL    HW1 5495   3.027   1.200   4.888
 1532SOL    HW2 5496   2.898   1.113   4.936
 1533SOL     OW 5497   4.157   2.785   1.008
 1533SOL    HW1 5498   4.156   2.836   0.922
 1533SOL    HW2 5499   4.109   2.838   1.079
 1534SOL     OW 5500   6.038   0.440   0.688
 1534SOL    HW1 5501   6.129   0.415   0.656
 1534SOL    HW2 5502   5.973   0.366   0.669
 1535SOL     OW 5503   4.514   4.548   4.532
 1535SOL    HW1 5504   4.594   4.490   4.519
 1535SOL    HW2 5505   4.475   4.572   4.443
 1536SOL     OW 5506   3.061   6.287   3.112
 1536SOL    HW1 5507   3.004   6.324   3.185
 1536SOL    HW2 5508   3.031   6.325   3.024
 1537SOL     OW 5509   1.481   5.710   4.680
 1537SOL    HW1 5510   1.448   5.658   4.601
 1537SOL    HW2 5511   1.527   5.793   4.649
 1538SOL     OW 5512   3.546   6.264   0.190
 1538SOL    HW1 5513   3.570   6.358   0.216
 1538SOL    HW2 5514   3.461   6.238   0.236
 1539SOL     OW 5515   2.270   6.632   1.653
 1539SOL    HW1 5516   2.244   6.613   1.747
 1539SOL    HW2 5517   2.201   6.691   1.610
 1540SOL     OW 5518   6.412   0.731   6.047
 1540SOL    HW1 5519   6.498   0.758   6.089
 1540SOL    HW2 5520   6.343   0.802   6.063
 1541SOL     OW 5521   5.240   1.856   2.283
 1541SOL    HW1 5522   5.274   1.768   2.252
 1541SOL    HW2 5523   5.189   1.900   2.209
 1542SOL     OW 5524   6.917   4.892   1.077
 1542SOL    HW1 5525   6.913   4.969   1.140
 1542SOL    HW2 5526   6.891   4.808   1.125
 1543SOL     OW 5527   3.380   2.943   2.589
 1543SOL    HW1 5528   3.429   3.030   2.593
 1543SOL    HW2 5529   3.287   2.959   2.555
 1544SOL     OW 5530   3.222   3.297   1.424
 1544SOL    HW1 5531   3.275   3.216   1.452
 1544SOL    HW2 5532   3.151   3.270   1.359
 1545SOL     OW 5533   0.751   6.328   5.889
 1545SOL    HW1 5534   0.846   6.355   5.872
 1545SOL    HW2 5535   0.744   6.229   5.895
 1546SOL     OW 5536   0.227   6.468   0.892
 1546SOL    HW1 5537   0.138   6.458   0.847
 1546SOL    HW2 5538   0.231   6.556   0.938
 1547SOL     OW 5539   2.727   6.454   0.359
 1547SOL    HW1 5540   2.757   6.438   0.265
 1547SOL    HW2 5541   2.632   6.484   0.359
 1548SOL     OW 5542   6.211   4.153   3.296
 1548SOL    HW1 5543   6.146   4.199   3.358
 1548SOL    HW2 5544   6.187   4.175   3.202
 1549SOL     OW 5545   6.128   1.840   1.506
 1549SOL    HW1 5546   6.093   1.847   1.413
 1549SOL    HW2 5547   6.061   1.792   1.563
 1550SOL     OW 5548   2.823   4.776   2.271
 1550SOL    HW1 5549   2.897   4.840   2.253
 1550SOL    HW2 5550   2.810   4.715   2.193
 1551SOL     OW 5551   1.352   1.978   1.948
 1551SOL    HW1 5552   1.386   1.980   2.042
 1551SOL    HW2 5553   1.271   1.918   1.944
 1552SOL     OW 5554   1.698   6.423   2.472
 1552SOL    HW1 5555   1.610   6.468   2.491
 1552SOL    HW2 5556   1.740   6.395   2.558
 1553SOL     OW 5557   5.971   1.700   5.420
 1553SOL    HW1 5558   5.935   1.790   5.443
 1553SOL    HW2 5559   6.046   1.676   5.482
 1554SOL     OW 5560   2.913   3.204   0.004
 1554SOL    HW1 5561   2.900   3.226   0.101
 1554SOL    HW2 5562   2.905   3.105   7.012
 1555SOL     OW 5563   4.235   0.887   1.190
 1555SOL    HW1 5564   4.179   0.930   1.261
 1555SOL    HW2 5565   4.206   0.921   1.100
 1556SOL     OW 5566   2.578   2.161   0.312
 1556SOL    HW1 5567   2.670   2.190   0.340
 1556SOL    HW2 5568   2.554   2.206   0.226
 1557SOL     OW 5569   2.575   2.413   1.133
 1557SOL    HW1 5570   2.669   2.432   1.161
 1557SOL    HW2 5571   2.513   2.434   1.209
 1558SOL     OW 5572   4.833   1.894   0.225
 1558SOL    HW1 5573   4.842   1.993   0.215
 1558SOL    HW2 5574   4.923   1.853   0.234
 1559SOL     OW 5575   2.453   5.884   4.002
 1559SOL    HW1 5576   2.521   5.886   3.929
 1559SOL    HW2 5577   2.434   5.789   4.027
 1560SOL     OW 5578   5.064   3.244   1.643
 1560SOL    HW1 5579   5.037   3.275   1.734
 1560SOL    HW2 5580   4.982   3.233   1.586
 1561SOL     OW 5581   5.977   6.687   1.341
 1561SOL    HW1 5582   5.968   6.592   1.373
 1561SOL    HW2 5583   5.988   6.687   1.241
 1562SOL     OW 5584   2.745   0.019   3.023
 1562SOL    HW1 5585   2.681   0.027   2.947
 1562SOL    HW2 5586   2.755   0.107   3.068
 1563SOL     OW 5587   2.202   4.563   3.980
 1563SOL    HW1 5588   2.132   4.533   4.044
 1563SOL    HW2 5589   2.281   4.502   3.986
 1564SOL     OW 5590   2.484   2.040   3.139
 1564SOL    HW1 5591   2.493   1.997   3.049
 1564SOL    HW2 5592   2.573   2.038   3.186
 1565SOL     OW 5593   5.680   2.025   5.302
 1565SOL    HW1 5594   5.605   1.958   5.295
 1565SOL    HW2 5595   5.716   2.044   5.211
 1566SOL     OW 5596   1.227   3.513   3.399
 1566SOL    HW1 5597   1.210   3.536   3.304
 1566SOL    HW2 5598   1.241   3.414   3.408
 1567SOL     OW 5599   5.585   1.079   3.967
 1567SOL    HW1 5600   5.681   1.067   3.993
 1567SOL    HW2 5601   5.531   1.002   4.002
 1568SOL     OW 5602   2.213   5.068   0.779
 1568SOL    HW1 5603   2.162   4.983   0.769
 1568SOL    HW2 5604   2.265   5.066   0.864
 1569SOL     OW 5605   2.073   1.266   2.238
 1569SOL    HW1 5606   2.130   1.306   2.310
 1569SOL    HW2 5607   2.082   1.319   2.154
 1570SOL     OW 5608   2.435   5.811   5.675
 1570SOL    HW1 5609   2.464   5.747   5.745
 1570SOL    HW2 5610   2.514   5.859   5.637
 1571SOL     OW 5611   1.532   1.559   4.360
 1571SOL    HW1 5612   1.584   1.474   4.368
 1571SOL    HW2 5613   1.569   1.628   4.422
 1572SOL     OW 5614   2.507   5.385   3.877
 1572SOL    HW1 5615   2.552   5.358   3.962
 1572SOL    HW2 5616   2.568   5.446   3.825
 1573SOL     OW 5617   5.747   6.033   6.686
 1573SOL    HW1 5618   5.739   5.937   6.711
 1573SOL    HW2 5619   5.693   6.050   6.603
 1574SOL     OW 5620   0.574   2.509   3.378
 1574SOL    HW1 5621   0.530   2.497   3.289
 1574SOL    HW2 5622   0.674   2.503   3.367
 1575SOL     OW 5623   6.844   2.124   0.223
 1575SOL    HW1 5624   6.806   2.031   0.232
 1575SOL    HW2 5625   6.774   2.185   0.187
 1576SOL     OW 5626   0.954   6.253   2.578
 1576SOL    HW1 5627   1.035   6.242   2.634
 1576SOL    HW2 5628   0.935   6.169   2.527
 1577SOL     OW 5629   4.616   5.691   4.240
 1577SOL    HW1 5630   4.615   5.600   4.199
 1577SOL    HW2 5631   4.693   5.743   4.204
 1578SOL     OW 5632   5.509   1.555   2.102
 1578SOL    HW1 5633   5.505   1.651   2.074
 1578SOL    HW2 5634   5.473   1.546   2.195
 1579SOL     OW 5635   1.919   4.156   2.561
 1579SOL    HW1 5636   1.982   4.125   2.490
 1579SOL    HW2 5637   1.854   4.083   2.581
 1580SOL     OW 5638   3.309   3.251   4.690
 1580SOL    HW1 5639   3.353   3.244   4.779
 1580SOL    HW2 5640   3.377   3.244   4.618
 1581SOL     OW 5641   5.321   3.730   5.276
 1581SOL    HW1 5642   5.347   3.706   5.182
 1581SOL    HW2 5643   5.262   3.810   5.275
 1582SOL     OW 5644   3.952   6.490   3.906
 1582SOL    HW1 5645   3.942   6.589   3.916
 1582SOL    HW2 5646   4.039   6.461   3.945
 1583SOL     OW 5647   0.463   5.207   4.854
 1583SOL    HW1 5648   0.440   5.173   4.763
 1583SOL    HW2 5649   0.386   5.192   4.916
 1584SOL     OW 5650   0.364   4.623   0.382
 1584SOL    HW1 5651   0.407   4.543   0.339
 1584SOL    HW2 5652   0.367   4.612   0.481
 1585SOL     OW 5653   4.036   6.491   4.230
 1585SOL    HW1 5654   4.135   6.473   4.235
 1585SOL    HW2 5655   3.992   6.450   4.310
 1586SOL     OW 5656   2.835   5.830   3.277
 1586SOL    HW1 5657   2.889   5.910   3.304
 1586SOL    HW2 5658   2.746   5.833   3.323
 1587SOL     OW 5659   4.316   0.761   6.765
 1587SOL    HW1 5660   4.369   0.711   6.834
 1587SOL    HW2 5661   4.224   0.722   6.760
 1588SOL     OW 5662   6.207   1.577   3.736
 1588SOL    HW1 5663   6.248   1.486   3.742
 1588SOL    HW2 5664   6.151   1.594   3.818
 1589SOL     OW 5665   6.988   0.754   3.614
 1589SOL    HW1 5666   0.012   0.778   3.700
 1589SOL    HW2 5667   6.909   0.696   3.632
 1590SOL     OW 5668   5.647   0.065   3.983
 1590SOL    HW1 5669   5.721   7.019   3.981
 1590SOL    HW2 5670   5.652   0.119   4.067
 1591SOL     OW 5671   6.788   4.938   0.843
 1591SOL    HW1 5672   6.840   4.912   0.924
 1591SOL    HW2 5673   6.695   4.963   0.869
 1592SOL     OW 5674   6.624   4.428   3.946
 1592SOL    HW1 5675   6.711   4.443   3.993
 1592SOL    HW2 5676   6.613   4.331   3.925
 1593SOL     OW 5677   4.138   5.137   1.208
 1593SOL    HW1 5678   4.219   5.196   1.216
 1593SOL    HW2 5679   4.085   5.164   1.128
 1594SOL     OW 5680   5.398   1.074   2.946
 1594SOL    HW1 5681   5.334   0.998   2.961
 1594SOL    HW2 5682   5.492   1.039   2.947
 1595SOL     OW 5683   6.877   3.751   0.548
 1595SOL    HW1 5684   6.842   3.667   0.507
 1595SOL    HW2 5685   6.841   3.830   0.498
 1596SOL     OW 5686   5.452   4.359   4.561
 1596SOL    HW1 5687   5.547   4.330   4.546
 1596SOL    HW2 5688   5.449   4.459   4.564
 1597SOL     OW 5689   4.015   6.578   1.052
 1597SOL    HW1 5690   3.971   6.521   1.122
 1597SOL    HW2 5691   4.094   6.530   1.015
 1598SOL     OW 5692   0.931   6.155   5.719
 1598SOL    HW1 5693   0.885   6.066   5.720
 1598SOL    HW2 5694   0.909   6.203   5.634
 1599SOL     OW 5695   5.116   5.380   3.960
 1599SOL    HW1 5696   5.098   5.373   4.058
 1599SOL    HW2 5697   5.082   5.468   3.926
 1600SOL     OW 5698   5.153   1.212   1.502
 1600SOL    HW1 5699   5.132   1.166   1.588
 1600SOL    HW2 5700   5.186   1.145   1.436
 1601SOL     OW 5701   5.817   0.426   5.069
 1601SOL    HW1 5702   5.784   0.520   5.060
 1601SOL    HW2 5703   5.865   0.400   4.985
 1602SOL     OW 5704   3.650   6.064   3.542
 1602SOL    HW1 5705   3.634   6.062   3.641
 1602SOL    HW2 5706   3.582   6.123   3.498
 1603SOL     OW 5707   3.608   5.537   1.223
 1603SOL    HW1 5708   3.564   5.491   1.146
 1603SOL    HW2 5709   3.556   5.518   1.307
 1604SOL     OW 5710   4.442   5.540   1.773
 1604SOL    HW1 5711   4.473   5.453   1.812
 1604SOL    HW2 5712   4.498   5.614   1.810
 1605SOL     OW 5713   3.957   4.996   0.436
 1605SOL    HW1 5714   3.946   5.091   0.406
 1605SOL    HW2 5715   3.939   4.990   0.534
 1606SOL     OW 5716   5.209   5.592   4.966
 1606SOL    HW1 5717   5.110   5.601   4.976
 1606SOL    HW2 5718   5.256   5.664   5.017
 1607SOL     OW 5719   4.648   4.379   4.213
 1607SOL    HW1 5720   4.742   4.390   4.245
 1607SOL    HW2 5721   4.589   4.358   4.291
 1608SOL     OW 5722   6.360   3.190   2.959
 1608SOL    HW1 5723   6.352   3.223   3.053
 1608SOL    HW2 5724   6.286   3.125   2.941
 1609SOL     OW 5725   1.240   0.224   1.000
 1609SOL    HW1 5726   1.211   0.129   0.992
 1609SOL    HW2 5727   1.332   0.234   0.964
 1610SOL     OW 5728   5.466   5.521   1.004
 1610SOL    HW1 5729   5.494   5.613   1.031
 1610SOL    HW2 5730   5.536   5.455   1.031
 1611SOL     OW 5731   0.346   4.664   6.907
 1611SOL    HW1 5732   0.261   4.697   6.866
 1611SOL    HW2 5733   0.418   4.733   6.897
 1612SOL     OW 5734   5.138   0.622   2.069
 1612SOL    HW1 5735   5.101   0.556   2.135
 1612SOL    HW2 5736   5.064   0.654   2.010
 1613SOL     OW 5737   6.980   6.392   2.731
 1613SOL    HW1 5738   6.950   6.297   2.743
 1613SOL    HW2 5739   0.032   6.395   2.662
 1614SOL     OW 5740   6.273   1.178   5.996
 1614SOL    HW1 5741   6.305   1.213   5.907
 1614SOL    HW2 5742   6.176   1.196   6.006
 1615SOL     OW 5743   6.344   3.482   5.721
 1615SOL    HW1 5744   6.430   3.512   5.679
 1615SOL    HW2 5745   6.277   3.557   5.716
 1616SOL     OW 5746   1.762   1.318   3.384
 1616SOL    HW1 5747   1.695   1.383   3.421
 1616SOL    HW2 5748   1.765   1.237   3.444
 1617SOL     OW 5749   0.230   6.259   4.245
 1617SOL    HW1 5750   0.235   6.169   4.201
 1617SOL    HW2 5751   0.301   6.266   4.315
 1618SOL     OW 5752   3.267   5.150   2.993
 1618SOL    HW1 5753   3.175   5.111   2.999
 1618SOL    HW2 5754   3.265   5.245   3.026
 1619SOL     OW 5755   1.308   3.961   6.225
 1619SOL    HW1 5756   1.386   3.899   6.220
 1619SOL    HW2 5757   1.316   4.018   6.306
 1620SOL     OW 5758   2.881   6.942   4.536
 1620SOL    HW1 5759   2.804   6.975   4.590
 1620SOL    HW2 5760   2.964   6.939   4.592
 1621SOL     OW 5761   5.418   5.162   0.915
 1621SOL    HW1 5762   5.360   5.232   0.872
 1621SOL    HW2 5763   5.500   5.205   0.951
 1622SOL     OW 5764   6.765   3.205   3.527
 1622SOL    HW1 5765   6.692   3.158   3.577
 1622SOL    HW2 5766   6.783   3.293   3.570
 1623SOL     OW 5767   0.616   2.302   3.867
 1623SOL    HW1 5768   0.680   2.271   3.937
 1623SOL    HW2 5769   0.620   2.240   3.788
 1624SOL     OW 5770   4.571   3.128   0.249
 1624SOL    HW1 5771   4.524   3.216   0.250
 1624SOL    HW2 5772   4.619   3.115   0.335
 1625SOL     OW 5773   1.087   6.202   0.168
 1625SOL    HW1 5774   1.046   6.115   0.196
 1625SOL    HW2 5775   1.014   6.268   0.150
 1626SOL     OW 5776   2.945   1.632   1.804
 1626SOL    HW1 5777   2.849   1.637   1.777
 1626SOL    HW2 5778   2.951   1.616   1.902
 1627SOL     OW 5779   4.439   1.269   5.605
 1627SOL    HW1 5780   4.372   1.309   5.667
 1627SOL    HW2 5781   4.415   1.291   5.510
 1628SOL     OW 5782   5.502   5.781   1.015
 1628SOL    HW1 5783   5.595   5.812   0.997
 1628SOL    HW2 5784   5.438   5.832   0.958
 1629SOL     OW 5785   1.878   6.098   2.275
 1629SOL    HW1 5786   1.953   6.041   2.242
 1629SOL    HW2 5787   1.914   6.189   2.297
 1630SOL     OW 5788   0.528   4.956   6.015
 1630SOL    HW1 5789   0.437   4.927   5.986
 1630SOL    HW2 5790   0.520   5.015   6.096
 1631SOL     OW 5791   4.846   4.261   6.730
 1631SOL    HW1 5792   4.873   4.181   6.677
 1631SOL    HW2 5793   4.762   4.300   6.691
 1632SOL     OW 5794   6.435   5.255   2.413
 1632SOL    HW1 5795   6.478   5.178   2.461
 1632SOL    HW2 5796   6.369   5.220   2.346
 1633SOL     OW 5797   6.825   4.147   4.774
 1633SOL    HW1 5798   6.758   4.215   4.743
 1633SOL    HW2 5799   6.804   4.121   4.869
 1634SOL     OW 5800   1.085   4.053   6.116
 1634SOL    HW1 5801   1.097   4.152   6.107
 1634SOL    HW2 5802   1.170   4.013   6.151
 1635SOL     OW 5803   2.761   1.416   3.699
 1635SOL    HW1 5804   2.675   1.389   3.741
 1635SOL    HW2 5805   2.837   1.373   3.748
 1636SOL     OW 5806   0.161   6.121   2.001
 1636SOL    HW1 5807   0.215   6.155   1.923
 1636SOL    HW2 5808   0.222   6.074   2.065
 1637SOL     OW 5809   1.447   1.096   1.606
 1637SOL    HW1 5810   1.434   1.031   1.681
 1637SOL    HW2 5811   1.542   1.091   1.575
 1638SOL     OW 5812   5.359   1.905   3.840
 1638SOL    HW1 5813   5.277   1.961   3.849
 1638SOL    HW2 5814   5.335   1.808   3.840
 1639SOL     OW 5815   4.961   1.908   1.316
 1639SOL    HW1 5816   5.015   1.824   1.325
 1639SOL    HW2 5817   5.008   1.970   1.253
 1640SOL     OW 5818   6.500   1.243   6.480
 1640SOL    HW1 5819   6.488   1.190   6.395
 1640SOL    HW2 5820   6.413   1.287   6.503
 1641SOL     OW 5821   6.124   1.411   2.334
 1641SOL    HW1 5822   6.204   1.389   2.279
 1641SOL    HW2 5823   6.151   1.422   2.429
 1642SOL     OW 5824   0.165   3.431   0.120
 1642SOL    HW1 5825   0.191   3.342   0.081
 1642SOL    HW2 5826   0.161   3.499   0.046
 1643SOL     OW 5827   2.294   5.651   4.725
 1643SOL    HW1 5828   2.213   5.709   4.724
 1643SOL    HW2 5829   2.350   5.670   4.645
 1644SOL     OW 5830   5.896   1.622   1.429
 1644SOL    HW1 5831   5.897   1.641   1.330
 1644SOL    HW2 5832   5.919   1.526   1.445
 1645SOL     OW 5833   2.592   1.250   3.918
 1645SOL    HW1 5834   2.515   1.302   3.880
 1645SOL    HW2 5835   2.631   1.301   3.994
 1646SOL     OW 5836   6.878   5.538   1.868
 1646SOL    HW1 5837   6.926   5.615   1.910
 1646SOL    HW2 5838   6.780   5.546   1.887
 1647SOL     OW 5839   0.102   3.765   5.428
 1647SOL    HW1 5840   0.024   3.707   5.449
 1647SOL    HW2 5841   0.105   3.781   5.329
 1648SOL     OW 5842   5.867   5.610   1.721
 1648SOL    HW1 5843   5.853   5.562   1.808
 1648SOL    HW2 5844   5.807   5.690   1.718
 1649SOL     OW 5845   3.886   0.791   3.532
 1649SOL    HW1 5846   3.914   0.813   3.626
 1649SOL    HW2 5847   3.798   0.835   3.513
 1650SOL     OW 5848   2.752   2.852   5.324
 1650SOL    HW1 5849   2.665   2.812   5.353
 1650SOL    HW2 5850   2.738   2.949   5.303
 1651SOL     OW 5851   1.686   1.914   3.868
 1651SOL    HW1 5852   1.734   1.833   3.834
 1651SOL    HW2 5853   1.735   1.951   3.947
 1652SOL     OW 5854   0.448   4.292   1.663
 1652SOL    HW1 5855   0.510   4.258   1.733
 1652SOL    HW2 5856   0.356   4.303   1.702
 1653SOL     OW 5857   5.787   4.085   1.444
 1653SOL    HW1 5858   5.745   4.104   1.355
 1653SOL    HW2 5859   5.772   3.989   1.468
 1654SOL     OW 5860   0.036   3.010   2.107
 1654SOL    HW1 5861   0.127   2.979   2.079
 1654SOL    HW2 5862   0.043   3.099   2.153
 1655SOL     OW 5863   6.494   0.581   5.836
 1655SOL    HW1 5864   6.555   0.654   5.803
 1655SOL    HW2 5865   6.471   0.599   5.932
 1656SOL     OW 5866   1.845   4.378   2.925
 1656SOL    HW1 5867   1.910   4.427   2.982
 1656SOL    HW2 5868   1.758   4.368   2.974
 1657SOL     OW 5869   0.392   1.608   6.269
 1657SOL    HW1 5870   0.480   1.650   6.250
 1657SOL    HW2 5871   0.337   1.670   6.327
 1658SOL     OW 5872   4.760   0.053   5.304
 1658SOL    HW1 5873   4.817   0.126   5.341
 1658SOL    HW2 5874   4.664   0.080   5.310
 1659SOL     OW 5875   2.825   1.075   6.534
 1659SOL    HW1 5876   2.761   1.034   6.469
 1659SOL    HW2 5877   2.782   1.155   6.578
 1660SOL     OW 5878   2.344   0.976   1.339
 1660SOL    HW1 5879   2.282   0.898   1.338
 1660SOL    HW2 5880   2.290   1.061   1.344
 1661SOL     OW 5881   4.560   5.194   3.464
 1661SOL    HW1 5882   4.465   5.176   3.490
 1661SOL    HW2 5883   4.566   5.285   3.422
 1662SOL     OW 5884   0.547   2.002   4.046
 1662SOL    HW1 5885   0.607   1.968   4.119
 1662SOL    HW2 5886   0.490   2.076   4.082
 1663SOL     OW 5887   6.720   3.803   1.136
 1663SOL    HW1 5888   6.624   3.825   1.151
 1663SOL    HW2 5889   6.728   3.733   1.065
 1664SOL     OW 5890   1.161   0.653   6.854
 1664SOL    HW1 5891   1.074   0.607   6.870
 1664SOL    HW2 5892   1.156   0.747   6.888
 1665SOL     OW 5893   1.608   3.664   0.468
 1665SOL    HW1 5894   1.682   3.677   0.402
 1665SOL    HW2 5895   1.644   3.672   0.561
 1666SOL     OW 5896   5.698   6.291   5.374
 1666SOL    HW1 5897   5.751   6.207   5.387
 1666SOL    HW2 5898   5.646   6.311   5.457
 1667SOL     OW 5899   6.480   5.213   1.056
 1667SOL    HW1 5900   6.540   5.251   1.126
 1667SOL    HW2 5901   6.465   5.281   0.984
 1668SOL     OW 5902   6.881   2.861   2.242
 1668SOL    HW1 5903   6.801   2.887   2.190
 1668SOL    HW2 5904   6.961   2.913   2.210
 1669SOL     OW 5905   6.438   2.982   5.502
 1669SOL    HW1 5906   6.393   3.067   5.475
 1669SOL    HW2 5907   6.531   3.001   5.533
 1670SOL     OW 5908   3.039   4.342   5.292
 1670SOL    HW1 5909   3.031   4.254   5.246
 1670SOL    HW2 5910   2.998   4.413   5.236
 1671SOL     OW 5911   5.702   2.401   0.342
 1671SOL    HW1 5912   5.730   2.353   0.426
 1671SOL    HW2 5913   5.621   2.457   0.362
 1672SOL     OW 5914   0.924   1.778   1.540
 1672SOL    HW1 5915   0.901   1.789   1.636
 1672SOL    HW2 5916   0.959   1.864   1.504
 1673SOL     OW 5917   0.896   0.696   6.081
 1673SOL    HW1 5918   0.976   0.699   6.021
 1673SOL    HW2 5919   0.925   0.708   6.176
 1674SOL     OW 5920   4.759   2.809   3.126
 1674SOL    HW1 5921   4.803   2.734   3.076
 1674SOL    HW2 5922   4.679   2.774   3.174
 1675SOL     OW 5923   4.952   0.668   1.875
 1675SOL    HW1 5924   4.918   0.576   1.894
 1675SOL    HW2 5925   5.039   0.662   1.827
 1676SOL     OW 5926   1.862   1.722   3.755
 1676SOL    HW1 5927   1.796   1.700   3.683
 1676SOL    HW2 5928   1.934   1.780   3.718
 1677SOL     OW 5929   2.896   3.392   1.645
 1677SOL    HW1 5930   2.885   3.412   1.742
 1677SOL    HW2 5931   2.993   3.402   1.620
 1678SOL     OW 5932   6.586   0.242   0.656
 1678SOL    HW1 5933   6.607   0.263   0.561
 1678SOL    HW2 5934   6.611   0.320   0.713
 1679SOL     OW 5935   6.220   2.099   7.004
 1679SOL    HW1 5936   6.291   2.104   0.054
 1679SOL    HW2 5937   6.205   2.004   6.979
 1680SOL     OW 5938   5.223   1.966   3.361
 1680SOL    HW1 5939   5.280   2.046   3.341
 1680SOL    HW2 5940   5.277   1.883   3.348
 1681SOL     OW 5941   4.453   6.752   4.212
 1681SOL    HW1 5942   4.446   6.756   4.312
 1681SOL    HW2 5943   4.373   6.796   4.171
 1682SOL     OW 5944   4.528   1.843   5.319
 1682SOL    HW1 5945   4.548   1.939   5.303
 1682SOL    HW2 5946   4.591   1.806   5.387
 1683SOL     OW 5947   1.027   3.904   3.671
 1683SOL    HW1 5948   1.019   3.979   3.605
 1683SOL    HW2 5949   1.085   3.933   3.747
 1684SOL     OW 5950   3.498   5.799   1.095
 1684SOL    HW1 5951   3.508   5.701   1.112
 1684SOL    HW2 5952   3.438   5.839   1.164
 1685SOL     OW 5953   6.873   2.301   5.586
 1685SOL    HW1 5954   6.890   2.204   5.567
 1685SOL    HW2 5955   6.821   2.341   5.511
 1686SOL     OW 5956   3.110   6.156   1.292
 1686SOL    HW1 5957   3.210   6.160   1.287
 1686SOL    HW2 5958   3.083   6.075   1.344
 1687SOL     OW 5959   4.330   4.097   0.087
 1687SOL    HW1 5960   4.352   4.023   0.023
 1687SOL    HW2 5961   4.415   4.135   0.124
 1688SOL     OW 5962   2.733   0.541   2.814
 1688SOL    HW1 5963   2.739   0.583   2.904
 1688SOL    HW2 5964   2.764   0.446   2.819
 1689SOL     OW 5965   4.327   1.091   2.329
 1689SOL    HW1 5966   4.242   1.056   2.368
 1689SOL    HW2 5967   4.306   1.149   2.250
 1690SOL     OW 5968   0.331   4.598   4.117
 1690SOL    HW1 5969   0.283   4.517   4.086
 1690SOL    HW2 5970   0.368   4.648   4.038
 1691SOL     OW 5971   4.428   3.196   5.411
 1691SOL    HW1 5972   4.488   3.268   5.377
 1691SOL    HW2 5973   4.476   3.143   5.481
 1692SOL     OW 5974   5.514   5.502   2.912
 1692SOL    HW1 5975   5.433   5.453   2.881
 1692SOL    HW2 5976   5.525   5.490   3.011
 1693SOL     OW 5977   5.555   0.541   5.864
 1693SOL    HW1 5978   5.513   0.453   5.886
 1693SOL    HW2 5979   5.484   0.607   5.841
 1694SOL     OW 5980   4.440   1.260   6.874
 1694SOL    HW1 5981   4.477   1.219   6.790
 1694SOL    HW2 5982   4.401   1.188   6.931
 1695SOL     OW 5983   5.556   1.075   5.230
 1695SOL    HW1 5984   5.498   1.063   5.311
 1695SOL    HW2 5985   5.630   1.139   5.252
 1696SOL     OW 5986   5.244   6.936   1.072
 1696SOL    HW1 5987   5.293   7.013   1.112
 1696SOL    HW2 5988   5.255   6.937   0.973
 1697SOL     OW 5989   3.952   4.037   1.802
 1697SOL    HW1 5990   3.912   4.128   1.813
 1697SOL    HW2 5991   3.904   3.972   1.862
 1698SOL     OW 5992   4.689   1.949   1.373
 1698SOL    HW1 5993   4.787   1.946   1.354
 1698SOL    HW2 5994   4.651   1.857   1.367
 1699SOL     OW 5995   1.771   0.313   1.033
 1699SOL    HW1 5996   1.847   0.346   1.090
 1699SOL    HW2 5997   1.719   0.244   1.084
 1700SOL     OW 5998   5.928   3.364   3.031
 1700SOL    HW1 5999   5.987   3.413   3.095
 1700SOL    HW2 6000   5.934   3.405   2.940
 1701SOL     OW 6001   1.059   5.550   5.249
 1701SOL    HW1 6002   1.111   5.563   5.164
 1701SOL    HW2 6003   0.978   5.609   5.247
 1702SOL     OW 6004   2.289   2.236   6.924
 1702SOL    HW1 6005   2.199   2.274   6.945
 1702SOL    HW2 6006   2.281   2.137   6.915
 1703SOL     OW 6007   1.623   1.747   1.944
 1703SOL    HW1 6008   1.618   1.735   2.043
 1703SOL    HW2 6009   1.717   1.731   1.914
 1704SOL     OW 6010   2.795   3.022   6.788
 1704SOL    HW1 6011   2.800   3.121   6.774
 1704SOL    HW2 6012   2.825   2.976   6.705
 1705SOL     OW 6013   5.643   3.240   1.245
 1705SOL    HW1 6014   5.668   3.295   1.324
 1705SOL    HW2 6015   5.597   3.156   1.276
 1706SOL     OW 6016   5.946   0.649   5.701
 1706SOL    HW1 6017   5.953   0.744   5.672
 1706SOL    HW2 6018   6.030   0.623   5.749
 1707SOL     OW 6019   2.757   1.243   2.182
 1707SOL    HW1 6020   2.809   1.242   2.097
 1707SOL    HW2 6021   2.674   1.189   2.171
 1708SOL     OW 6022   2.540   4.749   1.527
 1708SOL    HW1 6023   2.446   4.759   1.495
 1708SOL    HW2 6024   2.573   4.658   1.503
 1709SOL     OW 6025   5.971   5.227   2.493
 1709SOL    HW1 6026   5.981   5.168   2.573
 1709SOL    HW2 6027   5.975   5.171   2.410
 1710SOL     OW 6028   4.831   2.802   1.983
 1710SOL    HW1 6029   4.802   2.892   2.015
 1710SOL    HW2 6030   4.898   2.813   1.909
 1711SOL     OW 6031   3.883   5.267   0.319
 1711SOL    HW1 6032   3.851   5.318   0.239
 1711SOL    HW2 6033   3.855   5.315   0.402
 1712SOL     OW 6034   7.014   2.505   2.454
 1712SOL    HW1 6035   6.962   2.460   2.381
 1712SOL    HW2 6036   6.951   2.555   2.513
 1713SOL     OW 6037   2.710   1.496   2.721
 1713SOL    HW1 6038   2.714   1.436   2.641
 1713SOL    HW2 6039   2.683   1.442   2.801
 1714SOL     OW 6040   3.265   4.778   0.920
 1714SOL    HW1 6041   3.205   4.769   0.841
 1714SOL    HW2 6042   3.352   4.820   0.892
 1715SOL     OW 6043   1.436   5.511   0.822
 1715SOL    HW1 6044   1.471   5.592   0.775
 1715SOL    HW2 6045   1.339   5.523   0.841
 1716SOL     OW 6046   5.080   1.488   2.313
 1716SOL    HW1 6047   5.027   1.527   2.237
 1716SOL    HW2 6048   5.024   1.421   2.360
 1717SOL     OW 6049   3.580   6.785   4.248
 1717SOL    HW1 6050   3.561   6.786   4.149
 1717SOL    HW2 6051   3.632   6.867   4.272
 1718SOL     OW 6052   1.353   3.941   1.807
 1718SOL    HW1 6053   1.444   3.900   1.806
 1718SOL    HW2 6054   1.359   4.037   1.779
 1719SOL     OW 6055   1.492   5.002   3.386
 1719SOL    HW1 6056   1.522   4.952   3.305
 1719SOL    HW2 6057   1.571   5.017   3.447
 1720SOL     OW 6058   1.344   2.715   5.653
 1720SOL    HW1 6059   1.439   2.689   5.672
 1720SOL    HW2 6060   1.319   2.685   5.561
 1721SOL     OW 6061   2.068   2.340   7.007
 1721SOL    HW1 6062   2.057   2.256   0.040
 1721SOL    HW2 6063   1.978   2.373   6.978
 1722SOL     OW 6064   3.748   2.093   3.036
 1722SOL    HW1 6065   3.717   2.102   2.942
 1722SOL    HW2 6066   3.668   2.093   3.097
 1723SOL     OW 6067   6.598   5.500   1.255
 1723SOL    HW1 6068   6.522   5.555   1.219
 1723SOL    HW2 6069   6.566   5.444   1.331
 1724SOL     OW 6070   6.219   3.971   1.244
 1724SOL    HW1 6071   6.287   4.044   1.249
 1724SOL    HW2 6072   6.218   3.921   1.330
 1725SOL     OW 6073   1.819   6.681   4.324
 1725SOL    HW1 6074   1.851   6.677   4.229
 1725SOL    HW2 6075   1.848   6.767   4.365
 1726SOL     OW 6076   5.371   5.258   3.310
 1726SOL    HW1 6077   5.386   5.180   3.249
 1726SOL    HW2 6078   5.453   5.315   3.313
 1727SOL     OW 6079   2.948   3.501   3.879
 1727SOL    HW1 6080   2.942   3.476   3.783
 1727SOL    HW2 6081   2.985   3.424   3.931
 1728SOL     OW 6082   5.419   1.962   4.496
 1728SOL    HW1 6083   5.503   1.909   4.504
 1728SOL    HW2 6084   5.437   2.058   4.517
 1729SOL     OW 6085   1.568   3.388   2.689
 1729SOL    HW1 6086   1.560   3.417   2.785
 1729SOL    HW2 6087   1.514   3.304   2.675
 1730SOL     OW 6088   2.722   0.439   4.433
 1730SOL    HW1 6089   2.724   0.533   4.467
 1730SOL    HW2 6090   2.665   0.383   4.493
 1731SOL     OW 6091   6.380   4.983   2.920
 1731SOL    HW1 6092   6.287   4.950   2.907
 1731SOL    HW2 6093   6.378   5.077   2.955
 1732SOL     OW 6094   3.994   3.080   4.666
 1732SOL    HW1 6095   4.057   3.158   4.672
 1732SOL    HW2 6096   4.031   3.012   4.603
 1733SOL     OW 6097   1.100   1.975   6.937
 1733SOL    HW1 6098   1.029   2.013   6.877
 1733SOL    HW2 6099   1.162   2.049   6.966
 1734SOL     OW 6100   0.811   4.637   2.371
 1734SOL    HW1 6101   0.893   4.619   2.425
 1734SOL    HW2 6102   0.736   4.662   2.432
 1735SOL     OW 6103   3.510   5.633   5.800
 1735SOL    HW1 6104   3.581   5.565   5.816
 1735SOL    HW2 6105   3.494   5.641   5.702
 1736SOL     OW 6106   4.387   1.878   5.060
 1736SOL    HW1 6107   4.454   1.845   5.126
 1736SOL    HW2 6108   4.387   1.818   4.980
 1737SOL     OW 6109   2.068   0.323   0.274
 1737SOL    HW1 6110   1.975   0.355   0.288
 1737SOL    HW2 6111   2.118   0.328   0.361
 1738SOL     OW 6112   1.317   3.854   2.068
 1738SOL    HW1 6113   1.332   3.916   1.991
 1738SOL    HW2 6114   1.354   3.896   2.152
 1739SOL     OW 6115   4.315   6.099   3.030
 1739SOL    HW1 6116   4.348   6.180   2.981
 1739SOL    HW2 6117   4.216   6.095   3.024
 1740SOL     OW 6118   6.972   2.339   4.797
 1740SOL    HW1 6119   6.933   2.259   4.752
 1740SOL    HW2 6120   6.911   2.369   4.871
 1741SOL     OW 6121   1.467   2.529   4.521
 1741SOL    HW1 6122   1.438   2.453   4.462
 1741SOL    HW2 6123   1.536   2.497   4.586
 1742SOL     OW 6124   5.905   0.312   6.279
 1742SOL    HW1 6125   5.899   0.221   6.238
 1742SOL    HW2 6126   5.981   0.315   6.343
 1743SOL     OW 6127   0.832   1.668   2.277
 1743SOL    HW1 6128   0.799   1.689   2.185
 1743SOL    HW2 6129   0.795   1.736   2.342
 1744SOL     OW 6130   2.798   1.979   5.299
 1744SOL    HW1 6131   2.873   2.008   5.240
 1744SOL    HW2 6132   2.806   2.024   5.388
 1745SOL     OW 6133   5.813   0.220   1.150
 1745SOL    HW1 6134   5.879   0.155   1.188
 1745SOL    HW2 6135   5.755   0.255   1.224
 1746SOL     OW 6136   2.686   5.396   2.301
 1746SOL    HW1 6137   2.696   5.324   2.232
 1746SOL    HW2 6138   2.760   5.463   2.290
 1747SOL     OW 6139   2.909   6.755   1.912
 1747SOL    HW1 6140   2.956   6.816   1.976
 1747SOL    HW2 6141   2.920   6.790   1.819
 1748SOL     OW 6142   6.874   1.413   3.748
 1748SOL    HW1 6143   6.939   1.439   3.676
 1748SOL    HW2 6144   6.898   1.322   3.783
 1749SOL     OW 6145   6.267   5.636   2.293
 1749SOL    HW1 6146   6.231   5.556   2.340
 1749SOL    HW2 6147   6.283   5.614   2.197
 1750SOL     OW 6148   2.661   2.240   0.734
 1750SOL    HW1 6149   2.582   2.178   0.728
 1750SOL    HW2 6150   2.684   2.275   0.644
 1751SOL     OW 6151   6.643   4.341   4.351
 1751SOL    HW1 6152   6.633   4.246   4.380
 1751SOL    HW2 6153   6.577   4.361   4.278
 1752SOL     OW 6154   5.697   0.347   3.226
 1752SOL    HW1 6155   5.602   0.375   3.210
 1752SOL    HW2 6156   5.725   0.376   3.317
 1753SOL     OW 6157   0.016   1.532   0.968
 1753SOL    HW1 6158   0.072   1.579   1.036
 1753SOL    HW2 6159   6.946   1.513   1.006
 1754SOL     OW 6160   1.702   4.531   3.928
 1754SOL    HW1 6161   1.783   4.588   3.940
 1754SOL    HW2 6162   1.622   4.579   3.965
 1755SOL     OW 6163   5.311   6.998   5.304
 1755SOL    HW1 6164   5.239   7.003   5.235
 1755SOL    HW2 6165   5.274   6.962   5.389
 1756SOL     OW 6166   4.418   5.242   1.259
 1756SOL    HW1 6167   4.493   5.205   1.314
 1756SOL    HW2 6168   4.438   5.229   1.162
 1757SOL     OW 6169   3.183   4.997   5.293
 1757SOL    HW1 6170   3.155   5.010   5.388
 1757SOL    HW2 6171   3.130   4.924   5.252
 1758SOL     OW 6172   0.191   6.472   4.055
 1758SOL    HW1 6173   0.197   6.377   4.085
 1758SOL    HW2 6174   0.228   6.481   3.963
 1759SOL     OW 6175   1.627   5.526   6.030
 1759SOL    HW1 6176   1.632   5.569   6.120
 1759SOL    HW2 6177   1.706   5.465   6.018
 1760SOL     OW 6178   5.861   1.489   4.375
 1760SOL    HW1 6179   5.787   1.432   4.340
 1760SOL    HW2 6180   5.872   1.474   4.473
 1761SOL     OW 6181   4.707   2.538   3.991
 1761SOL    HW1 6182   4.675   2.565   4.082
 1761SOL    HW2 6183   4.766   2.457   3.999
 1762SOL     OW 6184   1.080   1.465   5.247
 1762SOL    HW1 6185   0.993   1.487   5.203
 1762SOL    HW2 6186   1.145   1.433   5.177
 1763SOL     OW 6187   1.304   5.178   4.395
 1763SOL    HW1 6188   1.320   5.149   4.301
 1763SOL    HW2 6189   1.371   5.248   4.420
 1764SOL     OW 6190   0.422   5.114   3.194
 1764SOL    HW1 6191   0.477   5.098   3.276
 1764SOL    HW2 6192   0.388   5.026   3.160
 1765SOL     OW 6193   5.487   4.233   2.495
 1765SOL    HW1 6194   5.499   4.217   2.397
 1765SOL    HW2 6195   5.389   4.239   2.516
 1766SOL     OW 6196   3.996   4.933   3.473
 1766SOL    HW1 6197   3.936   4.904   3.548
 1766SOL    HW2 6198   3.969   4.886   3.389
 1767SOL     OW 6199   2.290   4.600   1.725
 1767SOL    HW1 6200   2.374   4.558   1.761
 1767SOL    HW2 6201   2.306   4.632   1.632
 1768SOL     OW 6202   3.613   5.190   2.530
 1768SOL    HW1 6203   3.632   5.214   2.435
 1768SOL    HW2 6204   3.564   5.103   2.533
 1769SOL     OW 6205   5.189   0.299   0.311
 1769SOL    HW1 6206   5.111   0.301   0.248
 1769SOL    HW2 6207   5.171   0.360   0.388
 1770SOL     OW 6208   2.056   3.562   0.456
 1770SOL    HW1 6209   1.993   3.485   0.444
 1770SOL    HW2 6210   2.083   3.596   0.366
 1771SOL     OW 6211   1.756   2.920   6.320
 1771SOL    HW1 6212   1.814   2.841   6.301
 1771SOL    HW2 6213   1.702   2.902   6.403
 1772SOL     OW 6214   2.306   5.280   1.759
 1772SOL    HW1 6215   2.361   5.212   1.710
 1772SOL    HW2 6216   2.258   5.338   1.694
 1773SOL     OW 6217   2.139   6.042   4.928
 1773SOL    HW1 6218   2.073   6.058   5.000
 1773SOL    HW2 6219   2.192   5.959   4.948
 1774SOL     OW 6220   5.658   4.807   1.528
 1774SOL    HW1 6221   5.690   4.776   1.618
 1774SOL    HW2 6222   5.575   4.757   1.503
 1775SOL     OW 6223   1.724   6.624   1.113
 1775SOL    HW1 6224   1.755   6.718   1.101
 1775SOL    HW2 6225   1.773   6.565   1.049
 1776SOL     OW 6226   4.563   3.166   5.735
 1776SOL    HW1 6227   4.542   3.094   5.801
 1776SOL    HW2 6228   4.494   3.238   5.742
 1777SOL     OW 6229   4.899   4.673   6.155
 1777SOL    HW1 6230   4.944   4.598   6.204
 1777SOL    HW2 6231   4.800   4.659   6.156
 1778SOL     OW 6232   6.992   0.585   3.013
 1778SOL    HW1 6233   0.062   0.561   3.047
 1778SOL    HW2 6234   7.001   0.641   2.931
 1779SOL     OW 6235   0.025   6.585   4.992
 1779SOL    HW1 6236   0.064   6.550   4.907
 1779SOL    HW2 6237   0.004   6.509   5.053
 1780SOL     OW 6238   2.636   6.722   5.080
 1780SOL    HW1 6239   2.574   6.786   5.035
 1780SOL    HW2 6240   2.662   6.650   5.016
 1781SOL     OW 6241   3.897   1.215   5.519
 1781SOL    HW1 6242   3.858   1.277   5.451
 1781SOL    HW2 6243   3.870   1.246   5.611
 1782SOL     OW 6244   5.745   0.248   2.435
 1782SOL    HW1 6245   5.655   0.287   2.455
 1782SOL    HW2 6246   5.793   0.307   2.369
 1783SOL     OW 6247   1.146   3.264   6.565
 1783SOL    HW1 6248   1.137   3.344   6.624
 1783SOL    HW2 6249   1.243   3.240   6.557
 1784SOL     OW 6250   1.892   5.938   1.612
 1784SOL    HW1 6251   1.906   5.910   1.707
 1784SOL    HW2 6252   1.855   6.031   1.609
 1785SOL     OW 6253   2.284   4.933   5.591
 1785SOL    HW1 6254   2.303   5.030   5.608
 1785SOL    HW2 6255   2.190   4.912   5.616
 1786SOL     OW 6256   0.618   5.580   2.449
 1786SOL    HW1 6257   0.712   5.582   2.483
 1786SOL    HW2 6258   0.554   5.586   2.526
 1787SOL     OW 6259   2.672   1.640   6.361
 1787SOL    HW1 6260   2.581   1.649   6.401
 1787SOL    HW2 6261   2.667   1.581   6.280
 1788SOL     OW 6262   3.734   4.050   0.454
 1788SOL    HW1 6263   3.761   4.144   0.434
 1788SOL    HW2 6264   3.774   4.021   0.541
 1789SOL     OW 6265   6.204   3.249   3.474
 1789SOL    HW1 6266   6.108   3.227   3.492
 1789SOL    HW2 6267   6.214   3.275   3.378
 1790SOL     OW 6268   2.498   2.556   4.529
 1790SOL    HW1 6269   2.411   2.512   4.509
 1790SOL    HW2 6270   2.549   2.569   4.443
 1791SOL     OW 6271   6.213   0.532   3.284
 1791SOL    HW1 6272   6.246   0.444   3.317
 1791SOL    HW2 6273   6.260   0.606   3.332
 1792SOL     OW 6274   0.008   3.688   5.832
 1792SOL    HW1 6275   0.093   3.699   5.781
 1792SOL    HW2 6276   0.026   3.646   5.921
 1793SOL     OW 6277   0.518   2.034   4.967
 1793SOL    HW1 6278   0.426   2.069   4.952
 1793SOL    HW2 6279   0.545   1.977   4.890
 1794SOL     OW 6280   6.747   2.227   6.283
 1794SOL    HW1 6281   6.720   2.136   6.317
 1794SOL    HW2 6282   6.839   2.248   6.314
 1795SOL     OW 6283   5.898   3.645   0.813
 1795SOL    HW1 6284   5.851   3.675   0.730
 1795SOL    HW2 6285   5.984   3.694   0.823
 1796SOL     OW 6286   6.491   6.866   6.383
 1796SOL    HW1 6287   6.588   6.883   6.401
 1796SOL    HW2 6288   6.440   6.865   6.469
 1797SOL     OW 6289   2.864   6.236   5.645
 1797SOL    HW1 6290   2.779   6.262   5.598
 1797SOL    HW2 6291   2.897   6.149   5.607
 1798SOL     OW 6292   2.610   4.531   0.092
 1798SOL    HW1 6293   2.511   4.541   0.098
 1798SOL    HW2 6294   2.649   4.612   0.049
 1799SOL     OW 6295   3.925   1.709   1.713
 1799SOL    HW1 6296   4.011   1.719   1.663
 1799SOL    HW2 6297   3.867   1.788   1.695
 1800SOL     OW 6298   5.617   2.482   5.790
 1800SOL    HW1 6299   5.595   2.387   5.771
 1800SOL    HW2 6300   5.533   2.537   5.788
 1801SOL     OW 6301   0.781   1.855   2.468
 1801SOL    HW1 6302   0.850   1.840   2.539
 1801SOL    HW2 6303   0.785   1.951   2.438
 1802SOL     OW 6304   6.026   4.545   5.003
 1802SOL    HW1 6305   5.979   4.621   4.958
 1802SOL    HW2 6306   5.980   4.459   4.979
 1803SOL     OW 6307   6.133   6.478   3.678
 1803SOL    HW1 6308   6.164   6.460   3.584
 1803SOL    HW2 6309   6.079   6.400   3.711
 1804SOL     OW 6310   1.379   3.073   6.502
 1804SOL    HW1 6311   1.440   3.027   6.566
 1804SOL    HW2 6312   1.312   3.009   6.467
 1805SOL     OW 6313   6.583   4.962   5.813
 1805SOL    HW1 6314   6.665   4.965   5.757
 1805SOL    HW2 6315   6.568   4.868   5.845
 1806SOL     OW 6316   0.122   1.170   1.985
 1806SOL    HW1 6317   0.072   1.254   1.966
 1806SOL    HW2 6318   0.163   1.176   2.075
 1807SOL     OW 6319   6.564   2.994   2.313
 1807SOL    HW1 6320   6.580   2.958   2.221
 1807SOL    HW2 6321   6.551   2.917   2.377
 1808SOL     OW 6322   6.279   1.098   0.077
 1808SOL    HW1 6323   6.324   1.023   0.029
 1808SOL    HW2 6324   6.294   1.184   0.028
 1809SOL     OW 6325   4.313   0.444   5.023
 1809SOL    HW1 6326   4.261   0.530   5.029
 1809SOL    HW2 6327   4.372   0.447   4.943
 1810SOL     OW 6328   1.336   1.151   4.160
 1810SOL    HW1 6329   1.317   1.054   4.177
 1810SOL    HW2 6330   1.393   1.160   4.079
 1811SOL     OW 6331   3.272   5.405   1.615
 1811SOL    HW1 6332   3.283   5.306   1.621
 1811SOL    HW2 6333   3.226   5.439   1.697
 1812SOL     OW 6334   3.748   0.752   6.443
 1812SOL    HW1 6335   3.846   0.736   6.453
 1812SOL    HW2 6336   3.731   0.800   6.356
 1813SOL     OW 6337   5.492   3.806   1.470
 1813SOL    HW1 6338   5.591   3.793   1.471
 1813SOL    HW2 6339   5.452   3.762   1.550
 1814SOL     OW 6340   6.526   5.823   1.540
 1814SOL    HW1 6341   6.612   5.772   1.547
 1814SOL    HW2 6342   6.498   5.827   1.444
 1815SOL     OW 6343   6.424   5.790   1.274
 1815SOL    HW1 6344   6.352   5.853   1.302
 1815SOL    HW2 6345   6.383   5.714   1.223
 1816SOL     OW 6346   3.885   4.890   4.751
 1816SOL    HW1 6347   3.866   4.793   4.766
 1816SOL    HW2 6348   3.834   4.922   4.671
 1817SOL     OW 6349   6.201   3.009   4.384
 1817SOL    HW1 6350   6.218   2.976   4.477
 1817SOL    HW2 6351   6.285   3.002   4.330
 1818SOL     OW 6352   2.262   2.520   0.465
 1818SOL    HW1 6353   2.232   2.507   0.371
 1818SOL    HW2 6354   2.222   2.448   0.523
 1819SOL     OW 6355   0.854   3.364   0.604
 1819SOL    HW1 6356   0.777   3.427   0.593
 1819SOL    HW2 6357   0.846   3.316   0.691
 1820SOL     OW 6358   3.850   6.448   4.831
 1820SOL    HW1 6359   3.855   6.514   4.756
 1820SOL    HW2 6360   3.909   6.370   4.811
 1821SOL     OW 6361   4.368   0.940   2.577
 1821SOL    HW1 6362   4.336   0.995   2.500
 1821SOL    HW2 6363   4.366   0.843   2.553
 1822SOL     OW 6364   2.561   4.471   5.132
 1822SOL    HW1 6365   2.644   4.506   5.089
 1822SOL    HW2 6366   2.581   4.443   5.226
 1823SOL     OW 6367   4.646   0.084   4.391
 1823SOL    HW1 6368   4.581   0.010   4.374
 1823SOL    HW2 6369   4.739   0.051   4.375
 1824SOL     OW 6370   4.478   2.836   1.762
 1824SOL    HW1 6371   4.529   2.905   1.813
 1824SOL    HW2 6372   4.382   2.865   1.755
 1825SOL     OW 6373   1.290   3.664   0.402
 1825SOL    HW1 6374   1.385   3.636   0.388
 1825SOL    HW2 6375   1.240   3.655   0.315
 1826SOL     OW 6376   4.014   3.052   6.845
 1826SOL    HW1 6377   3.946   2.979   6.840
 1826SOL    HW2 6378   4.004   3.102   6.931
 1827SOL     OW 6379   5.027   4.522   0.774
 1827SOL    HW1 6380   5.083   4.591   0.820
 1827SOL    HW2 6381   4.993   4.457   0.842
 1828SOL     OW 6382   2.882   5.745   5.355
 1828SOL    HW1 6383   2.837   5.675   5.410
 1828SOL    HW2 6384   2.841   5.834   5.373
 1829SOL     OW 6385   2.181   6.559   2.648
 1829SOL    HW1 6386   2.083   6.543   2.636
 1829SOL    HW2 6387   2.204   6.551   2.745
 1830SOL     OW 6388   4.576   1.454   0.033
 1830SOL    HW1 6389   4.672   1.472   0.054
 1830SOL    HW2 6390   4.571   1.391   6.976
 1831SOL     OW 6391   3.461   4.184   6.254
 1831SOL    HW1 6392   3.387   4.117   6.244
 1831SOL    HW2 6393   3.533   4.163   6.188
 1832SOL     OW 6394   2.150   2.148   5.666
 1832SOL    HW1 6395   2.120   2.096   5.746
 1832SOL    HW2 6396   2.148   2.245   5.687
 1833SOL     OW 6397   5.675   1.517   0.197
 1833SOL    HW1 6398   5.767   1.486   0.174
 1833SOL    HW2 6399   5.609   1.449   0.166
 1834SOL     OW 6400   1.737   3.566   6.584
 1834SOL    HW1 6401   1.737   3.593   6.488
 1834SOL    HW2 6402   1.694   3.476   6.594
 1835SOL     OW 6403   6.095   0.280   6.479
 1835SOL    HW1 6404   6.176   0.331   6.450
 1835SOL    HW2 6405   6.087   0.284   6.578
 1836SOL     OW 6406   5.764   1.119   4.421
 1836SOL    HW1 6407   5.844   1.157   4.373
 1836SOL    HW2 6408   5.693   1.189   4.428
 1837SOL     OW 6409   1.519   1.819   1.203
 1837SOL    HW1 6410   1.499   1.730   1.161
 1837SOL    HW2 6411   1.518   1.810   1.302
 1838SOL     OW 6412   4.800   0.326   0.345
 1838SOL    HW1 6413   4.841   0.260   0.408
 1838SOL    HW2 6414   4.868   0.351   0.276
 1839SOL     OW 6415   0.132   2.286   6.827
 1839SOL    HW1 6416   0.111   2.311   6.732
 1839SOL    HW2 6417   0.214   2.334   6.857
 1840SOL     OW 6418   1.851   6.760   5.395
 1840SOL    HW1 6419   1.929   6.698   5.408
 1840SOL    HW2 6420   1.825   6.761   5.299
 1841SOL     OW 6421   2.282   0.027   1.706
 1841SOL    HW1 6422   2.240   6.990   1.776
 1841SOL    HW2 6423   2.295   6.995   1.622
 1842SOL     OW 6424   0.323   4.717   1.563
 1842SOL    HW1 6425   0.344   4.779   1.638
 1842SOL    HW2 6426   0.230   4.734   1.531
 1843SOL     OW 6427   3.764   0.937   6.646
 1843SOL    HW1 6428   3.752   0.857   6.587
 1843SOL    HW2 6429   3.860   0.963   6.648
 1844SOL     OW 6430   5.331   3.218   1.489
 1844SOL    HW1 6431   5.232   3.215   1.505
 1844SOL    HW2 6432   5.357   3.142   1.429
 1845SOL     OW 6433   0.297   2.733   4.612
 1845SOL    HW1 6434   0.252   2.649   4.641
 1845SOL    HW2 6435   0.317   2.729   4.514
 1846SOL     OW 6436   3.807   1.223   2.269
 1846SOL    HW1 6437   3.838   1.199   2.362
 1846SOL    HW2 6438   3.885   1.217   2.206
 1847SOL     OW 6439   2.737   5.547   6.848
 1847SOL    HW1 6440   2.778   5.638   6.838
 1847SOL    HW2 6441   2.800   5.487   6.898
 1848SOL     OW 6442   3.060   5.856   4.646
 1848SOL    HW1 6443   3.104   5.774   4.683
 1848SOL    HW2 6444   3.082   5.865   4.549
 1849SOL     OW 6445   4.998   2.680   2.187
 1849SOL    HW1 6446   5.029   2.760   2.238
 1849SOL    HW2 6447   4.933   2.708   2.116
 1850SOL     OW 6448   4.749   0.938   0.524
 1850SOL    HW1 6449   4.758   0.879   0.605
 1850SOL    HW2 6450   4.766   1.033   0.550
 1851SOL     OW 6451   1.752   4.721   3.684
 1851SOL    HW1 6452   1.841   4.676   3.676
 1851SOL    HW2 6453   1.693   4.690   3.609
 1852SOL     OW 6454   0.072   0.499   4.762
 1852SOL    HW1 6455   0.150   0.447   4.796
 1852SOL    HW2 6456   0.093   0.596   4.762
 1853SOL     OW 6457   1.044   2.037   5.155
 1853SOL    HW1 6458   1.083   1.957   5.201
 1853SOL    HW2 6459   0.973   2.007   5.091
 1854SOL     OW 6460   1.120   6.942   3.762
 1854SOL    HW1 6461   1.218   6.953   3.743
 1854SOL    HW2 6462   1.093   7.004   3.834
 1855SOL     OW 6463   6.550   1.436   5.153
 1855SOL    HW1 6464   6.554   1.394   5.062
 1855SOL    HW2 6465   6.511   1.528   5.145
 1856SOL     OW 6466   4.329   3.915   6.903
 1856SOL    HW1 6467   4.299   3.999   6.858
 1856SOL    HW2 6468   4.252   3.851   6.908
 1857SOL     OW 6469   4.756   0.947   0.017
 1857SOL    HW1 6470   4.848   0.979   7.017
 1857SOL    HW2 6471   4.690   1.020   7.019
 1858SOL     OW 6472   4.380   2.449   4.607
 1858SOL    HW1 6473   4.336   2.422   4.692
 1858SOL    HW2 6474   4.332   2.408   4.529
 1859SOL     OW 6475   6.319   5.992   3.260
 1859SOL    HW1 6476   6.256   5.983   3.183
 1859SOL    HW2 6477   6.413   5.993   3.227
 1860SOL     OW 6478   1.915   6.974   0.545
 1860SOL    HW1 6479   1.991   6.910   0.549
 1860SOL    HW2 6480   1.864   6.971   0.631
 1861SOL     OW 6481   6.416   0.031   5.068
 1861SOL    HW1 6482   6.514   0.033   5.087
 1861SOL    HW2 6483   6.396   6.979   5.002
 1862SOL     OW 6484   4.246   4.782   4.836
 1862SOL    HW1 6485   4.270   4.698   4.885
 1862SOL    HW2 6486   4.163   4.822   4.877
 1863SOL     OW 6487   0.019   0.888   0.950
 1863SOL    HW1 6488   6.943   0.870   0.929
 1863SOL    HW2 6489   0.025   0.954   1.024
 1864SOL     OW 6490   2.952   5.601   2.664
 1864SOL    HW1 6491   2.898   5.666   2.718
 1864SOL    HW2 6492   2.912   5.510   2.673
 1865SOL     OW 6493   6.096   2.627   6.097
 1865SOL    HW1 6494   6.144   2.540   6.093
 1865SOL    HW2 6495   5.999   2.613   6.078
 1866SOL     OW 6496   6.994   4.303   4.897
 1866SOL    HW1 6497   6.954   4.293   4.987
 1866SOL    HW2 6498   6.933   4.264   4.828
 1867SOL     OW 6499   1.535   0.269   0.528
 1867SOL    HW1 6500   1.547   0.356   0.574
 1867SOL    HW2 6501   1.483   0.282   0.444
 1868SOL     OW 6502   5.885   3.614   5.971
 1868SOL    HW1 6503   5.896   3.547   6.044
 1868SOL    HW2 6504   5.962   3.606   5.907
 1869SOL     OW 6505   4.813   1.023   5.023
 1869SOL    HW1 6506   4.887   1.073   4.978
 1869SOL    HW2 6507   4.843   0.993   5.114
 1870SOL     OW 6508   5.997   1.293   6.024
 1870SOL    HW1 6509   5.959   1.344   6.102
 1870SOL    HW2 6510   5.939   1.214   6.004
 1871SOL     OW 6511   2.804   4.378   6.936
 1871SOL    HW1 6512   2.818   4.438   6.858
 1871SOL    HW2 6513   2.724   4.409   6.988
 1872SOL     OW 6514   2.138   3.773   6.600
 1872SOL    HW1 6515   2.230   3.813   6.599
 1872SOL    HW2 6516   2.070   3.845   6.584
 1873SOL     OW 6517   5.692   0.806   2.095
 1873SOL    HW1 6518   5.621   0.859   2.050
 1873SOL    HW2 6519   5.661   0.780   2.187
 1874SOL     OW 6520   2.207   5.316   6.632
 1874SOL    HW1 6521   2.151   5.308   6.550
 1874SOL    HW2 6522   2.282   5.250   6.628
 1875SOL     OW 6523   1.175   6.329   2.037
 1875SOL    HW1 6524   1.225   6.354   2.120
 1875SOL    HW2 6525   1.163   6.230   2.035
 1876SOL     OW 6526   1.226   4.913   5.524
 1876SOL    HW1 6527   1.208   5.003   5.565
 1876SOL    HW2 6528   1.325   4.898   5.521
 1877SOL     OW 6529   0.502   1.241   3.653
 1877SOL    HW1 6530   0.515   1.305   3.577
 1877SOL    HW2 6531   0.406   1.213   3.656
 1878SOL     OW 6532   5.919   3.768   3.806
 1878SOL    HW1 6533   5.941   3.671   3.820
 1878SOL    HW2 6534   5.824   3.776   3.776
 1879SOL     OW 6535   3.923   6.347   5.099
 1879SOL    HW1 6536   3.890   6.368   5.006
 1879SOL    HW2 6537   3.899   6.253   5.122
 1880SOL     OW 6538   2.001   3.988   4.251
 1880SOL    HW1 6539   2.010   3.913   4.317
 1880SOL    HW2 6540   2.057   3.969   4.171
 1881SOL     OW 6541   3.272   2.034   2.973
 1881SOL    HW1 6542   3.189   2.058   3.023
 1881SOL    HW2 6543   3.249   1.976   2.896
 1882SOL     OW 6544   4.428   0.398   6.728
 1882SOL    HW1 6545   4.335   0.423   6.701
 1882SOL    HW2 6546   4.424   0.340   6.809
 1883SOL     OW 6547   1.913   3.743   2.839
 1883SOL    HW1 6548   1.859   3.813   2.885
 1883SOL    HW2 6549   1.934   3.772   2.746
 1884SOL     OW 6550   5.013   0.878   0.422
 1884SOL    HW1 6551   5.088   0.940   0.444
 1884SOL    HW2 6552   4.928   0.916   0.457
 1885SOL     OW 6553   0.196   1.967   1.448
 1885SOL    HW1 6554   0.189   1.992   1.545
 1885SOL    HW2 6555   0.259   1.890   1.438
 1886SOL     OW 6556   3.599   2.841   4.838
 1886SOL    HW1 6557   3.594   2.748   4.873
 1886SOL    HW2 6558   3.661   2.895   4.896
 1887SOL     OW 6559   0.601   6.116   5.636
 1887SOL    HW1 6560   0.533   6.105   5.709
 1887SOL    HW2 6561   0.626   6.212   5.629
 1888SOL     OW 6562   2.358   1.398   5.564
 1888SOL    HW1 6563   2.354   1.304   5.531
 1888SOL    HW2 6564   2.266   1.430   5.588
 1889SOL     OW 6565   3.527   3.758   6.811
 1889SOL    HW1 6566   3.582   3.786   6.732
 1889SOL    HW2 6567   3.552   3.664   6.837
 1890SOL     OW 6568   5.758   6.740   6.183
 1890SOL    HW1 6569   5.765   6.835   6.212
 1890SOL    HW2 6570   5.722   6.685   6.258
 1891SOL     OW 6571   4.987   3.163   0.064
 1891SOL    HW1 6572   4.972   3.134   0.158
 1891SOL    HW2 6573   5.068   3.118   0.027
 1892SOL     OW 6574   3.429   0.701   3.298
 1892SOL    HW1 6575   3.439   0.796   3.326
 1892SOL    HW2 6576   3.345   0.691   3.245
 1893SOL     OW 6577   2.925   2.457   6.891
 1893SOL    HW1 6578   2.933   2.408   6.978
 1893SOL    HW2 6579   2.834   2.497   6.883
 1894SOL     OW 6580   5.478   3.030   1.066
 1894SOL    HW1 6581   5.449   3.105   1.007
 1894SOL    HW2 6582   5.576   3.014   1.055
 1895SOL     OW 6583   4.069   6.196   2.928
 1895SOL    HW1 6584   4.097   6.289   2.952
 1895SOL    HW2 6585   3.984   6.173   2.975
 1896SOL     OW 6586   0.256   1.917   4.140
 1896SOL    HW1 6587   0.205   1.857   4.079
 1896SOL    HW2 6588   0.340   1.871   4.170
 1897SOL     OW 6589   5.254   5.675   3.570
 1897SOL    HW1 6590   5.237   5.730   3.488
 1897SOL    HW2 6591   5.294   5.587   3.543
 1898SOL     OW 6592   5.288   5.966   0.479
 1898SOL    HW1 6593   5.338   5.881   0.468
 1898SOL    HW2 6594   5.345   6.043   0.449
 1899SOL     OW 6595   1.983   3.298   4.043
 1899SOL    HW1 6596   2.057   3.238   4.012
 1899SOL    HW2 6597   1.908   3.295   3.977
 1900SOL     OW 6598   2.582   5.668   1.474
 1900SOL    HW1 6599   2.586   5.577   1.433
 1900SOL    HW2 6600   2.487   5.692   1.491
 1901SOL     OW 6601   0.259   1.796   6.756
 1901SOL    HW1 6602   0.184   1.861   6.760
 1901SOL    HW2 6603   0.230   1.714   6.707
 1902SOL     OW 6604   1.613   2.901   4.967
 1902SOL    HW1 6605   1.693   2.883   4.909
 1902SOL    HW2 6606   1.565   2.816   4.984
 1903SOL     OW 6607   6.847   6.221   4.210
 1903SOL    HW1 6608   6.800   6.307   4.229
 1903SOL    HW2 6609   6.891   6.226   4.120
 1904SOL     OW 6610   0.840   1.257   3.968
 1904SOL    HW1 6611   0.937   1.255   3.992
 1904SOL    HW2 6612   0.785   1.244   4.051
 1905SOL     OW 6613   5.743   2.832   6.323
 1905SOL    HW1 6614   5.807   2.807   6.251
 1905SOL    HW2 6615   5.709   2.750   6.368
 1906SOL     OW 6616   2.402   5.416   5.743
 1906SOL    HW1 6617   2.468   5.487   5.768
 1906SOL    HW2 6618   2.318   5.426   5.797
 1907SOL     OW 6619   4.524   0.541   2.921
 1907SOL    HW1 6620   4.608   0.581   2.958
 1907SOL    HW2 6621   4.546   0.489   2.838
 1908SOL     OW 6622   5.470   4.143   0.716
 1908SOL    HW1 6623   5.400   4.214   0.709
 1908SOL    HW2 6624   5.484   4.119   0.812
 1909SOL     OW 6625   4.776   5.193   4.155
 1909SOL    HW1 6626   4.679   5.183   4.177
 1909SOL    HW2 6627   4.830   5.196   4.239
 1910SOL     OW 6628   5.380   3.784   4.294
 1910SOL    HW1 6629   5.441   3.772   4.215
 1910SOL    HW2 6630   5.368   3.696   4.340
 1911SOL     OW 6631   0.683   2.457   5.917
 1911SOL    HW1 6632   0.677   2.360   5.893
 1911SOL    HW2 6633   0.605   2.482   5.973
 1912SOL     OW 6634   3.663   0.560   2.323
 1912SOL    HW1 6635   3.705   0.507   2.250
 1912SOL    HW2 6636   3.656   0.656   2.296
 1913SOL     OW 6637   3.044   3.871   6.994
 1913SOL    HW1 6638   2.985   3.909   6.923
 1913SOL    HW2 6639   2.998   3.877   0.062
 1914SOL     OW 6640   4.733   1.398   5.203
 1914SOL    HW1 6641   4.786   1.462   5.259
 1914SOL    HW2 6642   4.714   1.438   5.114
 1915SOL     OW 6643   2.749   6.506   5.215
 1915SOL    HW1 6644   2.726   6.577   5.148
 1915SOL    HW2 6645   2.688   6.513   5.293
 1916SOL     OW 6646   3.923   6.584   2.900
 1916SOL    HW1 6647   3.848   6.566   2.836
 1916SOL    HW2 6648   3.919   6.678   2.932
 1917SOL     OW 6649   3.657   4.050   3.400
 1917SOL    HW1 6650   3.599   4.104   3.461
 1917SOL    HW2 6651   3.750   4.048   3.435
 1918SOL     OW 6652   0.738   6.524   6.199
 1918SOL    HW1 6653   0.729   6.612   6.245
 1918SOL    HW2 6654   0.834   6.497   6.199
 1919SOL     OW 6655   5.289   0.869   1.890
 1919SOL    HW1 6656   5.287   0.880   1.989
 1919SOL    HW2 6657   5.272   0.773   1.867
 1920SOL     OW 6658   5.948   6.537   4.652
 1920SOL    HW1 6659   5.950   6.443   4.618
 1920SOL    HW2 6660   5.879   6.589   4.602
 1921SOL     OW 6661   2.341   6.748   0.053
 1921SOL    HW1 6662   2.328   6.658   0.012
 1921SOL    HW2 6663   2.420   6.793   0.011
 1922SOL     OW 6664   3.482   4.958   6.655
 1922SOL    HW1 6665   3.522   4.919   6.572
 1922SOL    HW2 6666   3.486   5.058   6.649
 1923SOL     OW 6667   1.468   2.880   1.533
 1923SOL    HW1 6668   1.548   2.839   1.490
 1923SOL    HW2 6669   1.417   2.934   1.465
 1924SOL     OW 6670   0.923   3.970   1.659
 1924SOL    HW1 6671   0.883   3.924   1.580
 1924SOL    HW2 6672   0.994   3.913   1.699
 1925SOL     OW 6673   3.052   4.808   0.218
 1925SOL    HW1 6674   3.126   4.742   0.209
 1925SOL    HW2 6675   3.060   4.856   0.305
 1926SOL     OW 6676   0.342   0.233   3.017
 1926SOL    HW1 6677   0.314   0.263   2.926
 1926SOL    HW2 6678   0.314   0.138   3.031
 1927SOL     OW 6679   5.398   3.488   1.404
 1927SOL    HW1 6680   5.387   3.391   1.426
 1927SOL    HW2 6681   5.427   3.537   1.486
 1928SOL     OW 6682   0.269   5.000   5.068
 1928SOL    HW1 6683   0.327   5.061   5.122
 1928SOL    HW2 6684   0.190   4.973   5.122
 1929SOL     OW 6685   1.659   4.629   3.031
 1929SOL    HW1 6686   1.737   4.666   2.979
 1929SOL    HW2 6687   1.692   4.558   3.094
 1930SOL     OW 6688   6.586   5.965   6.235
 1930SOL    HW1 6689   6.634   5.881   6.207
 1930SOL    HW2 6690   6.517   5.987   6.167
 1931SOL     OW 6691   2.435   2.625   3.282
 1931SOL    HW1 6692   2.391   2.703   3.326
 1931SOL    HW2 6693   2.409   2.622   3.186
 1932SOL     OW 6694   5.975   3.259   2.546
 1932SOL    HW1 6695   5.958   3.294   2.454
 1932SOL    HW2 6696   6.020   3.169   2.541
 1933SOL     OW 6697   2.194   5.133   0.488
 1933SOL    HW1 6698   2.151   5.202   0.430
 1933SOL    HW2 6699   2.272   5.173   0.535
 1934SOL     OW 6700   0.267   6.537   2.682
 1934SOL    HW1 6701   0.277   6.445   2.720
 1934SOL    HW2 6702   0.207   6.534   2.603
 1935SOL     OW 6703   1.080   1.591   2.181
 1935SOL    HW1 6704   1.097   1.507   2.232
 1935SOL    HW2 6705   0.994   1.632   2.211
 1936SOL     OW 6706   0.351   5.856   4.939
 1936SOL    HW1 6707   0.303   5.914   5.005
 1936SOL    HW2 6708   0.296   5.846   4.856
 1937SOL     OW 6709   5.006   2.146   3.356
 1937SOL    HW1 6710   4.949   2.128   3.275
 1937SOL    HW2 6711   5.079   2.079   3.360
 1938SOL     OW 6712   4.426   0.182   3.671
 1938SOL    HW1 6713   4.437   0.276   3.705
 1938SOL    HW2 6714   4.475   0.173   3.584
 1939SOL     OW 6715   2.516   1.104   4.192
 1939SOL    HW1 6716   2.601   1.136   4.149
 1939SOL    HW2 6717   2.515   1.132   4.288
 1940SOL     OW 6718   6.715   0.365   6.739
 1940SOL    HW1 6719   6.655   0.333   6.812
 1940SOL    HW2 6720   6.810   0.358   6.769
 1941SOL     OW 6721   4.736   4.943   2.506
 1941SOL    HW1 6722   4.811   4.961   2.442
 1941SOL    HW2 6723   4.730   4.845   2.524
 1942SOL     OW 6724   0.252   3.613   2.633
 1942SOL    HW1 6725   0.226   3.708   2.619
 1942SOL    HW2 6726   0.184   3.568   2.692
 1943SOL     OW 6727   3.496   5.368   3.574
 1943SOL    HW1 6728   3.538   5.456   3.555
 1943SOL    HW2 6729   3.398   5.372   3.552
 1944SOL     OW 6730   6.522   6.518   1.694
 1944SOL    HW1 6731   6.621   6.508   1.685
 1944SOL    HW2 6732   6.495   6.608   1.662
 1945SOL     OW 6733   3.192   5.284   2.360
 1945SOL    HW1 6734   3.288   5.290   2.333
 1945SOL    HW2 6735   3.135   5.273   2.279
 1946SOL     OW 6736   1.256   6.261   6.611
 1946SOL    HW1 6737   1.344   6.305   6.597
 1946SOL    HW2 6738   1.255   6.172   6.566
 1947SOL     OW 6739   4.491   1.342   3.921
 1947SOL    HW1 6740   4.416   1.284   3.950
 1947SOL    HW2 6741   4.463   1.395   3.840
 1948SOL     OW 6742   6.179   2.904   5.115
 1948SOL    HW1 6743   6.134   2.945   5.194
 1948SOL    HW2 6744   6.265   2.861   5.143
 1949SOL     OW 6745   4.574   3.681   0.091
 1949SOL    HW1 6746   4.640   3.611   0.118
 1949SOL    HW2 6747   4.567   3.750   0.162
 1950SOL     OW 6748   2.449   4.765   0.844
 1950SOL    HW1 6749   2.482   4.858   0.861
 1950SOL    HW2 6750   2.419   4.725   0.930
 1951SOL     OW 6751   5.504   2.985   6.461
 1951SOL    HW1 6752   5.506   3.081   6.434
 1951SOL    HW2 6753   5.587   2.939   6.430
 1952SOL     OW 6754   2.859   3.350   3.372
 1952SOL    HW1 6755   2.928   3.277   3.379
 1952SOL    HW2 6756   2.768   3.310   3.381
 1953SOL     OW 6757   0.632   1.799   4.792
 1953SOL    HW1 6758   0.533   1.789   4.778
 1953SOL    HW2 6759   0.678   1.793   4.703
 1954SOL     OW 6760   2.064   2.070   4.031
 1954SOL    HW1 6761   2.144   2.122   4.057
 1954SOL    HW2 6762   2.084   1.972   4.038
 1955SOL     OW 6763   6.162   5.667   2.993
 1955SOL    HW1 6764   6.177   5.650   2.895
 1955SOL    HW2 6765   6.192   5.588   3.045
 1956SOL     OW 6766   4.105   6.317   3.238
 1956SOL    HW1 6767   4.049   6.235   3.232
 1956SOL    HW2 6768   4.198   6.292   3.264
 1957SOL     OW 6769   2.162   5.927   5.655
 1957SOL    HW1 6770   2.252   5.883   5.654
 1957SOL    HW2 6771   2.159   5.996   5.727
 1958SOL     OW 6772   3.946   3.456   5.805
 1958SOL    HW1 6773   3.965   3.378   5.865
 1958SOL    HW2 6774   4.004   3.533   5.832
 1959SOL     OW 6775   3.314   0.335   0.904
 1959SOL    HW1 6776   3.222   0.298   0.895
 1959SOL    HW2 6777   3.377   0.283   0.846
 1960SOL     OW 6778   4.394   5.662   3.062
 1960SOL    HW1 6779   4.341   5.736   3.021
 1960SOL    HW2 6780   4.436   5.607   2.990
 1961SOL     OW 6781   5.791   4.938   5.363
 1961SOL    HW1 6782   5.832   4.863   5.312
 1961SOL    HW2 6783   5.727   4.988   5.304
 1962SOL     OW 6784   0.766   6.515   4.119
 1962SOL    HW1 6785   0.788   6.609   4.092
 1962SOL    HW2 6786   0.786   6.503   4.216
 1963SOL     OW 6787   2.445   1.439   3.815
 1963SOL    HW1 6788   2.396   1.450   3.901
 1963SOL    HW2 6789   2.468   1.529   3.777
 1964SOL     OW 6790   6.457   2.357   2.134
 1964SOL    HW1 6791   6.487   2.274   2.181
 1964SOL    HW2 6792   6.525   2.429   2.148
 1965SOL     OW 6793   1.648   6.740   3.442
 1965SOL    HW1 6794   1.643   6.651   3.397
 1965SOL    HW2 6795   1.732   6.787   3.412
 1966SOL     OW 6796   6.522   6.282   0.209
 1966SOL    HW1 6797   6.582   6.236   0.275
 1966SOL    HW2 6798   6.520   6.229   0.124
 1967SOL     OW 6799   6.615   2.786   4.699
 1967SOL    HW1 6800   6.561   2.790   4.614
 1967SOL    HW2 6801   6.561   2.823   4.774
 1968SOL     OW 6802   4.535   5.769   4.486
 1968SOL    HW1 6803   4.583   5.709   4.422
 1968SOL    HW2 6804   4.602   5.816   4.543
 1969SOL     OW 6805   5.957   0.689   1.167
 1969SOL    HW1 6806   5.918   0.606   1.208
 1969SOL    HW2 6807   5.970   0.674   1.069
 1970SOL     OW 6808   2.442   1.616   4.915
 1970SOL    HW1 6809   2.384   1.537   4.934
 1970SOL    HW2 6810   2.433   1.683   4.989
 1971SOL     OW 6811   0.248   1.508   5.782
 1971SOL    HW1 6812   0.176   1.575   5.768
 1971SOL    HW2 6813   0.222   1.422   5.738
 1972SOL     OW 6814   1.291   6.663   3.808
 1972SOL    HW1 6815   1.351   6.706   3.742
 1972SOL    HW2 6816   1.304   6.705   3.898
 1973SOL     OW 6817   3.933   2.760   0.291
 1973SOL    HW1 6818   4.026   2.730   0.312
 1973SOL    HW2 6819   3.868   2.697   0.334
 1974SOL     OW 6820   6.029   6.063   4.370
 1974SOL    HW1 6821   6.102   6.021   4.317
 1974SOL    HW2 6822   6.054   6.157   4.394
 1975SOL     OW 6823   2.566   7.010   4.006
 1975SOL    HW1 6824   2.528   0.078   4.033
 1975SOL    HW2 6825   2.664   7.010   4.022
 1976SOL     OW 6826   6.492   4.234   6.427
 1976SOL    HW1 6827   6.405   4.196   6.456
 1976SOL    HW2 6828   6.557   4.230   6.503
 1977SOL     OW 6829   3.000   2.130   5.152
 1977SOL    HW1 6830   3.073   2.193   5.125
 1977SOL    HW2 6831   3.035   2.036   5.148
 1978SOL     OW 6832   0.170   2.510   4.992
 1978SOL    HW1 6833   0.211   2.602   4.998
 1978SOL    HW2 6834   0.179   2.477   4.898
 1979SOL     OW 6835   6.616   4.262   2.458
 1979SOL    HW1 6836   6.625   4.166   2.485
 1979SOL    HW2 6837   6.703   4.295   2.422
 1980SOL     OW 6838   2.700   0.654   3.079
 1980SOL    HW1 6839   2.779   0.627   3.134
 1980SOL    HW2 6840   2.693   0.754   3.077
 1981SOL     OW 6841   5.426   3.184   2.610
 1981SOL    HW1 6842   5.482   3.261   2.639
 1981SOL    HW2 6843   5.370   3.210   2.532
 1982SOL     OW 6844   0.133   6.946   5.234
 1982SOL    HW1 6845   0.210   6.897   5.274
 1982SOL    HW2 6846   0.057   6.882   5.219
 1983SOL     OW 6847   0.954   4.946   1.393
 1983SOL    HW1 6848   0.994   5.021   1.340
 1983SOL    HW2 6849   0.981   4.859   1.351
 1984SOL     OW 6850   3.718   0.237   5.818
 1984SOL    HW1 6851   3.794   0.285   5.862
 1984SOL    HW2 6852   3.741   0.218   5.723
 1985SOL     OW 6853   1.064   5.454   2.154
 1985SOL    HW1 6854   0.973   5.489   2.179
 1985SOL    HW2 6855   1.063   5.426   2.058
 1986SOL     OW 6856   6.009   2.091   1.165
 1986SOL    HW1 6857   5.956   2.158   1.114
 1986SOL    HW2 6858   6.106   2.103   1.145
 1987SOL     OW 6859   1.968   3.388   0.862
 1987SOL    HW1 6860   1.948   3.367   0.767
 1987SOL    HW2 6861   2.007   3.480   0.868
 1988SOL     OW 6862   5.042   2.700   1.526
 1988SOL    HW1 6863   5.039   2.618   1.470
 1988SOL    HW2 6864   4.950   2.724   1.556
 1989SOL     OW 6865   2.638   2.387   3.175
 1989SOL    HW1 6866   2.685   2.301   3.155
 1989SOL    HW2 6867   2.692   2.438   3.243
 1990SOL     OW 6868   1.380   6.935   2.905
 1990SOL    HW1 6869   1.419   7.002   2.842
 1990SOL    HW2 6870   1.430   6.849   2.897
 1991SOL     OW 6871   5.195   5.796   2.584
 1991SOL    HW1 6872   5.243   5.881   2.564
 1991SOL    HW2 6873   5.191   5.740   2.502
 1992SOL     OW 6874   2.111   5.696   5.357
 1992SOL    HW1 6875   2.067   5.692   5.446
 1992SOL    HW2 6876   2.146   5.605   5.332
 1993SOL     OW 6877   3.326   3.260   4.215
 1993SOL    HW1 6878   3.264   3.307   4.279
 1993SOL    HW2 6879   3.304   3.163   4.213
 1994SOL     OW 6880   6.484   1.867   1.341
 1994SOL    HW1 6881   6.434   1.864   1.428
 1994SOL    HW2 6882   6.421   1.847   1.266
 1995SOL     OW 6883   4.196   2.617   1.633
 1995SOL    HW1 6884   4.145   2.699   1.659
 1995SOL    HW2 6885   4.138   2.559   1.576
 1996SOL     OW 6886   1.952   5.119   5.956
 1996SOL    HW1 6887   2.002   5.033   5.943
 1996SOL    HW2 6888   1.978   5.160   6.043
 1997SOL     OW 6889   5.414   6.268   4.843
 1997SOL    HW1 6890   5.401   6.359   4.880
 1997SOL    HW2 6891   5.418   6.201   4.917
 1998SOL     OW 6892   3.218   5.249   4.957
 1998SOL    HW1 6893   3.175   5.163   4.986
 1998SOL    HW2 6894   3.159   5.296   4.892
 1999SOL     OW 6895   3.608   1.323   2.019
 1999SOL    HW1 6896   3.659   1.340   1.935
 1999SOL    HW2 6897   3.633   1.391   2.088
 2000SOL     OW 6898   2.956   0.841   5.899
 2000SOL    HW1 6899   3.003   0.924   5.867
 2000SOL    HW2 6900   3.000   0.760   5.860
 2001SOL     OW 6901   1.963   3.245   0.112
 2001SOL    HW1 6902   1.987   3.302   0.034
 2001SOL    HW2 6903   2.008   3.156   0.103
 2002SOL     OW 6904   2.059   4.832   5.104
 2002SOL    HW1 6905   2.029   4.925   5.084
 2002SOL    HW2 6906   2.030   4.771   5.030
 2003SOL     OW 6907   6.672   3.916   3.346
 2003SOL    HW1 6908   6.655   3.986   3.416
 2003SOL    HW2 6909   6.604   3.925   3.273
 2004SOL     OW 6910   3.264   0.261   6.392
 2004SOL    HW1 6911   3.236   0.206   6.471
 2004SOL    HW2 6912   3.282   0.202   6.315
 2005SOL     OW 6913   2.453   6.904   5.490
 2005SOL    HW1 6914   2.401   6.819   5.483
 2005SOL    HW2 6915   2.404   6.969   5.549
 2006SOL     OW 6916   5.082   0.599   2.608
 2006SOL    HW1 6917   5.096   0.544   2.526
 2006SOL    HW2 6918   5.148   0.673   2.610
 2007SOL     OW 6919   6.739   5.283   0.155
 2007SOL    HW1 6920   6.806   5.291   0.228
 2007SOL    HW2 6921   6.786   5.274   0.067
 2008SOL     OW 6922   0.190   5.767   5.724
 2008SOL    HW1 6923   0.246   5.702   5.776
 2008SOL    HW2 6924   0.109   5.792   5.778
 2009SOL     OW 6925   1.203   0.312   0.170
 2009SOL    HW1 6926   1.235   0.386   0.111
 2009SOL    HW2 6927   1.105   0.324   0.187
 2010SOL     OW 6928   2.701   0.895   0.996
 2010SOL    HW1 6929   2.743   0.937   0.916
 2010SOL    HW2 6930   2.661   0.807   0.971
 2011SOL     OW 6931   0.088   1.569   4.766
 2011SOL    HW1 6932   0.178   1.548   4.730
 2011SOL    HW2 6933   0.078   1.529   4.857
 2012SOL     OW 6934   0.090   3.504   2.250
 2012SOL    HW1 6935   0.071   3.466   2.159
 2012SOL    HW2 6936   0.034   3.457   2.318
 2013SOL     OW 6937   3.554   2.312   1.623
 2013SOL    HW1 6938   3.609   2.325   1.706
 2013SOL    HW2 6939   3.594   2.238   1.569
 2014SOL     OW 6940   3.544   4.953   3.512
 2014SOL    HW1 6941   3.448   4.980   3.509
 2014SOL    HW2 6942   3.577   4.936   3.419
 2015SOL     OW 6943   2.823   5.362   0.068
 2015SOL    HW1 6944   2.834   5.447   0.119
 2015SOL    HW2 6945   2.726   5.344   0.053
 2016SOL     OW 6946   6.821   5.125   5.092
 2016SOL    HW1 6947   6.762   5.186   5.146
 2016SOL    HW2 6948   6.860   5.176   5.016
 2017SOL     OW 6949   2.153   4.890   1.182
 2017SOL    HW1 6950   2.210   4.962   1.222
 2017SOL    HW2 6951   2.057   4.919   1.185
 2018SOL     OW 6952   0.550   4.814   4.770
 2018SOL    HW1 6953   0.495   4.750   4.717
 2018SOL    HW2 6954   0.504   4.834   4.856
 2019SOL     OW 6955   5.468   0.331   2.468
 2019SOL    HW1 6956   5.460   0.430   2.457
 2019SOL    HW2 6957   5.391   0.298   2.524
 2020SOL     OW 6958   2.249   5.016   3.631
 2020SOL    HW1 6959   2.301   5.048   3.552
 2020SOL    HW2 6960   2.303   4.948   3.681
 2021SOL     OW 6961   1.595   6.198   1.800
 2021SOL    HW1 6962   1.628   6.117   1.849
 2021SOL    HW2 6963   1.585   6.274   1.863
 2022SOL     OW 6964   4.117   5.340   1.586
 2022SOL    HW1 6965   4.023   5.372   1.580
 2022SOL    HW2 6966   4.140   5.322   1.682
 2023SOL     OW 6967   0.113   2.776   6.048
 2023SOL    HW1 6968   0.118   2.827   5.961
 2023SOL    HW2 6969   0.096   2.680   6.029
 2024SOL     OW 6970   5.825   6.888   3.453
 2024SOL    HW1 6971   5.761   6.840   3.394
 2024SOL    HW2 6972   5.915   6.892   3.409
 2025SOL     OW 6973   6.336   1.144   1.362
 2025SOL    HW1 6974   6.358   1.219   1.425
 2025SOL    HW2 6975   6.328   1.180   1.269
 2026SOL     OW 6976   2.389   2.084   4.861
 2026SOL    HW1 6977   2.406   1.986   4.875
 2026SOL    HW2 6978   2.324   2.096   4.786
 2027SOL     OW 6979   6.190   6.903   2.177
 2027SOL    HW1 6980   6.228   6.812   2.191
 2027SOL    HW2 6981   6.124   6.900   2.101
 2028SOL     OW 6982   3.681   4.180   5.753
 2028SOL    HW1 6983   3.766   4.140   5.720
 2028SOL    HW2 6984   3.666   4.269   5.709
 2029SOL     OW 6985   2.091   0.377   0.017
 2029SOL    HW1 6986   1.996   0.367   7.010
 2029SOL    HW2 6987   2.100   0.355   0.114
 2030SOL     OW 6988   2.154   3.081   2.489
 2030SOL    HW1 6989   2.232   3.071   2.428
 2030SOL    HW2 6990   2.162   3.018   2.565
 2031SOL     OW 6991   6.179   7.014   2.437
 2031SOL    HW1 6992   6.167   6.982   2.343
 2031SOL    HW2 6993   6.262   0.050   2.442
 2032SOL     OW 6994   4.065   6.152   2.659
 2032SOL    HW1 6995   3.994   6.223   2.657
 2032SOL    HW2 6996   4.118   6.159   2.743
 2033SOL     OW 6997   0.143   4.852   6.793
 2033SOL    HW1 6998   0.111   4.841   6.699
 2033SOL    HW2 6999   0.097   4.930   6.835
 2034SOL     OW 7000   2.028   5.682   3.995
 2034SOL    HW1 7001   2.031   5.585   4.016
 2034SOL    HW2 7002   2.093   5.703   3.922
 2035SOL     OW 7003   0.813   1.098   2.895
 2035SOL    HW1 7004   0.752   1.164   2.852
 2035SOL    HW2 7005   0.779   1.078   2.988
 2036SOL     OW 7006   1.167   4.428   1.370
 2036SOL    HW1 7007   1.102   4.422   1.294
 2036SOL    HW2 7008   1.133   4.375   1.447
 2037SOL     OW 7009   0.885   3.038   6.061
 2037SOL    HW1 7010   0.918   3.030   5.966
 2037SOL    HW2 7011   0.796   3.084   6.061
 2038SOL     OW 7012   1.732   7.000   5.050
 2038SOL    HW1 7013   1.686   0.023   5.128
 2038SOL    HW2 7014   1.731   6.901   5.062
 2039SOL     OW 7015   1.052   5.218   1.960
 2039SOL    HW1 7016   1.072   5.124   1.987
 2039SOL    HW2 7017   1.128   5.253   1.904
 2040SOL     OW 7018   3.729   2.937   4.541
 2040SOL    HW1 7019   3.737   2.867   4.612
 2040SOL    HW2 7020   3.775   3.020   4.572
 2041SOL     OW 7021   4.887   3.141   0.559
 2041SOL    HW1 7022   4.841   3.062   0.518
 2041SOL    HW2 7023   4.975   3.113   0.597
 2042SOL     OW 7024   3.162   6.502   0.341
 2042SOL    HW1 7025   3.190   6.590   0.379
 2042SOL    HW2 7026   3.200   6.428   0.396
 2043SOL     OW 7027   4.904   5.269   2.535
 2043SOL    HW1 7028   4.975   5.330   2.571
 2043SOL    HW2 7029   4.947   5.196   2.482
 2044SOL     OW 7030   6.551   0.848   1.859
 2044SOL    HW1 7031   6.502   0.926   1.897
 2044SOL    HW2 7032   6.524   0.765   1.908
 2045SOL     OW 7033   3.444   6.677   5.441
 2045SOL    HW1 7034   3.371   6.702   5.377
 2045SOL    HW2 7035   3.490   6.760   5.473
 2046SOL     OW 7036   6.208   0.577   5.753
 2046SOL    HW1 7037   6.196   0.507   5.682
 2046SOL    HW2 7038   6.300   0.570   5.791
 2047SOL     OW 7039   4.875   3.343   0.353
 2047SOL    HW1 7040   4.930   3.425   0.372
 2047SOL    HW2 7041   4.889   3.276   0.426
 2048SOL     OW 7042   4.473   6.498   5.183
 2048SOL    HW1 7043   4.506   6.559   5.255
 2048SOL    HW2 7044   4.374   6.487   5.191
 2049SOL     OW 7045   5.506   5.786   6.398
 2049SOL    HW1 7046   5.545   5.711   6.344
 2049SOL    HW2 7047   5.468   5.855   6.336
 2050SOL     OW 7048   5.928   1.172   3.580
 2050SOL    HW1 7049   5.855   1.146   3.518
 2050SOL    HW2 7050   5.924   1.271   3.597
 2051SOL     OW 7051   3.241   5.795   1.221
 2051SOL    HW1 7052   3.197   5.714   1.260
 2051SOL    HW2 7053   3.182   5.834   1.151
 2052SOL     OW 7054   1.292   2.396   0.982
 2052SOL    HW1 7055   1.289   2.302   1.015
 2052SOL    HW2 7056   1.383   2.417   0.948
 2053SOL     OW 7057   4.851   0.688   0.239
 2053SOL    HW1 7058   4.926   0.749   0.265
 2053SOL    HW2 7059   4.854   0.672   0.140
 2054SOL     OW 7060   0.816   2.758   0.629
 2054SOL    HW1 7061   0.900   2.779   0.579
 2054SOL    HW2 7062   0.821   2.798   0.721
 2055SOL     OW 7063   6.358   0.869   3.920
 2055SOL    HW1 7064   6.408   0.853   3.836
 2055SOL    HW2 7065   6.261   0.848   3.906
 2056SOL     OW 7066   6.951   6.664   2.184
 2056SOL    HW1 7067   0.023   6.701   2.195
 2056SOL    HW2 7068   6.946   6.613   2.098
 2057SOL     OW 7069   5.017   3.127   4.115
 2057SOL    HW1 7070   5.079   3.066   4.164
 2057SOL    HW2 7071   4.941   3.074   4.077
 2058SOL     OW 7072   1.183   1.686   1.067
 2058SOL    HW1 7073   1.196   1.751   1.143
 2058SOL    HW2 7074   1.086   1.660   1.063
 2059SOL     OW 7075   1.682   0.392   0.159
 2059SOL    HW1 7076   1.726   0.374   0.247
 2059SOL    HW2 7077   1.748   0.378   0.085
 2060SOL     OW 7078   0.563   4.978   3.527
 2060SOL    HW1 7079   0.484   5.039   3.517
 2060SOL    HW2 7080   0.635   5.005   3.463
 2061SOL     OW 7081   1.619   0.609   0.316
 2061SOL    HW1 7082   1.541   0.671   0.309
 2061SOL    HW2 7083   1.612   0.539   0.245
 2062SOL     OW 7084   3.859   0.026   4.117
 2062SOL    HW1 7085   3.931   7.004   4.171
 2062SOL    HW2 7086   3.900   0.074   4.039
 2063SOL     OW 7087   2.475   3.039   1.176
 2063SOL    HW1 7088   2.435   3.104   1.240
 2063SOL    HW2 7089   2.571   3.024   1.198
 2064SOL     OW 7090   0.978   1.930   0.885
 2064SOL    HW1 7091   0.933   1.892   0.804
 2064SOL    HW2 7092   0.973   1.865   0.960
 2065SOL     OW 7093   0.421   2.997   3.072
 2065SOL    HW1 7094   0.357   2.923   3.089
 2065SOL    HW2 7095   0.410   3.068   3.141
 2066SOL     OW 7096   0.893   6.445   3.139
 2066SOL    HW1 7097   0.954   6.524   3.147
 2066SOL    HW2 7098   0.799   6.477   3.131
 2067SOL     OW 7099   6.908   0.379   0.906
 2067SOL    HW1 7100   6.925   0.474   0.931
 2067SOL    HW2 7101   6.916   0.321   0.987
 2068SOL     OW 7102   2.444   2.464   5.246
 2068SOL    HW1 7103   2.406   2.552   5.220
 2068SOL    HW2 7104   2.505   2.431   5.173
 2069SOL     OW 7105   1.907   2.138   2.005
 2069SOL    HW1 7106   1.942   2.127   1.911
 2069SOL    HW2 7107   1.932   2.229   2.039
 2070SOL     OW 7108   0.526   1.844   2.405
 2070SOL    HW1 7109   0.484   1.757   2.377
 2070SOL    HW2 7110   0.622   1.828   2.429
 2071SOL     OW 7111   2.869   5.898   5.856
 2071SOL    HW1 7112   2.922   5.971   5.900
 2071SOL    HW2 7113   2.810   5.854   5.924
 2072SOL     OW 7114   5.236   4.491   2.705
 2072SOL    HW1 7115   5.164   4.427   2.732
 2072SOL    HW2 7116   5.293   4.513   2.784
 2073SOL     OW 7117   3.365   6.507   4.999
 2073SOL    HW1 7118   3.455   6.463   4.993
 2073SOL    HW2 7119   3.306   6.455   5.060
 2074SOL     OW 7120   4.879   1.772   3.027
 2074SOL    HW1 7121   4.944   1.846   3.040
 2074SOL    HW2 7122   4.794   1.808   2.987
 2075SOL     OW 7123   3.484   2.750   6.255
 2075SOL    HW1 7124   3.520   2.818   6.319
 2075SOL    HW2 7125   3.384   2.759   6.250
 2076SOL     OW 7126   4.958   6.772   0.819
 2076SOL    HW1 7127   4.989   6.800   0.728
 2076SOL    HW2 7128   5.012   6.693   0.850
 2077SOL     OW 7129   3.840   1.012   5.088
 2077SOL    HW1 7130   3.867   0.956   5.009
 2077SOL    HW2 7131   3.858   1.108   5.068
 2078SOL     OW 7132   4.069   6.225   4.062
 2078SOL    HW1 7133   4.111   6.284   4.131
 2078SOL    HW2 7134   3.976   6.201   4.089
 2079SOL     OW 7135   5.352   0.008   4.033
 2079SOL    HW1 7136   5.440   6.991   4.003
 2079SOL    HW2 7137   5.285   6.954   4.043
 2080SOL     OW 7138   3.164   1.724   2.924
 2080SOL    HW1 7139   3.089   1.671   2.883
 2080SOL    HW2 7140   3.159   1.718   3.023
 2081SOL     OW 7141   1.137   5.818   3.345
 2081SOL    HW1 7142   1.213   5.795   3.405
 2081SOL    HW2 7143   1.170   5.870   3.266
 2082SOL     OW 7144   4.691   0.813   3.071
 2082SOL    HW1 7145   4.597   0.848   3.072
 2082SOL    HW2 7146   4.740   0.850   2.992
 2083SOL     OW 7147   3.918   4.682   6.115
 2083SOL    HW1 7148   3.872   4.769   6.128
 2083SOL    HW2 7149   3.860   4.622   6.059
 2084SOL     OW 7150   0.335   2.206   2.835
 2084SOL    HW1 7151   0.333   2.238   2.740
 2084SOL    HW2 7152   0.384   2.119   2.840
 2085SOL     OW 7153   6.020   6.903   0.550
 2085SOL    HW1 7154   6.085   6.837   0.588
 2085SOL    HW2 7155   5.967   6.944   0.625
 2086SOL     OW 7156   3.677   5.495   6.669
 2086SOL    HW1 7157   3.697   5.590   6.695
 2086SOL    HW2 7158   3.626   5.451   6.743
 2087SOL     OW 7159   6.007   5.813   2.793
 2087SOL    HW1 7160   6.044   5.766   2.873
 2087SOL    HW2 7161   5.911   5.788   2.781
 2088SOL     OW 7162   2.410   6.362   1.145
 2088SOL    HW1 7163   2.372   6.425   1.077
 2088SOL    HW2 7164   2.339   6.297   1.173
 2089SOL     OW 7165   2.203   0.810   6.712
 2089SOL    HW1 7166   2.302   0.805   6.725
 2089SOL    HW2 7167   2.158   0.827   6.800
 2090SOL     OW 7168   3.057   3.744   3.607
 2090SOL    HW1 7169   3.027   3.758   3.701
 2090SOL    HW2 7170   3.121   3.816   3.581
 2091SOL     OW 7171   2.371   4.244   1.521
 2091SOL    HW1 7172   2.409   4.196   1.600
 2091SOL    HW2 7173   2.295   4.301   1.550
 2092SOL     OW 7174   5.877   0.237   0.607
 2092SOL    HW1 7175   5.909   0.167   0.671
 2092SOL    HW2 7176   5.810   0.197   0.544
 2093SOL     OW 7177   1.966   1.252   1.446
 2093SOL    HW1 7178   1.917   1.328   1.401
 2093SOL    HW2 7179   2.055   1.239   1.400
 2094SOL     OW 7180   0.050   0.930   2.599
 2094SOL    HW1 7181   0.148   0.942   2.581
 2094SOL    HW2 7182   7.019   0.962   2.519
 2095SOL     OW 7183   6.307   4.373   5.291
 2095SOL    HW1 7184   6.221   4.383   5.340
 2095SOL    HW2 7185   6.309   4.436   5.214
 2096SOL     OW 7186   4.877   4.407   3.690
 2096SOL    HW1 7187   4.870   4.446   3.782
 2096SOL    HW2 7188   4.786   4.390   3.653
 2097SOL     OW 7189   6.491   3.400   5.440
 2097SOL    HW1 7190   6.422   3.335   5.472
 2097SOL    HW2 7191   6.573   3.390   5.495
 2098SOL     OW 7192   4.305   0.337   4.443
 2098SOL    HW1 7193   4.326   0.394   4.523
 2098SOL    HW2 7194   4.325   0.241   4.464
 2099SOL     OW 7195   2.770   1.666   4.105
 2099SOL    HW1 7196   2.840   1.672   4.034
 2099SOL    HW2 7197   2.703   1.739   4.092
 2100SOL     OW 7198   4.517   4.645   5.885
 2100SOL    HW1 7199   4.443   4.584   5.912
 2100SOL    HW2 7200   4.511   4.663   5.786
 2101SOL     OW 7201   5.503   0.098   1.975
 2101SOL    HW1 7202   5.549   0.151   1.904
 2101SOL    HW2 7203   5.485   0.157   2.054
 2102SOL     OW 7204   6.888   5.158   1.207
 2102SOL    HW1 7205   6.839   5.233   1.162
 2102SOL    HW2 7206   6.869   5.161   1.305
 2103SOL     OW 7207   3.426   3.731   6.507
 2103SOL    HW1 7208   3.432   3.826   6.538
 2103SOL    HW2 7209   3.331   3.710   6.484
 2104SOL     OW 7210   0.689   4.963   6.442
 2104SOL    HW1 7211   0.688   4.978   6.541
 2104SOL    HW2 7212   0.710   4.867   6.424
 2105SOL     OW 7213   5.332   6.269   2.294
 2105SOL    HW1 7214   5.387   6.344   2.259
 2105SOL    HW2 7215   5.293   6.217   2.218
 2106SOL     OW 7216   6.294   6.241   6.427
 2106SOL    HW1 7217   6.213   6.216   6.479
 2106SOL    HW2 7218   6.359   6.165   6.430
 2107SOL     OW 7219   2.824   5.033   7.020
 2107SOL    HW1 7220   2.801   5.048   6.924
 2107SOL    HW2 7221   2.872   5.113   0.035
 2108SOL     OW 7222   5.697   4.582   6.579
 2108SOL    HW1 7223   5.599   4.581   6.598
 2108SOL    HW2 7224   5.713   4.549   6.486
 2109SOL     OW 7225   5.459   5.788   2.721
 2109SOL    HW1 7226   5.402   5.786   2.639
 2109SOL    HW2 7227   5.542   5.735   2.706
 2110SOL     OW 7228   1.233   5.194   5.637
 2110SOL    HW1 7229   1.205   5.275   5.585
 2110SOL    HW2 7230   1.219   5.211   5.734
 2111SOL     OW 7231   1.712   1.868   6.467
 2111SOL    HW1 7232   1.807   1.850   6.493
 2111SOL    HW2 7233   1.687   1.962   6.491
 2112SOL     OW 7234   5.159   3.631   0.586
 2112SOL    HW1 7235   5.126   3.622   0.491
 2112SOL    HW2 7236   5.150   3.726   0.615
 2113SOL     OW 7237   6.666   1.306   3.545
 2113SOL    HW1 7238   6.727   1.347   3.613
 2113SOL    HW2 7239   6.634   1.377   3.482
 2114SOL     OW 7240   1.219   3.633   6.275
 2114SOL    HW1 7241   1.259   3.571   6.208
 2114SOL    HW2 7242   1.280   3.641   6.354
 2115SOL     OW 7243   4.190   5.241   1.851
 2115SOL    HW1 7244   4.140   5.154   1.853
 2115SOL    HW2 7245   4.185   5.284   1.941
 2116SOL     OW 7246   0.512   3.921   4.374
 2116SOL    HW1 7247   0.453   3.931   4.454
 2116SOL    HW2 7248   0.542   4.011   4.343
 2117SOL     OW 7249   5.821   6.003   5.971
 2117SOL    HW1 7250   5.851   6.028   6.063
 2117SOL    HW2 7251   5.732   6.045   5.952
 2118SOL     OW 7252   7.007   2.957   2.487
 2118SOL    HW1 7253   0.086   2.965   2.484
 2118SOL    HW2 7254   6.977   2.888   2.422
 2119SOL     OW 7255   4.177   6.649   6.974
 2119SOL    HW1 7256   4.231   6.725   6.937
 2119SOL    HW2 7257   4.212   6.624   0.044
 2120SOL     OW 7258   6.270   4.214   2.293
 2120SOL    HW1 7259   6.319   4.290   2.335
 2120SOL    HW2 7260   6.332   4.135   2.285
 2121SOL     OW 7261   0.529   3.616   4.622
 2121SOL    HW1 7262   0.613   3.664   4.595
 2121SOL    HW2 7263   0.519   3.619   4.721
 2122SOL     OW 7264   3.852   5.162   5.010
 2122SOL    HW1 7265   3.892   5.253   5.012
 2122SOL    HW2 7266   3.914   5.100   4.960
 2123SOL     OW 7267   3.915   6.085   3.237
 2123SOL    HW1 7268   3.820   6.117   3.231
 2123SOL    HW2 7269   3.917   5.985   3.235
 2124SOL     OW 7270   2.274   2.499   1.734
 2124SOL    HW1 7271   2.344   2.487   1.663
 2124SOL    HW2 7272   2.303   2.570   1.798
 2125SOL     OW 7273   4.725   6.070   6.912
 2125SOL    HW1 7274   4.747   6.083   6.815
 2125SOL    HW2 7275   4.705   5.974   6.929
 2126SOL     OW 7276   2.966   1.819   0.954
 2126SOL    HW1 7277   2.917   1.873   1.022
 2126SOL    HW2 7278   2.904   1.797   0.878
 2127SOL     OW 7279   5.688   2.451   4.109
 2127SOL    HW1 7280   5.627   2.372   4.098
 2127SOL    HW2 7281   5.634   2.534   4.120
 2128SOL     OW 7282   0.699   3.465   4.264
 2128SOL    HW1 7283   0.681   3.562   4.280
 2128SOL    HW2 7284   0.699   3.447   4.165
 2129SOL     OW 7285   4.604   2.202   4.822
 2129SOL    HW1 7286   4.505   2.211   4.831
 2129SOL    HW2 7287   4.638   2.139   4.892
 2130SOL     OW 7288   4.901   6.621   2.846
 2130SOL    HW1 7289   4.855   6.614   2.934
 2130SOL    HW2 7290   4.878   6.542   2.790
 2131SOL     OW 7291   4.976   1.738   6.574
 2131SOL    HW1 7292   4.943   1.688   6.494
 2131SOL    HW2 7293   5.045   1.804   6.546
 2132SOL     OW 7294   1.098   3.342   1.308
 2132SOL    HW1 7295   1.133   3.423   1.357
 2132SOL    HW2 7296   1.014   3.310   1.353
 2133SOL     OW 7297   2.281   4.120   6.219
 2133SOL    HW1 7298   2.282   4.024   6.246
 2133SOL    HW2 7299   2.210   4.135   6.151
 2134SOL     OW 7300   0.150   6.580   0.404
 2134SOL    HW1 7301   0.237   6.541   0.435
 2134SOL    HW2 7302   0.147   6.578   0.304
 2135SOL     OW 7303   6.493   5.161   5.591
 2135SOL    HW1 7304   6.484   5.128   5.497
 2135SOL    HW2 7305   6.504   5.084   5.653
 2136SOL     OW 7306   1.622   5.107   6.969
 2136SOL    HW1 7307   1.648   5.196   6.931
 2136SOL    HW2 7308   1.613   5.041   6.894
 2137SOL     OW 7309   1.630   6.456   3.612
 2137SOL    HW1 7310   1.633   6.461   3.512
 2137SOL    HW2 7311   1.534   6.454   3.641
 2138SOL     OW 7312   4.679   2.226   1.670
 2138SOL    HW1 7313   4.614   2.235   1.595
 2138SOL    HW2 7314   4.669   2.135   1.711
 2139SOL     OW 7315   2.722   5.838   5.612
 2139SOL    HW1 7316   2.764   5.750   5.591
 2139SOL    HW2 7317   2.749   5.866   5.705
 2140SOL     OW 7318   2.369   2.287   3.198
 2140SOL    HW1 7319   2.441   2.355   3.191
 2140SOL    HW2 7320   2.401   2.200   3.161
 2141SOL     OW 7321   6.749   3.254   2.817
 2141SOL    HW1 7322   6.802   3.220   2.895
 2141SOL    HW2 7323   6.792   3.223   2.732
 2142SOL     OW 7324   2.012   1.511   1.676
 2142SOL    HW1 7325   2.111   1.514   1.693
 2142SOL    HW2 7326   1.995   1.471   1.586
 2143SOL     OW 7327   6.846   5.430   5.803
 2143SOL    HW1 7328   6.799   5.519   5.809
 2143SOL    HW2 7329   6.844   5.385   5.892
 2144SOL     OW 7330   5.873   4.373   2.797
 2144SOL    HW1 7331   5.818   4.397   2.877
 2144SOL    HW2 7332   5.825   4.398   2.713
 2145SOL     OW 7333   3.498   1.131   3.466
 2145SOL    HW1 7334   3.540   1.119   3.376
 2145SOL    HW2 7335   3.492   1.229   3.488
 2146SOL     OW 7336   2.003   1.414   6.714
 2146SOL    HW1 7337   2.089   1.403   6.666
 2146SOL    HW2 7338   1.928   1.383   6.656
 2147SOL     OW 7339   6.081   0.223   5.329
 2147SOL    HW1 7340   6.080   0.264   5.421
 2147SOL    HW2 7341   6.125   0.285   5.265
 2148SOL     OW 7342   1.825   2.723   5.310
 2148SOL    HW1 7343   1.893   2.651   5.296
 2148SOL    HW2 7344   1.870   2.812   5.308
 2149SOL     OW 7345   0.219   6.628   0.143
 2149SOL    HW1 7346   0.181   6.586   0.060
 2149SOL    HW2 7347   0.318   6.620   0.142
 2150SOL     OW 7348   1.621   2.722   0.352
 2150SOL    HW1 7349   1.598   2.750   0.445
 2150SOL    HW2 7350   1.654   2.801   0.301
 2151SOL     OW 7351   0.771   5.661   6.640
 2151SOL    HW1 7352   0.747   5.740   6.583
 2151SOL    HW2 7353   0.689   5.606   6.657
 2152SOL     OW 7354   5.183   6.426   3.969
 2152SOL    HW1 7355   5.192   6.327   3.981
 2152SOL    HW2 7356   5.248   6.457   3.900
 2153SOL     OW 7357   4.868   0.081   3.847
 2153SOL    HW1 7358   4.870   0.128   3.935
 2153SOL    HW2 7359   4.925   7.020   3.851
 2154SOL     OW 7360   2.478   6.519   2.039
 2154SOL    HW1 7361   2.561   6.571   2.060
 2154SOL    HW2 7362   2.418   6.518   2.119
 2155SOL     OW 7363   4.838   0.626   0.508
 2155SOL    HW1 7364   4.838   0.666   0.417
 2155SOL    HW2 7365   4.895   0.681   0.569
 2156SOL     OW 7366   6.552   1.706   4.240
 2156SOL    HW1 7367   6.542   1.771   4.164
 2156SOL    HW2 7368   6.611   1.745   4.310
 2157SOL     OW 7369   4.165   5.927   3.233
 2157SOL    HW1 7370   4.240   5.965   3.179
 2157SOL    HW2 7371   4.193   5.918   3.328
 2158SOL     OW 7372   2.914   0.145   0.155
 2158SOL    HW1 7373   2.870   0.149   0.245
 2158SOL    HW2 7374   3.001   0.195   0.158
 2159SOL     OW 7375   0.779   2.000   5.345
 2159SOL    HW1 7376   0.702   1.949   5.306
 2159SOL    HW2 7377   0.793   2.085   5.294
 2160SOL     OW 7378   5.310   6.834   6.959
 2160SOL    HW1 7379   5.239   6.785   7.009
 2160SOL    HW2 7380   5.374   6.876   0.004
 2161SOL     OW 7381   1.205   3.564   0.159
 2161SOL    HW1 7382   1.254   3.485   0.196
 2161SOL    HW2 7383   1.237   3.584   0.067
 2162SOL     OW 7384   2.083   6.699   0.483
 2162SOL    HW1 7385   2.140   6.686   0.401
 2162SOL    HW2 7386   2.142   6.715   0.562
 2163SOL     OW 7387   1.004   3.115   4.169
 2163SOL    HW1 7388   1.049   3.040   4.120
 2163SOL    HW2 7389   0.908   3.120   4.142
 2164SOL     OW 7390   2.032   4.643   1.772
 2164SOL    HW1 7391   2.018   4.742   1.773
 2164SOL    HW2 7392   2.128   4.623   1.750
 2165SOL     OW 7393   6.092   2.058   5.472
 2165SOL    HW1 7394   6.003   2.020   5.496
 2165SOL    HW2 7395   6.157   1.984   5.457
 2166SOL     OW 7396   6.581   2.188   2.313
 2166SOL    HW1 7397   6.506   2.226   2.367
 2166SOL    HW2 7398   6.657   2.166   2.374
 2167SOL     OW 7399   1.576   2.163   2.959
 2167SOL    HW1 7400   1.618   2.242   2.915
 2167SOL    HW2 7401   1.538   2.191   3.047
 2168SOL     OW 7402   1.366   2.592   3.445
 2168SOL    HW1 7403   1.340   2.507   3.399
 2168SOL    HW2 7404   1.424   2.571   3.524
 2169SOL     OW 7405   6.544   0.076   0.870
 2169SOL    HW1 7406   6.492   7.012   0.864
 2169SOL    HW2 7407   6.552   0.118   0.780
 2170SOL     OW 7408   1.931   2.691   6.258
 2170SOL    HW1 7409   1.866   2.624   6.295
 2170SOL    HW2 7410   2.017   2.685   6.308
 2171SOL     OW 7411   6.531   6.550   1.400
 2171SOL    HW1 7412   6.628   6.547   1.378
 2171SOL    HW2 7413   6.506   6.469   1.454
 2172SOL     OW 7414   2.272   2.637   4.724
 2172SOL    HW1 7415   2.331   2.632   4.644
 2172SOL    HW2 7416   2.310   2.581   4.798
 2173SOL     OW 7417   4.132   0.660   5.081
 2173SOL    HW1 7418   4.183   0.728   5.134
 2173SOL    HW2 7419   4.053   0.703   5.039
 2174SOL     OW 7420   4.877   0.184   5.539
 2174SOL    HW1 7421   4.791   0.204   5.586
 2174SOL    HW2 7422   4.952   0.185   5.604
 2175SOL     OW 7423   2.890   2.625   5.994
 2175SOL    HW1 7424   2.963   2.682   5.956
 2175SOL    HW2 7425   2.896   2.625   6.094
 2176SOL     OW 7426   6.690   1.722   2.792
 2176SOL    HW1 7427   6.746   1.685   2.717
 2176SOL    HW2 7428   6.629   1.792   2.756
 2177SOL     OW 7429   0.502   0.882   5.168
 2177SOL    HW1 7430   0.442   0.892   5.248
 2177SOL    HW2 7431   0.597   0.870   5.199
 2178SOL     OW 7432   1.823   3.287   2.421
 2178SOL    HW1 7433   1.910   3.286   2.371
 2178SOL    HW2 7434   1.841   3.278   2.519
 2179SOL     OW 7435   1.730   3.911   6.749
 2179SOL    HW1 7436   1.761   3.960   6.668
 2179SOL    HW2 7437   1.632   3.929   6.764
 2180SOL     OW 7438   0.303   5.188   2.920
 2180SOL    HW1 7439   0.229   5.181   2.988
 2180SOL    HW2 7440   0.381   5.134   2.950
 2181SOL     OW 7441   4.242   4.696   3.224
 2181SOL    HW1 7442   4.296   4.647   3.156
 2181SOL    HW2 7443   4.300   4.719   3.302
 2182SOL     OW 7444   0.173   6.987   1.038
 2182SOL    HW1 7445   0.250   0.014   1.080
 2182SOL    HW2 7446   0.124   0.030   0.978
 2183SOL     OW 7447   3.781   2.849   6.788
 2183SOL    HW1 7448   3.798   2.843   6.689
 2183SOL    HW2 7449   3.683   2.843   6.805
 2184SOL     OW 7450   6.398   2.113   6.786
 2184SOL    HW1 7451   6.466   2.068   6.843
 2184SOL    HW2 7452   6.328   2.154   6.845
 2185SOL     OW 7453   6.853   1.453   6.344
 2185SOL    HW1 7454   6.866   1.354   6.344
 2185SOL    HW2 7455   6.926   1.496   6.291
 2186SOL     OW 7456   6.626   6.146   5.743
 2186SOL    HW1 7457   6.541   6.194   5.720
 2186SOL    HW2 7458   6.657   6.093   5.664
 2187SOL     OW 7459   5.783   3.818   1.488
 2187SOL    HW1 7460   5.830   3.756   1.425
 2187SOL    HW2 7461   5.810   3.796   1.582
 2188SOL     OW 7462   3.187   2.024   1.284
 2188SOL    HW1 7463   3.254   1.994   1.352
 2188SOL    HW2 7464   3.232   2.079   1.214
 2189SOL     OW 7465   2.441   0.852   2.436
 2189SOL    HW1 7466   2.373   0.920   2.409
 2189SOL    HW2 7467   2.412   0.762   2.402
 2190SOL     OW 7468   6.912   4.569   1.442
 2190SOL    HW1 7469   6.927   4.609   1.532
 2190SOL    HW2 7470   6.995   4.578   1.387
 2191SOL     OW 7471   3.732   0.031   6.689
 2191SOL    HW1 7472   3.832   0.027   6.680
 2191SOL    HW2 7473   3.704   7.009   6.774
 2192SOL     OW 7474   5.101   2.400   1.644
 2192SOL    HW1 7475   5.173   2.469   1.643
 2192SOL    HW2 7476   5.060   2.393   1.553
 2193SOL     OW 7477   1.622   0.323   6.100
 2193SOL    HW1 7478   1.640   0.269   6.182
 2193SOL    HW2 7479   1.524   0.339   6.090
 2194SOL     OW 7480   0.913   4.341   5.629
 2194SOL    HW1 7481   0.956   4.412   5.685
 2194SOL    HW2 7482   0.829   4.376   5.588
 2195SOL     OW 7483   0.514   4.336   5.327
 2195SOL    HW1 7484   0.510   4.236   5.328
 2195SOL    HW2 7485   0.451   4.370   5.257
 2196SOL     OW 7486   3.988   1.520   6.584
 2196SOL    HW1 7487   3.991   1.445   6.519
 2196SOL    HW2 7488   3.926   1.498   6.659
 2197SOL     OW 7489   4.102   5.179   6.720
 2197SOL    HW1 7490   4.097   5.273   6.755
 2197SOL    HW2 7491   4.195   5.160   6.688
 2198SOL     OW 7492   1.347   0.786   6.165
 2198SOL    HW1 7493   1.385   0.739   6.085
 2198SOL    HW2 7494   1.421   0.834   6.213
 2199SOL     OW 7495   4.412   6.613   3.565
 2199SOL    HW1 7496   4.365   6.693   3.602
 2199SOL    HW2 7497   4.508   6.637   3.547
 2200SOL     OW 7498   2.622   2.204   4.887
 2200SOL    HW1 7499   2.634   2.277   4.820
 2200SOL    HW2 7500   2.536   2.156   4.868
 2201SOL     OW 7501   5.930   3.647   4.275
 2201SOL    HW1 7502   5.930   3.573   4.207
 2201SOL    HW2 7503   5.845   3.643   4.328
 2202SOL     OW 7504   4.556   0.254   4.678
 2202SOL    HW1 7505   4.507   0.205   4.606
 2202SOL    HW2 7506   4.566   0.194   4.758
 2203SOL     OW 7507   2.149   6.214   1.219
 2203SOL    HW1 7508   2.130   6.116   1.225
 2203SOL    HW2 7509   2.100   6.252   1.140
 2204SOL     OW 7510   4.754   3.270   0.763
 2204SOL    HW1 7511   4.794   3.244   0.674
 2204SOL    HW2 7512   4.703   3.355   0.753
 2205SOL     OW 7513   5.230   5.453   1.425
 2205SOL    HW1 7514   5.267   5.394   1.353
 2205SOL    HW2 7515   5.249   5.549   1.402
 2206SOL     OW 7516   3.321   3.089   5.638
 2206SOL    HW1 7517   3.285   3.136   5.719
 2206SOL    HW2 7518   3.408   3.046   5.661
 2207SOL     OW 7519   4.704   4.924   1.409
 2207SOL    HW1 7520   4.616   4.892   1.444
 2207SOL    HW2 7521   4.733   4.866   1.332
 2208SOL     OW 7522   6.604   6.231   2.960
 2208SOL    HW1 7523   6.571   6.305   3.019
 2208SOL    HW2 7524   6.694   6.201   2.991
 2209SOL     OW 7525   2.720   5.501   3.765
 2209SOL    HW1 7526   2.809   5.460   3.786
 2209SOL    HW2 7527   2.717   5.525   3.668
 2210SOL     OW 7528   5.537   6.529   2.356
 2210SOL    HW1 7529   5.526   6.511   2.454
 2210SOL    HW2 7530   5.449   6.522   2.311
 2211SOL     OW 7531   1.719   0.833   1.502
 2211SOL    HW1 7532   1.696   0.832   1.405
 2211SOL    HW2 7533   1.717   0.927   1.536
 2212SOL     OW 7534   2.954   6.028   6.404
 2212SOL    HW1 7535   3.041   6.023   6.354
 2212SOL    HW2 7536   2.950   6.114   6.456
 2213SOL     OW 7537   3.449   1.859   4.176
 2213SOL    HW1 7538   3.407   1.789   4.116
 2213SOL    HW2 7539   3.450   1.826   4.270
 2214SOL     OW 7540   4.059   4.710   6.947
 2214SOL    HW1 7541   4.054   4.675   6.853
 2214SOL    HW2 7542   4.031   4.638   7.011
 2215SOL     OW 7543   6.914   5.354   6.327
 2215SOL    HW1 7544   6.910   5.328   6.231
 2215SOL    HW2 7545   6.901   5.272   6.384
 2216SOL     OW 7546   0.040   6.268   0.357
 2216SOL    HW1 7547   0.069   6.211   0.434
 2216SOL    HW2 7548   0.100   6.348   0.351
 2217SOL     OW 7549   3.834   1.558   3.631
 2217SOL    HW1 7550   3.912   1.532   3.574
 2217SOL    HW2 7551   3.772   1.480   3.641
 2218SOL     OW 7552   6.104   5.170   6.083
 2218SOL    HW1 7553   6.033   5.191   6.150
 2218SOL    HW2 7554   6.063   5.163   5.992
 2219SOL     OW 7555   5.329   2.103   0.632
 2219SOL    HW1 7556   5.240   2.136   0.599
 2219SOL    HW2 7557   5.344   2.011   0.596
 2220SOL     OW 7558   6.753   6.783   4.449
 2220SOL    HW1 7559   6.708   6.851   4.390
 2220SOL    HW2 7560   6.690   6.755   4.522
 2221SOL     OW 7561   5.170   0.024   3.523
 2221SOL    HW1 7562   5.248   0.068   3.567
 2221SOL    HW2 7563   5.086   0.074   3.545
 2222SOL     OW 7564   4.031   0.773   4.223
 2222SOL    HW1 7565   3.978   0.851   4.187
 2222SOL    HW2 7566   4.096   0.742   4.154
 2223SOL     OW 7567   0.462   0.294   5.768
 2223SOL    HW1 7568   0.438   0.211   5.717
 2223SOL    HW2 7569   0.540   0.339   5.725
 2224SOL     OW 7570   5.044   4.660   6.664
 2224SOL    HW1 7571   5.021   4.604   6.743
 2224SOL    HW2 7572   5.086   4.603   6.593
 2225SOL     OW 7573   6.469   0.540   0.669
 2225SOL    HW1 7574   6.499   0.533   0.574
 2225SOL    HW2 7575   6.550   0.541   0.729
 2226SOL     OW 7576   2.851   3.456   6.885
 2226SOL    HW1 7577   2.825   3.378   6.943
 2226SOL    HW2 7578   2.870   3.423   6.793
 2227SOL     OW 7579   4.510   1.712   1.292
 2227SOL    HW1 7580   4.489   1.624   1.250
 2227SOL    HW2 7581   4.542   1.697   1.386
 2228SOL     OW 7582   5.028   6.549   6.606
 2228SOL    HW1 7583   4.982   6.464   6.579
 2228SOL    HW2 7584   5.122   6.547   6.570
 2229SOL     OW 7585   3.277   2.993   4.280
 2229SOL    HW1 7586   3.362   2.959   4.319
 2229SOL    HW2 7587   3.277   2.978   4.181
 2230SOL     OW 7588   6.605   1.745   6.176
 2230SOL    HW1 7589   6.665   1.823   6.196
 2230SOL    HW2 7590   6.612   1.677   6.249
 2231SOL     OW 7591   0.837   0.103   6.093
 2231SOL    HW1 7592   0.749   0.126   6.052
 2231SOL    HW2 7593   0.858   0.006   6.075
 2232SOL     OW 7594   1.471   0.865   6.908
 2232SOL    HW1 7595   1.374   0.876   6.932
 2232SOL    HW2 7596   1.480   0.792   6.840
 2233SOL     OW 7597   3.135   5.585   0.981
 2233SOL    HW1 7598   3.065   5.517   0.958
 2233SOL    HW2 7599   3.175   5.563   1.070
 2234SOL     OW 7600   5.292   1.909   1.945
 2234SOL    HW1 7601   5.328   1.918   1.852
 2234SOL    HW2 7602   5.214   1.970   1.956
 2235SOL     OW 7603   1.513   2.191   3.484
 2235SOL    HW1 7604   1.414   2.196   3.493
 2235SOL    HW2 7605   1.546   2.107   3.528
 2236SOL     OW 7606   2.627   4.968   5.136
 2236SOL    HW1 7607   2.688   5.007   5.066
 2236SOL    HW2 7608   2.656   4.874   5.156
 2237SOL     OW 7609   6.110   6.782   6.172
 2237SOL    HW1 7610   6.150   6.820   6.088
 2237SOL    HW2 7611   6.183   6.749   6.232
 2238SOL     OW 7612   5.356   4.233   1.622
 2238SOL    HW1 7613   5.402   4.219   1.709
 2238SOL    HW2 7614   5.324   4.145   1.586
 2239SOL     OW 7615   3.578   0.278   3.059
 2239SOL    HW1 7616   3.493   0.267   3.109
 2239SOL    HW2 7617   3.596   0.376   3.045
 2240SOL     OW 7618   5.152   5.388   2.652
 2240SOL    HW1 7619   5.192   5.400   2.743
 2240SOL    HW2 7620   5.223   5.358   2.588
 2241SOL     OW 7621   1.460   1.803   3.053
 2241SOL    HW1 7622   1.376   1.858   3.054
 2241SOL    HW2 7623   1.539   1.863   3.070
 2242SOL     OW 7624   5.285   2.282   4.303
 2242SOL    HW1 7625   5.361   2.272   4.239
 2242SOL    HW2 7626   5.199   2.281   4.253
 2243SOL     OW 7627   2.308   0.528   0.224
 2243SOL    HW1 7628   2.298   0.576   0.137
 2243SOL    HW2 7629   2.273   0.586   0.298
 2244SOL     OW 7630   2.373   1.939   0.881
 2244SOL    HW1 7631   2.467   1.968   0.899
 2244SOL    HW2 7632   2.356   1.852   0.927
 2245SOL     OW 7633   0.064   1.298   0.301
 2245SOL    HW1 7634   0.082   1.254   0.213
 2245SOL    HW2 7635   0.057   1.229   0.373
 2246SOL     OW 7636   5.618   0.882   5.681
 2246SOL    HW1 7637   5.711   0.910   5.707
 2246SOL    HW2 7638   5.602   0.906   5.586
 2247SOL     OW 7639   3.782   3.477   1.909
 2247SOL    HW1 7640   3.765   3.408   1.979
 2247SOL    HW2 7641   3.699   3.530   1.894
 2248SOL     OW 7642   5.391   3.138   4.679
 2248SOL    HW1 7643   5.370   3.041   4.675
 2248SOL    HW2 7644   5.465   3.154   4.744
 2249SOL     OW 7645   2.284   6.106   3.673
 2249SOL    HW1 7646   2.252   6.167   3.600
 2249SOL    HW2 7647   2.276   6.153   3.761
 2250SOL     OW 7648   4.120   6.333   5.991
 2250SOL    HW1 7649   4.170   6.311   5.908
 2250SOL    HW2 7650   4.052   6.262   6.008
 2251SOL     OW 7651   3.878   6.862   4.876
 2251SOL    HW1 7652   3.844   6.774   4.909
 2251SOL    HW2 7653   3.867   6.931   4.947
 2252SOL     OW 7654   3.506   1.301   2.676
 2252SOL    HW1 7655   3.537   1.279   2.583
 2252SOL    HW2 7656   3.454   1.387   2.674
 2253SOL     OW 7657   1.171   2.700   1.940
 2253SOL    HW1 7658   1.242   2.710   1.870
 2253SOL    HW2 7659   1.083   2.686   1.896
 2254SOL     OW 7660   3.126   2.987   2.541
 2254SOL    HW1 7661   3.082   2.998   2.630
 2254SOL    HW2 7662   3.091   3.055   2.477
 2255SOL     OW 7663   1.734   1.755   6.212
 2255SOL    HW1 7664   1.699   1.815   6.139
 2255SOL    HW2 7665   1.727   1.802   6.300
 2256SOL     OW 7666   4.768   0.080   1.378
 2256SOL    HW1 7667   4.837   0.137   1.333
 2256SOL    HW2 7668   4.760   7.014   1.329
 2257SOL     OW 7669   0.324   0.863   6.332
 2257SOL    HW1 7670   0.232   0.898   6.310
 2257SOL    HW2 7671   0.328   0.765   6.314
 2258SOL     OW 7672   2.292   0.158   3.487
 2258SOL    HW1 7673   2.235   0.116   3.559
 2258SOL    HW2 7674   2.240   0.161   3.402
 2259SOL     OW 7675   5.902   0.049   5.270
 2259SOL    HW1 7676   5.877   0.068   5.175
 2259SOL    HW2 7677   5.968   0.117   5.302
 2260SOL     OW 7678   1.055   3.735   1.146
 2260SOL    HW1 7679   0.973   3.679   1.134
 2260SOL    HW2 7680   1.134   3.688   1.108
 2261SOL     OW 7681   4.675   4.783   6.545
 2261SOL    HW1 7682   4.739   4.800   6.470
 2261SOL    HW2 7683   4.583   4.809   6.516
 2262SOL     OW 7684   6.775   0.282   3.621
 2262SOL    HW1 7685   6.753   0.187   3.642
 2262SOL    HW2 7686   6.724   0.310   3.540
 2263SOL     OW 7687   2.526   4.289   6.837
 2263SOL    HW1 7688   2.507   4.383   6.805
 2263SOL    HW2 7689   2.584   4.243   6.770
 2264SOL     OW 7690   1.857   0.673   6.921
 2264SOL    HW1 7691   1.892   0.683   6.828
 2264SOL    HW2 7692   1.902   0.738   6.981
 2265SOL     OW 7693   0.659   6.279   3.633
 2265SOL    HW1 7694   0.652   6.180   3.637
 2265SOL    HW2 7695   0.649   6.317   3.725
 2266SOL     OW 7696   4.276   4.142   6.784
 2266SOL    HW1 7697   4.308   4.202   6.856
 2266SOL    HW2 7698   4.190   4.177   6.747
 2267SOL     OW 7699   5.689   3.062   4.745
 2267SOL    HW1 7700   5.769   3.032   4.695
 2267SOL    HW2 7701   5.692   3.162   4.757
 2268SOL     OW 7702   0.709   6.155   4.667
 2268SOL    HW1 7703   0.646   6.107   4.728
 2268SOL    HW2 7704   0.794   6.103   4.661
 2269SOL     OW 7705   1.992   2.108   5.303
 2269SOL    HW1 7706   1.933   2.171   5.252
 2269SOL    HW2 7707   2.042   2.049   5.240
 2270SOL     OW 7708   4.449   1.518   6.407
 2270SOL    HW1 7709   4.422   1.433   6.363
 2270SOL    HW2 7710   4.370   1.558   6.453
 2271SOL     OW 7711   4.214   5.719   5.041
 2271SOL    HW1 7712   4.175   5.653   5.106
 2271SOL    HW2 7713   4.259   5.793   5.092
 2272SOL     OW 7714   6.056   0.804   6.533
 2272SOL    HW1 7715   6.057   0.761   6.624
 2272SOL    HW2 7716   6.072   0.734   6.463
 2273SOL     OW 7717   1.702   2.351   4.335
 2273SOL    HW1 7718   1.619   2.298   4.321
 2273SOL    HW2 7719   1.745   2.322   4.421
 2274SOL     OW 7720   1.188   0.903   7.012
 2274SOL    HW1 7721   1.140   0.902   0.079
 2274SOL    HW2 7722   1.228   0.994   6.997
 2275SOL     OW 7723   5.462   3.385   3.202
 2275SOL    HW1 7724   5.538   3.332   3.238
 2275SOL    HW2 7725   5.402   3.413   3.277
 2276SOL     OW 7726   2.227   1.750   1.594
 2276SOL    HW1 7727   2.248   1.655   1.619
 2276SOL    HW2 7728   2.129   1.760   1.580
 2277SOL     OW 7729   3.808   2.922   3.269
 2277SOL    HW1 7730   3.773   2.831   3.244
 2277SOL    HW2 7731   3.737   2.990   3.253
 2278SOL     OW 7732   6.782   3.422   3.699
 2278SOL    HW1 7733   6.732   3.450   3.780
 2278SOL    HW2 7734   6.879   3.447   3.709
 2279SOL     OW 7735   0.666   5.542   5.866
 2279SOL    HW1 7736   0.645   5.480   5.791
 2279SOL    HW2 7737   0.739   5.504   5.922
 2280SOL     OW 7738   4.908   2.853   5.487
 2280SOL    HW1 7739   4.951   2.790   5.423
 2280SOL    HW2 7740   4.923   2.947   5.456
 2281SOL     OW 7741   5.441   6.792   2.449
 2281SOL    HW1 7742   5.399   6.713   2.494
 2281SOL    HW2 7743   5.373   6.838   2.392
 2282SOL     OW 7744   3.414   5.235   5.887
 2282SOL    HW1 7745   3.365   5.213   5.971
 2282SOL    HW2 7746   3.512   5.245   5.907
 2283SOL     OW 7747   6.725   0.937   5.076
 2283SOL    HW1 7748   6.660   1.001   5.118
 2283SOL    HW2 7749   6.755   0.871   5.146
 2284SOL     OW 7750   1.553   3.485   6.167
 2284SOL    HW1 7751   1.504   3.572   6.160
 2284SOL    HW2 7752   1.487   3.411   6.178
 2285SOL     OW 7753   1.242   5.267   6.838
 2285SOL    HW1 7754   1.148   5.289   6.863
 2285SOL    HW2 7755   1.298   5.350   6.845
 2286SOL     OW 7756   4.690   4.213   2.495
 2286SOL    HW1 7757   4.668   4.264   2.578
 2286SOL    HW2 7758   4.681   4.273   2.415
 2287SOL     OW 7759   1.748   1.237   4.022
 2287SOL    HW1 7760   1.766   1.286   4.107
 2287SOL    HW2 7761   1.667   1.275   3.978
 2288SOL     OW 7762   6.753   5.038   2.925
 2288SOL    HW1 7763   6.830   5.087   2.964
 2288SOL    HW2 7764   6.715   4.975   2.993
 2289SOL     OW 7765   0.156   4.736   0.229
 2289SOL    HW1 7766   0.231   4.695   0.280
 2289SOL    HW2 7767   0.185   4.822   0.188
 2290SOL     OW 7768   0.923   4.939   0.116
 2290SOL    HW1 7769   1.008   4.934   0.064
 2290SOL    HW2 7770   0.904   4.850   0.157
 2291SOL     OW 7771   1.957   1.484   0.141
 2291SOL    HW1 7772   1.987   1.395   0.107
 2291SOL    HW2 7773   1.896   1.526   0.074
 2292SOL     OW 7774   2.369   0.648   4.844
 2292SOL    HW1 7775   2.347   0.647   4.942
 2292SOL    HW2 7776   2.347   0.738   4.807
 2293SOL     OW 7777   4.921   4.130   3.327
 2293SOL    HW1 7778   4.983   4.130   3.405
 2293SOL    HW2 7779   4.901   4.225   3.300
 2294SOL     OW 7780   3.992   7.013   6.754
 2294SOL    HW1 7781   4.044   6.968   6.681
 2294SOL    HW2 7782   3.970   6.946   6.825
 2295SOL     OW 7783   1.162   0.771   1.651
 2295SOL    HW1 7784   1.083   0.723   1.613
 2295SOL    HW2 7785   1.244   0.748   1.598
 2296SOL     OW 7786   2.832   6.144   6.972
 2296SOL    HW1 7787   2.845   6.243   6.974
 2296SOL    HW2 7788   2.735   6.123   6.959
 2297SOL     OW 7789   4.162   6.155   6.358
 2297SOL    HW1 7790   4.205   6.120   6.441
 2297SOL    HW2 7791   4.065   6.129   6.356
 2298SOL     OW 7792   4.392   2.995   6.532
 2298SOL    HW1 7793   4.483   3.035   6.546
 2298SOL    HW2 7794   4.353   2.969   6.620
 2299SOL     OW 7795   4.552   0.143   1.543
 2299SOL    HW1 7796   4.619   0.109   1.477
 2299SOL    HW2 7797   4.556   0.243   1.547
 2300SOL     OW 7798   0.909   4.832   0.869
 2300SOL    HW1 7799   0.977   4.856   0.938
 2300SOL    HW2 7800   0.831   4.788   0.912
 2301SOL     OW 7801   3.447   3.061   1.604
 2301SOL    HW1 7802   3.394   3.007   1.539
 2301SOL    HW2 7803   3.440   3.020   1.695
 2302SOL     OW 7804   2.940   5.503   3.142
 2302SOL    HW1 7805   2.966   5.549   3.226
 2302SOL    HW2 7806   2.892   5.418   3.163
 2303SOL     OW 7807   0.524   3.430   6.026
 2303SOL    HW1 7808   0.590   3.501   6.003
 2303SOL    HW2 7809   0.492   3.445   6.120
 2304SOL     OW 7810   1.894   1.167   4.669
 2304SOL    HW1 7811   1.911   1.168   4.768
 2304SOL    HW2 7812   1.814   1.224   4.649
 2305SOL     OW 7813   4.340   4.963   1.757
 2305SOL    HW1 7814   4.365   5.059   1.759
 2305SOL    HW2 7815   4.338   4.930   1.663
 2306SOL     OW 7816   0.525   4.450   0.209
 2306SOL    HW1 7817   0.614   4.411   0.234
 2306SOL    HW2 7818   0.503   4.423   0.115
 2307SOL     OW 7819   0.185   0.831   3.285
 2307SOL    HW1 7820   0.245   0.778   3.345
 2307SOL    HW2 7821   0.134   0.898   3.339
 2308SOL     OW 7822   0.922   0.317   0.123
 2308SOL    HW1 7823   0.842   0.308   0.063
 2308SOL    HW2 7824   0.915   0.251   0.198
 2309SOL     OW 7825   1.781   4.942   6.454
 2309SOL    HW1 7826   1.751   4.847   6.449
 2309SOL    HW2 7827   1.862   4.948   6.513
 2310SOL     OW 7828   5.508   1.464   3.281
 2310SOL    HW1 7829   5.470   1.386   3.232
 2310SOL    HW2 7830   5.605   1.447   3.301
 2311SOL     OW 7831   3.006   0.054   2.766
 2311SOL    HW1 7832   2.937   7.005   2.786
 2311SOL    HW2 7833   3.046   0.035   2.676
 2312SOL     OW 7834   2.859   0.858   2.245
 2312SOL    HW1 7835   2.808   0.875   2.330
 2312SOL    HW2 7836   2.797   0.820   2.176
 2313SOL     OW 7837   4.842   4.710   1.542
 2313SOL    HW1 7838   4.871   4.709   1.638
 2313SOL    HW2 7839   4.805   4.800   1.519
 2314SOL     OW 7840   6.944   5.985   3.336
 2314SOL    HW1 7841   6.968   5.953   3.428
 2314SOL    HW2 7842   6.844   5.988   3.327
 2315SOL     OW 7843   4.948   6.348   5.258
 2315SOL    HW1 7844   5.039   6.373   5.224
 2315SOL    HW2 7845   4.906   6.282   5.195
 2316SOL     OW 7846   4.082   2.535   6.270
 2316SOL    HW1 7847   4.015   2.538   6.343
 2316SOL    HW2 7848   4.046   2.480   6.194
 2317SOL     OW 7849   0.324   5.203   2.221
 2317SOL    HW1 7850   0.271   5.125   2.252
 2317SOL    HW2 7851   0.387   5.231   2.294
 2318SOL     OW 7852   1.259   4.799   3.890
 2318SOL    HW1 7853   1.228   4.778   3.797
 2318SOL    HW2 7854   1.286   4.895   3.895
 2319SOL     OW 7855   2.359   5.357   3.253
 2319SOL    HW1 7856   2.265   5.349   3.286
 2319SOL    HW2 7857   2.359   5.398   3.162
 2320SOL     OW 7858   1.063   2.235   5.346
 2320SOL    HW1 7859   1.081   2.208   5.441
 2320SOL    HW2 7860   1.063   2.154   5.288
 2321SOL     OW 7861   1.817   5.000   5.363
 2321SOL    HW1 7862   1.878   4.983   5.286
 2321SOL    HW2 7863   1.799   4.914   5.412
 2322SOL     OW 7864   1.839   3.277   1.617
 2322SOL    HW1 7865   1.903   3.329   1.673
 2322SOL    HW2 7866   1.748   3.319   1.621
 2323SOL     OW 7867   2.562   5.791   6.432
 2323SOL    HW1 7868   2.657   5.787   6.401
 2323SOL    HW2 7869   2.505   5.734   6.373
 2324SOL     OW 7870   6.575   4.684   2.405
 2324SOL    HW1 7871   6.569   4.736   2.320
 2324SOL    HW2 7872   6.671   4.665   2.426
 2325SOL     OW 7873   6.690   4.016   2.611
 2325SOL    HW1 7874   6.689   4.007   2.711
 2325SOL    HW2 7875   6.683   3.925   2.570
 2326SOL     OW 7876   2.307   0.063   0.392
 2326SOL    HW1 7877   2.235   0.115   0.438
 2326SOL    HW2 7878   2.352   0.121   0.324
 2327SOL     OW 7879   6.277   6.139   1.898
 2327SOL    HW1 7880   6.217   6.215   1.871
 2327SOL    HW2 7881   6.329   6.165   1.979
 2328SOL     OW 7882   2.132   3.836   2.245
 2328SOL    HW1 7883   2.228   3.863   2.242
 2328SOL    HW2 7884   2.126   3.736   2.256
 2329SOL     OW 7885   0.693   4.790   1.955
 2329SOL    HW1 7886   0.715   4.825   2.046
 2329SOL    HW2 7887   0.751   4.712   1.933
 2330SOL     OW 7888   6.054   3.453   1.601
 2330SOL    HW1 7889   6.113   3.434   1.679
 2330SOL    HW2 7890   6.110   3.478   1.522
 2331SOL     OW 7891   4.729   5.414   1.535
 2331SOL    HW1 7892   4.747   5.417   1.633
 2331SOL    HW2 7893   4.816   5.403   1.486
 2332SOL     OW 7894   6.012   0.097   5.854
 2332SOL    HW1 7895   6.027   0.152   5.936
 2332SOL    HW2 7896   5.930   0.131   5.806
 2333SOL     OW 7897   1.860   4.455   2.648
 2333SOL    HW1 7898   1.861   4.403   2.563
 2333SOL    HW2 7899   1.820   4.400   2.721
 2334SOL     OW 7900   3.507   1.255   6.140
 2334SOL    HW1 7901   3.531   1.230   6.046
 2334SOL    HW2 7902   3.408   1.267   6.147
 2335SOL     OW 7903   6.549   0.861   3.676
 2335SOL    HW1 7904   6.552   0.924   3.598
 2335SOL    HW2 7905   6.573   0.769   3.645
 2336SOL     OW 7906   1.883   1.457   2.896
 2336SOL    HW1 7907   1.854   1.415   2.982
 2336SOL    HW2 7908   1.982   1.463   2.894
 2337SOL     OW 7909   4.087   0.946   2.118
 2337SOL    HW1 7910   4.184   0.926   2.137
 2337SOL    HW2 7911   4.077   1.043   2.095
 2338SOL     OW 7912   6.966   3.796   3.317
 2338SOL    HW1 7913   6.932   3.797   3.411
 2338SOL    HW2 7914   0.042   3.770   3.316
 2339SOL     OW 7915   3.385   2.885   2.886
 2339SOL    HW1 7916   3.400   2.906   2.789
 2339SOL    HW2 7917   3.298   2.837   2.897
 2340SOL     OW 7918   1.944   3.645   6.755
 2340SOL    HW1 7919   2.007   3.703   6.704
 2340SOL    HW2 7920   1.859   3.633   6.703
 2341SOL     OW 7921   2.750   4.935   4.364
 2341SOL    HW1 7922   2.809   4.881   4.304
 2341SOL    HW2 7923   2.781   5.030   4.365
 2342SOL     OW 7924   3.962   1.542   4.651
 2342SOL    HW1 7925   3.908   1.458   4.664
 2342SOL    HW2 7926   3.968   1.591   4.738
 2343SOL     OW 7927   7.007   0.084   0.837
 2343SOL    HW1 7928   6.979   0.180   0.834
 2343SOL    HW2 7929   6.931   0.028   0.871
 2344SOL     OW 7930   5.954   4.714   0.247
 2344SOL    HW1 7931   5.950   4.636   0.184
 2344SOL    HW2 7932   5.863   4.754   0.256
 2345SOL     OW 7933   3.951   6.348   4.462
 2345SOL    HW1 7934   4.040   6.314   4.494
 2345SOL    HW2 7935   3.882   6.277   4.477
 2346SOL     OW 7936   5.045   3.319   0.844
 2346SOL    HW1 7937   5.073   3.234   0.887
 2346SOL    HW2 7938   4.947   3.317   0.825
 2347SOL     OW 7939   1.601   1.279   0.969
 2347SOL    HW1 7940   1.594   1.208   0.900
 2347SOL    HW2 7941   1.674   1.343   0.945
 2348SOL     OW 7942   0.061   5.720   2.536
 2348SOL    HW1 7943   0.044   5.772   2.620
 2348SOL    HW2 7944   0.020   5.630   2.544
 2349SOL     OW 7945   0.649   4.447   4.817
 2349SOL    HW1 7946   0.700   4.487   4.893
 2349SOL    HW2 7947   0.707   4.378   4.771
 2350SOL     OW 7948   5.493   3.831   0.463
 2350SOL    HW1 7949   5.556   3.804   0.391
 2350SOL    HW2 7950   5.529   3.910   0.512
 2351SOL     OW 7951   2.431   5.946   1.667
 2351SOL    HW1 7952   2.389   5.882   1.603
 2351SOL    HW2 7953   2.427   6.039   1.628
 2352SOL     OW 7954   6.839   2.584   3.332
 2352SOL    HW1 7955   6.872   2.633   3.252
 2352SOL    HW2 7956   6.769   2.517   3.305
 2353SOL     OW 7957   3.425   5.847   4.210
 2353SOL    HW1 7958   3.355   5.889   4.152
 2353SOL    HW2 7959   3.466   5.917   4.269
 2354SOL     OW 7960   2.401   2.586   3.881
 2354SOL    HW1 7961   2.361   2.501   3.846
 2354SOL    HW2 7962   2.378   2.661   3.820
 2355SOL     OW 7963   2.457   5.683   4.505
 2355SOL    HW1 7964   2.475   5.621   4.429
 2355SOL    HW2 7965   2.503   5.770   4.489
 2356SOL     OW 7966   6.790   2.766   6.826
 2356SOL    HW1 7967   6.855   2.697   6.857
 2356SOL    HW2 7968   6.700   2.724   6.812
 2357SOL     OW 7969   2.269   6.517   2.944
 2357SOL    HW1 7970   2.363   6.526   2.979
 2357SOL    HW2 7971   2.229   6.608   2.932
 2358SOL     OW 7972   4.628   5.392   6.153
 2358SOL    HW1 7973   4.629   5.292   6.142
 2358SOL    HW2 7974   4.719   5.428   6.132
 2359SOL     OW 7975   1.550   0.027   5.648
 2359SOL    HW1 7976   1.521   0.123   5.651
 2359SOL    HW2 7977   1.471   6.990   5.628
 2360SOL     OW 7978   6.942   3.971   0.281
 2360SOL    HW1 7979   6.905   3.926   0.362
 2360SOL    HW2 7980   6.895   3.937   0.199
 2361SOL     OW 7981   3.460   1.128   0.399
 2361SOL    HW1 7982   3.517   1.147   0.319
 2361SOL    HW2 7983   3.383   1.192   0.402
 2362SOL     OW 7984   2.453   5.155   3.466
 2362SOL    HW1 7985   2.423   5.225   3.401
 2362SOL    HW2 7986   2.546   5.127   3.445
 2363SOL     OW 7987   3.946   0.523   3.768
 2363SOL    HW1 7988   3.903   0.519   3.677
 2363SOL    HW2 7989   3.892   0.468   3.832
 2364SOL     OW 7990   1.123   2.418   1.202
 2364SOL    HW1 7991   1.199   2.422   1.266
 2364SOL    HW2 7992   1.158   2.398   1.110
 2365SOL     OW 7993   5.096   1.623   0.570
 2365SOL    HW1 7994   5.184   1.636   0.616
 2365SOL    HW2 7995   5.050   1.711   0.560
 2366SOL     OW 7996   4.675   5.581   0.478
 2366SOL    HW1 7997   4.730   5.653   0.434
 2366SOL    HW2 7998   4.653   5.510   0.411
 2367SOL     OW 7999   2.349   3.378   5.886
 2367SOL    HW1 8000   2.289   3.415   5.815
 2367SOL    HW2 8001   2.356   3.278   5.875
 2368SOL     OW 8002   5.734   5.939   1.943
 2368SOL    HW1 8003   5.694   6.029   1.961
 2368SOL    HW2 8004   5.825   5.934   1.984
 2369SOL     OW 8005   2.422   1.535   3.094
 2369SOL    HW1 8006   2.413   1.460   3.160
 2369SOL    HW2 8007   2.336   1.587   3.092
 2370SOL     OW 8008   5.783   2.603   6.095
 2370SOL    HW1 8009   5.807   2.628   6.002
 2370SOL    HW2 8010   5.690   2.633   6.115
 2371SOL     OW 8011   1.535   5.947   1.882
 2371SOL    HW1 8012   1.484   5.892   1.816
 2371SOL    HW2 8013   1.563   5.889   1.959
 2372SOL     OW 8014   6.465   2.386   3.062
 2372SOL    HW1 8015   6.448   2.288   3.051
 2372SOL    HW2 8016   6.544   2.413   3.007
 2373SOL     OW 8017   2.454   3.691   6.518
 2373SOL    HW1 8018   2.417   3.655   6.603
 2373SOL    HW2 8019   2.397   3.660   6.441
 2374SOL     OW 8020   5.189   2.714   4.890
 2374SOL    HW1 8021   5.118   2.663   4.842
 2374SOL    HW2 8022   5.212   2.668   4.975
 2375SOL     OW 8023   0.916   6.947   5.817
 2375SOL    HW1 8024   0.831   6.894   5.813
 2375SOL    HW2 8025   0.978   6.907   5.884
 2376SOL     OW 8026   0.326   2.220   3.780
 2376SOL    HW1 8027   0.371   2.224   3.869
 2376SOL    HW2 8028   0.386   2.173   3.715
 2377SOL     OW 8029   3.264   2.968   4.026
 2377SOL    HW1 8030   3.357   2.975   3.990
 2377SOL    HW2 8031   3.206   2.921   3.959
 2378SOL     OW 8032   5.199   1.743   1.018
 2378SOL    HW1 8033   5.175   1.817   1.082
 2378SOL    HW2 8034   5.289   1.762   0.978
 2379SOL     OW 8035   6.581   6.981   5.939
 2379SOL    HW1 8036   6.569   6.945   5.846
 2379SOL    HW2 8037   6.493   6.979   5.986
 2380SOL     OW 8038   6.251   2.102   2.843
 2380SOL    HW1 8039   6.325   2.113   2.910
 2380SOL    HW2 8040   6.288   2.062   2.759
 2381SOL     OW 8041   1.747   5.787   2.302
 2381SOL    HW1 8042   1.761   5.737   2.217
 2381SOL    HW2 8043   1.709   5.877   2.282
 2382SOL     OW 8044   1.777   2.751   5.584
 2382SOL    HW1 8045   1.803   2.782   5.493
 2382SOL    HW2 8046   1.859   2.748   5.643
 2383SOL     OW 8047   5.710   5.348   1.582
 2383SOL    HW1 8048   5.800   5.364   1.541
 2383SOL    HW2 8049   5.694   5.412   1.657
 2384SOL     OW 8050   4.320   1.165   1.490
 2384SOL    HW1 8051   4.399   1.170   1.429
 2384SOL    HW2 8052   4.247   1.113   1.447
 2385SOL     OW 8053   1.240   2.719   0.016
 2385SOL    HW1 8054   1.206   2.694   6.946
 2385SOL    HW2 8055   1.276   2.812   0.014
 2386SOL     OW 8056   4.436   4.731   3.424
 2386SOL    HW1 8057   4.489   4.798   3.372
 2386SOL    HW2 8058   4.470   4.728   3.518
 2387SOL     OW 8059   1.427   1.213   2.781
 2387SOL    HW1 8060   1.522   1.244   2.791
 2387SOL    HW2 8061   1.407   1.199   2.685
 2388SOL     OW 8062   7.013   1.312   4.090
 2388SOL    HW1 8063   6.962   1.256   4.155
 2388SOL    HW2 8064   6.977   1.405   4.089
 2389SOL     OW 8065   3.700   6.476   1.933
 2389SOL    HW1 8066   3.669   6.415   1.860
 2389SOL    HW2 8067   3.706   6.570   1.898
 2390SOL     OW 8068   2.948   4.700   1.154
 2390SOL    HW1 8069   2.885   4.627   1.183
 2390SOL    HW2 8070   3.042   4.668   1.165
 2391SOL     OW 8071   4.427   5.392   4.527
 2391SOL    HW1 8072   4.391   5.481   4.498
 2391SOL    HW2 8073   4.354   5.337   4.566
 2392SOL     OW 8074   4.265   1.420   6.755
 2392SOL    HW1 8075   4.169   1.399   6.770
 2392SOL    HW2 8076   4.321   1.372   6.822
 2393SOL     OW 8077   3.591   5.156   5.089
 2393SOL    HW1 8078   3.690   5.169   5.077
 2393SOL    HW2 8079   3.570   5.151   5.186
 2394SOL     OW 8080   0.407   4.825   5.547
 2394SOL    HW1 8081   0.445   4.913   5.521
 2394SOL    HW2 8082   0.329   4.838   5.608
 2395SOL     OW 8083   4.335   6.451   6.290
 2395SOL    HW1 8084   4.305   6.369   6.339
 2395SOL    HW2 8085   4.271   6.471   6.216
 2396SOL     OW 8086   2.885   5.603   0.748
 2396SOL    HW1 8087   2.882   5.511   0.788
 2396SOL    HW2 8088   2.951   5.659   0.797
 2397SOL     OW 8089   0.685   3.265   4.436
 2397SOL    HW1 8090   0.593   3.227   4.443
 2397SOL    HW2 8091   0.683   3.349   4.382
 2398SOL     OW 8092   4.872   3.620   5.533
 2398SOL    HW1 8093   4.823   3.544   5.574
 2398SOL    HW2 8094   4.912   3.591   5.446
 2399SOL     OW 8095   4.517   2.434   1.287
 2399SOL    HW1 8096   4.470   2.486   1.215
 2399SOL    HW2 8097   4.614   2.459   1.287
 2400SOL     OW 8098   1.485   4.684   0.329
 2400SOL    HW1 8099   1.387   4.670   0.316
 2400SOL    HW2 8100   1.534   4.650   0.250
 2401SOL     OW 8101   6.215   5.687   6.629
 2401SOL    HW1 8102   6.132   5.741   6.619
 2401SOL    HW2 8103   6.268   5.692   6.544
 2402SOL     OW 8104   6.932   6.905   3.818
 2402SOL    HW1 8105   0.005   6.872   3.819
 2402SOL    HW2 8106   6.871   6.833   3.786
 2403SOL     OW 8107   1.296   0.842   3.491
 2403SOL    HW1 8108   1.299   0.942   3.493
 2403SOL    HW2 8109   1.346   0.806   3.570
 2404SOL     OW 8110   1.177   0.160   6.963
 2404SOL    HW1 8111   1.159   0.208   0.029
 2404SOL    HW2 8112   1.257   0.101   6.973
 2405SOL     OW 8113   2.908   4.711   1.479
 2405SOL    HW1 8114   2.999   4.669   1.483
 2405SOL    HW2 8115   2.867   4.711   1.570
 2406SOL     OW 8116   4.952   1.433   1.485
 2406SOL    HW1 8117   4.986   1.340   1.500
 2406SOL    HW2 8118   4.926   1.445   1.389
 2407SOL     OW 8119   5.071   6.723   3.715
 2407SOL    HW1 8120   5.064   6.666   3.633
 2407SOL    HW2 8121   5.159   6.769   3.717
 2408SOL     OW 8122   4.305   4.689   2.181
 2408SOL    HW1 8123   4.297   4.589   2.176
 2408SOL    HW2 8124   4.371   4.714   2.252
 2409SOL     OW 8125   1.372   4.253   0.587
 2409SOL    HW1 8126   1.276   4.230   0.569
 2409SOL    HW2 8127   1.428   4.171   0.579
 2410SOL     OW 8128   4.133   3.584   2.809
 2410SOL    HW1 8129   4.149   3.611   2.904
 2410SOL    HW2 8130   4.058   3.638   2.771
 2411SOL     OW 8131   3.485   0.288   4.850
 2411SOL    HW1 8132   3.430   0.357   4.803
 2411SOL    HW2 8133   3.430   0.243   4.920
 2412SOL     OW 8134   4.175   3.681   0.976
 2412SOL    HW1 8135   4.263   3.727   0.968
 2412SOL    HW2 8136   4.144   3.683   1.071
 2413SOL     OW 8137   3.674   0.357   3.335
 2413SOL    HW1 8138   3.579   0.386   3.348
 2413SOL    HW2 8139   3.685   0.318   3.243
 2414SOL     OW 8140   4.933   3.077   4.456
 2414SOL    HW1 8141   5.023   3.079   4.412
 2414SOL    HW2 8142   4.867   3.031   4.396
 2415SOL     OW 8143   4.139   0.352   3.538
 2415SOL    HW1 8144   4.050   0.395   3.522
 2415SOL    HW2 8145   4.189   0.403   3.608
 2416SOL     OW 8146   5.567   1.946   6.346
 2416SOL    HW1 8147   5.501   1.895   6.402
 2416SOL    HW2 8148   5.602   1.887   6.274
 2417SOL     OW 8149   3.278   4.148   5.397
 2417SOL    HW1 8150   3.229   4.202   5.465
 2417SOL    HW2 8151   3.214   4.118   5.326
 2418SOL     OW 8152   3.220   2.887   2.304
 2418SOL    HW1 8153   3.218   2.867   2.402
 2418SOL    HW2 8154   3.176   2.813   2.253
 2419SOL     OW 8155   6.599   0.524   3.953
 2419SOL    HW1 8156   6.554   0.600   4.000
 2419SOL    HW2 8157   6.698   0.532   3.963
 2420SOL     OW 8158   2.151   6.881   1.889
 2420SOL    HW1 8159   2.080   6.891   1.958
 2420SOL    HW2 8160   2.186   6.788   1.890
 2421SOL     OW 8161   4.424   1.922   3.143
 2421SOL    HW1 8162   4.409   1.867   3.225
 2421SOL    HW2 8163   4.408   2.018   3.164
 2422SOL     OW 8164   5.474   1.630   1.356
 2422SOL    HW1 8165   5.434   1.541   1.379
 2422SOL    HW2 8166   5.528   1.622   1.272
 2423SOL     OW 8167   1.362   5.120   2.337
 2423SOL    HW1 8168   1.269   5.146   2.311
 2423SOL    HW2 8169   1.370   5.121   2.437
 2424SOL     OW 8170   6.703   6.721   0.021
 2424SOL    HW1 8171   6.655   6.800   7.005
 2424SOL    HW2 8172   6.637   6.654   0.055
 2425SOL     OW 8173   6.882   0.229   4.576
 2425SOL    HW1 8174   6.848   0.312   4.619
 2425SOL    HW2 8175   6.859   0.150   4.634
 2426SOL     OW 8176   1.718   5.644   4.389
 2426SOL    HW1 8177   1.685   5.726   4.435
 2426SOL    HW2 8178   1.660   5.626   4.309
 2427SOL     OW 8179   6.136   0.797   5.156
 2427SOL    HW1 8180   6.162   0.752   5.242
 2427SOL    HW2 8181   6.045   0.837   5.166
 2428SOL     OW 8182   5.619   2.081   0.389
 2428SOL    HW1 8183   5.661   2.067   0.478
 2428SOL    HW2 8184   5.689   2.079   0.318
 2429SOL     OW 8185   4.441   4.541   2.758
 2429SOL    HW1 8186   4.411   4.451   2.787
 2429SOL    HW2 8187   4.390   4.611   2.808
 2430SOL     OW 8188   5.127   0.165   2.230
 2430SOL    HW1 8189   5.078   0.165   2.317
 2430SOL    HW2 8190   5.060   0.163   2.155
 2431SOL     OW 8191   3.784   6.774   2.097
 2431SOL    HW1 8192   3.865   6.725   2.063
 2431SOL    HW2 8193   3.803   6.809   2.188
 2432SOL     OW 8194   2.921   5.566   2.350
 2432SOL    HW1 8195   2.974   5.559   2.434
 2432SOL    HW2 8196   2.844   5.628   2.364
 2433SOL     OW 8197   5.186   0.112   0.726
 2433SOL    HW1 8198   5.251   0.189   0.730
 2433SOL    HW2 8199   5.233   0.027   0.751
 2434SOL     OW 8200   3.282   3.251   5.402
 2434SOL    HW1 8201   3.245   3.341   5.423
 2434SOL    HW2 8202   3.270   3.191   5.481
 2435SOL     OW 8203   5.940   5.259   6.284
 2435SOL    HW1 8204   5.914   5.298   6.372
 2435SOL    HW2 8205   5.880   5.295   6.213
 2436SOL     OW 8206   3.205   4.352   1.056
 2436SOL    HW1 8207   3.131   4.349   0.989
 2436SOL    HW2 8208   3.229   4.447   1.076
 2437SOL     OW 8209   6.878   0.947   5.869
 2437SOL    HW1 8210   6.956   1.007   5.849
 2437SOL    HW2 8211   6.912   0.859   5.901
 2438SOL     OW 8212   3.680   3.485   0.582
 2438SOL    HW1 8213   3.587   3.520   0.571
 2438SOL    HW2 8214   3.746   3.559   0.567
 2439SOL     OW 8215   6.364   4.024   6.620
 2439SOL    HW1 8216   6.346   4.114   6.659
 2439SOL    HW2 8217   6.283   3.991   6.572
 2440SOL     OW 8218   6.155   4.791   6.338
 2440SOL    HW1 8219   6.125   4.779   6.243
 2440SOL    HW2 8220   6.075   4.795   6.398
 2441SOL     OW 8221   6.594   2.143   0.588
 2441SOL    HW1 8222   6.681   2.157   0.540
 2441SOL    HW2 8223   6.543   2.229   0.591
 2442SOL     OW 8224   6.718   1.814   4.428
 2442SOL    HW1 8225   6.741   1.911   4.437
 2442SOL    HW2 8226   6.736   1.766   4.514
 2443SOL     OW 8227   2.833   4.936   6.288
 2443SOL    HW1 8228   2.888   4.930   6.204
 2443SOL    HW2 8229   2.818   4.844   6.323
 2444SOL     OW 8230   3.324   2.501   6.135
 2444SOL    HW1 8231   3.261   2.579   6.145
 2444SOL    HW2 8232   3.355   2.496   6.040
 2445SOL     OW 8233   0.998   0.611   0.961
 2445SOL    HW1 8234   0.985   0.696   1.012
 2445SOL    HW2 8235   1.077   0.620   0.901
 2446SOL     OW 8236   4.837   3.102   6.322
 2446SOL    HW1 8237   4.933   3.129   6.312
 2446SOL    HW2 8238   4.792   3.107   6.233
 2447SOL     OW 8239   1.051   3.781   6.516
 2447SOL    HW1 8240   0.960   3.806   6.483
 2447SOL    HW2 8241   1.092   3.715   6.452
 2448SOL     OW 8242   6.430   0.669   5.106
 2448SOL    HW1 8243   6.512   0.640   5.057
 2448SOL    HW2 8244   6.370   0.719   5.044
 2449SOL     OW 8245   6.962   3.351   5.505
 2449SOL    HW1 8246   0.014   3.284   5.519
 2449SOL    HW2 8247   6.970   3.392   5.414
 2450SOL     OW 8248   2.684   3.022   1.393
 2450SOL    HW1 8249   2.637   3.108   1.413
 2450SOL    HW2 8250   2.770   3.040   1.346
 2451SOL     OW 8251   1.948   6.165   3.513
 2451SOL    HW1 8252   2.031   6.220   3.515
 2451SOL    HW2 8253   1.968   6.074   3.550
 2452SOL     OW 8254   2.808   1.671   4.379
 2452SOL    HW1 8255   2.862   1.752   4.401
 2452SOL    HW2 8256   2.817   1.651   4.281
 2453SOL     OW 8257   0.552   4.136   0.752
 2453SOL    HW1 8258   0.593   4.109   0.665
 2453SOL    HW2 8259   0.578   4.230   0.774
 2454SOL     OW 8260   0.646   6.925   2.036
 2454SOL    HW1 8261   0.614   6.994   1.971
 2454SOL    HW2 8262   0.672   6.842   1.987
 2455SOL     OW 8263   5.604   3.840   1.184
 2455SOL    HW1 8264   5.574   3.780   1.259
 2455SOL    HW2 8265   5.636   3.927   1.223
 2456SOL     OW 8266   2.805   6.416   1.784
 2456SOL    HW1 8267   2.756   6.405   1.870
 2456SOL    HW2 8268   2.790   6.336   1.726
 2457SOL     OW 8269   4.969   5.835   0.603
 2457SOL    HW1 8270   4.894   5.811   0.665
 2457SOL    HW2 8271   5.019   5.913   0.641
 2458SOL     OW 8272   0.411   6.533   1.487
 2458SOL    HW1 8273   0.438   6.492   1.574
 2458SOL    HW2 8274   0.431   6.631   1.489
 2459SOL     OW 8275   1.512   1.792   0.057
 2459SOL    HW1 8276   1.540   1.713   0.003
 2459SOL    HW2 8277   1.592   1.849   0.076
 2460SOL     OW 8278   2.023   4.609   0.605
 2460SOL    HW1 8279   2.085   4.549   0.655
 2460SOL    HW2 8280   2.045   4.606   0.508
 2461SOL     OW 8281   4.488   1.262   3.297
 2461SOL    HW1 8282   4.521   1.172   3.324
 2461SOL    HW2 8283   4.566   1.321   3.277
 2462SOL     OW 8284   3.060   4.624   6.362
 2462SOL    HW1 8285   3.099   4.578   6.283
 2462SOL    HW2 8286   3.131   4.674   6.411
 2463SOL     OW 8287   1.682   3.109   5.324
 2463SOL    HW1 8288   1.764   3.051   5.326
 2463SOL    HW2 8289   1.708   3.204   5.338
 2464SOL     OW 8290   1.109   3.428   0.709
 2464SOL    HW1 8291   1.185   3.364   0.717
 2464SOL    HW2 8292   1.024   3.378   0.694
 2465SOL     OW 8293   6.084   4.329   3.102
 2465SOL    HW1 8294   6.056   4.358   3.193
 2465SOL    HW2 8295   6.028   4.375   3.033
 2466SOL     OW 8296   4.201   1.736   1.581
 2466SOL    HW1 8297   4.236   1.659   1.635
 2466SOL    HW2 8298   4.230   1.822   1.623
 2467SOL     OW 8299   1.331   1.361   4.356
 2467SOL    HW1 8300   1.374   1.295   4.295
 2467SOL    HW2 8301   1.390   1.441   4.365
 2468SOL     OW 8302   6.389   4.873   6.840
 2468SOL    HW1 8303   6.467   4.934   6.849
 2468SOL    HW2 8304   6.393   4.826   6.751
 2469SOL     OW 8305   2.397   1.773   6.306
 2469SOL    HW1 8306   2.460   1.757   6.229
 2469SOL    HW2 8307   2.380   1.871   6.315
 2470SOL     OW 8308   5.010   2.856   0.845
 2470SOL    HW1 8309   4.928   2.908   0.821
 2470SOL    HW2 8310   5.004   2.827   0.941
 2471SOL     OW 8311   0.591   1.420   3.400
 2471SOL    HW1 8312   0.518   1.472   3.357
 2471SOL    HW2 8313   0.615   1.341   3.344
 2472SOL     OW 8314   6.770   0.813   4.279
 2472SOL    HW1 8315   6.736   0.738   4.221
 2472SOL    HW2 8316   6.778   0.781   4.373
 2473SOL     OW 8317   0.843   5.623   4.518
 2473SOL    HW1 8318   0.857   5.527   4.495
 2473SOL    HW2 8319   0.751   5.651   4.490
 2474SOL     OW 8320   5.725   6.607   4.520
 2474SOL    HW1 8321   5.659   6.532   4.527
 2474SOL    HW2 8322   5.719   6.649   4.430
 2475SOL     OW 8323   3.584   2.442   6.235
 2475SOL    HW1 8324   3.544   2.369   6.290
 2475SOL    HW2 8325   3.512   2.503   6.202
 2476SOL     OW 8326   0.886   1.586   4.042
 2476SOL    HW1 8327   0.866   1.614   3.948
 2476SOL    HW2 8328   0.874   1.487   4.051
 2477SOL     OW 8329   4.572   4.509   1.981
 2477SOL    HW1 8330   4.601   4.426   1.933
 2477SOL    HW2 8331   4.502   4.555   1.927
 2478SOL     OW 8332   6.753   0.514   2.243
 2478SOL    HW1 8333   6.849   0.526   2.270
 2478SOL    HW2 8334   6.748   0.503   2.144
 2479SOL     OW 8335   1.157   3.081   0.432
 2479SOL    HW1 8336   1.200   3.112   0.517
 2479SOL    HW2 8337   1.083   3.144   0.408
 2480SOL     OW 8338   6.598   4.576   0.543
 2480SOL    HW1 8339   6.651   4.660   0.527
 2480SOL    HW2 8340   6.523   4.571   0.477
 2481SOL     OW 8341   4.115   4.826   2.699
 2481SOL    HW1 8342   4.090   4.780   2.614
 2481SOL    HW2 8343   4.088   4.922   2.694
 2482SOL     OW 8344   4.177   2.038   4.649
 2482SOL    HW1 8345   4.225   1.970   4.594
 2482SOL    HW2 8346   4.112   2.088   4.590
 2483SOL     OW 8347   0.802   3.431   6.920
 2483SOL    HW1 8348   0.870   3.497   6.952
 2483SOL    HW2 8349   0.796   3.435   6.820
 2484SOL     OW 8350   3.365   4.471   5.774
 2484SOL    HW1 8351   3.343   4.416   5.855
 2484SOL    HW2 8352   3.288   4.467   5.710
 2485SOL     OW 8353   0.613   4.696   0.178
 2485SOL    HW1 8354   0.707   4.676   0.204
 2485SOL    HW2 8355   0.557   4.614   0.191
 2486SOL     OW 8356   0.515   5.091   4.350
 2486SOL    HW1 8357   0.550   5.183   4.337
 2486SOL    HW2 8358   0.585   5.034   4.392
 2487SOL     OW 8359   2.463   1.302   1.041
 2487SOL    HW1 8360   2.533   1.231   1.038
 2487SOL    HW2 8361   2.453   1.336   1.135
 2488SOL     OW 8362   2.584   5.550   6.618
 2488SOL    HW1 8363   2.643   5.568   6.539
 2488SOL    HW2 8364   2.641   5.541   6.700
 2489SOL     OW 8365   6.481   5.853   4.503
 2489SOL    HW1 8366   6.557   5.897   4.550
 2489SOL    HW2 8367   6.395   5.880   4.546
 2490SOL     OW 8368   5.637   2.583   1.153
 2490SOL    HW1 8369   5.596   2.598   1.243
 2490SOL    HW2 8370   5.564   2.571   1.085
 2491SOL     OW 8371   6.763   4.278   2.214
 2491SOL    HW1 8372   6.688   4.252   2.154
 2491SOL    HW2 8373   6.825   4.201   2.226
 2492SOL     OW 8374   3.831   1.687   0.405
 2492SOL    HW1 8375   3.877   1.707   0.492
 2492SOL    HW2 8376   3.847   1.762   0.341
 2493SOL     OW 8377   6.294   1.049   5.559
 2493SOL    HW1 8378   6.254   0.958   5.545
 2493SOL    HW2 8379   6.242   1.098   5.629
 2494SOL     OW 8380   5.818   5.442   0.428
 2494SOL    HW1 8381   5.845   5.494   0.509
 2494SOL    HW2 8382   5.722   5.417   0.435
 2495SOL     OW 8383   6.925   1.250   2.565
 2495SOL    HW1 8384   6.833   1.288   2.561
 2495SOL    HW2 8385   6.923   1.155   2.535
 2496SOL     OW 8386   1.768   4.897   0.630
 2496SOL    HW1 8387   1.830   4.819   0.641
 2496SOL    HW2 8388   1.683   4.866   0.588
 2497SOL     OW 8389   6.283   1.413   6.554
 2497SOL    HW1 8390   6.208   1.365   6.510
 2497SOL    HW2 8391   6.269   1.512   6.547
 2498SOL     OW 8392   1.309   3.138   4.415
 2498SOL    HW1 8393   1.402   3.172   4.402
 2498SOL    HW2 8394   1.244   3.200   4.369
 2499SOL     OW 8395   5.016   0.248   6.888
 2499SOL    HW1 8396   5.062   0.160   6.895
 2499SOL    HW2 8397   4.970   0.255   6.800
 2500SOL     OW 8398   5.118   3.166   6.348
 2500SOL    HW1 8399   5.138   3.261   6.370
 2500SOL    HW2 8400   5.130   3.151   6.249
 2501SOL     OW 8401   6.047   5.211   0.889
 2501SOL    HW1 8402   5.987   5.288   0.911
 2501SOL    HW2 8403   6.122   5.242   0.831
 2502SOL     OW 8404   1.341   6.785   2.611
 2502SOL    HW1 8405   1.381   6.792   2.703
 2502SOL    HW2 8406   1.307   6.875   2.583
 2503SOL     OW 8407   5.734   5.785   3.470
 2503SOL    HW1 8408   5.785   5.737   3.541
 2503SOL    HW2 8409   5.650   5.823   3.509
 2504SOL     OW 8410   2.667   4.928   3.096
 2504SOL    HW1 8411   2.626   4.864   3.031
 2504SOL    HW2 8412   2.595   4.970   3.151
 2505SOL     OW 8413   4.811   3.895   4.454
 2505SOL    HW1 8414   4.880   3.890   4.526
 2505SOL    HW2 8415   4.780   3.803   4.432
 2506SOL     OW 8416   1.533   1.572   6.820
 2506SOL    HW1 8417   1.513   1.601   6.727
 2506SOL    HW2 8418   1.478   1.492   6.843
 2507SOL     OW 8419   6.918   5.706   1.043
 2507SOL    HW1 8420   6.830   5.705   1.091
 2507SOL    HW2 8421   6.976   5.633   1.079
 2508SOL     OW 8422   1.760   1.537   1.422
 2508SOL    HW1 8423   1.711   1.541   1.335
 2508SOL    HW2 8424   1.706   1.486   1.488
 2509SOL     OW 8425   6.465   6.882   3.732
 2509SOL    HW1 8426   6.473   6.904   3.829
 2509SOL    HW2 8427   6.394   6.813   3.720
 2510SOL     OW 8428   3.463   5.920   2.741
 2510SOL    HW1 8429   3.556   5.953   2.726
 2510SOL    HW2 8430   3.423   5.890   2.655
 2511SOL     OW 8431   0.867   5.182   4.214
 2511SOL    HW1 8432   0.827   5.121   4.146
 2511SOL    HW2 8433   0.899   5.266   4.169
 2512SOL     OW 8434   5.812   3.189   4.527
 2512SOL    HW1 8435   5.777   3.255   4.594
 2512SOL    HW2 8436   5.902   3.219   4.495
 2513SOL     OW 8437   0.570   4.594   1.568
 2513SOL    HW1 8438   0.476   4.624   1.589
 2513SOL    HW2 8439   0.625   4.673   1.541
 2514SOL     OW 8440   7.014   2.158   4.526
 2514SOL    HW1 8441   0.011   2.065   4.558
 2514SOL    HW2 8442   0.023   2.167   4.431
 2515SOL     OW 8443   0.378   4.779   6.279
 2515SOL    HW1 8444   0.363   4.731   6.193
 2515SOL    HW2 8445   0.477   4.790   6.294
 2516SOL     OW 8446   4.774   6.597   4.768
 2516SOL    HW1 8447   4.759   6.555   4.857
 2516SOL    HW2 8448   4.871   6.593   4.745
 2517SOL     OW 8449   2.665   5.952   6.620
 2517SOL    HW1 8450   2.688   6.048   6.603
 2517SOL    HW2 8451   2.624   5.912   6.538
 2518SOL     OW 8452   1.944   2.156   0.201
 2518SOL    HW1 8453   1.899   2.067   0.208
 2518SOL    HW2 8454   2.040   2.148   0.227
 2519SOL     OW 8455   5.998   4.288   4.535
 2519SOL    HW1 8456   6.020   4.315   4.441
 2519SOL    HW2 8457   6.082   4.284   4.589
 2520SOL     OW 8458   4.463   5.765   0.998
 2520SOL    HW1 8459   4.457   5.683   1.055
 2520SOL    HW2 8460   4.544   5.759   0.940
 2521SOL     OW 8461   5.695   6.723   5.873
 2521SOL    HW1 8462   5.641   6.806   5.888
 2521SOL    HW2 8463   5.745   6.700   5.956
 2522SOL     OW 8464   3.727   5.476   5.157
 2522SOL    HW1 8465   3.713   5.466   5.058
 2522SOL    HW2 8466   3.683   5.559   5.189
 2523SOL     OW 8467   0.902   2.069   6.766
 2523SOL    HW1 8468   0.914   2.155   6.717
 2523SOL    HW2 8469   0.856   2.003   6.705
 2524SOL     OW 8470   1.910   0.169   4.404
 2524SOL    HW1 8471   1.999   0.211   4.422
 2524SOL    HW2 8472   1.893   0.167   4.306
 2525SOL     OW 8473   3.012   4.985   2.201
 2525SOL    HW1 8474   3.009   4.933   2.116
 2525SOL    HW2 8475   2.996   5.082   2.181
 2526SOL     OW 8476   1.918   3.019   4.954
 2526SOL    HW1 8477   1.925   3.058   5.046
 2526SOL    HW2 8478   2.004   3.030   4.906
 2527SOL     OW 8479   6.549   0.079   3.952
 2527SOL    HW1 8480   6.537   0.152   3.885
 2527SOL    HW2 8481   6.645   0.052   3.956
 2528SOL     OW 8482   5.545   4.894   2.531
 2528SOL    HW1 8483   5.558   4.797   2.510
 2528SOL    HW2 8484   5.540   4.907   2.630
 2529SOL     OW 8485   5.100   5.211   5.006
 2529SOL    HW1 8486   5.179   5.255   5.049
 2529SOL    HW2 8487   5.021   5.216   5.066
 2530SOL     OW 8488   1.179   6.748   3.423
 2530SOL    HW1 8489   1.268   6.763   3.466
 2530SOL    HW2 8490   1.111   6.725   3.493
 2531SOL     OW 8491   5.102   2.741   6.265
 2531SOL    HW1 8492   5.100   2.815   6.198
 2531SOL    HW2 8493   5.168   2.762   6.337
 2532SOL     OW 8494   6.781   5.358   6.916
 2532SOL    HW1 8495   6.877   5.337   6.935
 2532SOL    HW2 8496   6.765   5.357   6.818
 2533SOL     OW 8497   4.985   0.456   4.016
 2533SOL    HW1 8498   5.025   0.513   4.087
 2533SOL    HW2 8499   5.049   0.384   3.991
 2534SOL     OW 8500   6.655   1.084   2.644
 2534SOL    HW1 8501   6.666   0.994   2.601
 2534SOL    HW2 8502   6.722   1.093   2.718
 2535SOL     OW 8503   2.976   1.373   1.455
 2535SOL    HW1 8504   2.985   1.352   1.553
 2535SOL    HW2 8505   2.916   1.306   1.412
 2536SOL     OW 8506   0.787   0.045   2.990
 2536SOL    HW1 8507   0.708   0.084   2.942
 2536SOL    HW2 8508   0.848   0.002   2.923
 2537SOL     OW 8509   2.360   6.212   1.741
 2537SOL    HW1 8510   2.403   6.300   1.717
 2537SOL    HW2 8511   2.267   6.229   1.773
 2538SOL     OW 8512   0.027   5.207   5.449
 2538SOL    HW1 8513   6.956   5.181   5.480
 2538SOL    HW2 8514   0.091   5.201   5.526
 2539SOL     OW 8515   0.805   0.212   5.284
 2539SOL    HW1 8516   0.783   0.173   5.195
 2539SOL    HW2 8517   0.727   0.199   5.346
 2540SOL     OW 8518   5.748   2.692   1.829
 2540SOL    HW1 8519   5.677   2.738   1.882
 2540SOL    HW2 8520   5.756   2.597   1.860
 2541SOL     OW 8521   1.923   0.692   0.357
 2541SOL    HW1 8522   1.853   0.625   0.382
 2541SOL    HW2 8523   1.881   0.782   0.348
 2542SOL     OW 8524   4.037   2.154   3.137
 2542SOL    HW1 8525   4.042   2.066   3.183
 2542SOL    HW2 8526   3.947   2.164   3.094
 2543SOL     OW 8527   5.792   6.573   5.374
 2543SOL    HW1 8528   5.800   6.585   5.473
 2543SOL    HW2 8529   5.748   6.485   5.355
 2544SOL     OW 8530   0.145   0.359   0.229
 2544SOL    HW1 8531   0.097   0.371   0.316
 2544SOL    HW2 8532   0.097   0.291   0.174
 2545SOL     OW 8533   0.888   1.589   0.214
 2545SOL    HW1 8534   0.823   1.604   0.139
 2545SOL    HW2 8535   0.848   1.622   0.299
 2546SOL     OW 8536   5.961   3.145   3.490
 2546SOL    HW1 8537   5.892   3.114   3.424
 2546SOL    HW2 8538   5.957   3.089   3.572
 2547SOL     OW 8539   5.967   3.401   0.673
 2547SOL    HW1 8540   5.938   3.480   0.729
 2547SOL    HW2 8541   5.950   3.421   0.577
 2548SOL     OW 8542   6.034   0.580   5.421
 2548SOL    HW1 8543   5.965   0.622   5.363
 2548SOL    HW2 8544   5.990   0.524   5.491
 2549SOL     OW 8545   2.626   4.092   6.671
 2549SOL    HW1 8546   2.590   4.072   6.580
 2549SOL    HW2 8547   2.724   4.071   6.673
 2550SOL     OW 8548   3.763   0.809   1.217
 2550SOL    HW1 8549   3.790   0.830   1.123
 2550SOL    HW2 8550   3.823   0.739   1.255
 2551SOL     OW 8551   2.876   4.400   1.073
 2551SOL    HW1 8552   2.893   4.391   1.171
 2551SOL    HW2 8553   2.814   4.327   1.043
 2552SOL     OW 8554   3.217   5.524   1.229
 2552SOL    HW1 8555   3.300   5.487   1.271
 2552SOL    HW2 8556   3.137   5.473   1.261
 2553SOL     OW 8557   4.332   2.040   1.575
 2553SOL    HW1 8558   4.233   2.049   1.581
 2553SOL    HW2 8559   4.372   2.127   1.546
 2554SOL     OW 8560   1.405   5.940   0.744
 2554SOL    HW1 8561   1.486   5.964   0.797
 2554SOL    HW2 8562   1.323   5.970   0.792
 2555SOL     OW 8563   0.670   5.775   4.238
 2555SOL    HW1 8564   0.625   5.751   4.324
 2555SOL    HW2 8565   0.611   5.753   4.161
 2556SOL     OW 8566   5.540   0.818   7.003
 2556SOL    HW1 8567   5.578   0.749   6.941
 2556SOL    HW2 8568   5.608   0.842   0.052
 2557SOL     OW 8569   2.902   1.133   0.403
 2557SOL    HW1 8570   2.858   1.075   0.471
 2557SOL    HW2 8571   2.862   1.224   0.406
 2558SOL     OW 8572   5.915   2.875   1.584
 2558SOL    HW1 8573   5.948   2.856   1.492
 2558SOL    HW2 8574   5.833   2.821   1.603
 2559SOL     OW 8575   0.196   5.916   3.310
 2559SOL    HW1 8576   0.105   5.958   3.310
 2559SOL    HW2 8577   0.202   5.851   3.386
 2560SOL     OW 8578   4.118   2.871   1.709
 2560SOL    HW1 8579   4.019   2.874   1.719
 2560SOL    HW2 8580   4.157   2.961   1.729
 2561SOL     OW 8581   3.580   1.009   4.713
 2561SOL    HW1 8582   3.519   0.929   4.710
 2561SOL    HW2 8583   3.655   0.996   4.648
 2562SOL     OW 8584   1.531   6.436   4.910
 2562SOL    HW1 8585   1.628   6.410   4.911
 2562SOL    HW2 8586   1.485   6.391   4.987
 2563SOL     OW 8587   4.584   2.153   0.210
 2563SOL    HW1 8588   4.673   2.188   0.180
 2563SOL    HW2 8589   4.562   2.071   0.157
 2564SOL     OW 8590   1.744   1.108   1.568
 2564SOL    HW1 8591   1.743   1.077   1.663
 2564SOL    HW2 8592   1.830   1.155   1.549
 2565SOL     OW 8593   6.303   0.337   0.732
 2565SOL    HW1 8594   6.401   0.349   0.712
 2565SOL    HW2 8595   6.265   0.272   0.667
 2566SOL     OW 8596   2.815   1.301   0.886
 2566SOL    HW1 8597   2.737   1.331   0.832
 2566SOL    HW2 8598   2.852   1.380   0.936
 2567SOL     OW 8599   1.941   0.858   6.257
 2567SOL    HW1 8600   1.973   0.764   6.268
 2567SOL    HW2 8601   1.848   0.866   6.292
 2568SOL     OW 8602   3.172   6.351   6.946
 2568SOL    HW1 8603   3.173   6.302   0.013
 2568SOL    HW2 8604   3.108   6.428   6.952
 2569SOL     OW 8605   2.847   6.448   6.703
 2569SOL    HW1 8606   2.757   6.483   6.727
 2569SOL    HW2 8607   2.912   6.523   6.695
 2570SOL     OW 8608   0.141   0.115   3.578
 2570SOL    HW1 8609   0.129   0.144   3.673
 2570SOL    HW2 8610   0.095   0.181   3.518
 2571SOL     OW 8611   3.219   3.511   2.381
 2571SOL    HW1 8612   3.145   3.472   2.435
 2571SOL    HW2 8613   3.182   3.583   2.322
 2572SOL     OW 8614   2.861   6.675   2.510
 2572SOL    HW1 8615   2.827   6.612   2.440
 2572SOL    HW2 8616   2.958   6.657   2.527
 2573SOL     OW 8617   5.931   0.425   2.612
 2573SOL    HW1 8618   6.004   0.443   2.677
 2573SOL    HW2 8619   5.887   0.512   2.587
 2574SOL     OW 8620   0.854   4.477   2.140
 2574SOL    HW1 8621   0.832   4.543   2.211
 2574SOL    HW2 8622   0.784   4.406   2.137
 2575SOL     OW 8623   4.355   3.597   5.217
 2575SOL    HW1 8624   4.312   3.683   5.188
 2575SOL    HW2 8625   4.450   3.596   5.188
 2576SOL     OW 8626   0.985   0.504   3.467
 2576SOL    HW1 8627   0.932   0.547   3.540
 2576SOL    HW2 8628   1.043   0.574   3.423
 2577SOL     OW 8629   1.689   4.924   0.187
 2577SOL    HW1 8630   1.769   4.936   0.246
 2577SOL    HW2 8631   1.699   4.982   0.106
 2578SOL     OW 8632   5.303   1.179   5.140
 2578SOL    HW1 8633   5.397   1.149   5.154
 2578SOL    HW2 8634   5.243   1.099   5.138
 2579SOL     OW 8635   0.033   2.233   6.274
 2579SOL    HW1 8636   0.059   2.175   6.196
 2579SOL    HW2 8637   7.015   2.319   6.240
 2580SOL     OW 8638   1.627   2.480   5.442
 2580SOL    HW1 8639   1.681   2.557   5.477
 2580SOL    HW2 8640   1.576   2.509   5.361
 2581SOL     OW 8641   4.812   6.759   4.289
 2581SOL    HW1 8642   4.765   6.763   4.377
 2581SOL    HW2 8643   4.834   6.664   4.267
 2582SOL     OW 8644   6.840   4.633   2.453
 2582SOL    HW1 8645   6.873   4.555   2.400
 2582SOL    HW2 8646   6.906   4.708   2.447
 2583SOL     OW 8647   2.726   0.612   6.858
 2583SOL    HW1 8648   2.729   0.609   6.958
 2583SOL    HW2 8649   2.799   0.672   6.825
 2584SOL     OW 8650   3.215   0.761   3.743
 2584SOL    HW1 8651   3.285   0.832   3.754
 2584SOL    HW2 8652   3.259   0.672   3.733
 2585SOL     OW 8653   3.897   0.598   3.144
 2585SOL    HW1 8654   3.921   0.508   3.107
 2585SOL    HW2 8655   3.798   0.604   3.154
 2586SOL     OW 8656   1.902   2.006   4.400
 2586SOL    HW1 8657   1.891   1.906   4.396
 2586SOL    HW2 8658   1.870   2.046   4.314
 2587SOL     OW 8659   6.740   4.662   3.453
 2587SOL    HW1 8660   6.672   4.659   3.380
 2587SOL    HW2 8661   6.741   4.754   3.493
 2588SOL     OW 8662   2.960   0.510   2.440
 2588SOL    HW1 8663   2.904   0.569   2.499
 2588SOL    HW2 8664   2.920   0.419   2.437
 2589SOL     OW 8665   4.756   6.726   2.413
 2589SOL    HW1 8666   4.701   6.662   2.359
 2589SOL    HW2 8667   4.705   6.812   2.424
 2590SOL     OW 8668   4.211   6.412   3.593
 2590SOL    HW1 8669   4.212   6.332   3.534
 2590SOL    HW2 8670   4.292   6.469   3.573
 2591SOL     OW 8671   5.277   0.799   0.939
 2591SOL    HW1 8672   5.249   0.704   0.932
 2591SOL    HW2 8673   5.253   0.847   0.855
 2592SOL     OW 8674   2.713   5.707   2.220
 2592SOL    HW1 8675   2.675   5.714   2.312
 2592SOL    HW2 8676   2.668   5.633   2.170
 2593SOL     OW 8677   2.542   0.013   4.350
 2593SOL    HW1 8678   2.629   0.061   4.345
 2593SOL    HW2 8679   2.530   6.976   4.268
 2594SOL     OW 8680   1.688   5.628   6.515
 2594SOL    HW1 8681   1.760   5.581   6.463
 2594SOL    HW2 8682   1.730   5.693   6.578
 2595SOL     OW 8683   6.998   3.393   5.229
 2595SOL    HW1 8684   6.954   3.305   5.212
 2595SOL    HW2 8685   6.998   3.447   5.145
 2596SOL     OW 8686   4.350   1.335   0.643
 2596SOL    HW1 8687   4.347   1.276   0.563
 2596SOL    HW2 8688   4.281   1.407   0.634
 2597SOL     OW 8689   2.084   2.008   6.174
 2597SOL    HW1 8690   2.057   1.913   6.194
 2597SOL    HW2 8691   2.090   2.020   6.075
 2598SOL     OW 8692   6.409   1.386   3.148
 2598SOL    HW1 8693   6.403   1.423   3.055
 2598SOL    HW2 8694   6.467   1.304   3.147
 2599SOL     OW 8695   5.048   6.002   5.750
 2599SOL    HW1 8696   5.080   5.931   5.687
 2599SOL    HW2 8697   5.113   6.078   5.751
 2600SOL     OW 8698   6.939   2.940   5.012
 2600SOL    HW1 8699   6.948   2.866   4.945
 2600SOL    HW2 8700   6.876   2.911   5.084
 2601SOL     OW 8701   4.181   4.205   5.295
 2601SOL    HW1 8702   4.202   4.288   5.244
 2601SOL    HW2 8703   4.082   4.187   5.291
 2602SOL     OW 8704   6.212   0.169   0.486
 2602SOL    HW1 8705   6.232   0.153   0.389
 2602SOL    HW2 8706   6.210   0.081   0.535
 2603SOL     OW 8707   1.811   1.520   6.899
 2603SOL    HW1 8708   1.721   1.540   6.861
 2603SOL    HW2 8709   1.880   1.524   6.827
 2604SOL     OW 8710   5.886   1.768   0.565
 2604SOL    HW1 8711   5.855   1.698   0.629
 2604SOL    HW2 8712   5.937   1.725   0.491
 2605SOL     OW 8713   5.199   2.121   5.474
 2605SOL    HW1 8714   5.177   2.082   5.563
 2605SOL    HW2 8715   5.298   2.133   5.466
 2606SOL     OW 8716   6.048   4.276   1.272
 2606SOL    HW1 8717   6.097   4.194   1.303
 2606SOL    HW2 8718   6.112   4.339   1.228
 2607SOL     OW 8719   0.330   0.673   3.457
 2607SOL    HW1 8720   0.424   0.693   3.483
 2607SOL    HW2 8721   0.320   0.575   3.440
 2608SOL     OW 8722   4.371   0.810   0.211
 2608SOL    HW1 8723   4.470   0.823   0.210
 2608SOL    HW2 8724   4.333   0.846   0.296
 2609SOL     OW 8725   1.036   4.338   3.352
 2609SOL    HW1 8726   1.135   4.345   3.356
 2609SOL    HW2 8727   0.995   4.400   3.419
 2610SOL     OW 8728   5.907   5.068   4.667
 2610SOL    HW1 8729   5.822   5.111   4.697
 2610SOL    HW2 8730   5.893   4.969   4.659
 2611SOL     OW 8731   3.147   6.274   2.009
 2611SOL    HW1 8732   3.081   6.209   2.046
 2611SOL    HW2 8733   3.099   6.349   1.965
 2612SOL     OW 8734   0.582   6.793   4.121
 2612SOL    HW1 8735   0.654   6.740   4.077
 2612SOL    HW2 8736   0.508   6.732   4.151
 2613SOL     OW 8737   4.344   1.685   6.797
 2613SOL    HW1 8738   4.337   1.737   6.711
 2613SOL    HW2 8739   4.304   1.594   6.784
 2614SOL     OW 8740   6.443   6.685   6.790
 2614SOL    HW1 8741   6.379   6.731   6.729
 2614SOL    HW2 8742   6.391   6.637   6.862
 2615SOL     OW 8743   0.345   4.414   1.409
 2615SOL    HW1 8744   0.436   4.450   1.431
 2615SOL    HW2 8745   0.344   4.315   1.424
 2616SOL     OW 8746   3.855   3.589   1.661
 2616SOL    HW1 8747   3.808   3.556   1.742
 2616SOL    HW2 8748   3.899   3.677   1.681
 2617SOL     OW 8749   2.784   6.726   0.821
 2617SOL    HW1 8750   2.862   6.742   0.760
 2617SOL    HW2 8751   2.795   6.781   0.904
 2618SOL     OW 8752   1.450   5.719   0.277
 2618SOL    HW1 8753   1.422   5.803   0.232
 2618SOL    HW2 8754   1.374   5.683   0.331
 2619SOL     OW 8755   6.197   1.151   2.515
 2619SOL    HW1 8756   6.152   1.104   2.440
 2619SOL    HW2 8757   6.224   1.085   2.585
 2620SOL     OW 8758   1.745   5.866   3.787
 2620SOL    HW1 8759   1.753   5.834   3.881
 2620SOL    HW2 8760   1.695   5.952   3.785
 2621SOL     OW 8761   1.655   5.965   4.407
 2621SOL    HW1 8762   1.580   5.984   4.471
 2621SOL    HW2 8763   1.638   6.012   4.321
 2622SOL     OW 8764   2.167   2.713   4.067
 2622SOL    HW1 8765   2.250   2.688   4.117
 2622SOL    HW2 8766   2.151   2.811   4.077
 2623SOL     OW 8767   3.045   7.018   5.524
 2623SOL    HW1 8768   2.997   0.019   5.439
 2623SOL    HW2 8769   3.007   0.052   5.598
 2624SOL     OW 8770   4.436   2.130   4.554
 2624SOL    HW1 8771   4.453   2.150   4.651
 2624SOL    HW2 8772   4.394   2.209   4.510
 2625SOL     OW 8773   1.946   6.986   5.699
 2625SOL    HW1 8774   1.849   6.963   5.693
 2625SOL    HW2 8775   1.974   6.989   5.795
 2626SOL     OW 8776   2.979   6.979   3.545
 2626SOL    HW1 8777   2.899   6.959   3.601
 2626SOL    HW2 8778   3.041   0.018   3.596
 2627SOL     OW 8779   1.029   0.365   4.662
 2627SOL    HW1 8780   1.033   0.464   4.651
 2627SOL    HW2 8781   0.945   0.341   4.711
 2628SOL     OW 8782   4.713   5.024   0.067
 2628SOL    HW1 8783   4.616   5.000   0.079
 2628SOL    HW2 8784   4.763   4.944   0.033
 2629SOL     OW 8785   3.107   4.112   2.013
 2629SOL    HW1 8786   3.123   4.187   2.077
 2629SOL    HW2 8787   3.030   4.136   1.953
 2630SOL     OW 8788   3.701   1.697   2.417
 2630SOL    HW1 8789   3.707   1.714   2.515
 2630SOL    HW2 8790   3.605   1.692   2.391
 2631SOL     OW 8791   3.283   6.600   3.896
 2631SOL    HW1 8792   3.363   6.653   3.924
 2631SOL    HW2 8793   3.298   6.503   3.917
 2632SOL     OW 8794   5.047   1.173   0.823
 2632SOL    HW1 8795   5.083   1.262   0.849
 2632SOL    HW2 8796   4.986   1.182   0.744
 2633SOL     OW 8797   0.486   2.282   0.323
 2633SOL    HW1 8798   0.541   2.221   0.381
 2633SOL    HW2 8799   0.417   2.328   0.378
 2634SOL     OW 8800   2.646   5.286   0.538
 2634SOL    HW1 8801   2.700   5.214   0.582
 2634SOL    HW2 8802   2.558   5.294   0.584
 2635SOL     OW 8803   6.487   4.185   3.384
 2635SOL    HW1 8804   6.485   4.193   3.484
 2635SOL    HW2 8805   6.393   4.190   3.349
 2636SOL     OW 8806   5.541   5.153   5.685
 2636SOL    HW1 8807   5.478   5.086   5.646
 2636SOL    HW2 8808   5.611   5.176   5.616
 2637SOL     OW 8809   5.119   5.538   2.197
 2637SOL    HW1 8810   5.078   5.464   2.143
 2637SOL    HW2 8811   5.215   5.515   2.216
 2638SOL     OW 8812   4.838   5.755   0.371
 2638SOL    HW1 8813   4.903   5.777   0.444
 2638SOL    HW2 8814   4.803   5.840   0.331
 2639SOL     OW 8815   6.297   0.764   0.146
 2639SOL    HW1 8816   6.318   0.821   0.225
 2639SOL    HW2 8817   6.307   0.817   0.062
 2640SOL     OW 8818   6.619   6.265   0.859
 2640SOL    HW1 8819   6.609   6.275   0.760
 2640SOL    HW2 8820   6.569   6.338   0.905
 2641SOL     OW 8821   6.879   5.717   1.376
 2641SOL    HW1 8822   6.812   5.746   1.308
 2641SOL    HW2 8823   6.954   5.668   1.331
 2642SOL     OW 8824   6.794   0.028   4.033
 2642SOL    HW1 8825   6.866   6.996   3.987
 2642SOL    HW2 8826   6.836   0.100   4.088
 2643SOL     OW 8827   1.735   0.694   1.892
 2643SOL    HW1 8828   1.704   0.686   1.987
 2643SOL    HW2 8829   1.743   0.603   1.852
 2644SOL     OW 8830   6.085   6.468   4.934
 2644SOL    HW1 8831   6.122   6.375   4.941
 2644SOL    HW2 8832   6.091   6.499   4.840
 2645SOL     OW 8833   5.619   6.104   6.455
 2645SOL    HW1 8834   5.522   6.082   6.441
 2645SOL    HW2 8835   5.655   6.147   6.372
 2646SOL     OW 8836   5.692   5.517   5.718
 2646SOL    HW1 8837   5.743   5.514   5.804
 2646SOL    HW2 8838   5.679   5.423   5.684
 2647SOL     OW 8839   3.154   4.432   0.433
 2647SOL    HW1 8840   3.202   4.449   0.519
 2647SOL    HW2 8841   3.104   4.345   0.439
 2648SOL     OW 8842   4.640   1.345   3.586
 2648SOL    HW1 8843   4.730   1.387   3.595
 2648SOL    HW2 8844   4.649   1.246   3.576
 2649SOL     OW 8845   2.834   3.918   5.234
 2649SOL    HW1 8846   2.860   3.856   5.160
 2649SOL    HW2 8847   2.739   3.900   5.260
 2650SOL     OW 8848   7.005   0.038   2.062
 2650SOL    HW1 8849   7.015   0.089   2.147
 2650SOL    HW2 8850   6.910   0.007   2.053
 2651SOL     OW 8851   1.677   0.111   2.498
 2651SOL    HW1 8852   1.718   0.199   2.520
 2651SOL    HW2 8853   1.735   0.062   2.433
 2652SOL     OW 8854   3.350   2.367   1.432
 2652SOL    HW1 8855   3.257   2.346   1.463
 2652SOL    HW2 8856   3.413   2.364   1.509
 2653SOL     OW 8857   5.616   6.948   1.406
 2653SOL    HW1 8858   5.548   6.928   1.476
 2653SOL    HW2 8859   5.571   6.977   1.322
 2654SOL     OW 8860   0.160   3.398   5.726
 2654SOL    HW1 8861   0.180   3.362   5.817
 2654SOL    HW2 8862   0.195   3.491   5.718
 2655SOL     OW 8863   5.526   4.773   3.904
 2655SOL    HW1 8864   5.453   4.836   3.876
 2655SOL    HW2 8865   5.570   4.735   3.823
 2656SOL     OW 8866   5.984   3.416   5.238
 2656SOL    HW1 8867   5.894   3.439   5.273
 2656SOL    HW2 8868   6.042   3.498   5.236
 2657SOL     OW 8869   3.966   2.048   5.439
 2657SOL    HW1 8870   3.909   2.072   5.361
 2657SOL    HW2 8871   3.936   2.098   5.520
 2658SOL     OW 8872   0.102   4.292   5.583
 2658SOL    HW1 8873   0.133   4.298   5.678
 2658SOL    HW2 8874   0.131   4.204   5.545
 2659SOL     OW 8875   6.175   0.878   3.535
 2659SOL    HW1 8876   6.174   0.946   3.462
 2659SOL    HW2 8877   6.255   0.819   3.525
 2660SOL     OW 8878   0.858   1.800   3.792
 2660SOL    HW1 8879   0.807   1.736   3.735
 2660SOL    HW2 8880   0.949   1.814   3.754
 2661SOL     OW 8881   3.470   6.669   3.404
 2661SOL    HW1 8882   3.402   6.699   3.471
 2661SOL    HW2 8883   3.554   6.643   3.451
 2662SOL     OW 8884   4.060   1.105   4.266
 2662SOL    HW1 8885   4.093   1.052   4.188
 2662SOL    HW2 8886   4.119   1.087   4.345
 2663SOL     OW 8887   0.965   4.173   3.160
 2663SOL    HW1 8888   1.041   4.109   3.150
 2663SOL    HW2 8889   0.973   4.223   3.246
 2664SOL     OW 8890   4.832   4.212   1.904
 2664SOL    HW1 8891   4.738   4.236   1.928
 2664SOL    HW2 8892   4.869   4.150   1.974
 2665SOL     OW 8893   3.945   0.888   5.331
 2665SOL    HW1 8894   3.881   0.812   5.344
 2665SOL    HW2 8895   3.910   0.949   5.260
 2666SOL     OW 8896   4.816   6.312   1.915
 2666SOL    HW1 8897   4.878   6.373   1.965
 2666SOL    HW2 8898   4.793   6.233   1.972
 2667SOL     OW 8899   2.225   4.844   2.596
 2667SOL    HW1 8900   2.171   4.911   2.647
 2667SOL    HW2 8901   2.188   4.752   2.612
 2668SOL     OW 8902   0.129   2.787   5.282
 2668SOL    HW1 8903   0.188   2.818   5.208
 2668SOL    HW2 8904   0.097   2.695   5.262
 2669SOL     OW 8905   4.163   5.612   4.764
 2669SOL    HW1 8906   4.184   5.674   4.689
 2669SOL    HW2 8907   4.137   5.665   4.845
 2670SOL     OW 8908   2.206   6.681   4.464
 2670SOL    HW1 8909   2.202   6.767   4.414
 2670SOL    HW2 8910   2.150   6.613   4.417
 2671SOL     OW 8911   3.163   3.596   6.666
 2671SOL    HW1 8912   3.102   3.673   6.645
 2671SOL    HW2 8913   3.108   3.518   6.695
 2672SOL     OW 8914   0.974   4.572   0.732
 2672SOL    HW1 8915   1.003   4.500   0.796
 2672SOL    HW2 8916   0.973   4.660   0.780
 2673SOL     OW 8917   4.213   2.310   3.022
 2673SOL    HW1 8918   4.160   2.247   3.079
 2673SOL    HW2 8919   4.272   2.366   3.080
 2674SOL     OW 8920   4.763   5.917   5.184
 2674SOL    HW1 8921   4.811   5.904   5.098
 2674SOL    HW2 8922   4.667   5.890   5.173
 2675SOL     OW 8923   0.115   5.234   6.006
 2675SOL    HW1 8924   0.169   5.256   6.087
 2675SOL    HW2 8925   0.107   5.316   5.948
 2676SOL     OW 8926   4.696   6.930   1.821
 2676SOL    HW1 8927   4.727   7.020   1.852
 2676SOL    HW2 8928   4.687   6.868   1.900
 2677SOL     OW 8929   2.419   4.758   1.977
 2677SOL    HW1 8930   2.459   4.692   2.040
 2677SOL    HW2 8931   2.336   4.720   1.936
 2678SOL     OW 8932   0.927   6.380   0.018
 2678SOL    HW1 8933   0.925   6.346   6.944
 2678SOL    HW2 8934   0.953   6.477   0.018
 2679SOL     OW 8935   2.284   5.144   1.188
 2679SOL    HW1 8936   2.317   5.212   1.253
 2679SOL    HW2 8937   2.273   5.187   1.098
 2680SOL     OW 8938   6.708   2.341   0.899
 2680SOL    HW1 8939   6.765   2.401   0.954
 2680SOL    HW2 8940   6.767   2.282   0.843
 2681SOL     OW 8941   1.785   2.185   1.380
 2681SOL    HW1 8942   1.809   2.142   1.293
 2681SOL    HW2 8943   1.794   2.118   1.454
 2682SOL     OW 8944   0.695   2.897   3.616
 2682SOL    HW1 8945   0.637   2.977   3.601
 2682SOL    HW2 8946   0.646   2.815   3.586
 2683SOL     OW 8947   1.894   6.964   0.951
 2683SOL    HW1 8948   1.849   6.954   1.040
 2683SOL    HW2 8949   1.841   6.917   0.881
 2684SOL     OW 8950   2.897   5.047   2.989
 2684SOL    HW1 8951   2.803   5.013   3.001
 2684SOL    HW2 8952   2.913   5.066   2.892
 2685SOL     OW 8953   5.005   4.304   5.684
 2685SOL    HW1 8954   5.069   4.377   5.709
 2685SOL    HW2 8955   5.056   4.220   5.666
 2686SOL     OW 8956   1.653   3.658   4.426
 2686SOL    HW1 8957   1.610   3.714   4.497
 2686SOL    HW2 8958   1.711   3.589   4.469
 2687SOL     OW 8959   4.452   5.206   2.964
 2687SOL    HW1 8960   4.390   5.251   3.029
 2687SOL    HW2 8961   4.527   5.268   2.943
 2688SOL     OW 8962   3.230   4.489   5.414
 2688SOL    HW1 8963   3.180   4.437   5.345
 2688SOL    HW2 8964   3.327   4.492   5.389
 2689SOL     OW 8965   6.013   1.443   3.962
 2689SOL    HW1 8966   6.077   1.415   4.035
 2689SOL    HW2 8967   6.005   1.542   3.961
 2690SOL     OW 8968   3.161   4.031   3.620
 2690SOL    HW1 8969   3.163   4.024   3.520
 2690SOL    HW2 8970   3.100   4.106   3.647
 2691SOL     OW 8971   0.903   6.197   0.882
 2691SOL    HW1 8972   0.825   6.198   0.820
 2691SOL    HW2 8973   0.874   6.166   0.973
 2692SOL     OW 8974   0.210   4.226   4.106
 2692SOL    HW1 8975   0.134   4.162   4.103
 2692SOL    HW2 8976   0.296   4.178   4.088
 2693SOL     OW 8977   1.943   3.857   2.586
 2693SOL    HW1 8978   1.926   3.768   2.545
 2693SOL    HW2 8979   2.011   3.906   2.532
 2694SOL     OW 8980   2.099   1.399   2.580
 2694SOL    HW1 8981   2.111   1.413   2.678
 2694SOL    HW2 8982   2.007   1.425   2.553
 2695SOL     OW 8983   3.845   2.053   1.903
 2695SOL    HW1 8984   3.770   2.110   1.938
 2695SOL    HW2 8985   3.930   2.076   1.950
 2696SOL     OW 8986   3.018   3.475   6.368
 2696SOL    HW1 8987   2.934   3.476   6.422
 2696SOL    HW2 8988   2.996   3.458   6.272
 2697SOL     OW 8989   2.135   0.917   5.053
 2697SOL    HW1 8990   2.199   0.949   4.983
 2697SOL    HW2 8991   2.068   0.856   5.010
 2698SOL     OW 8992   1.481   1.461   0.102
 2698SOL    HW1 8993   1.388   1.428   0.121
 2698SOL    HW2 8994   1.522   1.407   0.029
 2699SOL     OW 8995   1.904   4.464   3.588
 2699SOL    HW1 8996   1.956   4.388   3.627
 2699SOL    HW2 8997   1.806   4.447   3.598
 2700SOL     OW 8998   2.018   4.522   3.101
 2700SOL    HW1 8999   1.985   4.613   3.126
 2700SOL    HW2 9000   2.013   4.462   3.181
 2701SOL     OW 9001   1.429   0.642   5.329
 2701SOL    HW1 9002   1.471   0.730   5.352
 2701SOL    HW2 9003   1.389   0.646   5.238
 2702SOL     OW 9004   5.806   5.817   2.262
 2702SOL    HW1 9005   5.784   5.913   2.242
 2702SOL    HW2 9006   5.722   5.764   2.268
 2703SOL     OW 9007   1.949   2.791   2.308
 2703SOL    HW1 9008   2.016   2.855   2.271
 2703SOL    HW2 9009   1.987   2.699   2.308
 2704SOL     OW 9010   0.628   6.580   0.300
 2704SOL    HW1 9011   0.710   6.544   0.345
 2704SOL    HW2 9012   0.547   6.531   0.334
 2705SOL     OW 9013   0.276   2.616   2.999
 2705SOL    HW1 9014   0.273   2.685   3.071
 2705SOL    HW2 9015   0.344   2.642   2.931
 2706SOL     OW 9016   6.466   2.453   3.667
 2706SOL    HW1 9017   6.402   2.496   3.602
 2706SOL    HW2 9018   6.539   2.408   3.616
 2707SOL     OW 9019   3.609   0.519   0.397
 2707SOL    HW1 9020   3.568   0.610   0.401
 2707SOL    HW2 9021   3.707   0.528   0.381
 2708SOL     OW 9022   1.381   4.845   6.573
 2708SOL    HW1 9023   1.425   4.895   6.648
 2708SOL    HW2 9024   1.450   4.795   6.521
 2709SOL     OW 9025   3.749   0.354   2.137
 2709SOL    HW1 9026   3.786   0.341   2.045
 2709SOL    HW2 9027   3.753   0.267   2.187
 2710SOL     OW 9028   6.235   3.863   3.079
 2710SOL    HW1 9029   6.206   3.867   3.175
 2710SOL    HW2 9030   6.276   3.950   3.053
 2711SOL     OW 9031   0.288   6.730   1.804
 2711SOL    HW1 9032   0.248   6.821   1.807
 2711SOL    HW2 9033   0.220   6.663   1.836
 2712SOL     OW 9034   3.444   5.589   3.072
 2712SOL    HW1 9035   3.394   5.519   3.022
 2712SOL    HW2 9036   3.496   5.547   3.146
 2713SOL     OW 9037   2.477   2.369   5.523
 2713SOL    HW1 9038   2.459   2.322   5.437
 2713SOL    HW2 9039   2.423   2.453   5.527
 2714SOL     OW 9040   5.803   0.864   6.766
 2714SOL    HW1 9041   5.892   0.821   6.754
 2714SOL    HW2 9042   5.733   0.793   6.774
 2715SOL     OW 9043   5.870   0.080   6.553
 2715SOL    HW1 9044   5.826   0.063   6.465
 2715SOL    HW2 9045   5.894   0.177   6.560
 2716SOL     OW 9046   6.284   6.585   1.929
 2716SOL    HW1 9047   6.260   6.672   1.886
 2716SOL    HW2 9048   6.373   6.555   1.895
 2717SOL     OW 9049   0.487   6.766   3.084
 2717SOL    HW1 9050   0.490   6.840   3.017
 2717SOL    HW2 9051   0.406   6.709   3.067
 2718SOL     OW 9052   6.647   3.779   2.843
 2718SOL    HW1 9053   6.675   3.683   2.832
 2718SOL    HW2 9054   6.558   3.793   2.799
 2719SOL     OW 9055   4.927   4.390   3.278
 2719SOL    HW1 9056   4.933   4.441   3.193
 2719SOL    HW2 9057   4.979   4.437   3.349
 2720SOL     OW 9058   0.117   6.723   3.863
 2720SOL    HW1 9059   0.102   6.653   3.932
 2720SOL    HW2 9060   0.215   6.729   3.842
 2721SOL     OW 9061   4.848   5.961   2.791
 2721SOL    HW1 9062   4.766   6.015   2.807
 2721SOL    HW2 9063   4.850   5.932   2.695
 2722SOL     OW 9064   0.467   6.025   2.479
 2722SOL    HW1 9065   0.415   5.953   2.525
 2722SOL    HW2 9066   0.547   5.986   2.434
 2723SOL     OW 9067   2.705   1.998   4.623
 2723SOL    HW1 9068   2.747   2.089   4.625
 2723SOL    HW2 9069   2.635   1.993   4.695
 2724SOL     OW 9070   4.822   5.978   5.436
 2724SOL    HW1 9071   4.922   5.968   5.442
 2724SOL    HW2 9072   4.793   5.964   5.341
 2725SOL     OW 9073   1.850   5.590   2.486
 2725SOL    HW1 9074   1.833   5.640   2.401
 2725SOL    HW2 9075   1.937   5.541   2.479
 2726SOL     OW 9076   4.286   5.763   2.824
 2726SOL    HW1 9077   4.334   5.679   2.846
 2726SOL    HW2 9078   4.349   5.828   2.781
 2727SOL     OW 9079   2.016   5.437   3.762
 2727SOL    HW1 9080   2.098   5.386   3.788
 2727SOL    HW2 9081   1.949   5.432   3.836
 2728SOL     OW 9082   2.075   6.833   5.016
 2728SOL    HW1 9083   2.160   6.823   4.965
 2728SOL    HW2 9084   2.042   6.743   5.045
 2729SOL     OW 9085   6.700   3.906   2.221
 2729SOL    HW1 9086   6.737   3.818   2.190
 2729SOL    HW2 9087   6.763   3.948   2.287
 2730SOL     OW 9088   1.497   3.080   1.705
 2730SOL    HW1 9089   1.471   3.033   1.621
 2730SOL    HW2 9090   1.545   3.017   1.765
 2731SOL     OW 9091   1.990   3.424   6.884
 2731SOL    HW1 9092   1.985   3.514   6.841
 2731SOL    HW2 9093   1.941   3.358   6.827
 2732SOL     OW 9094   5.823   3.461   4.674
 2732SOL    HW1 9095   5.762   3.439   4.751
 2732SOL    HW2 9096   5.774   3.520   4.610
 2733SOL     OW 9097   1.796   0.405   6.935
 2733SOL    HW1 9098   1.761   0.356   6.855
 2733SOL    HW2 9099   1.792   0.503   6.917
 2734SOL     OW 9100   2.210   0.133   4.205
 2734SOL    HW1 9101   2.267   0.209   4.237
 2734SOL    HW2 9102   2.195   0.142   4.107
 2735SOL     OW 9103   1.342   5.771   1.373
 2735SOL    HW1 9104   1.323   5.676   1.346
 2735SOL    HW2 9105   1.404   5.813   1.307
 2736SOL     OW 9106   4.554   0.675   6.878
 2736SOL    HW1 9107   4.590   0.583   6.862
 2736SOL    HW2 9108   4.630   0.741   6.879
 2737SOL     OW 9109   4.294   3.904   5.563
 2737SOL    HW1 9110   4.196   3.903   5.543
 2737SOL    HW2 9111   4.332   3.994   5.539
 2738SOL     OW 9112   0.468   3.795   5.231
 2738SOL    HW1 9113   0.372   3.773   5.209
 2738SOL    HW2 9114   0.472   3.886   5.273
 2739SOL     OW 9115   3.995   3.800   6.559
 2739SOL    HW1 9116   4.090   3.830   6.564
 2739SOL    HW2 9117   3.949   3.844   6.482
 2740SOL     OW 9118   6.234   2.862   4.649
 2740SOL    HW1 9119   6.321   2.883   4.604
 2740SOL    HW2 9120   6.216   2.930   4.720
 2741SOL     OW 9121   2.066   3.194   5.944
 2741SOL    HW1 9122   1.993   3.126   5.936
 2741SOL    HW2 9123   2.150   3.158   5.905
 2742SOL     OW 9124   2.527   5.664   5.137
 2742SOL    HW1 9125   2.527   5.690   5.234
 2742SOL    HW2 9126   2.493   5.571   5.128
 2743SOL     OW 9127   5.406   3.654   6.221
 2743SOL    HW1 9128   5.462   3.575   6.246
 2743SOL    HW2 9129   5.343   3.674   6.296
 2744SOL     OW 9130   5.064   6.586   1.439
 2744SOL    HW1 9131   5.137   6.518   1.451
 2744SOL    HW2 9132   5.062   6.617   1.344
 2745SOL     OW 9133   3.230   5.384   3.133
 2745SOL    HW1 9134   3.275   5.407   3.219
 2745SOL    HW2 9135   3.144   5.436   3.126
 2746SOL     OW 9136   0.947   2.505   6.804
 2746SOL    HW1 9137   0.907   2.440   6.868
 2746SOL    HW2 9138   1.045   2.488   6.796
 2747SOL     OW 9139   4.889   6.481   3.630
 2747SOL    HW1 9140   4.855   6.462   3.722
 2747SOL    HW2 9141   4.861   6.408   3.568
 2748SOL     OW 9142   5.440   1.012   4.654
 2748SOL    HW1 9143   5.439   0.995   4.555
 2748SOL    HW2 9144   5.366   1.075   4.678
 2749SOL     OW 9145   5.685   5.127   2.855
 2749SOL    HW1 9146   5.615   5.059   2.834
 2749SOL    HW2 9147   5.772   5.081   2.873
 2750SOL     OW 9148   0.680   0.422   0.384
 2750SOL    HW1 9149   0.779   0.408   0.379
 2750SOL    HW2 9150   0.651   0.421   0.480
 2751SOL     OW 9151   1.414   0.000   6.968
 2751SOL    HW1 9152   1.498   0.031   7.012
 2751SOL    HW2 9153   1.372   6.948   0.002
 2752SOL     OW 9154   0.170   6.697   6.539
 2752SOL    HW1 9155   0.073   6.681   6.523
 2752SOL    HW2 9156   0.220   6.693   6.452
 2753SOL     OW 9157   3.546   5.369   4.309
 2753SOL    HW1 9158   3.613   5.298   4.290
 2753SOL    HW2 9159   3.537   5.381   4.408
 2754SOL     OW 9160   1.261   5.055   3.953
 2754SOL    HW1 9161   1.198   5.070   4.028
 2754SOL    HW2 9162   1.350   5.097   3.975
 2755SOL     OW 9163   4.496   6.744   2.697
 2755SOL    HW1 9164   4.583   6.793   2.693
 2755SOL    HW2 9165   4.510   6.648   2.672
 2756SOL     OW 9166   0.150   3.023   4.727
 2756SOL    HW1 9167   0.147   3.045   4.630
 2756SOL    HW2 9168   0.235   2.976   4.748
 2757SOL     OW 9169   5.076   3.806   5.668
 2757SOL    HW1 9170   5.056   3.746   5.590
 2757SOL    HW2 9171   4.998   3.867   5.684
 2758SOL     OW 9172   6.759   6.852   1.436
 2758SOL    HW1 9173   6.744   6.868   1.534
 2758SOL    HW2 9174   6.770   6.755   1.419
 2759SOL     OW 9175   3.978   3.809   4.349
 2759SOL    HW1 9176   3.987   3.843   4.442
 2759SOL    HW2 9177   4.020   3.719   4.341
 2760SOL     OW 9178   4.945   5.482   2.818
 2760SOL    HW1 9179   5.007   5.459   2.743
 2760SOL    HW2 9180   4.998   5.493   2.902
 2761SOL     OW 9181   2.168   3.417   3.727
 2761SOL    HW1 9182   2.134   3.323   3.723
 2761SOL    HW2 9183   2.257   3.418   3.773
 2762SOL     OW 9184   4.243   1.911   2.944
 2762SOL    HW1 9185   4.166   1.967   2.975
 2762SOL    HW2 9186   4.312   1.907   3.017
 2763SOL     OW 9187   5.473   0.759   3.650
 2763SOL    HW1 9188   5.378   0.781   3.629
 2763SOL    HW2 9189   5.529   0.841   3.642
 2764SOL     OW 9190   0.042   1.905   2.784
 2764SOL    HW1 9191   0.122   1.909   2.843
 2764SOL    HW2 9192   6.980   1.923   2.837
 2765SOL     OW 9193   6.561   6.897   6.895
 2765SOL    HW1 9194   6.617   6.944   6.826
 2765SOL    HW2 9195   6.517   6.817   6.853
 2766SOL     OW 9196   5.229   0.437   0.032
 2766SOL    HW1 9197   5.234   0.531   0.068
 2766SOL    HW2 9198   5.143   0.396   0.062
 2767SOL     OW 9199   0.404   6.069   6.151
 2767SOL    HW1 9200   0.408   6.059   6.251
 2767SOL    HW2 9201   0.463   6.144   6.122
 2768SOL     OW 9202   4.090   0.123   1.708
 2768SOL    HW1 9203   4.124   0.203   1.758
 2768SOL    HW2 9204   4.003   0.146   1.664
 2769SOL     OW 9205   0.863   5.424   6.053
 2769SOL    HW1 9206   0.835   5.329   6.070
 2769SOL    HW2 9207   0.926   5.453   6.124
 2770SOL     OW 9208   2.350   6.786   0.314
 2770SOL    HW1 9209   2.341   6.884   0.333
 2770SOL    HW2 9210   2.362   6.771   0.216
 2771SOL     OW 9211   3.949   6.283   5.631
 2771SOL    HW1 9212   3.910   6.364   5.675
 2771SOL    HW2 9213   3.886   6.250   5.561
 2772SOL     OW 9214   6.127   1.829   2.935
 2772SOL    HW1 9215   6.142   1.919   2.893
 2772SOL    HW2 9216   6.192   1.763   2.897
 2773SOL     OW 9217   4.570   1.340   6.028
 2773SOL    HW1 9218   4.531   1.295   6.109
 2773SOL    HW2 9219   4.507   1.410   5.996
 2774SOL     OW 9220   6.298   6.658   3.804
 2774SOL    HW1 9221   6.246   6.739   3.830
 2774SOL    HW2 9222   6.235   6.584   3.781
 2775SOL     OW 9223   6.999   2.776   4.580
 2775SOL    HW1 9224   0.069   2.811   4.557
 2775SOL    HW2 9225   6.930   2.824   4.526
 2776SOL     OW 9226   4.816   3.884   5.748
 2776SOL    HW1 9227   4.835   3.927   5.836
 2776SOL    HW2 9228   4.789   3.789   5.762
 2777SOL     OW 9229   1.708   1.520   0.664
 2777SOL    HW1 9230   1.717   1.620   0.659
 2777SOL    HW2 9231   1.634   1.491   0.603
 2778SOL     OW 9232   2.548   6.229   5.587
 2778SOL    HW1 9233   2.536   6.281   5.671
 2778SOL    HW2 9234   2.459   6.196   5.555
 2779SOL     OW 9235   5.212   1.364   3.890
 2779SOL    HW1 9236   5.309   1.348   3.908
 2779SOL    HW2 9237   5.158   1.340   3.971
 2780SOL     OW 9238   0.445   0.028   5.344
 2780SOL    HW1 9239   0.514   0.052   5.412
 2780SOL    HW2 9240   0.354   0.050   5.379
 2781SOL     OW 9241   6.818   7.015   2.636
 2781SOL    HW1 9242   6.873   0.068   2.597
 2781SOL    HW2 9243   6.753   6.982   2.567
 2782SOL     OW 9244   5.754   6.525   5.005
 2782SOL    HW1 9245   5.762   6.622   5.026
 2782SOL    HW2 9246   5.807   6.504   4.922
 2783SOL     OW 9247   0.353   2.109   1.871
 2783SOL    HW1 9248   0.335   2.106   1.970
 2783SOL    HW2 9249   0.378   2.202   1.844
 2784SOL     OW 9250   1.226   2.140   2.209
 2784SOL    HW1 9251   1.310   2.111   2.255
 2784SOL    HW2 9252   1.174   2.060   2.180
 2785SOL     OW 9253   5.446   3.052   3.866
 2785SOL    HW1 9254   5.346   3.061   3.860
 2785SOL    HW2 9255   5.489   3.121   3.809
 2786SOL     OW 9256   0.540   5.973   1.375
 2786SOL    HW1 9257   0.537   6.070   1.397
 2786SOL    HW2 9258   0.447   5.939   1.360
 2787SOL     OW 9259   0.226   6.627   6.278
 2787SOL    HW1 9260   0.130   6.614   6.253
 2787SOL    HW2 9261   0.284   6.617   6.197
 2788SOL     OW 9262   2.987   6.708   6.618
 2788SOL    HW1 9263   3.051   6.712   6.541
 2788SOL    HW2 9264   2.931   6.791   6.619
 2789SOL     OW 9265   2.376   2.113   4.023
 2789SOL    HW1 9266   2.435   2.185   4.057
 2789SOL    HW2 9267   2.354   2.131   3.927
 2790SOL     OW 9268   1.155   4.671   1.060
 2790SOL    HW1 9269   1.160   4.736   0.985
 2790SOL    HW2 9270   1.124   4.583   1.026
 2791SOL     OW 9271   0.701   3.781   5.444
 2791SOL    HW1 9272   0.607   3.754   5.464
 2791SOL    HW2 9273   0.702   3.852   5.373
 2792SOL     OW 9274   3.064   2.284   0.102
 2792SOL    HW1 9275   3.131   2.237   0.044
 2792SOL    HW2 9276   3.110   2.353   0.157
 2793SOL     OW 9277   4.153   3.596   6.122
 2793SOL    HW1 9278   4.145   3.551   6.211
 2793SOL    HW2 9279   4.192   3.533   6.056
 2794SOL     OW 9280   1.578   2.069   6.793
 2794SOL    HW1 9281   1.636   2.016   6.855
 2794SOL    HW2 9282   1.515   2.007   6.746
 2795SOL     OW 9283   0.930   0.137   0.331
 2795SOL    HW1 9284   0.835   0.113   0.348
 2795SOL    HW2 9285   0.958   0.207   0.396
 2796SOL     OW 9286   3.230   5.744   0.005
 2796SOL    HW1 9287   3.329   5.752   0.019
 2796SOL    HW2 9288   3.203   5.801   6.948
 2797SOL     OW 9289   4.659   4.206   5.177
 2797SOL    HW1 9290   4.737   4.258   5.210
 2797SOL    HW2 9291   4.626   4.146   5.249
 2798SOL     OW 9292   5.815   1.877   1.936
 2798SOL    HW1 9293   5.815   1.891   1.837
 2798SOL    HW2 9294   5.733   1.825   1.962
 2799SOL     OW 9295   3.376   0.582   4.175
 2799SOL    HW1 9296   3.393   0.541   4.265
 2799SOL    HW2 9297   3.461   0.622   4.141
 2800SOL     OW 9298   4.697   1.354   0.317
 2800SOL    HW1 9299   4.636   1.284   0.280
 2800SOL    HW2 9300   4.695   1.434   0.257
 2801SOL     OW 9301   0.684   4.319   3.340
 2801SOL    HW1 9302   0.587   4.295   3.326
 2801SOL    HW2 9303   0.725   4.342   3.252
 2802SOL     OW 9304   2.202   4.491   4.359
 2802SOL    HW1 9305   2.190   4.543   4.444
 2802SOL    HW2 9306   2.289   4.516   4.316
 2803SOL     OW 9307   3.062   2.662   0.037
 2803SOL    HW1 9308   3.035   2.604   6.980
 2803SOL    HW2 9309   3.150   2.705   0.017
 2804SOL     OW 9310   5.473   2.701   3.462
 2804SOL    HW1 9311   5.515   2.665   3.379
 2804SOL    HW2 9312   5.374   2.708   3.450
 2805SOL     OW 9313   3.824   5.424   0.550
 2805SOL    HW1 9314   3.815   5.477   0.635
 2805SOL    HW2 9315   3.799   5.328   0.568
 2806SOL     OW 9316   1.401   3.312   4.718
 2806SOL    HW1 9317   1.392   3.334   4.621
 2806SOL    HW2 9318   1.335   3.240   4.742
 2807SOL     OW 9319   5.044   1.356   4.391
 2807SOL    HW1 9320   5.015   1.388   4.481
 2807SOL    HW2 9321   5.083   1.264   4.399
 2808SOL     OW 9322   0.631   6.454   6.901
 2808SOL    HW1 9323   0.637   6.356   6.882
 2808SOL    HW2 9324   0.698   6.503   6.846
 2809SOL     OW 9325   0.648   6.266   0.762
 2809SOL    HW1 9326   0.574   6.321   0.721
 2809SOL    HW2 9327   0.687   6.316   0.839
 2810SOL     OW 9328   0.045   6.374   2.094
 2810SOL    HW1 9329   0.081   6.282   2.085
 2810SOL    HW2 9330   0.014   6.389   2.188
 2811SOL     OW 9331   0.712   0.016   0.596
 2811SOL    HW1 9332   0.739   6.978   0.519
 2811SOL    HW2 9333   0.620   0.052   0.579
 2812SOL     OW 9334   2.192   0.761   0.907
 2812SOL    HW1 9335   2.292   0.766   0.905
 2812SOL    HW2 9336   2.164   0.665   0.900
 2813SOL     OW 9337   5.885   1.880   1.654
 2813SOL    HW1 9338   5.883   1.962   1.596
 2813SOL    HW2 9339   5.822   1.811   1.616
 2814SOL     OW 9340   2.090   4.128   6.548
 2814SOL    HW1 9341   2.038   4.116   6.633
 2814SOL    HW2 9342   2.181   4.089   6.559
 2815SOL     OW 9343   6.331   6.237   4.675
 2815SOL    HW1 9344   6.413   6.291   4.656
 2815SOL    HW2 9345   6.355   6.159   4.732
 2816SOL     OW 9346   0.864   5.288   5.189
 2816SOL    HW1 9347   0.787   5.246   5.142
 2816SOL    HW2 9348   0.938   5.221   5.198
 2817SOL     OW 9349   3.043   0.956   1.222
 2817SOL    HW1 9350   3.021   0.964   1.125
 2817SOL    HW2 9351   3.113   0.887   1.235
 2818SOL     OW 9352   2.172   0.313   0.528
 2818SOL    HW1 9353   2.097   0.289   0.589
 2818SOL    HW2 9354   2.224   0.390   0.565
 2819SOL     OW 9355   6.062   0.734   6.832
 2819SOL    HW1 9356   6.079   0.781   6.919
 2819SOL    HW2 9357   6.113   0.648   6.831
 2820SOL     OW 9358   1.745   1.945   0.223
 2820SOL    HW1 9359   1.688   2.025   0.236
 2820SOL    HW2 9360   1.708   1.868   0.275
 2821SOL     OW 9361   3.609   2.692   6.007
 2821SOL    HW1 9362   3.695   2.641   6.005
 2821SOL    HW2 9363   3.572   2.690   6.100
 2822SOL     OW 9364   4.275   3.678   1.309
 2822SOL    HW1 9365   4.329   3.679   1.393
 2822SOL    HW2 9366   4.321   3.732   1.239
 2823SOL     OW 9367   5.030   4.199   3.563
 2823SOL    HW1 9368   5.103   4.247   3.514
 2823SOL    HW2 9369   4.975   4.265   3.615
 2824SOL     OW 9370   0.436   4.131   5.600
 2824SOL    HW1 9371   0.514   4.071   5.619
 2824SOL    HW2 9372   0.452   4.221   5.641
 2825SOL     OW 9373   4.839   2.424   5.551
 2825SOL    HW1 9374   4.792   2.497   5.502
 2825SOL    HW2 9375   4.871   2.457   5.639
 2826SOL     OW 9376   3.054   2.409   6.468
 2826SOL    HW1 9377   3.087   2.358   6.389
 2826SOL    HW2 9378   3.102   2.378   6.550
 2827SOL     OW 9379   0.217   2.182   0.443
 2827SOL    HW1 9380   0.216   2.235   0.527
 2827SOL    HW2 9381   0.247   2.089   0.463
 2828SOL     OW 9382   2.247   3.507   6.952
 2828SOL    HW1 9383   2.272   3.461   0.017
 2828SOL    HW2 9384   2.178   3.454   6.904
 2829SOL     OW 9385   3.387   4.284   0.874
 2829SOL    HW1 9386   3.441   4.220   0.928
 2829SOL    HW2 9387   3.330   4.340   0.935
 2830SOL     OW 9388   2.768   5.258   4.684
 2830SOL    HW1 9389   2.811   5.187   4.740
 2830SOL    HW2 9390   2.672   5.267   4.710
 2831SOL     OW 9391   5.432   1.561   1.823
 2831SOL    HW1 9392   5.427   1.575   1.922
 2831SOL    HW2 9393   5.499   1.489   1.804
 2832SOL     OW 9394   1.354   3.435   1.442
 2832SOL    HW1 9395   1.303   3.522   1.438
 2832SOL    HW2 9396   1.295   3.361   1.409
 2833SOL     OW 9397   6.431   2.126   3.056
 2833SOL    HW1 9398   6.528   2.119   3.078
 2833SOL    HW2 9399   6.380   2.056   3.106
 2834SOL     OW 9400   2.837   0.108   4.335
 2834SOL    HW1 9401   2.891   0.048   4.395
 2834SOL    HW2 9402   2.857   0.204   4.358
 2835SOL     OW 9403   6.270   2.035   0.490
 2835SOL    HW1 9404   6.240   2.104   0.424
 2835SOL    HW2 9405   6.368   2.045   0.507
 2836SOL     OW 9406   3.143   6.634   2.243
 2836SOL    HW1 9407   3.089   6.558   2.278
 2836SOL    HW2 9408   3.236   6.603   2.224
 2837SOL     OW 9409   5.221   4.329   3.436
 2837SOL    HW1 9410   5.257   4.347   3.344
 2837SOL    HW2 9411   5.166   4.406   3.467
 2838SOL     OW 9412   6.894   4.542   6.038
 2838SOL    HW1 9413   6.822   4.476   6.014
 2838SOL    HW2 9414   6.943   4.509   6.119
 2839SOL     OW 9415   5.639   2.603   6.530
 2839SOL    HW1 9416   5.545   2.571   6.540
 2839SOL    HW2 9417   5.648   2.695   6.567
 2840SOL     OW 9418   6.486   5.642   5.284
 2840SOL    HW1 9419   6.420   5.634   5.210
 2840SOL    HW2 9420   6.566   5.693   5.253
 2841SOL     OW 9421   5.485   3.518   2.974
 2841SOL    HW1 9422   5.576   3.558   2.973
 2841SOL    HW2 9423   5.472   3.465   3.059
 2842SOL     OW 9424   0.922   6.312   3.777
 2842SOL    HW1 9425   0.908   6.279   3.870
 2842SOL    HW2 9426   0.965   6.402   3.779
 2843SOL     OW 9427   1.025   2.882   3.946
 2843SOL    HW1 9428   1.054   2.832   4.028
 2843SOL    HW2 9429   1.086   2.860   3.870
 2844SOL     OW 9430   5.481   4.349   0.075
 2844SOL    HW1 9431   5.422   4.289   0.021
 2844SOL    HW2 9432   5.574   4.310   0.078
 2845SOL     OW 9433   3.411   1.702   1.048
 2845SOL    HW1 9434   3.339   1.739   1.107
 2845SOL    HW2 9435   3.418   1.604   1.061
 2846SOL     OW 9436   5.642   0.782   5.995
 2846SOL    HW1 9437   5.742   0.785   6.002
 2846SOL    HW2 9438   5.615   0.699   5.946
 2847SOL     OW 9439   5.856   4.717   2.906
 2847SOL    HW1 9440   5.875   4.705   2.808
 2847SOL    HW2 9441   5.859   4.814   2.929
 2848SOL     OW 9442   6.921   4.197   0.496
 2848SOL    HW1 9443   6.917   4.179   0.398
 2848SOL    HW2 9444   6.973   4.124   0.541
 2849SOL     OW 9445   5.188   0.928   0.719
 2849SOL    HW1 9446   5.253   0.940   0.644
 2849SOL    HW2 9447   5.146   1.017   0.741
 2850SOL     OW 9448   0.076   1.220   0.892
 2850SOL    HW1 9449   0.004   1.170   0.845
 2850SOL    HW2 9450   0.083   1.313   0.854
 2851SOL     OW 9451   3.196   3.135   2.182
 2851SOL    HW1 9452   3.180   3.178   2.271
 2851SOL    HW2 9453   3.226   3.040   2.196
 2852SOL     OW 9454   1.317   4.825   5.117
 2852SOL    HW1 9455   1.389   4.777   5.167
 2852SOL    HW2 9456   1.350   4.916   5.090
 2853SOL     OW 9457   6.756   5.363   5.196
 2853SOL    HW1 9458   6.845   5.386   5.235
 2853SOL    HW2 9459   6.686   5.366   5.268
 2854SOL     OW 9460   3.338   0.834   6.966
 2854SOL    HW1 9461   3.327   0.833   6.866
 2854SOL    HW2 9462   3.356   0.741   6.998
 2855SOL     OW 9463   2.654   2.468   4.255
 2855SOL    HW1 9464   2.718   2.528   4.208
 2855SOL    HW2 9465   2.593   2.425   4.188
 2856SOL     OW 9466   1.366   5.185   4.920
 2856SOL    HW1 9467   1.405   5.267   4.878
 2856SOL    HW2 9468   1.309   5.137   4.853
 2857SOL     OW 9469   0.909   4.308   0.112
 2857SOL    HW1 9470   0.904   4.211   0.089
 2857SOL    HW2 9471   0.858   4.325   0.196
 2858SOL     OW 9472   5.375   4.496   4.090
 2858SOL    HW1 9473   5.449   4.489   4.157
 2858SOL    HW2 9474   5.401   4.560   4.018
 2859SOL     OW 9475   0.390   5.076   1.982
 2859SOL    HW1 9476   0.338   5.147   2.030
 2859SOL    HW2 9477   0.484   5.075   2.017
 2860SOL     OW 9478   1.303   6.320   2.470
 2860SOL    HW1 9479   1.310   6.324   2.371
 2860SOL    HW2 9480   1.244   6.395   2.502
 2861SOL     OW 9481   6.031   2.981   5.317
 2861SOL    HW1 9482   5.946   2.952   5.362
 2861SOL    HW2 9483   6.058   3.071   5.351
 2862SOL     OW 9484   4.076   1.010   1.007
 2862SOL    HW1 9485   3.989   0.965   1.026
 2862SOL    HW2 9486   4.091   1.014   0.908
 2863SOL     OW 9487   5.645   1.364   6.144
 2863SOL    HW1 9488   5.558   1.390   6.185
 2863SOL    HW2 9489   5.629   1.331   6.051
 2864SOL     OW 9490   4.682   4.525   0.453
 2864SOL    HW1 9491   4.744   4.567   0.519
 2864SOL    HW2 9492   4.734   4.466   0.391
 2865SOL     OW 9493   5.412   4.317   6.430
 2865SOL    HW1 9494   5.390   4.357   6.342
 2865SOL    HW2 9495   5.462   4.384   6.486
 2866SOL     OW 9496   4.883   6.342   0.536
 2866SOL    HW1 9497   4.904   6.326   0.632
 2866SOL    HW2 9498   4.829   6.265   0.500
 2867SOL     OW 9499   0.355   6.042   3.562
 2867SOL    HW1 9500   0.439   6.067   3.513
 2867SOL    HW2 9501   0.303   5.976   3.507
 2868SOL     OW 9502   6.716   6.883   5.067
 2868SOL    HW1 9503   6.646   6.826   5.109
 2868SOL    HW2 9504   6.738   6.959   5.127
 2869SOL     OW 9505   5.890   4.732   5.217
 2869SOL    HW1 9506   5.954   4.731   5.140
 2869SOL    HW2 9507   5.817   4.665   5.201
 2870SOL     OW 9508   0.501   1.323   1.326
 2870SOL    HW1 9509   0.456   1.371   1.251
 2870SOL    HW2 9510   0.498   1.380   1.408
 2871SOL     OW 9511   4.575   1.618   3.434
 2871SOL    HW1 9512   4.570   1.566   3.349
 2871SOL    HW2 9513   4.626   1.564   3.502
 2872SOL     OW 9514   3.334   1.515   2.586
 2872SOL    HW1 9515   3.272   1.439   2.566
 2872SOL    HW2 9516   3.351   1.567   2.503
 2873SOL     OW 9517   7.020   0.594   2.343
 2873SOL    HW1 9518   0.057   0.519   2.309
 2873SOL    HW2 9519   7.000   0.657   2.269
 2874SOL     OW 9520   1.378   0.909   1.792
 2874SOL    HW1 9521   1.307   0.864   1.738
 2874SOL    HW2 9522   1.338   0.944   1.877
 2875SOL     OW 9523   3.429   1.123   2.213
 2875SOL    HW1 9524   3.354   1.057   2.214
 2875SOL    HW2 9525   3.509   1.083   2.169
 2876SOL     OW 9526   0.906   0.046   0.805
 2876SOL    HW1 9527   0.838   0.056   0.733
 2876SOL    HW2 9528   0.927   0.137   0.843
 2877SOL     OW 9529   1.028   3.470   6.421
 2877SOL    HW1 9530   1.057   3.382   6.457
 2877SOL    HW2 9531   1.099   3.507   6.361
 2878SOL     OW 9532   4.066   3.559   4.263
 2878SOL    HW1 9533   4.000   3.490   4.235
 2878SOL    HW2 9534   4.107   3.601   4.182
 2879SOL     OW 9535   6.521   6.671   0.402
 2879SOL    HW1 9536   6.564   6.586   0.433
 2879SOL    HW2 9537   6.495   6.663   0.306
 2880SOL     OW 9538   1.678   1.346   2.360
 2880SOL    HW1 9539   1.587   1.358   2.319
 2880SOL    HW2 9540   1.699   1.249   2.366
 2881SOL     OW 9541   4.993   5.700   6.783
 2881SOL    HW1 9542   4.960   5.670   6.873
 2881SOL    HW2 9543   4.932   5.768   6.746
 2882SOL     OW 9544   4.367   6.461   0.696
 2882SOL    HW1 9545   4.294   6.405   0.737
 2882SOL    HW2 9546   4.356   6.462   0.597
 2883SOL     OW 9547   5.201   6.072   2.934
 2883SOL    HW1 9548   5.288   6.117   2.917
 2883SOL    HW2 9549   5.214   5.973   2.936
 2884SOL     OW 9550   6.097   5.155   3.592
 2884SOL    HW1 9551   6.071   5.089   3.663
 2884SOL    HW2 9552   6.181   5.202   3.619
 2885SOL     OW 9553   0.453   4.223   3.582
 2885SOL    HW1 9554   0.390   4.299   3.568
 2885SOL    HW2 9555   0.406   4.137   3.565
 2886SOL     OW 9556   1.960   4.577   5.030
 2886SOL    HW1 9557   2.007   4.542   5.111
 2886SOL    HW2 9558   1.876   4.525   5.015
 2887SOL     OW 9559   0.474   4.947   2.588
 2887SOL    HW1 9560   0.503   4.961   2.493
 2887SOL    HW2 9561   0.407   5.017   2.612
 2888SOL     OW 9562   4.523   5.818   6.604
 2888SOL    HW1 9563   4.501   5.721   6.599
 2888SOL    HW2 9564   4.535   5.854   6.511
 2889SOL     OW 9565   4.163   5.082   3.957
 2889SOL    HW1 9566   4.094   5.102   3.887
 2889SOL    HW2 9567   4.252   5.066   3.913
 2890SOL     OW 9568   1.325   1.333   0.729
 2890SOL    HW1 9569   1.307   1.412   0.671
 2890SOL    HW2 9570   1.309   1.358   0.825
 2891SOL     OW 9571   1.184   1.865   5.278
 2891SOL    HW1 9572   1.246   1.874   5.356
 2891SOL    HW2 9573   1.230   1.812   5.206
 2892SOL     OW 9574   5.944   4.309   2.461
 2892SOL    HW1 9575   6.004   4.305   2.381
 2892SOL    HW2 9576   5.999   4.298   2.544
 2893SOL     OW 9577   6.370   6.273   5.051
 2893SOL    HW1 9578   6.295   6.242   4.992
 2893SOL    HW2 9579   6.420   6.194   5.086
 2894SOL     OW 9580   1.843   5.543   1.260
 2894SOL    HW1 9581   1.748   5.554   1.229
 2894SOL    HW2 9582   1.844   5.498   1.349
 2895SOL     OW 9583   5.027   6.568   6.235
 2895SOL    HW1 9584   4.942   6.562   6.286
 2895SOL    HW2 9585   5.008   6.561   6.137
 2896SOL     OW 9586   6.462   0.224   6.605
 2896SOL    HW1 9587   6.413   0.166   6.671
 2896SOL    HW2 9588   6.546   0.259   6.648
 2897SOL     OW 9589   2.823   6.166   3.901
 2897SOL    HW1 9590   2.738   6.171   3.849
 2897SOL    HW2 9591   2.805   6.189   3.997
 2898SOL     OW 9592   5.414   2.640   2.691
 2898SOL    HW1 9593   5.362   2.595   2.618
 2898SOL    HW2 9594   5.425   2.737   2.670
 2899SOL     OW 9595   6.242   2.904   1.282
 2899SOL    HW1 9596   6.221   2.837   1.354
 2899SOL    HW2 9597   6.167   2.970   1.274
 2900SOL     OW 9598   3.164   2.972   5.079
 2900SOL    HW1 9599   3.192   3.068   5.072
 2900SOL    HW2 9600   3.186   2.925   4.993
 2901SOL     OW 9601   1.385   2.702   1.767
 2901SOL    HW1 9602   1.462   2.640   1.753
 2901SOL    HW2 9603   1.388   2.774   1.698
 2902SOL     OW 9604   5.488   6.259   3.366
 2902SOL    HW1 9605   5.508   6.237   3.270
 2902SOL    HW2 9606   5.426   6.190   3.403
 2903SOL     OW 9607   0.783   5.310   1.931
 2903SOL    HW1 9608   0.876   5.275   1.948
 2903SOL    HW2 9609   0.764   5.385   1.994
 2904SOL     OW 9610   3.479   4.920   4.151
 2904SOL    HW1 9611   3.397   4.911   4.208
 2904SOL    HW2 9612   3.474   5.004   4.099
 2905SOL     OW 9613   1.817   4.233   1.258
 2905SOL    HW1 9614   1.827   4.332   1.248
 2905SOL    HW2 9615   1.763   4.197   1.181
 2906SOL     OW 9616   6.311   6.499   6.522
 2906SOL    HW1 9617   6.314   6.405   6.486
 2906SOL    HW2 9618   6.232   6.509   6.583
 2907SOL     OW 9619   0.088   1.530   6.257
 2907SOL    HW1 9620   0.091   1.454   6.192
 2907SOL    HW2 9621   0.160   1.519   6.326
 2908SOL     OW 9622   3.922   5.850   3.775
 2908SOL    HW1 9623   4.001   5.788   3.776
 2908SOL    HW2 9624   3.952   5.940   3.745
 2909SOL     OW 9625   7.011   6.430   0.752
 2909SOL    HW1 9626   0.019   6.352   0.696
 2909SOL    HW2 9627   6.957   6.397   0.830
 2910SOL     OW 9628   1.317   0.217   4.133
 2910SOL    HW1 9629   1.252   0.183   4.065
 2910SOL    HW2 9630   1.284   0.194   4.224
 2911SOL     OW 9631   6.734   3.482   3.385
 2911SOL    HW1 9632   6.825   3.440   3.381
 2911SOL    HW2 9633   6.728   3.555   3.316
 2912SOL     OW 9634   0.213   1.424   3.183
 2912SOL    HW1 9635   0.141   1.366   3.220
 2912SOL    HW2 9636   0.173   1.498   3.130
 2913SOL     OW 9637   0.888   0.016   4.350
 2913SOL    HW1 9638   0.937   6.963   4.397
 2913SOL    HW2 9639   0.904   0.009   4.252
 2914SOL     OW 9640   3.895   4.473   0.838
 2914SOL    HW1 9641   3.863   4.386   0.802
 2914SOL    HW2 9642   3.941   4.458   0.926
 2915SOL     OW 9643   2.001   6.763   3.664
 2915SOL    HW1 9644   1.946   6.700   3.719
 2915SOL    HW2 9645   2.085   6.717   3.635
 2916SOL     OW 9646   0.310   5.958   0.003
 2916SOL    HW1 9647   0.364   5.875   7.018
 2916SOL    HW2 9648   0.249   5.954   0.082
 2917SOL     OW 9649   2.034   1.852   3.606
 2917SOL    HW1 9650   2.093   1.798   3.546
 2917SOL    HW2 9651   2.028   1.946   3.572
 2918SOL     OW 9652   5.028   0.880   1.306
 2918SOL    HW1 9653   5.031   0.930   1.220
 2918SOL    HW2 9654   5.070   0.790   1.294
 2919SOL     OW 9655   1.054   5.116   5.002
 2919SOL    HW1 9656   0.997   5.037   5.027
 2919SOL    HW2 9657   1.113   5.140   5.080
 2920SOL     OW 9658   2.963   2.614   1.651
 2920SOL    HW1 9659   3.056   2.651   1.652
 2920SOL    HW2 9660   2.952   2.550   1.727
 2921SOL     OW 9661   0.174   4.967   3.364
 2921SOL    HW1 9662   0.238   4.921   3.301
 2921SOL    HW2 9663   0.104   4.901   3.394
 2922SOL     OW 9664   3.735   5.227   4.154
 2922SOL    HW1 9665   3.680   5.145   4.139
 2922SOL    HW2 9666   3.761   5.267   4.066
 2923SOL     OW 9667   1.620   4.149   3.794
 2923SOL    HW1 9668   1.645   4.229   3.738
 2923SOL    HW2 9669   1.554   4.093   3.744
 2924SOL     OW 9670   4.758   1.371   6.750
 2924SOL    HW1 9671   4.661   1.388   6.767
 2924SOL    HW2 9672   4.784   1.281   6.787
 2925SOL     OW 9673   5.734   6.704   4.267
 2925SOL    HW1 9674   5.736   6.801   4.291
 2925SOL    HW2 9675   5.647   6.682   4.224
 2926SOL     OW 9676   0.067   2.503   5.248
 2926SOL    HW1 9677   0.154   2.484   5.294
 2926SOL    HW2 9678   0.078   2.490   5.149
 2927SOL     OW 9679   1.032   1.969   2.980
 2927SOL    HW1 9680   0.970   1.985   2.904
 2927SOL    HW2 9681   1.020   1.875   3.013
 2928SOL     OW 9682   5.107   4.614   0.221
 2928SOL    HW1 9683   5.153   4.657   0.142
 2928SOL    HW2 9684   5.060   4.685   0.274
 2929SOL     OW 9685   1.949   1.135   2.629
 2929SOL    HW1 9686   2.011   1.213   2.623
 2929SOL    HW2 9687   1.872   1.158   2.690
 2930SOL     OW 9688   0.807   3.023   3.833
 2930SOL    HW1 9689   0.876   2.976   3.888
 2930SOL    HW2 9690   0.770   2.960   3.765
 2931SOL     OW 9691   5.530   4.197   5.596
 2931SOL    HW1 9692   5.579   4.175   5.680
 2931SOL    HW2 9693   5.576   4.272   5.549
 2932SOL     OW 9694   6.749   0.013   0.601
 2932SOL    HW1 9695   6.836   7.004   0.641
 2932SOL    HW2 9696   6.720   0.098   0.645
 2933SOL     OW 9697   0.634   0.753   6.639
 2933SOL    HW1 9698   0.652   0.851   6.649
 2933SOL    HW2 9699   0.639   0.727   6.543
 2934SOL     OW 9700   5.623   5.253   2.625
 2934SOL    HW1 9701   5.645   5.215   2.715
 2934SOL    HW2 9702   5.686   5.328   2.604
 2935SOL     OW 9703   0.361   4.459   6.056
 2935SOL    HW1 9704   0.432   4.530   6.054
 2935SOL    HW2 9705   0.355   4.421   6.149
 2936SOL     OW 9706   4.543   6.463   2.681
 2936SOL    HW1 9707   4.642   6.480   2.685
 2936SOL    HW2 9708   4.518   6.401   2.756
 2937SOL     OW 9709   6.269   3.329   3.207
 2937SOL    HW1 9710   6.205   3.362   3.138
 2937SOL    HW2 9711   6.359   3.368   3.191
 2938SOL     OW 9712   0.152   5.206   1.238
 2938SOL    HW1 9713   0.057   5.200   1.207
 2938SOL    HW2 9714   0.153   5.227   1.336
 2939SOL     OW 9715   6.272   5.875   1.975
 2939SOL    HW1 9716   6.276   5.974   1.967
 2939SOL    HW2 9717   6.272   5.834   1.883
 2940SOL     OW 9718   4.632   6.042   3.148
 2940SOL    HW1 9719   4.541   6.025   3.111
 2940SOL    HW2 9720   4.663   6.133   3.121
 2941SOL     OW 9721   2.834   5.014   1.832
 2941SOL    HW1 9722   2.928   5.007   1.865
 2941SOL    HW2 9723   2.776   4.949   1.882
 2942SOL     OW 9724   2.517   1.884   0.293
 2942SOL    HW1 9725   2.529   1.976   0.331
 2942SOL    HW2 9726   2.605   1.847   0.264
 2943SOL     OW 9727   0.262   4.432   3.516
 2943SOL    HW1 9728   0.183   4.386   3.557
 2943SOL    HW2 9729   0.257   4.530   3.536
 2944SOL     OW 9730   0.606   5.060   3.783
 2944SOL    HW1 9731   0.640   5.155   3.780
 2944SOL    HW2 9732   0.625   5.015   3.696
 2945SOL     OW 9733   5.767   3.367   0.415
 2945SOL    HW1 9734   5.669   3.383   0.399
 2945SOL    HW2 9735   5.780   3.277   0.456
 2946SOL     OW 9736   3.519   3.812   4.811
 2946SOL    HW1 9737   3.538   3.759   4.894
 2946SOL    HW2 9738   3.457   3.760   4.752
 2947SOL     OW 9739   6.499   6.939   0.489
 2947SOL    HW1 9740   6.501   6.848   0.448
 2947SOL    HW2 9741   6.581   6.954   0.543
 2948SOL     OW 9742   6.245   4.602   0.879
 2948SOL    HW1 9743   6.263   4.534   0.808
 2948SOL    HW2 9744   6.318   4.672   0.877
 2949SOL     OW 9745   1.622   6.082   0.858
 2949SOL    HW1 9746   1.555   6.141   0.903
 2949SOL    HW2 9747   1.670   6.134   0.787
 2950SOL     OW 9748   5.060   5.087   2.378
 2950SOL    HW1 9749   5.144   5.057   2.423
 2950SOL    HW2 9750   5.019   5.009   2.330
 2951SOL     OW 9751   0.779   2.868   0.879
 2951SOL    HW1 9752   0.843   2.890   0.952
 2951SOL    HW2 9753   0.689   2.850   0.918
 2952SOL     OW 9754   1.125   1.008   4.697
 2952SOL    HW1 9755   1.169   0.918   4.690
 2952SOL    HW2 9756   1.117   1.048   4.606
 2953SOL     OW 9757   1.080   5.589   3.176
 2953SOL    HW1 9758   1.093   5.667   3.238
 2953SOL    HW2 9759   1.032   5.619   3.094
 2954SOL     OW 9760   0.563   4.625   5.661
 2954SOL    HW1 9761   0.637   4.664   5.716
 2954SOL    HW2 9762   0.504   4.698   5.628
 2955SOL     OW 9763   0.937   5.069   6.274
 2955SOL    HW1 9764   0.894   5.064   6.364
 2955SOL    HW2 9765   0.870   5.101   6.207
 2956SOL     OW 9766   6.560   3.645   5.152
 2956SOL    HW1 9767   6.619   3.622   5.075
 2956SOL    HW2 9768   6.479   3.693   5.119
 2957SOL     OW 9769   1.499   4.884   1.831
 2957SOL    HW1 9770   1.496   4.872   1.732
 2957SOL    HW2 9771   1.577   4.832   1.868
 2958SOL     OW 9772   2.399   3.178   1.417
 2958SOL    HW1 9773   2.452   3.243   1.472
 2958SOL    HW2 9774   2.304   3.179   1.446
 2959SOL     OW 9775   0.996   3.925   4.437
 2959SOL    HW1 9776   0.917   3.914   4.377
 2959SOL    HW2 9777   1.065   3.857   4.415
 2960SOL     OW 9778   5.487   6.369   0.563
 2960SOL    HW1 9779   5.393   6.378   0.596
 2960SOL    HW2 9780   5.539   6.451   0.588
 2961SOL     OW 9781   5.923   1.854   0.861
 2961SOL    HW1 9782   5.950   1.777   0.919
 2961SOL    HW2 9783   5.997   1.876   0.798
 2962SOL     OW 9784   6.498   0.722   4.107
 2962SOL    HW1 9785   6.430   0.707   4.179
 2962SOL    HW2 9786   6.464   0.793   4.045
 2963SOL     OW 9787   1.900   1.240   6.239
 2963SOL    HW1 9788   1.903   1.245   6.139
 2963SOL    HW2 9789   1.902   1.333   6.277
 2964SOL     OW 9790   0.489   1.034   5.828
 2964SOL    HW1 9791   0.578   1.078   5.839
 2964SOL    HW2 9792   0.417   1.101   5.845
 2965SOL     OW 9793   6.144   0.253   6.043
 2965SOL    HW1 9794   6.146   0.353   6.042
 2965SOL    HW2 9795   6.179   0.220   6.131
 2966SOL     OW 9796   3.674   0.106   2.774
 2966SOL    HW1 9797   3.752   0.056   2.737
 2966SOL    HW2 9798   3.677   0.101   2.874
 2967SOL     OW 9799   5.573   0.050   5.282
 2967SOL    HW1 9800   5.476   0.026   5.289
 2967SOL    HW2 9801   5.624   0.002   5.353
 2968SOL     OW 9802   1.582   3.832   1.852
 2968SOL    HW1 9803   1.670   3.817   1.807
 2968SOL    HW2 9804   1.549   3.744   1.888
 2969SOL     OW 9805   4.119   1.843   5.065
 2969SOL    HW1 9806   4.208   1.874   5.029
 2969SOL    HW2 9807   4.057   1.921   5.072
 2970SOL     OW 9808   2.688   2.306   6.479
 2970SOL    HW1 9809   2.686   2.299   6.379
 2970SOL    HW2 9810   2.604   2.267   6.517
 2971SOL     OW 9811   3.672   3.725   5.420
 2971SOL    HW1 9812   3.709   3.712   5.513
 2971SOL    HW2 9813   3.588   3.673   5.411
 2972SOL     OW 9814   0.118   5.996   0.205
 2972SOL    HW1 9815   0.129   6.091   0.178
 2972SOL    HW2 9816   0.022   5.969   0.193
 2973SOL     OW 9817   4.809   0.343   4.619
 2973SOL    HW1 9818   4.718   0.300   4.619
 2973SOL    HW2 9819   4.870   0.291   4.678
 2974SOL     OW 9820   5.239   4.980   2.819
 2974SOL    HW1 9821   5.174   4.904   2.821
 2974SOL    HW2 9822   5.190   5.065   2.841
 2975SOL     OW 9823   0.834   3.459   4.581
 2975SOL    HW1 9824   0.889   3.424   4.657
 2975SOL    HW2 9825   0.791   3.383   4.533
 2976SOL     OW 9826   4.221   6.982   1.493
 2976SOL    HW1 9827   4.317   6.969   1.466
 2976SOL    HW2 9828   4.214   0.040   1.554
 2977SOL     OW 9829   1.463   1.446   2.196
 2977SOL    HW1 9830   1.398   1.370   2.186
 2977SOL    HW2 9831   1.524   1.448   2.117
 2978SOL     OW 9832   3.505   5.953   0.459
 2978SOL    HW1 9833   3.492   5.938   0.361
 2978SOL    HW2 9834   3.560   6.035   0.474
 2979SOL     OW 9835   1.907   1.337   5.549
 2979SOL    HW1 9836   1.946   1.245   5.554
 2979SOL    HW2 9837   1.817   1.337   5.592
 2980SOL     OW 9838   3.110   3.074   2.810
 2980SOL    HW1 9839   3.153   3.154   2.768
 2980SOL    HW2 9840   3.137   3.068   2.906
 2981SOL     OW 9841   2.589   1.735   1.750
 2981SOL    HW1 9842   2.599   1.765   1.656
 2981SOL    HW2 9843   2.590   1.814   1.811
 2982SOL     OW 9844   0.628   0.529   2.422
 2982SOL    HW1 9845   0.728   0.531   2.418
 2982SOL    HW2 9846   0.594   0.446   2.378
 2983SOL     OW 9847   6.631   2.698   6.084
 2983SOL    HW1 9848   6.579   2.659   6.009
 2983SOL    HW2 9849   6.589   2.784   6.113
 2984SOL     OW 9850   0.630   5.787   1.118
 2984SOL    HW1 9851   0.601   5.880   1.140
 2984SOL    HW2 9852   0.557   5.741   1.067
 2985SOL     OW 9853   6.982   0.093   5.558
 2985SOL    HW1 9854   6.931   0.169   5.517
 2985SOL    HW2 9855   6.935   0.063   5.641
 2986SOL     OW 9856   3.663   3.961   2.522
 2986SOL    HW1 9857   3.723   3.991   2.596
 2986SOL    HW2 9858   3.585   4.024   2.515
 2987SOL     OW 9859   2.483   6.615   5.992
 2987SOL    HW1 9860   2.453   6.661   5.909
 2987SOL    HW2 9861   2.549   6.544   5.969
 2988SOL     OW 9862   0.637   2.227   6.644
 2988SOL    HW1 9863   0.653   2.321   6.676
 2988SOL    HW2 9864   0.584   2.177   6.713
 2989SOL     OW 9865   5.630   3.342   5.802
 2989SOL    HW1 9866   5.628   3.441   5.810
 2989SOL    HW2 9867   5.644   3.301   5.892
 2990SOL     OW 9868   4.948   2.179   4.857
 2990SOL    HW1 9869   4.899   2.173   4.770
 2990SOL    HW2 9870   5.027   2.239   4.847
 2991SOL     OW 9871   6.085   2.698   0.112
 2991SOL    HW1 9872   6.020   2.728   0.182
 2991SOL    HW2 9873   6.134   2.777   0.076
 2992SOL     OW 9874   2.436   4.518   4.733
 2992SOL    HW1 9875   2.409   4.532   4.828
 2992SOL    HW2 9876   2.414   4.425   4.705
 2993SOL     OW 9877   3.784   5.172   6.804
 2993SOL    HW1 9878   3.782   5.233   6.883
 2993SOL    HW2 9879   3.801   5.078   6.835
 2994SOL     OW 9880   3.000   5.034   5.029
 2994SOL    HW1 9881   3.028   4.938   5.025
 2994SOL    HW2 9882   2.920   5.049   4.971
 2995SOL     OW 9883   5.552   0.637   2.304
 2995SOL    HW1 9884   5.486   0.626   2.230
 2995SOL    HW2 9885   5.508   0.683   2.381
 2996SOL     OW 9886   6.907   0.611   4.512
 2996SOL    HW1 9887   6.820   0.567   4.532
 2996SOL    HW2 9888   6.933   0.670   4.589
 2997SOL     OW 9889   4.867   6.222   4.073
 2997SOL    HW1 9890   4.877   6.174   3.986
 2997SOL    HW2 9891   4.783   6.193   4.118
 2998SOL     OW 9892   2.924   0.145   1.943
 2998SOL    HW1 9893   2.975   0.231   1.948
 2998SOL    HW2 9894   2.918   0.104   2.034
 2999SOL     OW 9895   2.627   5.512   0.389
 2999SOL    HW1 9896   2.702   5.517   0.323
 2999SOL    HW2 9897   2.638   5.432   0.447
 3000SOL     OW 9898   2.053   4.351   6.400
 3000SOL    HW1 9899   2.138   4.364   6.349
 3000SOL    HW2 9900   2.056   4.263   6.447
 3001SOL     OW 9901   3.054   0.310   5.903
 3001SOL    HW1 9902   3.070   0.339   5.997
 3001SOL    HW2 9903   3.020   0.387   5.848
 3002SOL     OW 9904   1.501   2.206   1.346
 3002SOL    HW1 9905   1.472   2.186   1.253
 3002SOL    HW2 9906   1.600   2.218   1.349
 3003SOL     OW 9907   1.295   5.961   0.219
 3003SOL    HW1 9908   1.241   5.968   0.302
 3003SOL    HW2 9909   1.281   6.043   0.163
 3004SOL     OW 9910   2.777   1.227   4.623
 3004SOL    HW1 9911   2.828   1.191   4.701
 3004SOL    HW2 9912   2.790   1.326   4.619
 3005SOL     OW 9913   2.780   1.412   6.855
 3005SOL    HW1 9914   2.745   1.365   6.774
 3005SOL    HW2 9915   2.850   1.478   6.828
 3006SOL     OW 9916   5.912   0.765   5.951
 3006SOL    HW1 9917   5.935   0.705   5.875
 3006SOL    HW2 9918   5.995   0.791   6.000
 3007SOL     OW 9919   6.341   5.329   6.015
 3007SOL    HW1 9920   6.421   5.270   6.017
 3007SOL    HW2 9921   6.262   5.280   6.053
 3008SOL     OW 9922   5.523   3.412   5.534
 3008SOL    HW1 9923   5.461   3.489   5.519
 3008SOL    HW2 9924   5.555   3.414   5.629
 3009SOL     OW 9925   5.373   4.114   1.225
 3009SOL    HW1 9926   5.292   4.171   1.207
 3009SOL    HW2 9927   5.343   4.026   1.261
 3010SOL     OW 9928   4.461   3.972   1.538
 3010SOL    HW1 9929   4.411   3.931   1.615
 3010SOL    HW2 9930   4.539   4.024   1.573
 3011SOL     OW 9931   5.174   0.532   0.937
 3011SOL    HW1 9932   5.222   0.447   0.959
 3011SOL    HW2 9933   5.099   0.546   1.002
 3012SOL     OW 9934   1.984   2.664   4.667
 3012SOL    HW1 9935   2.058   2.653   4.734
 3012SOL    HW2 9936   1.904   2.703   4.712
 3013SOL     OW 9937   0.567   5.395   5.656
 3013SOL    HW1 9938   0.627   5.351   5.589
 3013SOL    HW2 9939   0.502   5.455   5.608
 3014SOL     OW 9940   3.603   0.006   0.858
 3014SOL    HW1 9941   3.601   6.954   0.927
 3014SOL    HW2 9942   3.679   7.011   0.795
 3015SOL     OW 9943   2.100   6.698   6.163
 3015SOL    HW1 9944   2.006   6.716   6.136
 3015SOL    HW2 9945   2.127   6.607   6.131
 3016SOL     OW 9946   3.423   1.244   4.553
 3016SOL    HW1 9947   3.380   1.169   4.603
 3016SOL    HW2 9948   3.463   1.309   4.618
 3017SOL     OW 9949   1.632   6.082   6.690
 3017SOL    HW1 9950   1.676   6.171   6.694
 3017SOL    HW2 9951   1.702   6.010   6.696
 3018SOL     OW 9952   2.008   2.760   1.934
 3018SOL    HW1 9953   2.038   2.855   1.932
 3018SOL    HW2 9954   2.063   2.708   1.999
 3019SOL     OW 9955   1.068   1.201   5.300
 3019SOL    HW1 9956   0.995   1.182   5.367
 3019SOL    HW2 9957   1.069   1.299   5.279
 3020SOL     OW 9958   5.188   3.962   6.621
 3020SOL    HW1 9959   5.261   3.894   6.613
 3020SOL    HW2 9960   5.207   4.039   6.561
 3021SOL     OW 9961   3.888   6.756   4.238
 3021SOL    HW1 9962   3.888   6.789   4.333
 3021SOL    HW2 9963   3.937   6.669   4.233
 3022SOL     OW 9964   3.963   6.435   2.131
 3022SOL    HW1 9965   3.889   6.477   2.078
 3022SOL    HW2 9966   4.006   6.504   2.189
 3023SOL     OW 9967   5.740   4.689   4.911
 3023SOL    HW1 9968   5.763   4.619   4.842
 3023SOL    HW2 9969   5.692   4.645   4.987
 3024SOL     OW 9970   6.016   1.734   6.109
 3024SOL    HW1 9971   6.069   1.657   6.073
 3024SOL    HW2 9972   6.071   1.784   6.176
 3025SOL     OW 9973   3.776   5.236   1.024
 3025SOL    HW1 9974   3.695   5.293   1.013
 3025SOL    HW2 9975   3.858   5.293   1.027
 3026SOL     OW 9976   6.799   5.799   2.945
 3026SOL    HW1 9977   6.725   5.830   3.005
 3026SOL    HW2 9978   6.887   5.815   2.989
 3027SOL     OW 9979   3.936   0.185   1.139
 3027SOL    HW1 9980   3.907   0.180   1.043
 3027SOL    HW2 9981   4.018   0.241   1.145
 3028SOL     OW 9982   3.658   3.382   3.632
 3028SOL    HW1 9983   3.710   3.466   3.650
 3028SOL    HW2 9984   3.616   3.350   3.717
 3029SOL     OW 9985   0.285   2.239   5.101
 3029SOL    HW1 9986   0.270   2.177   5.024
 3029SOL    HW2 9987   0.230   2.322   5.088
 3030SOL     OW 9988   0.140   3.915   6.311
 3030SOL    HW1 9989   0.059   3.950   6.264
 3030SOL    HW2 9990   0.222   3.959   6.273
 3031SOL     OW 9991   0.220   4.329   0.207
 3031SOL    HW1 9992   0.217   4.230   0.214
 3031SOL    HW2 9993   0.269   4.356   0.125
 3032SOL     OW 9994   3.846   0.498   3.522
 3032SOL    HW1 9995   3.788   0.455   3.453
 3032SOL    HW2 9996   3.848   0.597   3.507
 3033SOL     OW 9997   2.103   0.379   6.626
 3033SOL    HW1 9998   2.148   0.426   6.549
 3033SOL    HW2 9999   2.164   0.381   6.705
 3034SOL     OW10000   5.006   3.423   3.305
 3034SOL    HW110001   4.948   3.370   3.243
 3034SOL    HW210002   4.989   3.521   3.291
 3035SOL     OW10003   5.941   4.326   6.666
 3035SOL    HW110004   6.001   4.375   6.603
 3035SOL    HW210005   5.868   4.281   6.614
 3036SOL     OW10006   2.658   2.520   6.891
 3036SOL    HW110007   2.602   2.543   6.811
 3036SOL    HW210008   2.620   2.563   6.972
 3037SOL     OW10009   0.508   5.630   6.262
 3037SOL    HW110010   0.422   5.667   6.296
 3037SOL    HW210011   0.513   5.532   6.284
 3038SOL     OW10012   6.133   4.941   5.820
 3038SOL    HW110013   6.161   4.897   5.735
 3038SOL    HW210014   6.189   4.907   5.895
 3039SOL     OW10015   6.359   3.316   6.558
 3039SOL    HW110016   6.313   3.391   6.605
 3039SOL    HW210017   6.297   3.238   6.553
 3040SOL     OW10018   3.526   6.614   6.620
 3040SOL    HW110019   3.612   6.660   6.597
 3040SOL    HW210020   3.546   6.519   6.646
 3041SOL     OW10021   2.148   5.704   6.037
 3041SOL    HW110022   2.150   5.622   5.980
 3041SOL    HW210023   2.053   5.731   6.055
 3042SOL     OW10024   0.235   5.831   4.699
 3042SOL    HW110025   0.180   5.753   4.670
 3042SOL    HW210026   0.179   5.914   4.699
 3043SOL     OW10027   2.137   3.714   1.693
 3043SOL    HW110028   2.103   3.798   1.652
 3043SOL    HW210029   2.221   3.685   1.646
 3044SOL     OW10030   3.788   4.098   3.963
 3044SOL    HW110031   3.822   4.162   3.894
 3044SOL    HW210032   3.862   4.036   3.989
 3045SOL     OW10033   5.631   6.768   3.266
 3045SOL    HW110034   5.610   6.679   3.306
 3045SOL    HW210035   5.552   6.801   3.214
 3046SOL     OW10036   6.116   6.094   1.541
 3046SOL    HW110037   6.089   6.185   1.572
 3046SOL    HW210038   6.196   6.064   1.593
 3047SOL     OW10039   4.636   1.829   3.612
 3047SOL    HW110040   4.598   1.773   3.538
 3047SOL    HW210041   4.568   1.896   3.641
 3048SOL     OW10042   4.315   5.091   0.891
 3048SOL    HW110043   4.395   5.032   0.902
 3048SOL    HW210044   4.343   5.187   0.897
 3049SOL     OW10045   0.148   0.946   1.337
 3049SOL    HW110046   0.185   1.022   1.282
 3049SOL    HW210047   0.154   0.862   1.284
 3050SOL     OW10048   3.821   3.077   5.549
 3050SOL    HW110049   3.860   3.058   5.640
 3050SOL    HW210050   3.880   3.038   5.479
 3051SOL     OW10051   2.328   4.581   5.969
 3051SOL    HW110052   2.344   4.620   6.059
 3051SOL    HW210053   2.405   4.602   5.909
 3052SOL     OW10054   6.256   6.524   4.366
 3052SOL    HW110055   6.271   6.619   4.392
 3052SOL    HW210056   6.207   6.520   4.279
 3053SOL     OW10057   0.445   5.253   5.924
 3053SOL    HW110058   0.452   5.154   5.932
 3053SOL    HW210059   0.467   5.281   5.831
 3054SOL     OW10060   6.199   6.061   3.669
 3054SOL    HW110061   6.218   6.109   3.584
 3054SOL    HW210062   6.281   6.012   3.699
 3055SOL     OW10063   5.362   5.959   0.832
 3055SOL    HW110064   5.290   5.890   0.822
 3055SOL    HW210065   5.323   6.049   0.812
 3056SOL     OW10066   4.380   2.722   1.359
 3056SOL    HW110067   4.348   2.629   1.337
 3056SOL    HW210068   4.447   2.717   1.433
 3057SOL     OW10069   0.040   2.218   3.209
 3057SOL    HW110070   6.961   2.217   3.199
 3057SOL    HW210071   0.068   2.139   3.262
 3058SOL     OW10072   5.177   4.128   6.399
 3058SOL    HW110073   5.262   4.172   6.369
 3058SOL    HW210074   5.110   4.131   6.324
 3059SOL     OW10075   1.673   2.476   3.114
 3059SOL    HW110076   1.623   2.396   3.149
 3059SOL    HW210077   1.682   2.544   3.187
 3060SOL     OW10078   6.697   2.717   3.985
 3060SOL    HW110079   6.688   2.625   3.945
 3060SOL    HW210080   6.607   2.760   3.991
 3061SOL     OW10081   5.131   5.810   2.296
 3061SOL    HW110082   5.032   5.821   2.308
 3061SOL    HW210083   5.149   5.730   2.240
 3062SOL     OW10084   4.351   5.156   6.972
 3062SOL    HW110085   4.403   5.238   6.999
 3062SOL    HW210086   4.362   5.141   6.874
 3063SOL     OW10087   6.153   5.951   1.036
 3063SOL    HW110088   6.075   6.004   1.071
 3063SOL    HW210089   6.232   6.011   1.025
 3064SOL     OW10090   4.545   1.060   5.749
 3064SOL    HW110091   4.502   1.133   5.696
 3064SOL    HW210092   4.620   1.098   5.802
 3065SOL     OW10093   4.648   1.727   6.343
 3065SOL    HW110094   4.659   1.768   6.434
 3065SOL    HW210095   4.593   1.644   6.351
 3066SOL     OW10096   4.836   0.186   6.377
 3066SOL    HW110097   4.743   0.167   6.408
 3066SOL    HW210098   4.883   0.100   6.357
 3067SOL     OW10099   1.078   2.086   4.761
 3067SOL    HW110100   1.025   2.156   4.808
 3067SOL    HW210101   1.040   1.995   4.782
 3068SOL     OW10102   6.414   0.806   0.669
 3068SOL    HW110103   6.436   0.709   0.663
 3068SOL    HW210104   6.317   0.820   0.648
 3069SOL     OW10105   5.259   6.163   3.990
 3069SOL    HW110106   5.339   6.136   4.043
 3069SOL    HW210107   5.263   6.122   3.899
 3070SOL     OW10108   2.202   1.853   0.341
 3070SOL    HW110109   2.300   1.862   0.360
 3070SOL    HW210110   2.171   1.761   0.366
 3071SOL     OW10111   6.363   4.227   4.416
 3071SOL    HW110112   6.347   4.323   4.396
 3071SOL    HW210113   6.276   4.178   4.420
 3072SOL     OW10114   1.878   6.925   4.452
 3072SOL    HW110115   1.906   7.017   4.424
 3072SOL    HW210116   1.844   6.927   4.546
 3073SOL     OW10117   0.676   5.094   3.295
 3073SOL    HW110118   0.734   5.175   3.290
 3073SOL    HW210119   0.704   5.027   3.226
 3074SOL     OW10120   2.872   3.868   1.757
 3074SOL    HW110121   2.890   3.967   1.755
 3074SOL    HW210122   2.842   3.838   1.667
 3075SOL     OW10123   3.889   4.935   0.692
 3075SOL    HW110124   3.820   4.864   0.681
 3075SOL    HW210125   3.939   4.921   0.777
 3076SOL     OW10126   2.360   1.461   4.125
 3076SOL    HW110127   2.330   1.470   4.219
 3076SOL    HW210128   2.330   1.373   4.088
 3077SOL     OW10129   0.040   3.871   2.699
 3077SOL    HW110130   7.003   3.928   2.642
 3077SOL    HW210131   0.065   3.921   2.782
 3078SOL     OW10132   5.976   4.808   1.536
 3078SOL    HW110133   5.978   4.720   1.490
 3078SOL    HW210134   6.069   4.845   1.542
 3079SOL     OW10135   0.157   4.356   2.125
 3079SOL    HW110136   0.139   4.343   2.028
 3079SOL    HW210137   0.252   4.382   2.139
 3080SOL     OW10138   3.478   4.932   1.444
 3080SOL    HW110139   3.517   4.925   1.536
 3080SOL    HW210140   3.502   4.850   1.392
 3081SOL     OW10141   2.167   2.356   5.991
 3081SOL    HW110142   2.195   2.375   5.897
 3081SOL    HW210143   2.221   2.281   6.028
 3082SOL     OW10144   6.383   3.824   4.450
 3082SOL    HW110145   6.351   3.781   4.534
 3082SOL    HW210146   6.468   3.780   4.421
 3083SOL     OW10147   4.792   5.513   1.839
 3083SOL    HW110148   4.880   5.522   1.886
 3083SOL    HW210149   4.732   5.587   1.866
 3084SOL     OW10150   0.414   5.492   4.576
 3084SOL    HW110151   0.337   5.430   4.563
 3084SOL    HW210152   0.403   5.542   4.662
 3085SOL     OW10153   6.565   5.390   5.391
 3085SOL    HW110154   6.551   5.484   5.361
 3085SOL    HW210155   6.485   5.361   5.445
 3086SOL     OW10156   6.133   6.311   6.043
 3086SOL    HW110157   6.230   6.323   6.066
 3086SOL    HW210158   6.121   6.229   5.988
 3087SOL     OW10159   2.681   0.331   1.847
 3087SOL    HW110160   2.640   0.304   1.759
 3087SOL    HW210161   2.758   0.271   1.867
 3088SOL     OW10162   2.162   3.014   5.242
 3088SOL    HW110163   2.199   2.923   5.261
 3088SOL    HW210164   2.211   3.054   5.164
 3089SOL     OW10165   4.169   6.987   0.533
 3089SOL    HW110166   4.156   7.018   0.439
 3089SOL    HW210167   4.183   6.888   0.534
 3090SOL     OW10168   0.494   1.977   2.913
 3090SOL    HW110169   0.500   1.938   2.820
 3090SOL    HW210170   0.575   1.950   2.965
 3091SOL     OW10171   1.404   1.717   5.648
 3091SOL    HW110172   1.403   1.618   5.658
 3091SOL    HW210173   1.433   1.759   5.734
 3092SOL     OW10174   4.959   2.076   3.878
 3092SOL    HW110175   4.948   2.028   3.791
 3092SOL    HW210176   4.916   2.023   3.951
 3093SOL     OW10177   6.283   5.941   0.031
 3093SOL    HW110178   6.243   6.014   6.996
 3093SOL    HW210179   6.226   5.925   0.112
 3094SOL     OW10180   1.397   0.775   6.499
 3094SOL    HW110181   1.482   0.741   6.539
 3094SOL    HW210182   1.417   0.853   6.440
 3095SOL     OW10183   2.168   3.527   6.033
 3095SOL    HW110184   2.078   3.484   6.045
 3095SOL    HW210185   2.214   3.486   5.954
 3096SOL     OW10186   2.126   3.559   3.505
 3096SOL    HW110187   2.131   3.517   3.595
 3096SOL    HW210188   2.179   3.644   3.505
 3097SOL     OW10189   5.222   2.175   6.547
 3097SOL    HW110190   5.319   2.157   6.562
 3097SOL    HW210191   5.197   2.145   6.455
 3098SOL     OW10192   2.025   4.199   2.827
 3098SOL    HW110193   2.006   4.171   2.733
 3098SOL    HW210194   1.974   4.282   2.848
 3099SOL     OW10195   7.005   1.308   5.609
 3099SOL    HW110196   6.951   1.381   5.568
 3099SOL    HW210197   6.945   1.232   5.635
 3100SOL     OW10198   5.988   4.107   2.981
 3100SOL    HW110199   5.918   4.134   3.047
 3100SOL    HW210200   6.076   4.148   3.008
 3101SOL     OW10201   4.495   0.476   4.831
 3101SOL    HW110202   4.547   0.556   4.800
 3101SOL    HW210203   4.507   0.401   4.766
 3102SOL     OW10204   5.529   3.110   2.884
 3102SOL    HW110205   5.582   3.116   2.800
 3102SOL    HW210206   5.463   3.185   2.888
 3103SOL     OW10207   1.307   1.174   2.536
 3103SOL    HW110208   1.316   1.158   2.438
 3103SOL    HW210209   1.257   1.259   2.551
 3104SOL     OW10210   5.878   1.479   6.228
 3104SOL    HW110211   5.790   1.455   6.187
 3104SOL    HW210212   5.906   1.570   6.198
 3105SOL     OW10213   5.637   4.525   0.865
 3105SOL    HW110214   5.737   4.526   0.861
 3105SOL    HW210215   5.600   4.548   0.775
 3106SOL     OW10216   5.472   1.819   5.293
 3106SOL    HW110217   5.445   1.739   5.347
 3106SOL    HW210218   5.392   1.857   5.247
 3107SOL     OW10219   4.631   1.528   4.611
 3107SOL    HW110220   4.633   1.599   4.541
 3107SOL    HW210221   4.677   1.446   4.576
 3108SOL     OW10222   2.482   5.052   4.479
 3108SOL    HW110223   2.503   4.971   4.534
 3108SOL    HW210224   2.556   5.067   4.414
 3109SOL     OW10225   0.085   5.031   4.183
 3109SOL    HW110226   0.063   4.978   4.101
 3109SOL    HW210227   0.184   5.045   4.188
 3110SOL     OW10228   1.881   4.787   3.933
 3110SOL    HW110229   1.810   4.818   3.870
 3110SOL    HW210230   1.970   4.788   3.887
 3111SOL     OW10231   0.286   3.673   4.293
 3111SOL    HW110232   0.199   3.717   4.316
 3111SOL    HW210233   0.316   3.616   4.369
 3112SOL     OW10234   4.461   0.276   0.692
 3112SOL    HW110235   4.461   0.232   0.602
 3112SOL    HW210236   4.466   0.375   0.681
 3113SOL     OW10237   1.349   6.447   3.674
 3113SOL    HW110238   1.304   6.448   3.585
 3113SOL    HW210239   1.302   6.509   3.737
 3114SOL     OW10240   5.253   5.074   5.233
 3114SOL    HW110241   5.299   5.016   5.167
 3114SOL    HW210242   5.154   5.072   5.216
 3115SOL     OW10243   5.461   5.487   4.592
 3115SOL    HW110244   5.411   5.410   4.632
 3115SOL    HW210245   5.502   5.459   4.506
 3116SOL     OW10246   0.472   2.551   6.065
 3116SOL    HW110247   0.379   2.515   6.068
 3116SOL    HW210248   0.469   2.651   6.073
 3117SOL     OW10249   4.057   0.136   2.036
 3117SOL    HW110250   4.076   0.039   2.050
 3117SOL    HW210251   4.044   0.181   2.124
 3118SOL     OW10252   0.858   2.059   3.313
 3118SOL    HW110253   0.870   2.009   3.227
 3118SOL    HW210254   0.767   2.041   3.349
 3119SOL     OW10255   4.214   6.747   2.944
 3119SOL    HW110256   4.208   6.652   2.976
 3119SOL    HW210257   4.259   6.803   3.015
 3120SOL     OW10258   3.691   6.474   6.448
 3120SOL    HW110259   3.695   6.567   6.484
 3120SOL    HW210260   3.708   6.409   6.521
 3121SOL     OW10261   3.883   1.387   3.003
 3121SOL    HW110262   3.926   1.333   2.930
 3121SOL    HW210263   3.784   1.391   2.987
 3122SOL     OW10264   5.328   3.377   6.919
 3122SOL    HW110265   5.341   3.353   6.823
 3122SOL    HW210266   5.232   3.402   6.935
 3123SOL     OW10267   2.117   3.393   2.796
 3123SOL    HW110268   2.061   3.428   2.720
 3123SOL    HW210269   2.185   3.462   2.820
 3124SOL     OW10270   5.015   6.614   5.682
 3124SOL    HW110271   5.104   6.652   5.704
 3124SOL    HW210272   4.960   6.683   5.635
 3125SOL     OW10273   2.085   1.849   4.854
 3125SOL    HW110274   2.031   1.889   4.780
 3125SOL    HW210275   2.173   1.818   4.818
 3126SOL     OW10276   5.038   4.124   5.035
 3126SOL    HW110277   5.017   4.218   5.010
 3126SOL    HW210278   4.953   4.070   5.036
 3127SOL     OW10279   6.429   2.118   6.309
 3127SOL    HW110280   6.492   2.159   6.243
 3127SOL    HW210281   6.468   2.127   6.401
 3128SOL     OW10282   4.474   2.301   1.513
 3128SOL    HW110283   4.510   2.345   1.431
 3128SOL    HW210284   4.454   2.370   1.582
 3129SOL     OW10285   4.117   4.533   0.168
 3129SOL    HW110286   4.209   4.495   0.177
 3129SOL    HW210287   4.103   4.602   0.238
 3130SOL     OW10288   6.403   5.381   3.372
 3130SOL    HW110289   6.331   5.423   3.318
 3130SOL    HW210290   6.418   5.434   3.456
 3131SOL     OW10291   0.282   2.199   3.481
 3131SOL    HW110292   0.259   2.232   3.572
 3131SOL    HW210293   0.282   2.275   3.416
 3132SOL     OW10294   4.496   4.015   6.040
 3132SOL    HW110295   4.473   3.918   6.049
 3132SOL    HW210296   4.428   4.070   6.088
 3133SOL     OW10297   5.556   6.386   4.592
 3133SOL    HW110298   5.587   6.370   4.685
 3133SOL    HW210299   5.471   6.438   4.593
 3134SOL     OW10300   3.799   5.457   3.464
 3134SOL    HW110301   3.876   5.481   3.523
 3134SOL    HW210302   3.718   5.511   3.490
 3135SOL     OW10303   4.290   1.027   6.375
 3135SOL    HW110304   4.325   0.944   6.419
 3135SOL    HW210305   4.267   1.094   6.445
 3136SOL     OW10306   6.148   5.512   1.847
 3136SOL    HW110307   6.166   5.434   1.786
 3136SOL    HW210308   6.049   5.523   1.858
 3137SOL     OW10309   5.132   3.732   0.087
 3137SOL    HW110310   5.170   3.643   0.060
 3137SOL    HW210311   5.136   3.795   0.009
 3138SOL     OW10312   6.706   6.509   5.253
 3138SOL    HW110313   6.646   6.448   5.305
 3138SOL    HW210314   6.729   6.588   5.309
 3139SOL     OW10315   1.375   4.857   2.061
 3139SOL    HW110316   1.428   4.917   2.121
 3139SOL    HW210317   1.413   4.862   1.968
 3140SOL     OW10318   4.799   5.701   6.414
 3140SOL    HW110319   4.865   5.629   6.392
 3140SOL    HW210320   4.811   5.778   6.350
 3141SOL     OW10321   6.039   2.249   0.088
 3141SOL    HW110322   6.097   2.180   0.046
 3141SOL    HW210323   6.030   2.327   0.026
 3142SOL     OW10324   4.224   0.487   3.785
 3142SOL    HW110325   4.129   0.516   3.785
 3142SOL    HW210326   4.279   0.553   3.733
 3143SOL     OW10327   6.068   1.346   6.820
 3143SOL    HW110328   6.078   1.445   6.813
 3143SOL    HW210329   5.993   1.316   6.760
 3144SOL     OW10330   3.713   4.985   6.402
 3144SOL    HW110331   3.732   5.080   6.427
 3144SOL    HW210332   3.771   4.924   6.455
 3145SOL     OW10333   0.787   5.964   5.447
 3145SOL    HW110334   0.750   5.885   5.398
 3145SOL    HW210335   0.718   6.036   5.451
 3146SOL     OW10336   6.441   1.196   4.399
 3146SOL    HW110337   6.444   1.292   4.370
 3146SOL    HW210338   6.511   1.144   4.350
 3147SOL     OW10339   4.941   0.362   0.770
 3147SOL    HW110340   4.945   0.307   0.853
 3147SOL    HW210341   4.852   0.407   0.764
 3148SOL     OW10342   5.617   5.181   0.471
 3148SOL    HW110343   5.558   5.103   0.496
 3148SOL    HW210344   5.666   5.213   0.551
 3149SOL     OW10345   4.333   2.985   6.805
 3149SOL    HW110346   4.391   3.066   6.816
 3149SOL    HW210347   4.237   3.014   6.799
 3150SOL     OW10348   6.855   0.725   5.284
 3150SOL    HW110349   6.793   0.650   5.260
 3150SOL    HW210350   6.947   0.689   5.297
 3151SOL     OW10351   0.413   1.672   6.944
 3151SOL    HW110352   0.355   1.702   6.869
 3151SOL    HW210353   0.395   1.576   6.965
 3152SOL     OW10354   2.693   1.403   5.777
 3152SOL    HW110355   2.712   1.322   5.722
 3152SOL    HW210356   2.675   1.375   5.871
 3153SOL     OW10357   5.477   5.637   1.538
 3153SOL    HW110358   5.453   5.675   1.448
 3153SOL    HW210359   5.525   5.551   1.525
 3154SOL     OW10360   3.882   2.175   0.441
 3154SOL    HW110361   3.879   2.132   0.351
 3154SOL    HW210362   3.976   2.178   0.474
 3155SOL     OW10363   6.541   6.356   6.625
 3155SOL    HW110364   6.635   6.377   6.599
 3155SOL    HW210365   6.479   6.414   6.572
 3156SOL     OW10366   2.801   4.786   0.923
 3156SOL    HW110367   2.876   4.774   0.988
 3156SOL    HW210368   2.758   4.697   0.905
 3157SOL     OW10369   1.205   1.241   3.138
 3157SOL    HW110370   1.224   1.144   3.125
 3157SOL    HW210371   1.106   1.257   3.136
 3158SOL     OW10372   1.878   0.469   6.403
 3158SOL    HW110373   1.896   0.466   6.501
 3158SOL    HW210374   1.803   0.406   6.381
 3159SOL     OW10375   4.781   5.686   1.169
 3159SOL    HW110376   4.841   5.607   1.154
 3159SOL    HW210377   4.720   5.668   1.245
 3160SOL     OW10378   2.316   1.040   5.572
 3160SOL    HW110379   2.339   0.976   5.646
 3160SOL    HW210380   2.217   1.041   5.559
 3161SOL     OW10381   1.952   2.389   2.091
 3161SOL    HW110382   1.951   2.451   2.169
 3161SOL    HW210383   1.943   2.441   2.006
 3162SOL     OW10384   1.420   5.632   2.312
 3162SOL    HW110385   1.499   5.669   2.264
 3162SOL    HW210386   1.388   5.699   2.380
 3163SOL     OW10387   5.452   4.643   1.427
 3163SOL    HW110388   5.443   4.657   1.329
 3163SOL    HW210389   5.370   4.676   1.473
 3164SOL     OW10390   2.138   6.753   2.912
 3164SOL    HW110391   2.055   6.765   2.967
 3164SOL    HW210392   2.155   6.836   2.859
 3165SOL     OW10393   0.020   5.342   7.001
 3165SOL    HW110394   0.064   5.409   0.040
 3165SOL    HW210395   0.085   5.312   6.930
 3166SOL     OW10396   3.723   2.075   4.632
 3166SOL    HW110397   3.807   2.038   4.673
 3166SOL    HW210398   3.651   2.080   4.702
 3167SOL     OW10399   6.375   2.894   2.649
 3167SOL    HW110400   6.422   2.979   2.674
 3167SOL    HW210401   6.438   2.833   2.602
 3168SOL     OW10402   5.968   1.405   0.709
 3168SOL    HW110403   5.890   1.445   0.661
 3168SOL    HW210404   6.042   1.389   0.644
 3169SOL     OW10405   1.090   2.129   2.471
 3169SOL    HW110406   1.155   2.122   2.395
 3169SOL    HW210407   0.999   2.106   2.439
 3170SOL     OW10408   2.579   5.042   4.131
 3170SOL    HW110409   2.602   4.993   4.047
 3170SOL    HW210410   2.617   4.992   4.209
 3171SOL     OW10411   6.791   2.328   4.424
 3171SOL    HW110412   6.701   2.287   4.442
 3171SOL    HW210413   6.860   2.281   4.478
 3172SOL     OW10414   6.029   3.895   1.052
 3172SOL    HW110415   6.103   3.946   1.097
 3172SOL    HW210416   5.980   3.956   0.990
 3173SOL     OW10417   5.523   4.569   0.212
 3173SOL    HW110418   5.520   4.486   0.157
 3173SOL    HW210419   5.480   4.551   0.301
 3174SOL     OW10420   2.807   2.937   0.032
 3174SOL    HW110421   2.803   2.951   6.954
 3174SOL    HW210422   2.717   2.909   0.066
 3175SOL     OW10423   5.882   6.043   5.393
 3175SOL    HW110424   5.945   6.100   5.341
 3175SOL    HW210425   5.931   5.966   5.433
 3176SOL     OW10426   6.748   4.941   3.993
 3176SOL    HW110427   6.702   4.857   3.964
 3176SOL    HW210428   6.846   4.925   3.998
 3177SOL     OW10429   5.690   2.302   1.657
 3177SOL    HW110430   5.667   2.296   1.560
 3177SOL    HW210431   5.648   2.227   1.707
 3178SOL     OW10432   1.578   0.641   2.142
 3178SOL    HW110433   1.673   0.615   2.161
 3178SOL    HW210434   1.517   0.566   2.168
 3179SOL     OW10435   0.717   4.389   3.048
 3179SOL    HW110436   0.804   4.408   3.002
 3179SOL    HW210437   0.681   4.301   3.016
 3180SOL     OW10438   6.195   0.091   6.302
 3180SOL    HW110439   6.124   0.022   6.292
 3180SOL    HW210440   6.167   0.159   6.371
 3181SOL     OW10441   6.789   6.529   4.742
 3181SOL    HW110442   6.720   6.592   4.778
 3181SOL    HW210443   6.880   6.558   4.771
 3182SOL     OW10444   1.540   6.811   1.412
 3182SOL    HW110445   1.448   6.826   1.376
 3182SOL    HW210446   1.539   6.819   1.512
 3183SOL     OW10447   4.264   4.053   0.416
 3183SOL    HW110448   4.251   3.981   0.484
 3183SOL    HW210449   4.179   4.066   0.365
 3184SOL     OW10450   6.645   0.502   4.511
 3184SOL    HW110451   6.615   0.412   4.542
 3184SOL    HW210452   6.574   0.569   4.532
 3185SOL     OW10453   1.160   0.324   6.305
 3185SOL    HW110454   1.181   0.421   6.311
 3185SOL    HW210455   1.110   0.305   6.220
 3186SOL     OW10456   0.806   1.975   6.139
 3186SOL    HW110457   0.885   2.006   6.086
 3186SOL    HW210458   0.724   1.976   6.081
 3187SOL     OW10459   5.072   0.321   3.444
 3187SOL    HW110460   5.061   0.263   3.364
 3187SOL    HW210461   5.009   0.291   3.516
 3188SOL     OW10462   0.919   6.448   1.550
 3188SOL    HW110463   0.918   6.348   1.543
 3188SOL    HW210464   0.875   6.488   1.470
 3189SOL     OW10465   2.603   1.809   5.435
 3189SOL    HW110466   2.526   1.836   5.377
 3189SOL    HW210467   2.688   1.844   5.394
 3190SOL     OW10468   6.470   6.017   4.814
 3190SOL    HW110469   6.525   6.054   4.739
 3190SOL    HW210470   6.527   6.011   4.896
 3191SOL     OW10471   4.209   5.289   0.475
 3191SOL    HW110472   4.204   5.386   0.496
 3191SOL    HW210473   4.224   5.277   0.376
 3192SOL     OW10474   5.230   0.853   3.262
 3192SOL    HW110475   5.305   0.917   3.282
 3192SOL    HW210476   5.260   0.785   3.195
 3193SOL     OW10477   3.852   5.859   4.776
 3193SOL    HW110478   3.792   5.929   4.815
 3193SOL    HW210479   3.800   5.804   4.710
 3194SOL     OW10480   2.181   6.442   6.107
 3194SOL    HW110481   2.129   6.367   6.068
 3194SOL    HW210482   2.243   6.407   6.177
 3195SOL     OW10483   6.956   5.982   1.494
 3195SOL    HW110484   6.916   5.895   1.465
 3195SOL    HW210485   6.884   6.040   1.533
 3196SOL     OW10486   5.599   0.829   2.918
 3196SOL    HW110487   5.692   0.816   2.953
 3196SOL    HW210488   5.602   0.839   2.819
 3197SOL     OW10489   3.116   0.958   0.027
 3197SOL    HW110490   3.128   1.056   0.010
 3197SOL    HW210491   3.198   0.909   7.019
 3198SOL     OW10492   6.003   4.314   3.960
 3198SOL    HW110493   6.100   4.333   3.944
 3198SOL    HW210494   5.991   4.217   3.981
 3199SOL     OW10495   5.318   3.480   4.199
 3199SOL    HW110496   5.232   3.440   4.229
 3199SOL    HW210497   5.322   3.480   4.099
 3200SOL     OW10498   6.631   3.480   4.730
 3200SOL    HW110499   6.632   3.533   4.815
 3200SOL    HW210500   6.618   3.542   4.652
 3201SOL     OW10501   6.212   3.429   2.515
 3201SOL    HW110502   6.295   3.373   2.522
 3201SOL    HW210503   6.142   3.391   2.577
 3202SOL     OW10504   3.144   2.945   5.956
 3202SOL    HW110505   3.132   2.853   5.918
 3202SOL    HW210506   3.077   3.006   5.915
 3203SOL     OW10507   3.377   6.438   1.565
 3203SOL    HW110508   3.331   6.350   1.552
 3203SOL    HW210509   3.363   6.469   1.659
 3204SOL     OW10510   5.431   0.681   3.110
 3204SOL    HW110511   5.494   0.718   3.041
 3204SOL    HW210512   5.477   0.678   3.199
 3205SOL     OW10513   5.385   2.765   0.631
 3205SOL    HW110514   5.481   2.764   0.603
 3205SOL    HW210515   5.379   2.791   0.728
 3206SOL     OW10516   3.553   5.125   0.227
 3206SOL    HW110517   3.470   5.094   0.273
 3206SOL    HW210518   3.633   5.083   0.270
 3207SOL     OW10519   1.974   5.844   2.524
 3207SOL    HW110520   1.888   5.891   2.505
 3207SOL    HW210521   1.961   5.745   2.514
 3208SOL     OW10522   0.060   3.845   6.887
 3208SOL    HW110523   0.051   3.937   6.925
 3208SOL    HW210524   0.049   3.848   6.788
 3209SOL     OW10525   5.122   7.011   5.119
 3209SOL    HW110526   5.115   0.063   5.051
 3209SOL    HW210527   5.034   6.964   5.127
 3210SOL     OW10528   4.581   5.026   2.293
 3210SOL    HW110529   4.659   5.046   2.353
 3210SOL    HW210530   4.597   5.066   2.203
 3211SOL     OW10531   2.457   0.244   6.907
 3211SOL    HW110532   2.422   0.197   6.827
 3211SOL    HW210533   2.554   0.222   6.919
 3212SOL     OW10534   3.713   7.018   4.362
 3212SOL    HW110535   3.725   0.076   4.423
 3212SOL    HW210536   3.763   0.014   4.277
 3213SOL     OW10537   1.279   0.151   5.881
 3213SOL    HW110538   1.230   0.205   5.950
 3213SOL    HW210539   1.294   0.207   5.799
 3214SOL     OW10540   2.206   6.958   2.754
 3214SOL    HW110541   2.236   0.033   2.760
 3214SOL    HW210542   2.261   6.911   2.685
 3215SOL     OW10543   2.473   3.235   1.707
 3215SOL    HW110544   2.428   3.153   1.744
 3215SOL    HW210545   2.439   3.316   1.754
 3216SOL     OW10546   0.315   4.143   1.329
 3216SOL    HW110547   0.380   4.086   1.379
 3216SOL    HW210548   0.225   4.098   1.329
 3217SOL     OW10549   6.029   5.757   4.167
 3217SOL    HW110550   5.992   5.811   4.092
 3217SOL    HW210551   6.096   5.812   4.217
 3218SOL     OW10552   5.787   1.501   3.374
 3218SOL    HW110553   5.794   1.601   3.368
 3218SOL    HW210554   5.790   1.473   3.469
 3219SOL     OW10555   4.301   1.878   4.431
 3219SOL    HW110556   4.377   1.928   4.472
 3219SOL    HW210557   4.279   1.917   4.342
 3220SOL     OW10558   0.448   3.777   5.585
 3220SOL    HW110559   0.402   3.865   5.579
 3220SOL    HW210560   0.525   3.783   5.649
 3221SOL     OW10561   3.917   1.844   2.374
 3221SOL    HW110562   3.832   1.792   2.373
 3221SOL    HW210563   3.897   1.939   2.397
 3222SOL     OW10564   2.975   0.812   3.138
 3222SOL    HW110565   2.952   0.909   3.139
 3222SOL    HW210566   2.980   0.780   3.043
 3223SOL     OW10567   1.975   5.376   0.635
 3223SOL    HW110568   1.956   5.279   0.643
 3223SOL    HW210569   1.898   5.423   0.592
 3224SOL     OW10570   4.587   2.538   3.502
 3224SOL    HW110571   4.573   2.456   3.447
 3224SOL    HW210572   4.536   2.529   3.587
 3225SOL     OW10573   3.159   0.978   4.847
 3225SOL    HW110574   3.189   1.060   4.896
 3225SOL    HW210575   3.221   0.961   4.771
 3226SOL     OW10576   5.538   1.338   0.055
 3226SOL    HW110577   5.597   1.377   7.004
 3226SOL    HW210578   5.509   1.246   0.027
 3227SOL     OW10579   6.069   3.999   5.814
 3227SOL    HW110580   6.129   3.934   5.860
 3227SOL    HW210581   5.979   3.957   5.800
 3228SOL     OW10582   2.155   4.373   0.996
 3228SOL    HW110583   2.095   4.453   0.993
 3228SOL    HW210584   2.120   4.309   1.065
 3229SOL     OW10585   0.892   1.085   0.674
 3229SOL    HW110586   0.982   1.108   0.711
 3229SOL    HW210587   0.848   1.018   0.735
 3230SOL     OW10588   3.131   6.383   5.152
 3230SOL    HW110589   3.093   6.300   5.112
 3230SOL    HW210590   3.134   6.374   5.252
 3231SOL     OW10591   2.932   2.222   2.623
 3231SOL    HW110592   2.969   2.216   2.530
 3231SOL    HW210593   2.936   2.132   2.666
 3232SOL     OW10594   3.296   5.195   3.752
 3232SOL    HW110595   3.345   5.232   3.673
 3232SOL    HW210596   3.252   5.109   3.726
 3233SOL     OW10597   2.083   0.038   5.260
 3233SOL    HW110598   2.182   0.030   5.273
 3233SOL    HW210599   2.051   6.987   5.198
 3234SOL     OW10600   3.501   3.845   0.697
 3234SOL    HW110601   3.469   3.768   0.752
 3234SOL    HW210602   3.595   3.867   0.721
 3235SOL     OW10603   0.167   2.004   3.045
 3235SOL    HW110604   0.247   2.056   3.075
 3235SOL    HW210605   0.097   2.004   3.117
 3236SOL     OW10606   5.732   6.351   0.872
 3236SOL    HW110607   5.789   6.359   0.790
 3236SOL    HW210608   5.703   6.256   0.883
 3237SOL     OW10609   6.171   2.419   5.698
 3237SOL    HW110610   6.098   2.395   5.634
 3237SOL    HW210611   6.205   2.511   5.677
 3238SOL     OW10612   0.617   4.414   0.785
 3238SOL    HW110613   0.645   4.450   0.874
 3238SOL    HW210614   0.529   4.455   0.759
 3239SOL     OW10615   6.535   1.391   4.893
 3239SOL    HW110616   6.632   1.392   4.870
 3239SOL    HW210617   6.483   1.435   4.819
 3240SOL     OW10618   0.875   1.555   1.388
 3240SOL    HW110619   0.958   1.510   1.355
 3240SOL    HW210620   0.901   1.632   1.447
 3241SOL     OW10621   6.965   2.992   5.550
 3241SOL    HW110622   6.945   2.982   5.647
 3241SOL    HW210623   0.024   3.052   5.538
 3242SOL     OW10624   0.413   4.646   5.327
 3242SOL    HW110625   0.414   4.721   5.393
 3242SOL    HW210626   0.336   4.586   5.346
 3243SOL     OW10627   6.050   4.834   4.996
 3243SOL    HW110628   5.986   4.911   4.995
 3243SOL    HW210629   6.143   4.868   5.003
 3244SOL     OW10630   5.073   6.988   6.942
 3244SOL    HW110631   5.160   6.951   6.910
 3244SOL    HW210632   5.081   7.011   0.019
 3245SOL     OW10633   1.977   6.242   4.534
 3245SOL    HW110634   1.964   6.226   4.436
 3245SOL    HW210635   2.011   6.159   4.578
 3246SOL     OW10636   6.303   5.242   2.169
 3246SOL    HW110637   6.352   5.187   2.101
 3246SOL    HW210638   6.288   5.334   2.132
 3247SOL     OW10639   2.166   4.290   4.688
 3247SOL    HW110640   2.139   4.203   4.646
 3247SOL    HW210641   2.170   4.279   4.787
 3248SOL     OW10642   6.027   2.631   3.924
 3248SOL    HW110643   6.034   2.534   3.899
 3248SOL    HW210644   6.043   2.641   4.022
 3249SOL     OW10645   3.980   3.899   4.063
 3249SOL    HW110646   4.029   3.825   4.016
 3249SOL    HW210647   4.002   3.897   4.160
 3250SOL     OW10648   4.258   5.425   3.124
 3250SOL    HW110649   4.194   5.423   3.047
 3250SOL    HW210650   4.308   5.512   3.123
 3251SOL     OW10651   2.206   2.303   1.960
 3251SOL    HW110652   2.222   2.365   1.883
 3251SOL    HW210653   2.152   2.351   2.030
 3252SOL     OW10654   1.812   1.514   2.575
 3252SOL    HW110655   1.752   1.469   2.509
 3252SOL    HW210656   1.756   1.559   2.645
 3253SOL     OW10657   6.558   3.162   1.086
 3253SOL    HW110658   6.504   3.190   1.006
 3253SOL    HW210659   6.505   3.180   1.169
 3254SOL     OW10660   5.930   0.026   0.815
 3254SOL    HW110661   6.007   0.073   0.858
 3254SOL    HW210662   5.851   0.029   0.876
 3255SOL     OW10663   3.689   4.881   2.124
 3255SOL    HW110664   3.673   4.806   2.059
 3255SOL    HW210665   3.614   4.885   2.190
 3256SOL     OW10666   5.727   2.301   2.101
 3256SOL    HW110667   5.812   2.251   2.087
 3256SOL    HW210668   5.652   2.235   2.115
 3257SOL     OW10669   2.728   1.334   2.497
 3257SOL    HW110670   2.683   1.409   2.447
 3257SOL    HW210671   2.766   1.269   2.432
 3258SOL     OW10672   0.165   5.333   4.672
 3258SOL    HW110673   0.207   5.247   4.642
 3258SOL    HW210674   0.161   5.336   4.772
 3259SOL     OW10675   5.906   4.966   3.002
 3259SOL    HW110676   5.909   5.053   3.051
 3259SOL    HW210677   5.999   4.936   2.981
 3260SOL     OW10678   2.943   4.850   3.672
 3260SOL    HW110679   2.888   4.868   3.754
 3260SOL    HW210680   2.883   4.824   3.597
 3261SOL     OW10681   6.274   0.451   4.273
 3261SOL    HW110682   6.287   0.425   4.177
 3261SOL    HW210683   6.187   0.414   4.306
 3262SOL     OW10684   3.115   1.771   2.488
 3262SOL    HW110685   3.162   1.701   2.435
 3262SOL    HW210686   3.016   1.755   2.484
 3263SOL     OW10687   5.476   0.483   1.172
 3263SOL    HW110688   5.460   0.572   1.214
 3263SOL    HW210689   5.426   0.476   1.086
 3264SOL     OW10690   1.273   4.980   6.922
 3264SOL    HW110691   1.354   4.943   6.967
 3264SOL    HW210692   1.284   5.078   6.909
 3265SOL     OW10693   6.702   5.884   5.454
 3265SOL    HW110694   6.613   5.866   5.495
 3265SOL    HW210695   6.700   5.856   5.358
 3266SOL     OW10696   3.165   4.944   6.534
 3266SOL    HW110697   3.109   4.967   6.614
 3266SOL    HW210698   3.226   4.869   6.557
 3267SOL     OW10699   3.131   0.328   0.149
 3267SOL    HW110700   3.070   0.374   0.214
 3267SOL    HW210701   3.150   0.390   0.073
 3268SOL     OW10702   5.547   4.166   2.811
 3268SOL    HW110703   5.531   4.145   2.715
 3268SOL    HW210704   5.636   4.128   2.839
 3269SOL     OW10705   2.204   5.514   0.570
 3269SOL    HW110706   2.109   5.484   0.582
 3269SOL    HW210707   2.265   5.437   0.586
 3270SOL     OW10708   1.580   2.912   6.670
 3270SOL    HW110709   1.548   2.983   6.733
 3270SOL    HW210710   1.676   2.928   6.649
 3271SOL     OW10711   1.049   4.260   1.533
 3271SOL    HW110712   0.958   4.232   1.500
 3271SOL    HW210713   1.118   4.199   1.495
 3272SOL     OW10714   3.765   0.242   0.391
 3272SOL    HW110715   3.809   0.276   0.474
 3272SOL    HW210716   3.671   0.214   0.411
 3273SOL     OW10717   4.280   3.851   6.608
 3273SOL    HW110718   4.343   3.773   6.608
 3273SOL    HW210719   4.309   3.916   6.678
 3274SOL     OW10720   4.773   0.051   2.190
 3274SOL    HW110721   4.842   0.028   2.121
 3274SOL    HW210722   4.694   7.011   2.178
 3275SOL     OW10723   4.621   0.204   1.801
 3275SOL    HW110724   4.562   0.192   1.881
 3275SOL    HW210725   4.568   0.187   1.718
 3276SOL     OW10726   6.247   6.207   0.254
 3276SOL    HW110727   6.343   6.233   0.252
 3276SOL    HW210728   6.191   6.287   0.275
 3277SOL     OW10729   4.883   1.119   2.076
 3277SOL    HW110730   4.920   1.149   2.164
 3277SOL    HW210731   4.890   1.020   2.069
 3278SOL     OW10732   4.865   1.108   6.395
 3278SOL    HW110733   4.818   1.059   6.321
 3278SOL    HW210734   4.836   1.204   6.396
 3279SOL     OW10735   4.054   0.263   2.274
 3279SOL    HW110736   3.993   0.231   2.346
 3279SOL    HW210737   4.049   0.363   2.267
 3280SOL     OW10738   0.378   2.291   4.061
 3280SOL    HW110739   0.446   2.363   4.044
 3280SOL    HW210740   0.301   2.330   4.112
 3281SOL     OW10741   6.032   2.562   1.941
 3281SOL    HW110742   5.998   2.604   2.025
 3281SOL    HW210743   5.959   2.507   1.900
 3282SOL     OW10744   6.722   4.883   5.039
 3282SOL    HW110745   6.767   4.829   5.110
 3282SOL    HW210746   6.756   4.977   5.042
 3283SOL     OW10747   3.571   1.411   0.545
 3283SOL    HW110748   3.483   1.410   0.497
 3283SOL    HW210749   3.555   1.418   0.644
 3284SOL     OW10750   1.962   0.807   5.600
 3284SOL    HW110751   2.028   0.750   5.551
 3284SOL    HW210752   1.937   0.763   5.687
 3285SOL     OW10753   4.318   1.282   4.477
 3285SOL    HW110754   4.247   1.350   4.456
 3285SOL    HW210755   4.356   1.301   4.568
 3286SOL     OW10756   1.562   3.993   3.202
 3286SOL    HW110757   1.590   3.903   3.170
 3286SOL    HW210758   1.562   3.995   3.302
 3287SOL     OW10759   3.359   1.506   0.789
 3287SOL    HW110760   3.265   1.538   0.780
 3287SOL    HW210761   3.361   1.406   0.789
 3288SOL     OW10762   3.038   5.429   1.442
 3288SOL    HW110763   3.128   5.405   1.478
 3288SOL    HW210764   2.970   5.364   1.475
 3289SOL     OW10765   5.391   0.077   0.357
 3289SOL    HW110766   5.325   0.150   0.377
 3289SOL    HW210767   5.438   0.097   0.271
 3290SOL     OW10768   0.772   4.032   0.154
 3290SOL    HW110769   0.696   4.004   0.212
 3290SOL    HW210770   0.749   4.016   0.058
 3291SOL     OW10771   5.274   6.727   5.733
 3291SOL    HW110772   5.271   6.805   5.670
 3291SOL    HW210773   5.273   6.760   5.827
 3292SOL     OW10774   0.670   3.110   1.008
 3292SOL    HW110775   0.705   3.040   1.070
 3292SOL    HW210776   0.579   3.138   1.038
 3293SOL     OW10777   6.755   4.789   1.913
 3293SOL    HW110778   6.785   4.849   1.988
 3293SOL    HW210779   6.676   4.830   1.868
 3294SOL     OW10780   4.002   3.012   5.383
 3294SOL    HW110781   4.035   3.085   5.322
 3294SOL    HW210782   3.997   2.926   5.333
 3295SOL     OW10783   1.610   3.544   3.300
 3295SOL    HW110784   1.587   3.608   3.226
 3295SOL    HW210785   1.706   3.557   3.327
 3296SOL     OW10786   2.490   0.818   0.113
 3296SOL    HW110787   2.537   0.765   0.184
 3296SOL    HW210788   2.443   0.755   0.051
 3297SOL     OW10789   3.044   0.636   5.738
 3297SOL    HW110790   2.989   0.674   5.664
 3297SOL    HW210791   3.123   0.589   5.699
 3298SOL     OW10792   3.945   3.851   6.162
 3298SOL    HW110793   3.859   3.840   6.113
 3298SOL    HW210794   4.005   3.774   6.142
 3299SOL     OW10795   2.511   6.759   4.259
 3299SOL    HW110796   2.505   6.670   4.304
 3299SOL    HW210797   2.591   6.760   4.198
 3300SOL     OW10798   1.702   1.064   2.966
 3300SOL    HW110799   1.644   1.123   3.023
 3300SOL    HW210800   1.675   0.968   2.980
 3301SOL     OW10801   1.371   0.819   2.147
 3301SOL    HW110802   1.290   0.777   2.188
 3301SOL    HW210803   1.446   0.752   2.145
 3302SOL     OW10804   1.608   4.714   5.181
 3302SOL    HW110805   1.589   4.696   5.085
 3302SOL    HW210806   1.680   4.784   5.188
 3303SOL     OW10807   4.529   4.084   0.429
 3303SOL    HW110808   4.573   4.008   0.381
 3303SOL    HW210809   4.430   4.075   0.422
 3304SOL     OW10810   2.792   3.809   0.832
 3304SOL    HW110811   2.867   3.743   0.827
 3304SOL    HW210812   2.830   3.901   0.827
 3305SOL     OW10813   3.242   2.631   6.728
 3305SOL    HW110814   3.186   2.706   6.765
 3305SOL    HW210815   3.333   2.635   6.769
 3306SOL     OW10816   2.713   0.256   0.613
 3306SOL    HW110817   2.681   0.162   0.631
 3306SOL    HW210818   2.800   0.271   0.661
 3307SOL     OW10819   1.927   5.358   5.239
 3307SOL    HW110820   2.020   5.394   5.233
 3307SOL    HW210821   1.864   5.420   5.193
 3308SOL     OW10822   5.359   5.228   1.779
 3308SOL    HW110823   5.412   5.228   1.864
 3308SOL    HW210824   5.403   5.168   1.712
 3309SOL     OW10825   5.808   3.408   3.955
 3309SOL    HW110826   5.718   3.403   3.998
 3309SOL    HW210827   5.878   3.382   4.022
 3310SOL     OW10828   6.068   4.361   0.131
 3310SOL    HW110829   6.082   4.459   0.115
 3310SOL    HW210830   6.056   4.315   0.043
 3311SOL     OW10831   1.326   2.832   1.118
 3311SOL    HW110832   1.404   2.772   1.103
 3311SOL    HW210833   1.354   2.927   1.103
 3312SOL     OW10834   5.029   3.633   0.352
 3312SOL    HW110835   5.084   3.654   0.271
 3312SOL    HW210836   4.965   3.708   0.368
 3313SOL     OW10837   1.040   6.558   3.827
 3313SOL    HW110838   1.135   6.589   3.823
 3313SOL    HW210839   0.990   6.611   3.896
 3314SOL     OW10840   3.242   6.292   3.751
 3314SOL    HW110841   3.157   6.330   3.786
 3314SOL    HW210842   3.238   6.288   3.651
 3315SOL     OW10843   0.932   6.736   4.058
 3315SOL    HW110844   1.027   6.713   4.082
 3315SOL    HW210845   0.916   6.833   4.076
 3316SOL     OW10846   3.844   1.660   0.687
 3316SOL    HW110847   3.904   1.674   0.766
 3316SOL    HW210848   3.851   1.565   0.657
 3317SOL     OW10849   5.880   2.251   0.976
 3317SOL    HW110850   5.909   2.159   0.949
 3317SOL    HW210851   5.906   2.317   0.905
 3318SOL     OW10852   4.063   2.549   0.577
 3318SOL    HW110853   3.992   2.619   0.584
 3318SOL    HW210854   4.095   2.525   0.668
 3319SOL     OW10855   6.421   6.366   4.106
 3319SOL    HW110856   6.345   6.413   4.153
 3319SOL    HW210857   6.404   6.365   4.008
 3320SOL     OW10858   6.392   0.758   2.790
 3320SOL    HW110859   6.435   0.697   2.723
 3320SOL    HW210860   6.463   0.805   2.842
 3321SOL     OW10861   5.010   1.510   6.711
 3321SOL    HW110862   4.921   1.467   6.728
 3321SOL    HW210863   4.995   1.599   6.667
 3322SOL     OW10864   5.899   3.678   1.728
 3322SOL    HW110865   5.919   3.700   1.823
 3322SOL    HW210866   5.962   3.608   1.695
 3323SOL     OW10867   0.483   0.292   2.178
 3323SOL    HW110868   0.520   0.376   2.140
 3323SOL    HW210869   0.558   0.234   2.210
 3324SOL     OW10870   6.610   5.667   6.355
 3324SOL    HW110871   6.631   5.702   6.447
 3324SOL    HW210872   6.511   5.666   6.342
 3325SOL     OW10873   2.485   5.525   6.282
 3325SOL    HW110874   2.584   5.535   6.284
 3325SOL    HW210875   2.456   5.460   6.353
 3326SOL     OW10876   4.075   1.392   1.774
 3326SOL    HW110877   4.162   1.409   1.726
 3326SOL    HW210878   4.085   1.419   1.870
 3327SOL     OW10879   1.682   6.194   6.010
 3327SOL    HW110880   1.756   6.144   6.055
 3327SOL    HW210881   1.635   6.251   6.078
 3328SOL     OW10882   4.258   2.755   5.509
 3328SOL    HW110883   4.261   2.855   5.514
 3328SOL    HW210884   4.172   2.726   5.467
 3329SOL     OW10885   6.791   6.485   5.798
 3329SOL    HW110886   6.797   6.572   5.846
 3329SOL    HW210887   6.864   6.425   5.829
 3330SOL     OW10888   6.811   2.961   3.376
 3330SOL    HW110889   6.811   3.044   3.432
 3330SOL    HW210890   6.717   2.936   3.354
 3331SOL     OW10891   2.041   3.648   0.846
 3331SOL    HW110892   2.025   3.705   0.765
 3331SOL    HW210893   2.137   3.653   0.873
 3332SOL     OW10894   6.910   4.222   1.967
 3332SOL    HW110895   6.841   4.266   1.909
 3332SOL    HW210896   6.898   4.123   1.964
 3333SOL     OW10897   3.346   5.782   5.286
 3333SOL    HW110898   3.414   5.735   5.342
 3333SOL    HW210899   3.256   5.740   5.301
 3334SOL     OW10900   1.552   2.685   1.020
 3334SOL    HW110901   1.627   2.747   0.997
 3334SOL    HW210902   1.526   2.633   0.939
 3335SOL     OW10903   5.689   4.308   5.093
 3335SOL    HW110904   5.613   4.285   5.154
 3335SOL    HW210905   5.664   4.281   4.999
 3336SOL     OW10906   3.523   6.272   5.358
 3336SOL    HW110907   3.481   6.273   5.448
 3336SOL    HW210908   3.461   6.228   5.293
 3337SOL     OW10909   3.835   0.889   0.970
 3337SOL    HW110910   3.864   0.813   0.912
 3337SOL    HW210911   3.806   0.965   0.912
 3338SOL     OW10912   6.639   5.576   0.470
 3338SOL    HW110913   6.589   5.538   0.548
 3338SOL    HW210914   6.586   5.561   0.386
 3339SOL     OW10915   0.177   4.460   6.631
 3339SOL    HW110916   0.102   4.465   6.697
 3339SOL    HW210917   0.178   4.368   6.590
 3340SOL     OW10918   3.748   0.708   1.710
 3340SOL    HW110919   3.688   0.629   1.723
 3340SOL    HW210920   3.840   0.685   1.742
 3341SOL     OW10921   1.355   0.172   6.446
 3341SOL    HW110922   1.295   0.223   6.385
 3341SOL    HW210923   1.382   0.231   6.523
 3342SOL     OW10924   1.685   6.817   5.596
 3342SOL    HW110925   1.751   6.809   5.522
 3342SOL    HW210926   1.656   6.912   5.605
 3343SOL     OW10927   0.706   2.546   0.766
 3343SOL    HW110928   0.725   2.620   0.702
 3343SOL    HW210929   0.741   2.460   0.729
 3344SOL     OW10930   1.426   2.210   6.583
 3344SOL    HW110931   1.388   2.288   6.632
 3344SOL    HW210932   1.400   2.125   6.630
 3345SOL     OW10933   2.820   3.106   6.427
 3345SOL    HW110934   2.837   3.013   6.459
 3345SOL    HW210935   2.863   3.119   6.337
 3346SOL     OW10936   2.694   5.718   2.489
 3346SOL    HW110937   2.741   5.750   2.571
 3346SOL    HW210938   2.614   5.664   2.515
 3347SOL     OW10939   5.903   4.317   3.646
 3347SOL    HW110940   5.986   4.270   3.615
 3347SOL    HW210941   5.855   4.259   3.713
 3348SOL     OW10942   3.750   3.651   3.636
 3348SOL    HW110943   3.767   3.632   3.539
 3348SOL    HW210944   3.697   3.735   3.645
 3349SOL     OW10945   5.147   2.303   1.072
 3349SOL    HW110946   5.217   2.360   1.115
 3349SOL    HW210947   5.056   2.338   1.097
 3350SOL     OW10948   2.616   2.975   1.714
 3350SOL    HW110949   2.681   3.051   1.712
 3350SOL    HW210950   2.666   2.889   1.722
 3351SOL     OW10951   6.282   3.011   1.021
 3351SOL    HW110952   6.352   3.068   1.064
 3351SOL    HW210953   6.253   2.940   1.085
 3352SOL     OW10954   0.298   4.031   0.751
 3352SOL    HW110955   0.276   4.038   0.848
 3352SOL    HW210956   0.382   4.083   0.732
 3353SOL     OW10957   1.192   6.321   6.280
 3353SOL    HW110958   1.280   6.347   6.319
 3353SOL    HW210959   1.186   6.221   6.274
 3354SOL     OW10960   0.497   6.459   2.018
 3354SOL    HW110961   0.556   6.425   2.091
 3354SOL    HW210962   0.401   6.447   2.045
 3355SOL     OW10963   5.693   1.063   2.389
 3355SOL    HW110964   5.713   1.038   2.484
 3355SOL    HW210965   5.765   1.123   2.355
 3356SOL     OW10966   1.466   3.916   6.799
 3356SOL    HW110967   1.435   3.882   6.711
 3356SOL    HW210968   1.387   3.939   6.856
 3357SOL     OW10969   3.147   6.056   2.797
 3357SOL    HW110970   3.153   6.047   2.697
 3357SOL    HW210971   3.222   6.114   2.830
 3358SOL     OW10972   0.224   3.739   3.260
 3358SOL    HW110973   0.323   3.752   3.264
 3358SOL    HW210974   0.200   3.697   3.172
 3359SOL     OW10975   2.622   1.815   1.500
 3359SOL    HW110976   2.596   1.828   1.404
 3359SOL    HW210977   2.685   1.887   1.528
 3360SOL     OW10978   2.395   0.981   6.381
 3360SOL    HW110979   2.347   0.997   6.467
 3360SOL    HW210980   2.329   0.973   6.307
 3361SOL     OW10981   2.374   1.271   2.674
 3361SOL    HW110982   2.442   1.303   2.741
 3361SOL    HW210983   2.286   1.316   2.692
 3362SOL     OW10984   3.097   2.224   4.424
 3362SOL    HW110985   2.999   2.214   4.444
 3362SOL    HW210986   3.111   2.215   4.325
 3363SOL     OW10987   6.423   0.890   0.375
 3363SOL    HW110988   6.436   0.894   0.474
 3363SOL    HW210989   6.494   0.944   0.330
 3364SOL     OW10990   1.330   5.157   5.187
 3364SOL    HW110991   1.357   5.146   5.091
 3364SOL    HW210992   1.393   5.107   5.246
 3365SOL     OW10993   6.416   2.491   4.834
 3365SOL    HW110994   6.514   2.470   4.832
 3365SOL    HW210995   6.386   2.515   4.742
 3366SOL     OW10996   5.168   1.188   0.213
 3366SOL    HW110997   5.221   1.268   0.187
 3366SOL    HW210998   5.078   1.216   0.244
 3367SOL     OW10999   2.067   0.249   1.986
 3367SOL    HW111000   2.141   0.184   1.998
 3367SOL    HW211001   2.058   0.272   1.889
 3368SOL     OW11002   6.241   1.266   4.605
 3368SOL    HW111003   6.175   1.267   4.529
 3368SOL    HW211004   6.327   1.225   4.573
 3369SOL     OW11005   3.860   5.224   6.529
 3369SOL    HW111006   3.851   5.186   6.621
 3369SOL    HW211007   3.836   5.321   6.530
 3370SOL     OW11008   5.928   0.951   5.630
 3370SOL    HW111009   5.890   1.040   5.652
 3370SOL    HW211010   6.000   0.961   5.561
 3371SOL     OW11011   6.389   4.731   1.701
 3371SOL    HW111012   6.458   4.801   1.682
 3371SOL    HW211013   6.430   4.640   1.685
 3372SOL     OW11014   1.494   3.018   2.973
 3372SOL    HW111015   1.546   2.942   2.934
 3372SOL    HW211016   1.544   3.059   3.049
 3373SOL     OW11017   1.145   2.791   6.039
 3373SOL    HW111018   1.113   2.782   5.945
 3373SOL    HW211019   1.068   2.814   6.098
 3374SOL     OW11020   3.573   6.168   5.048
 3374SOL    HW111021   3.488   6.125   5.079
 3374SOL    HW211022   3.552   6.255   5.003
 3375SOL     OW11023   3.043   4.080   5.224
 3375SOL    HW111024   2.965   4.019   5.240
 3375SOL    HW211025   3.077   4.068   5.131
 3376SOL     OW11026   3.647   2.948   1.434
 3376SOL    HW111027   3.559   2.914   1.467
 3376SOL    HW211028   3.662   2.916   1.340
 3377SOL     OW11029   2.567   5.216   6.210
 3377SOL    HW111030   2.653   5.198   6.162
 3377SOL    HW211031   2.584   5.279   6.285
 3378SOL     OW11032   6.874   1.113   0.734
 3378SOL    HW111033   6.809   1.114   0.811
 3378SOL    HW211034   6.829   1.076   0.653
 3379SOL     OW11035   5.997   5.188   5.826
 3379SOL    HW111036   6.028   5.096   5.801
 3379SOL    HW211037   6.028   5.254   5.757
 3380SOL     OW11038   0.992   3.667   5.151
 3380SOL    HW111039   0.926   3.676   5.077
 3380SOL    HW211040   0.947   3.625   5.231
 3381SOL     OW11041   3.108   2.253   0.854
 3381SOL    HW111042   3.132   2.162   0.887
 3381SOL    HW211043   3.009   2.265   0.857
 3382SOL     OW11044   6.932   6.642   0.090
 3382SOL    HW111045   6.940   6.669   0.186
 3382SOL    HW211046   6.852   6.686   0.049
 3383SOL     OW11047   0.735   4.163   1.630
 3383SOL    HW111048   0.805   4.098   1.660
 3383SOL    HW211049   0.674   4.183   1.707
 3384SOL     OW11050   3.429   3.653   3.015
 3384SOL    HW111051   3.467   3.609   3.097
 3384SOL    HW211052   3.423   3.587   2.941
 3385SOL     OW11053   0.050   4.010   3.659
 3385SOL    HW111054   0.020   3.992   3.753
 3385SOL    HW211055   0.018   3.937   3.599
 3386SOL     OW11056   5.610   4.470   4.250
 3386SOL    HW111057   5.670   4.478   4.170
 3386SOL    HW211058   5.656   4.415   4.320
 3387SOL     OW11059   3.689   1.483   2.233
 3387SOL    HW111060   3.752   1.410   2.259
 3387SOL    HW211061   3.725   1.570   2.267
 3388SOL     OW11062   5.897   1.637   1.161
 3388SOL    HW111063   5.969   1.614   1.095
 3388SOL    HW211064   5.809   1.602   1.128
 3389SOL     OW11065   4.086   5.085   2.600
 3389SOL    HW111066   4.150   5.161   2.604
 3389SOL    HW211067   3.997   5.115   2.635
 3390SOL     OW11068   4.064   1.911   5.833
 3390SOL    HW111069   3.967   1.913   5.856
 3390SOL    HW211070   4.079   1.847   5.757
 3391SOL     OW11071   3.090   1.620   4.094
 3391SOL    HW111072   3.039   1.675   4.028
 3391SOL    HW211073   3.075   1.523   4.076
 3392SOL     OW11074   5.620   6.266   3.876
 3392SOL    HW111075   5.544   6.317   3.835
 3392SOL    HW211076   5.665   6.211   3.806
 3393SOL     OW11077   6.697   0.037   6.184
 3393SOL    HW111078   6.630   0.063   6.254
 3393SOL    HW211079   6.652   0.030   6.095
 3394SOL     OW11080   5.180   1.654   1.808
 3394SOL    HW111081   5.260   1.596   1.790
 3394SOL    HW211082   5.211   1.742   1.845
 3395SOL     OW11083   1.784   3.919   5.355
 3395SOL    HW111084   1.791   3.959   5.264
 3395SOL    HW211085   1.835   3.976   5.420
 3396SOL     OW11086   6.201   3.710   3.945
 3396SOL    HW111087   6.183   3.711   4.044
 3396SOL    HW211088   6.134   3.652   3.899
 3397SOL     OW11089   3.263   5.699   6.271
 3397SOL    HW111090   3.293   5.649   6.190
 3397SOL    HW211091   3.203   5.774   6.244
 3398SOL     OW11092   0.728   1.764   4.185
 3398SOL    HW111093   0.803   1.816   4.226
 3398SOL    HW211094   0.766   1.691   4.128
 3399SOL     OW11095   3.692   5.737   4.572
 3399SOL    HW111096   3.763   5.713   4.505
 3399SOL    HW211097   3.614   5.777   4.524
 3400SOL     OW11098   5.127   1.952   0.429
 3400SOL    HW111099   5.093   2.030   0.482
 3400SOL    HW211100   5.215   1.923   0.466
 3401SOL     OW11101   6.627   4.749   6.982
 3401SOL    HW111102   6.547   4.805   7.004
 3401SOL    HW211103   6.596   4.659   6.950
 3402SOL     OW11104   4.086   4.851   2.046
 3402SOL    HW111105   4.024   4.815   1.976
 3402SOL    HW211106   4.104   4.780   2.114
 3403SOL     OW11107   3.590   1.870   6.393
 3403SOL    HW111108   3.555   1.776   6.391
 3403SOL    HW211109   3.669   1.875   6.453
 3404SOL     OW11110   4.624   5.696   1.958
 3404SOL    HW111111   4.562   5.773   1.945
 3404SOL    HW211112   4.617   5.663   2.052
 3405SOL     OW11113   5.958   4.340   0.384
 3405SOL    HW111114   5.927   4.429   0.417
 3405SOL    HW211115   5.964   4.341   0.285
 3406SOL     OW11116   0.817   3.186   1.855
 3406SOL    HW111117   0.723   3.167   1.826
 3406SOL    HW211118   0.877   3.113   1.824
 3407SOL     OW11119   0.886   5.591   2.570
 3407SOL    HW111120   0.943   5.509   2.579
 3407SOL    HW211121   0.871   5.632   2.659
 3408SOL     OW11122   5.490   3.564   2.263
 3408SOL    HW111123   5.470   3.661   2.273
 3408SOL    HW211124   5.428   3.511   2.320
 3409SOL     OW11125   2.791   1.369   0.353
 3409SOL    HW111126   2.852   1.403   0.280
 3409SOL    HW211127   2.696   1.373   0.321
 3410SOL     OW11128   0.558   1.928   0.358
 3410SOL    HW111129   0.623   1.980   0.413
 3410SOL    HW211130   0.540   1.976   0.272
 3411SOL     OW11131   4.924   1.617   2.559
 3411SOL    HW111132   4.875   1.704   2.564
 3411SOL    HW211133   4.862   1.546   2.526
 3412SOL     OW11134   4.392   5.134   6.685
 3412SOL    HW111135   4.389   5.035   6.680
 3412SOL    HW211136   4.485   5.164   6.703
 3413SOL     OW11137   5.102   1.151   2.520
 3413SOL    HW111138   5.091   1.091   2.599
 3413SOL    HW211139   5.117   1.245   2.550
 3414SOL     OW11140   4.011   0.424   5.559
 3414SOL    HW111141   3.942   0.480   5.606
 3414SOL    HW211142   4.033   0.466   5.470
 3415SOL     OW11143   1.736   6.078   5.740
 3415SOL    HW111144   1.743   6.136   5.821
 3415SOL    HW211145   1.643   6.084   5.703
 3416SOL     OW11146   1.348   4.527   5.608
 3416SOL    HW111147   1.408   4.583   5.551
 3416SOL    HW211148   1.268   4.580   5.635
 3417SOL     OW11149   5.367   1.040   1.355
 3417SOL    HW111150   5.359   0.961   1.295
 3417SOL    HW211151   5.391   1.011   1.447
 3418SOL     OW11152   2.844   2.053   5.564
 3418SOL    HW111153   2.769   2.032   5.627
 3418SOL    HW211154   2.894   1.970   5.543
 3419SOL     OW11155   4.561   3.317   6.207
 3419SOL    HW111156   4.545   3.336   6.304
 3419SOL    HW211157   4.488   3.258   6.172
 3420SOL     OW11158   2.740   0.578   5.369
 3420SOL    HW111159   2.824   0.545   5.413
 3420SOL    HW211160   2.764   0.647   5.300
 3421SOL     OW11161   1.162   6.567   2.825
 3421SOL    HW111162   1.147   6.666   2.818
 3421SOL    HW211163   1.179   6.529   2.734
 3422SOL     OW11164   3.509   2.053   3.133
 3422SOL    HW111165   3.474   2.036   3.225
 3422SOL    HW211166   3.433   2.063   3.070
 3423SOL     OW11167   3.425   0.870   1.518
 3423SOL    HW111168   3.449   0.828   1.606
 3423SOL    HW211169   3.349   0.934   1.532
 3424SOL     OW11170   4.756   1.433   0.864
 3424SOL    HW111171   4.696   1.448   0.785
 3424SOL    HW211172   4.817   1.511   0.876
 3425SOL     OW11173   3.963   3.877   1.601
 3425SOL    HW111174   4.044   3.923   1.565
 3425SOL    HW211175   3.938   3.917   1.689
 3426SOL     OW11176   4.985   3.846   0.787
 3426SOL    HW111177   4.971   3.943   0.769
 3426SOL    HW211178   4.915   3.792   0.740
 3427SOL     OW11179   0.853   1.808   0.665
 3427SOL    HW111180   0.913   1.805   0.585
 3427SOL    HW211181   0.759   1.787   0.638
 3428SOL     OW11182   4.758   4.686   3.268
 3428SOL    HW111183   4.713   4.609   3.224
 3428SOL    HW211184   4.728   4.694   3.363
 3429SOL     OW11185   0.573   2.842   0.535
 3429SOL    HW111186   0.665   2.830   0.573
 3429SOL    HW211187   0.578   2.840   0.435
 3430SOL     OW11188   0.680   5.525   0.021
 3430SOL    HW111189   0.757   5.542   6.981
 3430SOL    HW211190   0.703   5.452   0.086
 3431SOL     OW11191   1.264   5.764   6.718
 3431SOL    HW111192   1.168   5.740   6.730
 3431SOL    HW211193   1.296   5.815   6.798
 3432SOL     OW11194   3.570   2.071   6.218
 3432SOL    HW111195   3.562   1.988   6.272
 3432SOL    HW211196   3.591   2.047   6.123
 3433SOL     OW11197   3.827   1.279   5.058
 3433SOL    HW111198   3.831   1.334   5.142
 3433SOL    HW211199   3.758   1.316   4.997
 3434SOL     OW11200   4.319   1.432   3.158
 3434SOL    HW111201   4.381   1.504   3.128
 3434SOL    HW211202   4.371   1.358   3.201
 3435SOL     OW11203   0.573   1.183   6.709
 3435SOL    HW111204   0.533   1.100   6.749
 3435SOL    HW211205   0.503   1.253   6.698
 3436SOL     OW11206   3.962   6.642   1.918
 3436SOL    HW111207   4.034   6.576   1.939
 3436SOL    HW211208   3.941   6.639   1.820
 3437SOL     OW11209   4.162   0.046   0.280
 3437SOL    HW111210   4.134   6.991   0.221
 3437SOL    HW211211   4.107   0.127   0.260
 3438SOL     OW11212   0.304   5.678   6.489
 3438SOL    HW111213   0.363   5.599   6.505
 3438SOL    HW211214   0.213   5.660   6.527
 3439SOL     OW11215   2.329   0.634   3.784
 3439SOL    HW111216   2.332   0.714   3.843
 3439SOL    HW211217   2.291   0.556   3.836
 3440SOL     OW11218   3.745   1.969   0.570
 3440SOL    HW111219   3.662   2.020   0.548
 3440SOL    HW211220   3.822   2.004   0.516
 3441SOL     OW11221   4.437   0.418   4.048
 3441SOL    HW111222   4.421   0.505   4.094
 3441SOL    HW211223   4.502   0.364   4.102
 3442SOL     OW11224   0.707   5.456   3.247
 3442SOL    HW111225   0.643   5.406   3.306
 3442SOL    HW211226   0.720   5.405   3.162
 3443SOL     OW11227   5.991   6.655   4.333
 3443SOL    HW111228   6.017   6.572   4.283
 3443SOL    HW211229   5.896   6.678   4.312
 3444SOL     OW11230   3.531   5.400   0.243
 3444SOL    HW111231   3.559   5.304   0.246
 3444SOL    HW211232   3.580   5.451   0.314
 3445SOL     OW11233   6.215   4.856   5.576
 3445SOL    HW111234   6.163   4.792   5.520
 3445SOL    HW211235   6.219   4.944   5.530
 3446SOL     OW11236   2.625   5.881   1.892
 3446SOL    HW111237   2.575   5.886   1.805
 3446SOL    HW211238   2.689   5.958   1.898
 3447SOL     OW11239   6.081   4.385   5.451
 3447SOL    HW111240   5.991   4.354   5.421
 3447SOL    HW211241   6.104   4.343   5.539
 3448SOL     OW11242   4.016   3.288   0.436
 3448SOL    HW111243   4.011   3.364   0.500
 3448SOL    HW211244   3.961   3.211   0.472
 3449SOL     OW11245   6.220   6.189   3.405
 3449SOL    HW111246   6.292   6.259   3.412
 3449SOL    HW211247   6.254   6.113   3.350
 3450SOL     OW11248   0.610   1.916   0.907
 3450SOL    HW111249   0.699   1.897   0.867
 3450SOL    HW211250   0.581   2.009   0.882
 3451SOL     OW11251   2.053   5.189   4.539
 3451SOL    HW111252   2.010   5.144   4.618
 3451SOL    HW211253   2.063   5.124   4.465
 3452SOL     OW11254   6.508   1.873   0.549
 3452SOL    HW111255   6.560   1.793   0.576
 3452SOL    HW211256   6.554   1.956   0.582
 3453SOL     OW11257   6.061   5.261   5.223
 3453SOL    HW111258   6.119   5.258   5.142
 3453SOL    HW211259   5.965   5.263   5.196
 3454SOL     OW11260   0.051   1.043   0.499
 3454SOL    HW111261   0.015   1.089   0.580
 3454SOL    HW211262   0.044   0.944   0.511
 3455SOL     OW11263   1.311   2.818   3.027
 3455SOL    HW111264   1.378   2.891   3.018
 3455SOL    HW211265   1.325   2.750   2.954
 3456SOL     OW11266   6.238   0.610   0.468
 3456SOL    HW111267   6.334   0.589   0.448
 3456SOL    HW211268   6.180   0.533   0.438
 3457SOL     OW11269   2.147   6.463   3.197
 3457SOL    HW111270   2.197   6.495   3.116
 3457SOL    HW211271   2.142   6.363   3.196
 3458SOL     OW11272   4.748   4.986   0.443
 3458SOL    HW111273   4.762   5.066   0.385
 3458SOL    HW211274   4.815   4.915   0.419
 3459SOL     OW11275   6.474   0.318   2.914
 3459SOL    HW111276   6.484   0.268   3.000
 3459SOL    HW211277   6.542   0.284   2.849
 3460SOL     OW11278   4.495   2.919   0.862
 3460SOL    HW111279   4.584   2.924   0.816
 3460SOL    HW211280   4.470   3.010   0.896
 3461SOL     OW11281   2.175   5.809   3.238
 3461SOL    HW111282   2.176   5.801   3.338
 3461SOL    HW211283   2.090   5.771   3.203
 3462SOL     OW11284   4.993   2.633   2.656
 3462SOL    HW111285   4.929   2.673   2.590
 3462SOL    HW211286   5.012   2.539   2.629
 3463SOL     OW11287   0.928   2.921   1.118
 3463SOL    HW111288   0.970   3.007   1.147
 3463SOL    HW211289   0.997   2.849   1.116
 3464SOL     OW11290   5.403   1.380   6.312
 3464SOL    HW111291   5.364   1.294   6.345
 3464SOL    HW211292   5.332   1.451   6.314
 3465SOL     OW11293   2.250   4.484   1.278
 3465SOL    HW111294   2.215   4.511   1.188
 3465SOL    HW211295   2.174   4.451   1.334
 3466SOL     OW11296   6.587   3.888   4.236
 3466SOL    HW111297   6.563   3.886   4.139
 3466SOL    HW211298   6.505   3.904   4.290
 3467SOL     OW11299   3.273   3.434   0.409
 3467SOL    HW111300   3.174   3.429   0.411
 3467SOL    HW211301   3.311   3.378   0.484
 3468SOL     OW11302   4.473   1.461   1.699
 3468SOL    HW111303   4.387   1.439   1.653
 3468SOL    HW211304   4.471   1.423   1.792
 3469SOL     OW11305   3.977   5.656   5.286
 3469SOL    HW111306   4.022   5.574   5.249
 3469SOL    HW211307   3.878   5.647   5.273
 3470SOL     OW11308   1.153   2.836   0.878
 3470SOL    HW111309   1.106   2.756   0.842
 3470SOL    HW211310   1.199   2.813   0.963
 3471SOL     OW11311   5.058   3.126   4.761
 3471SOL    HW111312   5.138   3.101   4.816
 3471SOL    HW211313   5.037   3.051   4.698
 3472SOL     OW11314   4.713   1.756   2.299
 3472SOL    HW111315   4.733   1.848   2.266
 3472SOL    HW211316   4.627   1.757   2.349
 3473SOL     OW11317   6.176   4.507   1.949
 3473SOL    HW111318   6.160   4.605   1.963
 3473SOL    HW211319   6.150   4.483   1.855
 3474SOL     OW11320   4.907   3.852   3.601
 3474SOL    HW111321   4.830   3.916   3.595
 3474SOL    HW211322   4.891   3.786   3.675
 3475SOL     OW11323   0.012   4.028   4.171
 3475SOL    HW111324   7.000   4.104   4.227
 3475SOL    HW211325   0.042   3.954   4.231
 3476SOL     OW11326   2.058   3.011   3.063
 3476SOL    HW111327   1.986   2.995   2.995
 3476SOL    HW211328   2.128   3.070   3.023
 3477SOL     OW11329   1.357   4.218   1.739
 3477SOL    HW111330   1.315   4.227   1.649
 3477SOL    HW211331   1.298   4.263   1.807
 3478SOL     OW11332   2.716   0.516   1.513
 3478SOL    HW111333   2.751   0.557   1.429
 3478SOL    HW211334   2.686   0.587   1.576
 3479SOL     OW11335   1.216   3.875   5.781
 3479SOL    HW111336   1.226   3.776   5.776
 3479SOL    HW211337   1.188   3.911   5.692
 3480SOL     OW11338   1.044   4.892   6.826
 3480SOL    HW111339   1.052   4.913   6.729
 3480SOL    HW211340   1.129   4.916   6.873
 3481SOL     OW11341   6.213   1.021   4.350
 3481SOL    HW111342   6.175   1.110   4.325
 3481SOL    HW211343   6.307   1.032   4.381
 3482SOL     OW11344   6.141   2.888   6.405
 3482SOL    HW111345   6.148   2.924   6.497
 3482SOL    HW211346   6.169   2.792   6.404
 3483SOL     OW11347   5.268   2.385   4.702
 3483SOL    HW111348   5.263   2.355   4.797
 3483SOL    HW211349   5.211   2.326   4.645
 3484SOL     OW11350   1.079   3.134   4.746
 3484SOL    HW111351   1.053   3.127   4.650
 3484SOL    HW211352   1.152   3.069   4.766
 3485SOL     OW11353   6.614   4.013   6.826
 3485SOL    HW111354   6.531   3.958   6.830
 3485SOL    HW211355   6.691   3.956   6.799
 3486SOL     OW11356   1.416   6.356   5.161
 3486SOL    HW111357   1.330   6.399   5.188
 3486SOL    HW211358   1.490   6.385   5.222
 3487SOL     OW11359   4.200   1.653   6.441
 3487SOL    HW111360   4.247   1.727   6.489
 3487SOL    HW211361   4.121   1.624   6.495
 3488SOL     OW11362   4.819   6.544   5.368
 3488SOL    HW111363   4.861   6.632   5.346
 3488SOL    HW211364   4.881   6.470   5.343
 3489SOL     OW11365   3.686   6.177   0.582
 3489SOL    HW111366   3.695   6.219   0.673
 3489SOL    HW211367   3.777   6.167   0.541
 3490SOL     OW11368   4.086   7.015   0.932
 3490SOL    HW111369   4.161   6.999   0.996
 3490SOL    HW211370   4.118   0.054   0.858
 3491SOL     OW11371   4.829   4.392   5.480
 3491SOL    HW111372   4.894   4.336   5.531
 3491SOL    HW211373   4.736   4.373   5.512
 3492SOL     OW11374   5.721   3.758   3.323
 3492SOL    HW111375   5.768   3.842   3.349
 3492SOL    HW211376   5.657   3.732   3.395
 3493SOL     OW11377   0.261   3.665   5.745
 3493SOL    HW111378   0.319   3.681   5.665
 3493SOL    HW211379   0.307   3.703   5.826
 3494SOL     OW11380   4.258   1.264   2.562
 3494SOL    HW111381   4.209   1.189   2.520
 3494SOL    HW211382   4.356   1.244   2.564
 3495SOL     OW11383   1.931   3.822   3.969
 3495SOL    HW111384   1.854   3.848   4.027
 3495SOL    HW211385   1.942   3.889   3.896
 3496SOL     OW11386   6.286   5.549   1.214
 3496SOL    HW111387   6.216   5.539   1.143
 3496SOL    HW211388   6.280   5.473   1.278
 3497SOL     OW11389   3.072   0.226   1.462
 3497SOL    HW111390   3.170   0.208   1.447
 3497SOL    HW211391   3.039   0.171   1.538
 3498SOL     OW11392   2.595   2.505   1.414
 3498SOL    HW111393   2.555   2.484   1.504
 3498SOL    HW211394   2.586   2.603   1.397
 3499SOL     OW11395   5.744   6.831   4.995
 3499SOL    HW111396   5.769   6.928   4.993
 3499SOL    HW211397   5.717   6.802   4.904
 3500SOL     OW11398   2.913   2.235   3.733
 3500SOL    HW111399   2.998   2.186   3.715
 3500SOL    HW211400   2.865   2.252   3.647
 3501SOL     OW11401   1.400   0.025   6.100
 3501SOL    HW111402   1.332   7.010   6.164
 3501SOL    HW211403   1.392   0.124   6.093
 3502SOL     OW11404   5.498   2.173   2.017
 3502SOL    HW111405   5.429   2.242   2.033
 3502SOL    HW211406   5.477   2.091   2.071
 3503SOL     OW11407   0.849   6.179   6.544
 3503SOL    HW111408   0.923   6.200   6.608
 3503SOL    HW211409   0.871   6.216   6.454
 3504SOL     OW11410   2.088   0.889   6.950
 3504SOL    HW111411   2.141   0.941   7.017
 3504SOL    HW211412   2.037   0.952   6.892
 3505SOL     OW11413   5.167   2.489   5.250
 3505SOL    HW111414   5.135   2.445   5.334
 3505SOL    HW211415   5.089   2.526   5.200
 3506SOL     OW11416   4.030   4.908   4.989
 3506SOL    HW111417   4.018   4.898   5.087
 3506SOL    HW211418   3.942   4.903   4.943
 3507SOL     OW11419   2.828   1.960   1.150
 3507SOL    HW111420   2.738   1.968   1.107
 3507SOL    HW211421   2.816   1.945   1.248
 3508SOL     OW11422   3.800   1.325   6.773
 3508SOL    HW111423   3.744   1.252   6.733
 3508SOL    HW211424   3.743   1.381   6.834
 3509SOL     OW11425   4.338   5.527   6.829
 3509SOL    HW111426   4.242   5.503   6.818
 3509SOL    HW211427   4.383   5.524   6.740
 3510SOL     OW11428   2.476   1.418   1.290
 3510SOL    HW111429   2.492   1.439   1.386
 3510SOL    HW211430   2.502   1.496   1.233
 3511SOL     OW11431   2.687   4.832   1.973
 3511SOL    HW111432   2.595   4.798   1.954
 3511SOL    HW211433   2.738   4.764   2.025
 3512SOL     OW11434   6.867   5.269   6.058
 3512SOL    HW111435   6.805   5.195   6.084
 3512SOL    HW211436   6.956   5.231   6.033
 3513SOL     OW11437   5.198   1.766   0.225
 3513SOL    HW111438   5.209   1.841   0.291
 3513SOL    HW211439   5.280   1.708   0.227
 3514SOL     OW11440   3.413   1.774   2.117
 3514SOL    HW111441   3.456   1.852   2.162
 3514SOL    HW211442   3.447   1.767   2.023
 3515SOL     OW11443   0.402   4.167   3.876
 3515SOL    HW111444   0.472   4.109   3.919
 3515SOL    HW211445   0.445   4.222   3.803
 3516SOL     OW11446   4.191   0.610   1.285
 3516SOL    HW111447   4.215   0.700   1.247
 3516SOL    HW211448   4.270   0.549   1.276
 3517SOL     OW11449   4.879   1.575   2.136
 3517SOL    HW111450   4.801   1.512   2.143
 3517SOL    HW211451   4.860   1.657   2.188
 3518SOL     OW11452   6.300   1.677   5.491
 3518SOL    HW111453   6.243   1.688   5.409
 3518SOL    HW211454   6.392   1.710   5.471
 3519SOL     OW11455   3.338   1.511   1.610
 3519SOL    HW111456   3.437   1.515   1.598
 3519SOL    HW211457   3.304   1.421   1.583
 3520SOL     OW11458   2.391   6.262   4.219
 3520SOL    HW111459   2.328   6.199   4.263
 3520SOL    HW211460   2.378   6.260   4.120
 3521SOL     OW11461   2.284   2.560   6.104
 3521SOL    HW111462   2.231   2.480   6.076
 3521SOL    HW211463   2.343   2.589   6.029
 3522SOL     OW11464   0.846   5.987   6.854
 3522SOL    HW111465   0.885   5.921   6.790
 3522SOL    HW211466   0.804   6.063   6.804
 3523SOL     OW11467   3.499   5.626   0.075
 3523SOL    HW111468   3.505   5.577   0.161
 3523SOL    HW211469   3.556   5.580   0.007
 3524SOL     OW11470   4.448   1.175   4.260
 3524SOL    HW111471   4.410   1.091   4.220
 3524SOL    HW211472   4.401   1.195   4.346
 3525SOL     OW11473   0.295   2.938   3.522
 3525SOL    HW111474   0.333   3.001   3.589
 3525SOL    HW211475   0.370   2.887   3.479
 3526SOL     OW11476   0.035   6.893   1.670
 3526SOL    HW111477   0.102   6.932   1.733
 3526SOL    HW211478   0.082   6.850   1.593
 3527SOL     OW11479   6.242   2.958   0.127
 3527SOL    HW111480   6.333   2.941   0.089
 3527SOL    HW211481   6.251   2.991   0.221
 3528SOL     OW11482   2.257   5.200   5.004
 3528SOL    HW111483   2.260   5.262   5.082
 3528SOL    HW211484   2.311   5.118   5.024
 3529SOL     OW11485   4.555   4.208   0.162
 3529SOL    HW111486   4.634   4.181   0.107
 3529SOL    HW211487   4.577   4.200   0.259
 3530SOL     OW11488   6.324   0.645   0.915
 3530SOL    HW111489   6.347   0.587   0.837
 3530SOL    HW211490   6.405   0.659   0.972
 3531SOL     OW11491   4.570   1.763   0.761
 3531SOL    HW111492   4.472   1.757   0.779
 3531SOL    HW211493   4.589   1.849   0.714
 3532SOL     OW11494   2.236   0.681   1.385
 3532SOL    HW111495   2.246   0.675   1.484
 3532SOL    HW211496   2.148   0.722   1.363
 3533SOL     OW11497   1.930   2.720   3.131
 3533SOL    HW111498   2.019   2.713   3.177
 3533SOL    HW211499   1.858   2.725   3.201
 3534SOL     OW11500   0.583   1.384   0.762
 3534SOL    HW111501   0.622   1.410   0.673
 3534SOL    HW211502   0.484   1.384   0.757
 3535SOL     OW11503   4.274   6.837   3.602
 3535SOL    HW111504   4.312   6.864   3.514
 3535SOL    HW211505   4.250   6.919   3.655
 3536SOL     OW11506   4.216   1.924   4.088
 3536SOL    HW111507   4.251   1.834   4.062
 3536SOL    HW211508   4.116   1.924   4.082
 3537SOL     OW11509   1.945   6.454   2.619
 3537SOL    HW111510   1.945   6.359   2.652
 3537SOL    HW211511   1.969   6.456   2.522
 3538SOL     OW11512   3.291   5.685   1.540
 3538SOL    HW111513   3.228   5.755   1.504
 3538SOL    HW211514   3.259   5.594   1.512
 3539SOL     OW11515   3.409   3.871   4.453
 3539SOL    HW111516   3.336   3.825   4.504
 3539SOL    HW211517   3.497   3.827   4.473
 3540SOL     OW11518   2.155   2.341   3.040
 3540SOL    HW111519   2.228   2.343   3.108
 3540SOL    HW211520   2.094   2.265   3.059
 3541SOL     OW11521   4.052   3.809   4.640
 3541SOL    HW111522   4.013   3.898   4.663
 3541SOL    HW211523   4.069   3.757   4.723
 3542SOL     OW11524   6.733   5.650   1.588
 3542SOL    HW111525   6.795   5.666   1.512
 3542SOL    HW211526   6.750   5.717   1.660
 3543SOL     OW11527   5.125   2.190   4.569
 3543SOL    HW111528   5.065   2.197   4.489
 3543SOL    HW211529   5.178   2.106   4.564
 3544SOL     OW11530   3.407   6.930   6.741
 3544SOL    HW111531   3.343   6.853   6.735
 3544SOL    HW211532   3.449   6.946   6.651
 3545SOL     OW11533   3.069   5.034   0.423
 3545SOL    HW111534   3.129   5.071   0.353
 3545SOL    HW211535   3.119   5.025   0.509
 3546SOL     OW11536   1.155   4.544   2.668
 3546SOL    HW111537   1.157   4.606   2.590
 3546SOL    HW211538   1.108   4.459   2.642
 3547SOL     OW11539   5.133   4.715   4.116
 3547SOL    HW111540   5.034   4.705   4.109
 3547SOL    HW211541   5.176   4.625   4.114
 3548SOL     OW11542   6.049   3.350   5.768
 3548SOL    HW111543   6.019   3.294   5.845
 3548SOL    HW211544   5.982   3.343   5.694
 3549SOL     OW11545   5.092   3.312   2.146
 3549SOL    HW111546   5.040   3.395   2.128
 3549SOL    HW211547   5.039   3.252   2.207
 3550SOL     OW11548   5.177   1.652   3.873
 3550SOL    HW111549   5.085   1.674   3.841
 3550SOL    HW211550   5.186   1.553   3.884
 3551SOL     OW11551   1.791   0.343   2.592
 3551SOL    HW111552   1.786   0.437   2.627
 3551SOL    HW211553   1.879   0.329   2.547
 3552SOL     OW11554   6.559   4.433   3.250
 3552SOL    HW111555   6.560   4.407   3.154
 3552SOL    HW211556   6.541   4.352   3.306
 3553SOL     OW11557   5.608   1.847   3.449
 3553SOL    HW111558   5.600   1.944   3.426
 3553SOL    HW211559   5.687   1.808   3.402
 3554SOL     OW11560   3.790   5.389   0.023
 3554SOL    HW111561   3.697   5.406   7.011
 3554SOL    HW211562   3.820   5.466   0.079
 3555SOL     OW11563   0.832   2.277   4.013
 3555SOL    HW111564   0.876   2.360   4.047
 3555SOL    HW211565   0.846   2.202   4.078
 3556SOL     OW11566   4.251   1.650   6.117
 3556SOL    HW111567   4.231   1.574   6.178
 3556SOL    HW211568   4.300   1.721   6.167
 3557SOL     OW11569   1.283   0.585   3.856
 3557SOL    HW111570   1.214   0.533   3.806
 3557SOL    HW211571   1.261   0.682   3.850
 3558SOL     OW11572   0.178   6.825   1.261
 3558SOL    HW111573   0.166   6.877   1.177
 3558SOL    HW211574   0.195   6.887   1.337
 3559SOL     OW11575   0.716   0.578   5.892
 3559SOL    HW111576   0.735   0.636   5.971
 3559SOL    HW211577   0.801   0.533   5.863
 3560SOL     OW11578   6.464   6.999   1.692
 3560SOL    HW111579   6.555   0.016   1.711
 3560SOL    HW211580   6.395   0.050   1.704
 3561SOL     OW11581   5.664   5.051   3.629
 3561SOL    HW111582   5.570   5.050   3.664
 3561SOL    HW211583   5.673   4.984   3.556
 3562SOL     OW11584   4.277   2.174   2.311
 3562SOL    HW111585   4.228   2.141   2.392
 3562SOL    HW211586   4.302   2.270   2.324
 3563SOL     OW11587   4.196   6.395   1.746
 3563SOL    HW111588   4.231   6.475   1.697
 3563SOL    HW211589   4.127   6.350   1.690
 3564SOL     OW11590   6.452   4.476   1.975
 3564SOL    HW111591   6.355   4.499   1.977
 3564SOL    HW211592   6.480   4.438   2.063
 3565SOL     OW11593   0.701   0.831   5.410
 3565SOL    HW111594   0.780   0.814   5.352
 3565SOL    HW211595   0.727   0.822   5.506
 3566SOL     OW11596   0.752   4.596   5.930
 3566SOL    HW111597   0.803   4.573   5.847
 3566SOL    HW211598   0.813   4.594   6.008
 3567SOL     OW11599   6.911   2.250   1.103
 3567SOL    HW111600   6.835   2.293   1.152
 3567SOL    HW211601   6.979   2.218   1.170
 3568SOL     OW11602   4.831   4.119   3.821
 3568SOL    HW111603   4.822   4.024   3.851
 3568SOL    HW211604   4.794   4.129   3.729
 3569SOL     OW11605   4.063   3.507   3.468
 3569SOL    HW111606   4.100   3.513   3.375
 3569SOL    HW211607   3.967   3.535   3.468
 3570SOL     OW11608   0.371   2.508   5.337
 3570SOL    HW111609   0.427   2.428   5.318
 3570SOL    HW211610   0.356   2.516   5.436
 3571SOL     OW11611   3.168   7.019   4.290
 3571SOL    HW111612   3.231   6.989   4.361
 3571SOL    HW211613   3.126   6.940   4.246
 3572SOL     OW11614   4.697   4.402   2.723
 3572SOL    HW111615   4.797   4.411   2.721
 3572SOL    HW211616   4.658   4.478   2.776
 3573SOL     OW11617   0.433   4.719   3.896
 3573SOL    HW111618   0.525   4.695   3.864
 3573SOL    HW211619   0.408   4.809   3.861
 3574SOL     OW11620   2.076   2.011   5.884
 3574SOL    HW111621   2.063   1.912   5.892
 3574SOL    HW211622   2.171   2.034   5.903
 3575SOL     OW11623   4.796   0.378   6.182
 3575SOL    HW111624   4.797   0.317   6.262
 3575SOL    HW211625   4.729   0.451   6.197
 3576SOL     OW11626   1.009   2.849   0.456
 3576SOL    HW111627   1.043   2.943   0.456
 3576SOL    HW211628   1.085   2.785   0.454
 3577SOL     OW11629   2.191   3.802   4.530
 3577SOL    HW111630   2.198   3.791   4.629
 3577SOL    HW211631   2.102   3.770   4.499
 3578SOL     OW11632   4.837   2.176   0.691
 3578SOL    HW111633   4.749   2.133   0.709
 3578SOL    HW211634   4.823   2.271   0.663
 3579SOL     OW11635   0.757   3.543   2.317
 3579SOL    HW111636   0.693   3.524   2.392
 3579SOL    HW211637   0.850   3.552   2.354
 3580SOL     OW11638   6.581   4.098   2.053
 3580SOL    HW111639   6.624   4.037   2.119
 3580SOL    HW211640   6.610   4.073   1.961
 3581SOL     OW11641   1.687   0.529   3.003
 3581SOL    HW111642   1.688   0.446   2.947
 3581SOL    HW211643   1.775   0.539   3.048
 3582SOL     OW11644   4.866   6.426   6.864
 3582SOL    HW111645   4.796   6.374   6.816
 3582SOL    HW211646   4.825   6.474   6.942
 3583SOL     OW11647   2.006   6.139   0.653
 3583SOL    HW111648   2.043   6.201   0.584
 3583SOL    HW211649   2.079   6.113   0.717
 3584SOL     OW11650   5.679   5.221   4.672
 3584SOL    HW111651   5.644   5.305   4.714
 3584SOL    HW211652   5.607   5.152   4.671
 3585SOL     OW11653   4.224   2.317   3.615
 3585SOL    HW111654   4.216   2.393   3.551
 3585SOL    HW211655   4.222   2.231   3.565
 3586SOL     OW11656   6.769   2.901   5.216
 3586SOL    HW111657   6.814   2.857   5.294
 3586SOL    HW211658   6.721   2.832   5.163
 3587SOL     OW11659   2.009   0.328   6.061
 3587SOL    HW111660   2.010   0.302   6.158
 3587SOL    HW211661   2.074   0.272   6.011
 3588SOL     OW11662   6.019   4.031   3.890
 3588SOL    HW111663   6.019   3.933   3.873
 3588SOL    HW211664   6.111   4.068   3.874
 3589SOL     OW11665   0.047   1.274   6.090
 3589SOL    HW111666   0.106   1.247   6.014
 3589SOL    HW211667   0.037   1.197   6.152
 3590SOL     OW11668   5.994   4.774   6.060
 3590SOL    HW111669   5.969   4.870   6.051
 3590SOL    HW211670   5.984   4.729   5.971
 3591SOL     OW11671   4.783   1.184   0.649
 3591SOL    HW111672   4.728   1.148   0.725
 3591SOL    HW211673   4.754   1.278   0.629
 3592SOL     OW11674   0.537   6.289   1.111
 3592SOL    HW111675   0.605   6.281   1.184
 3592SOL    HW211676   0.576   6.340   1.034
 3593SOL     OW11677   4.076   3.354   5.600
 3593SOL    HW111678   4.033   3.391   5.682
 3593SOL    HW211679   4.015   3.287   5.558
 3594SOL     OW11680   4.419   4.518   5.389
 3594SOL    HW111681   4.490   4.511   5.319
 3594SOL    HW211682   4.329   4.509   5.346
 3595SOL     OW11683   4.865   6.888   5.586
 3595SOL    HW111684   4.796   6.865   5.654
 3595SOL    HW211685   4.843   6.977   5.545
 3596SOL     OW11686   3.266   1.527   1.916
 3596SOL    HW111687   3.314   1.501   1.833
 3596SOL    HW211688   3.258   1.627   1.919
 3597SOL     OW11689   4.176   4.678   5.242
 3597SOL    HW111690   4.225   4.633   5.168
 3597SOL    HW211691   4.150   4.611   5.311
 3598SOL     OW11692   6.552   5.484   4.052
 3598SOL    HW111693   6.587   5.429   3.976
 3598SOL    HW211694   6.613   5.561   4.068
 3599SOL     OW11695   2.046   1.082   5.529
 3599SOL    HW111696   2.009   0.993   5.554
 3599SOL    HW211697   2.032   1.096   5.430
 3600SOL     OW11698   2.085   4.171   1.167
 3600SOL    HW111699   2.135   4.104   1.113
 3600SOL    HW211700   1.992   4.138   1.183
 3601SOL     OW11701   3.273   0.171   5.037
 3601SOL    HW111702   3.351   0.120   5.074
 3601SOL    HW211703   3.205   0.185   5.109
 3602SOL     OW11704   1.424   2.242   0.627
 3602SOL    HW111705   1.381   2.193   0.551
 3602SOL    HW211706   1.360   2.310   0.663
 3603SOL     OW11707   1.216   6.849   5.809
 3603SOL    HW111708   1.168   6.903   5.741
 3603SOL    HW211709   1.268   6.910   5.869
 3604SOL     OW11710   6.845   1.195   4.259
 3604SOL    HW111711   6.822   1.280   4.306
 3604SOL    HW211712   6.889   1.133   4.324
 3605SOL     OW11713   1.132   6.973   4.953
 3605SOL    HW111714   1.130   6.911   5.031
 3605SOL    HW211715   1.221   6.969   4.909
 3606SOL     OW11716   1.859   6.903   3.165
 3606SOL    HW111717   1.824   6.904   3.259
 3606SOL    HW211718   1.908   6.817   3.149
 3607SOL     OW11719   5.892   1.697   4.210
 3607SOL    HW111720   5.871   1.612   4.260
 3607SOL    HW211721   5.895   1.773   4.275
 3608SOL     OW11722   4.081   1.828   5.570
 3608SOL    HW111723   4.028   1.899   5.523
 3608SOL    HW211724   4.176   1.857   5.577
 3609SOL     OW11725   3.073   6.600   4.829
 3609SOL    HW111726   3.053   6.682   4.882
 3609SOL    HW211727   3.166   6.604   4.794
 3610SOL     OW11728   1.048   0.265   6.067
 3610SOL    HW111729   1.035   0.322   5.986
 3610SOL    HW211730   0.968   0.205   6.079
 3611SOL     OW11731   5.278   3.469   2.774
 3611SOL    HW111732   5.283   3.540   2.845
 3611SOL    HW211733   5.370   3.443   2.747
 3612SOL     OW11734   5.177   1.424   0.888
 3612SOL    HW111735   5.169   1.467   0.978
 3612SOL    HW211736   5.250   1.468   0.836
 3613SOL     OW11737   4.036   0.685   2.478
 3613SOL    HW111738   4.132   0.715   2.479
 3613SOL    HW211739   3.993   0.712   2.392
 3614SOL     OW11740   3.509   5.878   0.204
 3614SOL    HW111741   3.533   5.790   0.163
 3614SOL    HW211742   3.585   5.942   0.192
 3615SOL     OW11743   5.483   2.529   4.813
 3615SOL    HW111744   5.455   2.610   4.864
 3615SOL    HW211745   5.409   2.499   4.752
 3616SOL     OW11746   2.055   0.933   1.150
 3616SOL    HW111747   2.135   0.922   1.091
 3616SOL    HW211748   1.999   1.008   1.115
 3617SOL     OW11749   4.019   5.369   4.764
 3617SOL    HW111750   4.085   5.295   4.772
 3617SOL    HW211751   4.067   5.457   4.754
 3618SOL     OW11752   1.223   5.320   4.160
 3618SOL    HW111753   1.239   5.354   4.253
 3618SOL    HW211754   1.133   5.351   4.129
 3619SOL     OW11755   0.103   2.070   2.155
 3619SOL    HW111756   0.202   2.054   2.153
 3619SOL    HW211757   0.064   2.022   2.234
 3620SOL     OW11758   4.611   6.577   5.715
 3620SOL    HW111759   4.638   6.482   5.704
 3620SOL    HW211760   4.541   6.584   5.786
 3621SOL     OW11761   3.146   3.009   3.096
 3621SOL    HW111762   3.056   2.965   3.102
 3621SOL    HW211763   3.201   2.982   3.174
 3622SOL     OW11764   2.210   5.976   5.976
 3622SOL    HW111765   2.239   5.972   6.072
 3622SOL    HW211766   2.221   5.886   5.934
 3623SOL     OW11767   1.900   5.996   5.520
 3623SOL    HW111768   1.834   5.991   5.595
 3623SOL    HW211769   1.991   5.977   5.554
 3624SOL     OW11770   2.824   1.783   2.476
 3624SOL    HW111771   2.745   1.740   2.521
 3624SOL    HW211772   2.807   1.881   2.468
 3625SOL     OW11773   6.214   1.526   1.394
 3625SOL    HW111774   6.134   1.469   1.413
 3625SOL    HW211775   6.187   1.622   1.394
 3626SOL     OW11776   0.932   3.479   5.673
 3626SOL    HW111777   0.966   3.561   5.719
 3626SOL    HW211778   0.858   3.438   5.726
 3627SOL     OW11779   3.133   1.288   2.570
 3627SOL    HW111780   3.043   1.327   2.590
 3627SOL    HW211781   3.121   1.203   2.519
 3628SOL     OW11782   6.841   1.074   1.661
 3628SOL    HW111783   6.904   1.126   1.603
 3628SOL    HW211784   6.851   0.977   1.644
 3629SOL     OW11785   1.900   0.912   4.723
 3629SOL    HW111786   1.821   0.891   4.782
 3629SOL    HW211787   1.896   1.008   4.696
 3630SOL     OW11788   0.172   1.394   2.584
 3630SOL    HW111789   0.227   1.386   2.667
 3630SOL    HW211790   0.100   1.325   2.585
 3631SOL     OW11791   2.219   5.223   2.461
 3631SOL    HW111792   2.277   5.293   2.422
 3631SOL    HW211793   2.124   5.239   2.434
 3632SOL     OW11794   5.082   3.082   2.577
 3632SOL    HW111795   5.173   3.080   2.619
 3632SOL    HW211796   5.092   3.101   2.479
 3633SOL     OW11797   4.702   4.869   5.814
 3633SOL    HW111798   4.763   4.790   5.823
 3633SOL    HW211799   4.629   4.862   5.881
 3634SOL     OW11800   2.867   5.153   6.495
 3634SOL    HW111801   2.851   5.221   6.424
 3634SOL    HW211802   2.897   5.067   6.453
 3635SOL     OW11803   1.716   6.760   2.653
 3635SOL    HW111804   1.684   6.841   2.702
 3635SOL    HW211805   1.809   6.776   2.619
 3636SOL     OW11806   6.812   6.406   4.506
 3636SOL    HW111807   6.728   6.432   4.460
 3636SOL    HW211808   6.824   6.463   4.588
 3637SOL     OW11809   4.904   2.038   6.924
 3637SOL    HW111810   4.992   2.066   6.887
 3637SOL    HW211811   4.874   2.104   6.993
 3638SOL     OW11812   0.522   2.545   3.973
 3638SOL    HW111813   0.582   2.623   3.958
 3638SOL    HW211814   0.560   2.464   3.928
 3639SOL     OW11815   3.407   3.327   3.958
 3639SOL    HW111816   3.384   3.424   3.952
 3639SOL    HW211817   3.377   3.291   4.046
 3640SOL     OW11818   4.499   1.773   2.459
 3640SOL    HW111819   4.430   1.837   2.493
 3640SOL    HW211820   4.483   1.682   2.498
 3641SOL     OW11821   0.126   3.287   1.474
 3641SOL    HW111822   0.060   3.213   1.463
 3641SOL    HW211823   0.086   3.373   1.441
 3642SOL     OW11824   4.147   4.660   6.472
 3642SOL    HW111825   4.124   4.633   6.565
 3642SOL    HW211826   4.119   4.755   6.456
 3643SOL     OW11827   4.488   4.968   4.860
 3643SOL    HW111828   4.572   4.921   4.833
 3643SOL    HW211829   4.416   4.947   4.794
 3644SOL     OW11830   3.285   1.846   1.504
 3644SOL    HW111831   3.252   1.810   1.591
 3644SOL    HW211832   3.384   1.832   1.497
 3645SOL     OW11833   1.566   3.771   3.828
 3645SOL    HW111834   1.631   3.820   3.885
 3645SOL    HW211835   1.514   3.707   3.885
 3646SOL     OW11836   2.593   5.112   5.397
 3646SOL    HW111837   2.496   5.126   5.377
 3646SOL    HW211838   2.637   5.073   5.316
 3647SOL     OW11839   3.508   0.870   0.806
 3647SOL    HW111840   3.451   0.911   0.877
 3647SOL    HW211841   3.580   0.815   0.848
 3648SOL     OW11842   5.704   5.616   4.000
 3648SOL    HW111843   5.725   5.694   3.941
 3648SOL    HW211844   5.688   5.535   3.943
 3649SOL     OW11845   5.267   3.003   0.282
 3649SOL    HW111846   5.260   3.031   0.186
 3649SOL    HW211847   5.300   3.079   0.337
 3650SOL     OW11848   5.177   6.291   0.284
 3650SOL    HW111849   5.206   6.371   0.232
 3650SOL    HW211850   5.080   6.272   0.265
 3651SOL     OW11851   0.618   1.831   5.629
 3651SOL    HW111852   0.660   1.919   5.608
 3651SOL    HW211853   0.687   1.768   5.664
 3652SOL     OW11854   6.011   2.051   2.558
 3652SOL    HW111855   6.071   1.989   2.508
 3652SOL    HW211856   6.063   2.129   2.593
 3653SOL     OW11857   2.238   1.682   0.670
 3653SOL    HW111858   2.301   1.750   0.634
 3653SOL    HW211859   2.290   1.611   0.718
 3654SOL     OW11860   4.159   6.041   0.951
 3654SOL    HW111861   4.134   5.963   1.008
 3654SOL    HW211862   4.258   6.052   0.951
 3655SOL     OW11863   1.376   6.995   3.725
 3655SOL    HW111864   1.409   0.061   3.688
 3655SOL    HW211865   1.419   6.977   3.813
 3656SOL     OW11866   0.495   0.763   0.797
 3656SOL    HW111867   0.542   0.755   0.885
 3656SOL    HW211868   0.490   0.859   0.770
 3657SOL     OW11869   6.914   4.693   6.312
 3657SOL    HW111870   7.004   4.666   6.346
 3657SOL    HW211871   6.845   4.632   6.349
 3658SOL     OW11872   2.116   4.514   5.780
 3658SOL    HW111873   2.052   4.588   5.802
 3658SOL    HW211874   2.197   4.522   5.838
 3659SOL     OW11875   1.023   2.227   0.161
 3659SOL    HW111876   0.963   2.177   0.222
 3659SOL    HW211877   1.035   2.321   0.195
 3660SOL     OW11878   4.415   4.588   4.252
 3660SOL    HW111879   4.333   4.645   4.245
 3660SOL    HW211880   4.428   4.538   4.167
 3661SOL     OW11881   0.914   0.855   5.264
 3661SOL    HW111882   0.971   0.923   5.309
 3661SOL    HW211883   0.958   0.824   5.180
 3662SOL     OW11884   3.665   2.710   5.634
 3662SOL    HW111885   3.760   2.678   5.628
 3662SOL    HW211886   3.626   2.716   5.543
 3663SOL     OW11887   1.583   2.628   5.718
 3663SOL    HW111888   1.611   2.670   5.804
 3663SOL    HW211889   1.619   2.682   5.642
 3664SOL     OW11890   2.063   2.604   0.767
 3664SOL    HW111891   1.965   2.586   0.764
 3664SOL    HW211892   2.079   2.702   0.775
 3665SOL     OW11893   6.776   5.977   4.943
 3665SOL    HW111894   6.808   5.923   4.865
 3665SOL    HW211895   6.853   6.020   4.988
 3666SOL     OW11896   2.166   3.807   4.784
 3666SOL    HW111897   2.109   3.738   4.830
 3666SOL    HW211898   2.223   3.853   4.853
 3667SOL     OW11899   2.650   6.504   1.146
 3667SOL    HW111900   2.676   6.498   1.049
 3667SOL    HW211901   2.559   6.464   1.159
 3668SOL     OW11902   4.456   0.551   0.644
 3668SOL    HW111903   4.499   0.623   0.591
 3668SOL    HW211904   4.360   0.573   0.660
 3669SOL     OW11905   6.558   1.421   2.360
 3669SOL    HW111906   6.537   1.330   2.396
 3669SOL    HW211907   6.640   1.457   2.404
 3670SOL     OW11908   2.147   6.558   2.141
 3670SOL    HW111909   2.055   6.519   2.136
 3670SOL    HW211910   2.176   6.561   2.236
 3671SOL     OW11911   0.415   0.839   5.644
 3671SOL    HW111912   0.402   0.756   5.698
 3671SOL    HW211913   0.447   0.913   5.703
 3672SOL     OW11914   2.860   0.289   2.816
 3672SOL    HW111915   2.907   0.200   2.816
 3672SOL    HW211916   2.774   0.281   2.766
 3673SOL     OW11917   3.685   1.306   1.767
 3673SOL    HW111918   3.688   1.237   1.694
 3673SOL    HW211919   3.666   1.396   1.728
 3674SOL     OW11920   6.750   5.761   6.096
 3674SOL    HW111921   6.701   5.701   6.159
 3674SOL    HW211922   6.818   5.814   6.146
 3675SOL     OW11923   5.808   0.678   5.280
 3675SOL    HW111924   5.728   0.675   5.340
 3675SOL    HW211925   5.781   0.656   5.186
 3676SOL     OW11926   2.096   0.613   6.276
 3676SOL    HW111927   2.166   0.612   6.347
 3676SOL    HW211928   2.013   0.570   6.311
 3677SOL     OW11929   1.372   0.047   5.196
 3677SOL    HW111930   1.383   6.975   5.161
 3677SOL    HW211931   1.278   0.077   5.183
 3678SOL     OW11932   2.740   1.074   3.547
 3678SOL    HW111933   2.830   1.113   3.569
 3678SOL    HW211934   2.701   1.032   3.628
 3679SOL     OW11935   3.210   1.041   1.538
 3679SOL    HW111936   3.181   1.086   1.454
 3679SOL    HW211937   3.131   0.999   1.582
 3680SOL     OW11938   4.790   1.389   3.993
 3680SOL    HW111939   4.744   1.330   3.927
 3680SOL    HW211940   4.721   1.437   4.048
 3681SOL     OW11941   1.043   5.387   3.576
 3681SOL    HW111942   0.997   5.476   3.577
 3681SOL    HW211943   0.990   5.323   3.521
 3682SOL     OW11944   5.347   1.079   2.125
 3682SOL    HW111945   5.317   1.119   2.038
 3682SOL    HW211946   5.266   1.057   2.180
 3683SOL     OW11947   6.087   2.502   1.209
 3683SOL    HW111948   5.990   2.485   1.225
 3683SOL    HW211949   6.100   2.537   1.116
 3684SOL     OW11950   2.307   6.171   5.528
 3684SOL    HW111951   2.294   6.076   5.501
 3684SOL    HW211952   2.221   6.207   5.563
 3685SOL     OW11953   1.528   6.577   2.628
 3685SOL    HW111954   1.615   6.625   2.628
 3685SOL    HW211955   1.453   6.642   2.616
 3686SOL     OW11956   1.204   4.850   0.777
 3686SOL    HW111957   1.121   4.891   0.739
 3686SOL    HW211958   1.230   4.899   0.860
 3687SOL     OW11959   0.010   4.735   4.298
 3687SOL    HW111960   0.042   4.649   4.258
 3687SOL    HW211961   0.087   4.798   4.307
 3688SOL     OW11962   0.516   2.589   1.538
 3688SOL    HW111963   0.544   2.502   1.578
 3688SOL    HW211964   0.480   2.649   1.610
 3689SOL     OW11965   2.980   2.300   5.628
 3689SOL    HW111966   2.899   2.356   5.641
 3689SOL    HW211967   2.953   2.205   5.609
 3690SOL     OW11968   0.012   5.496   2.270
 3690SOL    HW111969   0.027   5.470   2.365
 3690SOL    HW211970   6.972   5.576   2.266
 3691SOL     OW11971   2.813   1.774   6.840
 3691SOL    HW111972   2.907   1.797   6.862
 3691SOL    HW211973   2.796   1.791   6.743
 3692SOL     OW11974   1.068   2.740   5.785
 3692SOL    HW111975   0.974   2.723   5.755
 3692SOL    HW211976   1.130   2.731   5.706
 3693SOL     OW11977   0.750   1.110   3.162
 3693SOL    HW111978   0.756   1.091   3.260
 3693SOL    HW211979   0.667   1.162   3.143
 3694SOL     OW11980   6.900   6.048   2.044
 3694SOL    HW111981   6.988   6.076   2.004
 3694SOL    HW211982   6.884   6.099   2.128
 3695SOL     OW11983   5.928   3.827   4.755
 3695SOL    HW111984   5.958   3.734   4.737
 3695SOL    HW211985   5.848   3.826   4.815
 3696SOL     OW11986   4.144   7.005   4.267
 3696SOL    HW111987   4.206   6.980   4.193
 3696SOL    HW211988   4.130   6.926   4.327
 3697SOL     OW11989   0.032   5.104   2.782
 3697SOL    HW111990   0.015   5.165   2.860
 3697SOL    HW211991   6.966   5.082   2.737
 3698SOL     OW11992   1.512   0.429   3.832
 3698SOL    HW111993   1.434   0.487   3.852
 3698SOL    HW211994   1.594   0.467   3.876
 3699SOL     OW11995   3.139   1.716   3.393
 3699SOL    HW111996   3.180   1.685   3.479
 3699SOL    HW211997   3.045   1.683   3.386
 3700SOL     OW11998   1.123   5.023   4.546
 3700SOL    HW111999   1.035   4.993   4.509
 3700SOL    HW212000   1.184   5.045   4.470
 3701SOL     OW12001   6.211   0.394   2.442
 3701SOL    HW112002   6.222   0.491   2.423
 3701SOL    HW212003   6.117   0.375   2.471
 3702SOL     OW12004   0.149   4.664   3.593
 3702SOL    HW112005   0.065   4.640   3.544
 3702SOL    HW212006   0.125   4.706   3.681
 3703SOL     OW12007   1.072   2.247   3.352
 3703SOL    HW112008   0.999   2.180   3.349
 3703SOL    HW212009   1.127   2.241   3.269
 3704SOL     OW12010   6.416   6.800   0.866
 3704SOL    HW112011   6.492   6.767   0.922
 3704SOL    HW212012   6.355   6.856   0.921
 3705SOL     OW12013   6.799   3.972   3.855
 3705SOL    HW112014   6.883   3.920   3.873
 3705SOL    HW212015   6.818   4.069   3.869
 3706SOL     OW12016   0.099   6.591   6.908
 3706SOL    HW112017   0.057   6.632   6.990
 3706SOL    HW212018   0.045   6.615   6.828
 3707SOL     OW12019   6.642   4.198   3.642
 3707SOL    HW112020   6.649   4.293   3.614
 3707SOL    HW212021   6.734   4.159   3.652
 3708SOL     OW12022   0.553   5.886   0.257
 3708SOL    HW112023   0.604   5.931   0.184
 3708SOL    HW212024   0.606   5.890   0.342
 3709SOL     OW12025   0.663   1.667   1.272
 3709SOL    HW112026   0.622   1.590   1.224
 3709SOL    HW212027   0.735   1.634   1.334
 3710SOL     OW12028   1.721   3.595   4.976
 3710SOL    HW112029   1.770   3.614   5.061
 3710SOL    HW212030   1.695   3.499   4.973
 3711SOL     OW12031   1.071   4.799   6.177
 3711SOL    HW112032   1.042   4.874   6.236
 3711SOL    HW212033   1.106   4.836   6.091
 3712SOL     OW12034   3.756   4.884   3.304
 3712SOL    HW112035   3.728   4.941   3.227
 3712SOL    HW212036   3.819   4.813   3.272
 3713SOL     OW12037   6.351   0.679   6.368
 3713SOL    HW112038   6.357   0.691   6.269
 3713SOL    HW212039   6.274   0.619   6.389
 3714SOL     OW12040   0.043   5.563   0.468
 3714SOL    HW112041   0.118   5.506   0.500
 3714SOL    HW212042   6.985   5.505   0.447
 3715SOL     OW12043   5.440   4.364   2.245
 3715SOL    HW112044   5.370   4.297   2.220
 3715SOL    HW212045   5.485   4.397   2.163
 3716SOL     OW12046   5.319   4.989   5.640
 3716SOL    HW112047   5.281   4.985   5.732
 3716SOL    HW212048   5.262   5.048   5.583
 3717SOL     OW12049   4.151   6.834   1.252
 3717SOL    HW112050   4.184   6.905   1.189
 3717SOL    HW212051   4.163   6.866   1.346
 3718SOL     OW12052   5.254   6.432   6.313
 3718SOL    HW112053   5.161   6.438   6.277
 3718SOL    HW212054   5.260   6.486   6.397
 3719SOL     OW12055   2.884   3.706   0.418
 3719SOL    HW112056   2.936   3.629   0.381
 3719SOL    HW212057   2.947   3.778   0.447
 3720SOL     OW12058   0.998   2.076   0.495
 3720SOL    HW112059   1.076   2.016   0.476
 3720SOL    HW212060   1.031   2.167   0.519
 3721SOL     OW12061   6.545   0.440   5.618
 3721SOL    HW112062   6.476   0.423   5.547
 3721SOL    HW212063   6.501   0.480   5.698
 3722SOL     OW12064   4.901   6.525   2.079
 3722SOL    HW112065   4.926   6.608   2.029
 3722SOL    HW212066   4.927   6.534   2.175
 3723SOL     OW12067   4.222   4.174   6.445
 3723SOL    HW112068   4.157   4.166   6.520
 3723SOL    HW212069   4.306   4.217   6.478
 3724SOL     OW12070   6.052   3.817   5.109
 3724SOL    HW112071   6.104   3.823   5.194
 3724SOL    HW212072   6.083   3.888   5.046
 3725SOL     OW12073   6.868   6.580   1.025
 3725SOL    HW112074   6.844   6.483   1.021
 3725SOL    HW212075   6.933   6.596   1.100
 3726SOL     OW12076   6.216   3.878   5.341
 3726SOL    HW112077   6.271   3.961   5.348
 3726SOL    HW212078   6.270   3.800   5.373
 3727SOL     OW12079   6.005   1.723   3.965
 3727SOL    HW112080   5.945   1.766   3.898
 3727SOL    HW212081   5.954   1.705   4.049
 3728SOL     OW12082   1.817   4.456   0.506
 3728SOL    HW112083   1.882   4.508   0.561
 3728SOL    HW212084   1.724   4.489   0.524
 3729SOL     OW12085   6.967   6.989   6.211
 3729SOL    HW112086   6.874   0.003   6.197
 3729SOL    HW212087   6.975   6.897   6.174
 3730SOL     OW12088   5.944   4.273   4.963
 3730SOL    HW112089   5.874   4.245   5.028
 3730SOL    HW212090   5.944   4.212   4.884
 3731SOL     OW12091   6.235   1.266   1.896
 3731SOL    HW112092   6.325   1.310   1.901
 3731SOL    HW212093   6.178   1.297   1.972
 3732SOL     OW12094   4.371   2.524   6.774
 3732SOL    HW112095   4.391   2.457   6.846
 3732SOL    HW212096   4.447   2.588   6.767
 3733SOL     OW12097   2.110   1.161   3.021
 3733SOL    HW112098   2.129   1.150   3.119
 3733SOL    HW212099   2.084   1.073   2.982
 3734SOL     OW12100   4.554   0.982   2.089
 3734SOL    HW112101   4.464   1.021   2.109
 3734SOL    HW212102   4.591   1.023   2.006
 3735SOL     OW12103   3.633   0.961   2.568
 3735SOL    HW112104   3.708   0.984   2.630
 3735SOL    HW212105   3.566   1.036   2.569
 3736SOL     OW12106   0.738   0.998   6.582
 3736SOL    HW112107   0.701   1.009   6.490
 3736SOL    HW212108   0.707   1.074   6.640
 3737SOL     OW12109   4.859   1.963   4.623
 3737SOL    HW112110   4.920   1.968   4.544
 3737SOL    HW212111   4.906   1.919   4.699
 3738SOL     OW12112   0.767   1.125   0.374
 3738SOL    HW112113   0.737   1.171   0.290
 3738SOL    HW212114   0.833   1.182   0.422
 3739SOL     OW12115   3.260   5.480   6.951
 3739SOL    HW112116   3.268   5.407   7.019
 3739SOL    HW212117   3.232   5.565   6.997
 3740SOL     OW12118   6.932   0.089   6.798
 3740SOL    HW112119   7.015   0.047   6.762
 3740SOL    HW212120   6.952   0.181   6.830
 3741SOL     OW12121   5.682   4.780   0.255
 3741SOL    HW112122   5.615   4.708   0.272
 3741SOL    HW212123   5.642   4.851   0.197
 3742SOL     OW12124   4.680   5.180   1.346
 3742SOL    HW112125   4.692   5.249   1.417
 3742SOL    HW212126   4.696   5.089   1.385
 3743SOL     OW12127   2.363   3.903   1.414
 3743SOL    HW112128   2.421   3.921   1.493
 3743SOL    HW212129   2.378   3.973   1.345
 3744SOL     OW12130   6.468   5.734   2.458
 3744SOL    HW112131   6.472   5.834   2.469
 3744SOL    HW212132   6.395   5.711   2.393
 3745SOL     OW12133   6.134   0.919   3.052
 3745SOL    HW112134   6.036   0.930   3.032
 3745SOL    HW212135   6.156   0.822   3.058
 3746SOL     OW12136   5.350   0.101   5.842
 3746SOL    HW112137   5.379   0.084   5.748
 3746SOL    HW212138   5.415   0.058   5.905
 3747SOL     OW12139   2.000   4.971   5.670
 3747SOL    HW112140   1.937   4.903   5.630
 3747SOL    HW212141   1.980   5.061   5.631
 3748SOL     OW12142   4.662   1.428   3.143
 3748SOL    HW112143   4.609   1.489   3.085
 3748SOL    HW212144   4.759   1.449   3.133
 3749SOL     OW12145   5.870   5.401   0.870
 3749SOL    HW112146   5.832   5.443   0.952
 3749SOL    HW212147   5.865   5.465   0.794
 3750SOL     OW12148   0.122   4.572   1.309
 3750SOL    HW112149   0.114   4.537   1.216
 3750SOL    HW212150   0.196   4.524   1.357
 3751SOL     OW12151   1.771   4.930   0.923
 3751SOL    HW112152   1.751   4.838   0.888
 3751SOL    HW212153   1.837   4.975   0.863
 3752SOL     OW12154   1.159   6.705   6.040
 3752SOL    HW112155   1.172   6.729   5.943
 3752SOL    HW212156   1.099   6.773   6.083
 3753SOL     OW12157   0.310   1.237   5.732
 3753SOL    HW112158   0.300   1.240   5.633
 3753SOL    HW212159   0.386   1.296   5.760
 3754SOL     OW12160   6.620   6.709   1.021
 3754SOL    HW112161   6.620   6.763   1.105
 3754SOL    HW212162   6.711   6.669   1.007
 3755SOL     OW12163   4.558   2.627   2.920
 3755SOL    HW112164   4.624   2.691   2.879
 3755SOL    HW212165   4.508   2.674   2.993
 3756SOL     OW12166   3.132   6.963   0.293
 3756SOL    HW112167   3.039   6.996   0.304
 3756SOL    HW212168   3.168   6.992   0.204
 3757SOL     OW12169   3.021   4.028   5.779
 3757SOL    HW112170   2.977   4.029   5.689
 3757SOL    HW212171   2.960   4.068   5.846
 3758SOL     OW12172   0.646   0.900   1.582
 3758SOL    HW112173   0.709   0.964   1.628
 3758SOL    HW212174   0.611   0.943   1.499
 3759SOL     OW12175   5.732   4.104   0.653
 3759SOL    HW112176   5.634   4.107   0.676
 3759SOL    HW212177   5.768   4.197   0.649
 3760SOL     OW12178   1.934   1.570   5.828
 3760SOL    HW112179   1.988   1.649   5.858
 3760SOL    HW212180   1.993   1.490   5.818
 3761SOL     OW12181   0.078   6.387   4.473
 3761SOL    HW112182   0.128   6.343   4.399
 3761SOL    HW212183   7.000   6.378   4.456
 3762SOL     OW12184   0.216   3.845   1.088
 3762SOL    HW112185   0.232   3.794   1.173
 3762SOL    HW212186   0.285   3.916   1.078
 3763SOL     OW12187   0.425   2.498   4.789
 3763SOL    HW112188   0.458   2.563   4.858
 3763SOL    HW212189   0.478   2.510   4.704
 3764SOL     OW12190   2.500   0.518   3.257
 3764SOL    HW112191   2.553   0.566   3.187
 3764SOL    HW212192   2.562   0.461   3.313
 3765SOL     OW12193   6.335   1.660   3.467
 3765SOL    HW112194   6.314   1.663   3.565
 3765SOL    HW212195   6.390   1.740   3.443
 3766SOL     OW12196   2.317   1.442   4.406
 3766SOL    HW112197   2.276   1.434   4.497
 3766SOL    HW212198   2.410   1.478   4.414
 3767SOL     OW12199   6.750   4.213   1.617
 3767SOL    HW112200   6.748   4.271   1.536
 3767SOL    HW212201   6.706   4.260   1.693
 3768SOL     OW12202   4.672   6.692   1.410
 3768SOL    HW112203   4.612   6.613   1.399
 3768SOL    HW212204   4.693   6.705   1.507
 3769SOL     OW12205   4.040   6.809   4.514
 3769SOL    HW112206   4.015   6.891   4.566
 3769SOL    HW212207   4.098   6.750   4.570
 3770SOL     OW12208   1.583   3.065   0.665
 3770SOL    HW112209   1.536   3.123   0.599
 3770SOL    HW212210   1.570   3.102   0.757
 3771SOL     OW12211   5.053   1.425   5.052
 3771SOL    HW112212   4.961   1.446   5.019
 3771SOL    HW212213   5.048   1.353   5.121
 3772SOL     OW12214   5.083   0.626   3.031
 3772SOL    HW112215   5.104   0.548   2.972
 3772SOL    HW212216   5.065   0.594   3.124
 3773SOL     OW12217   6.066   2.607   0.971
 3773SOL    HW112218   6.010   2.671   1.023
 3773SOL    HW212219   6.125   2.657   0.908
 3774SOL     OW12220   2.110   1.148   1.771
 3774SOL    HW112221   2.117   1.116   1.865
 3774SOL    HW212222   2.017   1.178   1.752
 3775SOL     OW12223   5.389   2.612   3.795
 3775SOL    HW112224   5.460   2.668   3.753
 3775SOL    HW212225   5.310   2.669   3.817
 3776SOL     OW12226   3.328   1.760   7.015
 3776SOL    HW112227   3.364   1.849   0.023
 3776SOL    HW212228   3.402   1.703   6.982
 3777SOL     OW12229   1.559   4.317   3.387
 3777SOL    HW112230   1.568   4.218   3.401
 3777SOL    HW212231   1.608   4.365   3.459
 3778SOL     OW12232   2.309   0.302   1.795
 3778SOL    HW112233   2.340   0.208   1.778
 3778SOL    HW212234   2.254   0.334   1.718
 3779SOL     OW12235   2.202   3.750   0.290
 3779SOL    HW112236   2.123   3.809   0.302
 3779SOL    HW212237   2.242   3.766   0.200
 3780SOL     OW12238   2.531   0.614   4.156
 3780SOL    HW112239   2.621   0.582   4.126
 3780SOL    HW212240   2.542   0.669   4.240
 3781SOL     OW12241   3.246   4.950   4.514
 3781SOL    HW112242   3.176   4.984   4.578
 3781SOL    HW212243   3.332   4.939   4.562
 3782SOL     OW12244   3.096   0.778   2.076
 3782SOL    HW112245   3.006   0.810   2.104
 3782SOL    HW212246   3.143   0.850   2.025
 3783SOL     OW12247   5.233   4.124   5.622
 3783SOL    HW112248   5.201   4.085   5.536
 3783SOL    HW212249   5.330   4.147   5.614
 3784SOL     OW12250   4.842   2.844   5.124
 3784SOL    HW112251   4.750   2.871   5.152
 3784SOL    HW212252   4.846   2.842   5.024
 3785SOL     OW12253   6.909   0.252   1.605
 3785SOL    HW112254   6.848   0.191   1.657
 3785SOL    HW212255   6.878   0.346   1.616
 3786SOL     OW12256   2.743   6.170   1.641
 3786SOL    HW112257   2.696   6.082   1.639
 3786SOL    HW212258   2.717   6.224   1.560
 3787SOL     OW12259   4.056   1.366   3.257
 3787SOL    HW112260   3.986   1.380   3.188
 3787SOL    HW212261   4.147   1.381   3.217
 3788SOL     OW12262   0.607   3.043   2.858
 3788SOL    HW112263   0.549   3.046   2.940
 3788SOL    HW212264   0.582   3.118   2.797
 3789SOL     OW12265   1.911   5.300   2.115
 3789SOL    HW112266   1.925   5.262   2.206
 3789SOL    HW212267   1.990   5.279   2.058
 3790SOL     OW12268   2.130   3.644   2.976
 3790SOL    HW112269   2.127   3.690   3.064
 3790SOL    HW212270   2.057   3.679   2.918
 3791SOL     OW12271   6.860   0.616   2.569
 3791SOL    HW112272   6.934   0.634   2.503
 3791SOL    HW212273   6.812   0.702   2.588
 3792SOL     OW12274   1.213   5.220   5.918
 3792SOL    HW112275   1.307   5.205   5.947
 3792SOL    HW212276   1.163   5.268   5.990
 3793SOL     OW12277   6.230   6.218   2.633
 3793SOL    HW112278   6.319   6.197   2.675
 3793SOL    HW212279   6.180   6.133   2.616
 3794SOL     OW12280   4.328   6.843   5.102
 3794SOL    HW112281   4.350   6.940   5.099
 3794SOL    HW212282   4.400   6.791   5.055
 3795SOL     OW12283   5.624   0.631   0.539
 3795SOL    HW112284   5.542   0.582   0.509
 3795SOL    HW212285   5.598   0.719   0.578
 3796SOL     OW12286   0.445   2.257   1.500
 3796SOL    HW112287   0.456   2.275   1.598
 3796SOL    HW212288   0.528   2.213   1.465
 3797SOL     OW12289   6.381   6.201   2.407
 3797SOL    HW112290   6.372   6.107   2.373
 3797SOL    HW212291   6.324   6.212   2.489
 3798SOL     OW12292   1.558   4.299   6.912
 3798SOL    HW112293   1.484   4.241   6.878
 3798SOL    HW212294   1.636   4.293   6.849
 3799SOL     OW12295   0.163   0.779   5.167
 3799SOL    HW112296   0.196   0.797   5.259
 3799SOL    HW212297   0.157   0.864   5.115
 3800SOL     OW12298   4.706   2.415   5.031
 3800SOL    HW112299   4.677   2.355   4.956
 3800SOL    HW212300   4.643   2.493   5.038
 3801SOL     OW12301   6.732   0.703   5.731
 3801SOL    HW112302   6.778   0.615   5.732
 3801SOL    HW212303   6.774   0.764   5.798
 3802SOL     OW12304   1.824   2.234   5.148
 3802SOL    HW112305   1.770   2.309   5.110
 3802SOL    HW212306   1.801   2.149   5.101
 3803SOL     OW12307   4.530   0.833   1.200
 3803SOL    HW112308   4.548   0.802   1.293
 3803SOL    HW212309   4.436   0.868   1.194
 3804SOL     OW12310   5.069   4.134   4.747
 3804SOL    HW112311   5.067   4.078   4.830
 3804SOL    HW212312   5.157   4.122   4.701
 3805SOL     OW12313   2.151   3.072   1.582
 3805SOL    HW112314   2.132   3.171   1.576
 3805SOL    HW212315   2.066   3.021   1.568
 3806SOL     OW12316   4.177   0.153   0.748
 3806SOL    HW112317   4.170   0.095   0.666
 3806SOL    HW212318   4.270   0.188   0.756
 3807SOL     OW12319   1.991   6.812   2.635
 3807SOL    HW112320   2.038   6.731   2.671
 3807SOL    HW212321   2.003   6.888   2.698
 3808SOL     OW12322   3.675   1.131   0.930
 3808SOL    HW112323   3.730   1.214   0.919
 3808SOL    HW212324   3.608   1.125   0.857
 3809SOL     OW12325   3.862   1.147   0.479
 3809SOL    HW112326   3.768   1.118   0.459
 3809SOL    HW212327   3.923   1.068   0.472
 3810SOL     OW12328   1.314   3.296   6.963
 3810SOL    HW112329   1.299   3.238   0.022
 3810SOL    HW212330   1.365   3.378   6.990
 3811SOL     OW12331   6.629   0.829   5.499
 3811SOL    HW112332   6.634   0.772   5.581
 3811SOL    HW212333   6.720   0.863   5.476
 3812SOL     OW12334   4.050   0.181   5.930
 3812SOL    HW112335   3.998   0.266   5.933
 3812SOL    HW212336   3.991   0.104   5.954
 3813SOL     OW12337   3.907   5.033   1.775
 3813SOL    HW112338   3.913   4.933   1.780
 3813SOL    HW212339   3.885   5.060   1.681
 3814SOL     OW12340   1.867   0.049   1.661
 3814SOL    HW112341   1.902   0.138   1.691
 3814SOL    HW212342   1.814   0.008   1.735
 3815SOL     OW12343   5.077   2.028   2.138
 3815SOL    HW112344   5.029   2.098   2.191
 3815SOL    HW212345   5.013   1.985   2.074
 3816SOL     OW12346   0.137   5.547   0.855
 3816SOL    HW112347   0.115   5.571   0.950
 3816SOL    HW212348   0.110   5.622   0.794
 3817SOL     OW12349   5.431   1.974   4.910
 3817SOL    HW112350   5.389   1.938   4.993
 3817SOL    HW212351   5.477   1.899   4.862
 3818SOL     OW12352   3.654   0.023   3.056
 3818SOL    HW112353   3.591   6.972   3.086
 3818SOL    HW212354   3.604   0.109   3.047
 3819SOL     OW12355   5.814   3.642   6.375
 3819SOL    HW112356   5.735   3.606   6.425
 3819SOL    HW212357   5.896   3.633   6.432
 3820SOL     OW12358   4.006   6.572   3.323
 3820SOL    HW112359   4.051   6.486   3.299
 3820SOL    HW212360   4.015   6.588   3.422
 3821SOL     OW12361   1.374   4.484   1.548
 3821SOL    HW112362   1.304   4.501   1.478
 3821SOL    HW212363   1.343   4.520   1.636
 3822SOL     OW12364   0.929   3.477   1.820
 3822SOL    HW112365   0.863   3.411   1.854
 3822SOL    HW212366   0.969   3.528   1.897
 3823SOL     OW12367   2.165   3.763   5.121
 3823SOL    HW112368   2.169   3.784   5.219
 3823SOL    HW212369   2.214   3.834   5.070
 3824SOL     OW12370   0.178   3.238   6.214
 3824SOL    HW112371   0.124   3.164   6.173
 3824SOL    HW212372   0.246   3.199   6.276
 3825SOL     OW12373   0.421   6.120   6.429
 3825SOL    HW112374   0.424   6.188   6.502
 3825SOL    HW212375   0.492   6.051   6.444
 3826SOL     OW12376   0.239   1.630   1.423
 3826SOL    HW112377   0.153   1.644   1.472
 3826SOL    HW212378   0.309   1.598   1.486
 3827SOL     OW12379   4.351   1.631   1.959
 3827SOL    HW112380   4.279   1.697   1.938
 3827SOL    HW212381   4.433   1.654   1.907
 3828SOL     OW12382   3.661   1.531   0.977
 3828SOL    HW112383   3.629   1.601   0.913
 3828SOL    HW212384   3.584   1.471   1.001
 3829SOL     OW12385   0.939   5.255   3.804
 3829SOL    HW112386   0.931   5.164   3.764
 3829SOL    HW212387   0.952   5.323   3.732
 3830SOL     OW12388   1.676   6.982   6.228
 3830SOL    HW112389   1.597   6.991   6.167
 3830SOL    HW212390   1.646   6.996   6.322
 3831SOL     OW12391   4.746   2.335   2.343
 3831SOL    HW112392   4.803   2.375   2.271
 3831SOL    HW212393   4.794   2.342   2.431
 3832SOL     OW12394   6.385   0.171   2.425
 3832SOL    HW112395   6.315   0.242   2.415
 3832SOL    HW212396   6.465   0.194   2.369
 3833SOL     OW12397   1.125   6.069   2.092
 3833SOL    HW112398   1.130   5.974   2.124
 3833SOL    HW212399   1.073   6.073   2.007
 3834SOL     OW12400   3.050   2.287   0.454
 3834SOL    HW112401   3.081   2.226   0.381
 3834SOL    HW212402   2.955   2.311   0.440
 3835SOL     OW12403   3.672   5.065   3.103
 3835SOL    HW112404   3.650   4.985   3.049
 3835SOL    HW212405   3.749   5.114   3.061
 3836SOL     OW12406   1.395   2.455   6.178
 3836SOL    HW112407   1.471   2.482   6.119
 3836SOL    HW212408   1.413   2.365   6.217
 3837SOL     OW12409   3.684   4.492   6.647
 3837SOL    HW112410   3.690   4.399   6.682
 3837SOL    HW212411   3.704   4.556   6.722
 3838SOL     OW12412   0.240   3.516   4.902
 3838SOL    HW112413   0.156   3.547   4.945
 3838SOL    HW212414   0.225   3.429   4.855
 3839SOL     OW12415   0.489   6.580   0.066
 3839SOL    HW112416   0.517   6.529   7.005
 3839SOL    HW212417   0.560   6.574   0.136
 3840SOL     OW12418   3.759   1.889   3.286
 3840SOL    HW112419   3.690   1.854   3.222
 3840SOL    HW212420   3.850   1.872   3.247
 3841SOL     OW12421   1.624   3.042   3.911
 3841SOL    HW112422   1.633   3.018   4.008
 3841SOL    HW212423   1.631   3.141   3.901
 3842SOL     OW12424   1.189   4.815   0.192
 3842SOL    HW112425   1.164   4.758   0.114
 3842SOL    HW212426   1.181   4.762   0.276
 3843SOL     OW12427   6.735   5.586   0.148
 3843SOL    HW112428   6.819   5.621   0.189
 3843SOL    HW212429   6.739   5.486   0.144
 3844SOL     OW12430   3.010   4.214   6.111
 3844SOL    HW112431   3.002   4.247   6.017
 3844SOL    HW212432   2.918   4.204   6.150
 3845SOL     OW12433   3.246   4.057   4.960
 3845SOL    HW112434   3.257   3.966   5.001
 3845SOL    HW212435   3.158   4.061   4.911
 3846SOL     OW12436   0.131   4.396   4.324
 3846SOL    HW112437   0.166   4.362   4.237
 3846SOL    HW212438   0.045   4.350   4.347
 3847SOL     OW12439   1.200   6.603   1.080
 3847SOL    HW112440   1.252   6.685   1.055
 3847SOL    HW212441   1.251   6.522   1.053
 3848SOL     OW12442   2.487   6.291   2.767
 3848SOL    HW112443   2.522   6.255   2.680
 3848SOL    HW212444   2.387   6.294   2.764
 3849SOL     OW12445   2.535   1.419   4.689
 3849SOL    HW112446   2.564   1.418   4.785
 3849SOL    HW212447   2.551   1.329   4.649
 3850SOL     OW12448   1.809   3.066   1.822
 3850SOL    HW112449   1.830   3.130   1.896
 3850SOL    HW212450   1.839   3.105   1.734
 3851SOL     OW12451   2.564   2.896   0.149
 3851SOL    HW112452   2.570   2.978   0.206
 3851SOL    HW212453   2.479   2.899   0.095
 3852SOL     OW12454   4.272   0.647   5.346
 3852SOL    HW112455   4.190   0.590   5.349
 3852SOL    HW212456   4.249   0.740   5.376
 3853SOL     OW12457   0.317   3.288   2.059
 3853SOL    HW112458   0.310   3.340   1.973
 3853SOL    HW212459   0.386   3.217   2.049
 3854SOL     OW12460   1.151   4.075   4.176
 3854SOL    HW112461   1.119   3.981   4.160
 3854SOL    HW212462   1.204   4.078   4.261
 3855SOL     OW12463   6.758   2.395   4.978
 3855SOL    HW112464   6.706   2.310   4.984
 3855SOL    HW212465   6.714   2.466   5.033
 3856SOL     OW12466   1.059   6.416   5.961
 3856SOL    HW112467   1.080   6.510   5.935
 3856SOL    HW212468   1.053   6.409   6.060
 3857SOL     OW12469   0.602   0.708   6.376
 3857SOL    HW112470   0.528   0.645   6.400
 3857SOL    HW212471   0.590   0.741   6.282
 3858SOL     OW12472   3.966   4.981   6.865
 3858SOL    HW112473   4.025   4.960   6.943
 3858SOL    HW212474   3.999   5.064   6.820
 3859SOL     OW12475   0.089   2.301   2.907
 3859SOL    HW112476   0.169   2.247   2.882
 3859SOL    HW212477   0.060   2.277   3.000
 3860SOL     OW12478   2.428   6.138   4.917
 3860SOL    HW112479   2.441   6.090   5.003
 3860SOL    HW212480   2.333   6.166   4.908
 3861SOL     OW12481   3.539   3.665   0.257
 3861SOL    HW112482   3.477   3.604   0.209
 3861SOL    HW212483   3.523   3.659   0.355
 3862SOL     OW12484   0.401   6.552   5.543
 3862SOL    HW112485   0.486   6.537   5.593
 3862SOL    HW212486   0.366   6.465   5.509
 3863SOL     OW12487   2.376   2.921   0.499
 3863SOL    HW112488   2.443   2.941   0.570
 3863SOL    HW212489   2.358   3.004   0.446
 3864SOL     OW12490   3.514   1.801   1.852
 3864SOL    HW112491   3.568   1.725   1.815
 3864SOL    HW212492   3.440   1.823   1.788
 3865SOL     OW12493   4.328   0.782   2.204
 3865SOL    HW112494   4.412   0.836   2.214
 3865SOL    HW212495   4.299   0.782   2.109
 3866SOL     OW12496   4.464   6.102   6.010
 3866SOL    HW112497   4.426   6.133   5.923
 3866SOL    HW212498   4.500   6.181   6.060
 3867SOL     OW12499   2.317   4.986   2.885
 3867SOL    HW112500   2.258   5.050   2.835
 3867SOL    HW212501   2.376   4.938   2.820
 3868SOL     OW12502   2.774   5.349   2.769
 3868SOL    HW112503   2.835   5.270   2.761
 3868SOL    HW212504   2.688   5.330   2.720
 3869SOL     OW12505   1.467   1.314   3.443
 3869SOL    HW112506   1.432   1.403   3.416
 3869SOL    HW212507   1.534   1.283   3.376
 3870SOL     OW12508   3.864   3.692   0.559
 3870SOL    HW112509   3.899   3.698   0.465
 3870SOL    HW212510   3.940   3.703   0.623
 3871SOL     OW12511   2.180   0.577   5.111
 3871SOL    HW112512   2.148   0.490   5.148
 3871SOL    HW212513   2.116   0.608   5.040
 3872SOL     OW12514   4.760   3.891   0.288
 3872SOL    HW112515   4.766   3.937   0.200
 3872SOL    HW212516   4.835   3.922   0.347
 3873SOL     OW12517   6.179   5.130   1.674
 3873SOL    HW112518   6.198   5.222   1.641
 3873SOL    HW212519   6.107   5.134   1.744
 3874SOL     OW12520   5.508   6.375   5.572
 3874SOL    HW112521   5.539   6.308   5.640
 3874SOL    HW212522   5.525   6.467   5.606
 3875SOL     OW12523   3.065   3.178   0.637
 3875SOL    HW112524   3.161   3.206   0.631
 3875SOL    HW212525   3.056   3.108   0.709
 3876SOL     OW12526   5.775   4.175   3.165
 3876SOL    HW112527   5.676   4.175   3.156
 3876SOL    HW212528   5.801   4.123   3.247
 3877SOL     OW12529   4.542   2.248   1.998
 3877SOL    HW112530   4.520   2.160   2.040
 3877SOL    HW212531   4.563   2.234   1.901
 3878SOL     OW12532   6.189   5.095   5.418
 3878SOL    HW112533   6.127   5.135   5.351
 3878SOL    HW212534   6.255   5.036   5.371
 3879SOL     OW12535   2.081   6.850   0.789
 3879SOL    HW112536   2.038   6.907   0.859
 3879SOL    HW212537   2.164   6.895   0.756
 3880SOL     OW12538   5.645   1.785   4.497
 3880SOL    HW112539   5.722   1.828   4.449
 3880SOL    HW212540   5.679   1.733   4.575
 3881SOL     OW12541   6.992   6.547   6.170
 3881SOL    HW112542   6.987   6.620   6.102
 3881SOL    HW212543   6.909   6.491   6.165
 3882SOL     OW12544   6.841   5.929   0.196
 3882SOL    HW112545   6.878   5.837   0.209
 3882SOL    HW212546   6.791   5.956   0.278
 3883SOL     OW12547   4.073   1.988   0.752
 3883SOL    HW112548   4.050   2.036   0.837
 3883SOL    HW212549   4.163   2.020   0.719
 3884SOL     OW12550   2.875   6.036   6.122
 3884SOL    HW112551   2.874   6.066   6.217
 3884SOL    HW212552   2.824   5.950   6.114
 3885SOL     OW12553   1.186   1.588   4.114
 3885SOL    HW112554   1.095   1.627   4.105
 3885SOL    HW212555   1.192   1.534   4.197
 3886SOL     OW12556   0.051   5.635   4.659
 3886SOL    HW112557   6.981   5.647   4.617
 3886SOL    HW212558   0.095   5.554   4.620
 3887SOL     OW12559   0.387   2.898   4.824
 3887SOL    HW112560   0.484   2.919   4.816
 3887SOL    HW212561   0.360   2.831   4.755
 3888SOL     OW12562   4.767   1.973   3.277
 3888SOL    HW112563   4.777   1.876   3.297
 3888SOL    HW212564   4.727   1.985   3.186
 3889SOL     OW12565   6.322   5.649   0.501
 3889SOL    HW112566   6.293   5.629   0.595
 3889SOL    HW212567   6.347   5.745   0.493
 3890SOL     OW12568   5.900   3.024   3.717
 3890SOL    HW112569   5.965   3.039   3.791
 3890SOL    HW212570   5.866   2.930   3.721
 3891SOL     OW12571   3.386   4.493   6.573
 3891SOL    HW112572   3.462   4.528   6.629
 3891SOL    HW212573   3.328   4.435   6.629
 3892SOL     OW12574   5.222   5.773   4.547
 3892SOL    HW112575   5.176   5.816   4.469
 3892SOL    HW212576   5.187   5.813   4.632
 3893SOL     OW12577   2.920   5.907   4.853
 3893SOL    HW112578   2.896   5.827   4.909
 3893SOL    HW212579   2.960   5.876   4.767
 3894SOL     OW12580   5.734   5.340   6.106
 3894SOL    HW112581   5.638   5.324   6.129
 3894SOL    HW212582   5.758   5.287   6.025
 3895SOL     OW12583   1.491   1.896   5.145
 3895SOL    HW112584   1.420   1.935   5.087
 3895SOL    HW212585   1.453   1.874   5.235
 3896SOL     OW12586   6.284   3.227   1.546
 3896SOL    HW112587   6.196   3.182   1.534
 3896SOL    HW212588   6.274   3.303   1.610
 3897SOL     OW12589   2.251   0.777   2.981
 3897SOL    HW112590   2.312   0.722   2.924
 3897SOL    HW212591   2.305   0.844   3.032
 3898SOL     OW12592   3.384   3.785   2.636
 3898SOL    HW112593   3.399   3.874   2.680
 3898SOL    HW212594   3.287   3.773   2.618
 3899SOL     OW12595   4.240   1.174   6.073
 3899SOL    HW112596   4.262   1.097   6.013
 3899SOL    HW212597   4.287   1.162   6.161
 3900SOL     OW12598   1.162   2.204   4.096
 3900SOL    HW112599   1.184   2.195   3.999
 3900SOL    HW212600   1.075   2.158   4.115
 3901SOL     OW12601   4.237   6.663   4.636
 3901SOL    HW112602   4.209   6.687   4.729
 3901SOL    HW212603   4.283   6.574   4.637
 3902SOL     OW12604   3.003   4.939   3.222
 3902SOL    HW112605   2.950   4.860   3.251
 3902SOL    HW212606   2.961   4.980   3.140
 3903SOL     OW12607   2.505   4.177   6.016
 3903SOL    HW112608   2.451   4.162   5.933
 3903SOL    HW212609   2.468   4.121   6.091
 3904SOL     OW12610   2.469   6.482   0.689
 3904SOL    HW112611   2.439   6.386   0.683
 3904SOL    HW212612   2.483   6.518   0.597
 3905SOL     OW12613   4.692   6.484   5.009
 3905SOL    HW112614   4.760   6.455   5.076
 3905SOL    HW212615   4.602   6.451   5.036
 3906SOL     OW12616   6.879   5.741   3.884
 3906SOL    HW112617   6.874   5.644   3.903
 3906SOL    HW212618   6.826   5.762   3.801
 3907SOL     OW12619   1.453   0.756   4.856
 3907SOL    HW112620   1.366   0.756   4.806
 3907SOL    HW212621   1.493   0.664   4.853
 3908SOL     OW12622   2.366   1.786   4.482
 3908SOL    HW112623   2.412   1.873   4.465
 3908SOL    HW212624   2.427   1.711   4.458
 3909SOL     OW12625   6.521   3.153   2.723
 3909SOL    HW112626   6.480   3.147   2.814
 3909SOL    HW212627   6.617   3.178   2.732
 3910SOL     OW12628   1.477   2.295   6.957
 3910SOL    HW112629   1.436   2.377   6.918
 3910SOL    HW212630   1.519   2.241   6.884
 3911SOL     OW12631   6.241   0.657   2.425
 3911SOL    HW112632   6.146   0.681   2.405
 3911SOL    HW212633   6.291   0.738   2.454
 3912SOL     OW12634   4.584   4.407   0.828
 3912SOL    HW112635   4.595   4.377   0.733
 3912SOL    HW212636   4.594   4.506   0.832
 3913SOL     OW12637   4.069   4.522   0.536
 3913SOL    HW112638   4.132   4.449   0.510
 3913SOL    HW212639   4.076   4.539   0.634
 3914SOL     OW12640   0.630   0.721   0.310
 3914SOL    HW112641   0.656   0.629   0.338
 3914SOL    HW212642   0.664   0.739   0.218
 3915SOL     OW12643   5.267   7.002   4.578
 3915SOL    HW112644   5.271   0.071   4.623
 3915SOL    HW212645   5.229   7.014   4.486
 3916SOL     OW12646   1.726   2.713   2.184
 3916SOL    HW112647   1.642   2.751   2.223
 3916SOL    HW212648   1.801   2.724   2.249
 3917SOL     OW12649   3.195   5.502   1.884
 3917SOL    HW112650   3.099   5.530   1.876
 3917SOL    HW212651   3.244   5.566   1.943
 3918SOL     OW12652   4.053   6.348   6.966
 3918SOL    HW112653   3.974   6.407   6.948
 3918SOL    HW212654   4.129   6.374   6.906
 3919SOL     OW12655   5.050   4.533   3.487
 3919SOL    HW112656   5.072   4.627   3.513
 3919SOL    HW212657   4.978   4.498   3.547
 3920SOL     OW12658   4.339   0.243   5.560
 3920SOL    HW112659   4.407   0.315   5.569
 3920SOL    HW212660   4.321   0.202   5.649
 3921SOL     OW12661   1.179   4.122   5.367
 3921SOL    HW112662   1.270   4.144   5.332
 3921SOL    HW212663   1.162   4.024   5.355
 3922SOL     OW12664   5.480   1.324   3.946
 3922SOL    HW112665   5.554   1.389   3.932
 3922SOL    HW212666   5.514   1.231   3.937
 3923SOL     OW12667   5.842   1.125   1.383
 3923SOL    HW112668   5.814   1.032   1.409
 3923SOL    HW212669   5.857   1.128   1.285
 3924SOL     OW12670   5.725   4.752   4.123
 3924SOL    HW112671   5.629   4.732   4.100
 3924SOL    HW212672   5.729   4.832   4.183
 3925SOL     OW12673   3.746   4.546   1.630
 3925SOL    HW112674   3.678   4.600   1.678
 3925SOL    HW212675   3.739   4.450   1.658
 3926SOL     OW12676   0.758   6.003   5.128
 3926SOL    HW112677   0.843   5.989   5.179
 3926SOL    HW212678   0.755   5.939   5.051
 3927SOL     OW12679   6.563   6.308   5.359
 3927SOL    HW112680   6.589   6.245   5.286
 3927SOL    HW212681   6.467   6.292   5.383
 3928SOL     OW12682   4.390   5.311   2.110
 3928SOL    HW112683   4.463   5.295   2.044
 3928SOL    HW212684   4.389   5.407   2.137
 3929SOL     OW12685   1.799   0.425   5.428
 3929SOL    HW112686   1.822   0.418   5.525
 3929SOL    HW212687   1.832   0.342   5.380
 3930SOL     OW12688   1.785   5.623   4.697
 3930SOL    HW112689   1.735   5.598   4.614
 3930SOL    HW212690   1.801   5.721   4.698
 3931SOL     OW12691   0.239   2.244   0.740
 3931SOL    HW112692   0.251   2.340   0.718
 3931SOL    HW212693   0.158   2.232   0.797
 3932SOL     OW12694   1.810   4.765   2.828
 3932SOL    HW112695   1.792   4.715   2.743
 3932SOL    HW212696   1.902   4.806   2.823
 3933SOL     OW12697   1.055   6.811   1.270
 3933SOL    HW112698   0.989   6.819   1.346
 3933SOL    HW212699   1.039   6.725   1.221
 3934SOL     OW12700   0.885   6.641   1.737
 3934SOL    HW112701   0.967   6.619   1.790
 3934SOL    HW212702   0.878   6.578   1.660
 3935SOL     OW12703   6.655   1.094   4.850
 3935SOL    HW112704   6.660   1.013   4.909
 3935SOL    HW212705   6.614   1.170   4.901
 3936SOL     OW12706   6.565   4.819   4.283
 3936SOL    HW112707   6.655   4.861   4.289
 3936SOL    HW212708   6.518   4.826   4.371
 3937SOL     OW12709   1.332   6.400   6.873
 3937SOL    HW112710   1.376   6.371   6.958
 3937SOL    HW212711   1.300   6.494   6.884
 3938SOL     OW12712   1.361   4.512   6.702
 3938SOL    HW112713   1.275   4.547   6.664
 3938SOL    HW212714   1.356   4.412   6.711
 3939SOL     OW12715   1.379   5.585   4.466
 3939SOL    HW112716   1.442   5.508   4.457
 3939SOL    HW212717   1.359   5.624   4.376
 3940SOL     OW12718   2.227   6.026   6.845
 3940SOL    HW112719   2.161   5.972   6.794
 3940SOL    HW212720   2.296   6.064   6.783
 3941SOL     OW12721   5.630   5.148   3.293
 3941SOL    HW112722   5.682   5.072   3.333
 3941SOL    HW212723   5.644   5.230   3.348
 3942SOL     OW12724   0.646   0.126   0.323
 3942SOL    HW112725   0.566   0.184   0.307
 3942SOL    HW212726   0.651   0.056   0.251
 3943SOL     OW12727   0.611   4.701   0.527
 3943SOL    HW112728   0.561   4.731   0.446
 3943SOL    HW212729   0.552   4.642   0.582
 3944SOL     OW12730   5.694   2.755   0.611
 3944SOL    HW112731   5.722   2.851   0.608
 3944SOL    HW212732   5.749   2.706   0.680
 3945SOL     OW12733   0.728   0.585   2.877
 3945SOL    HW112734   0.632   0.574   2.851
 3945SOL    HW212735   0.748   0.526   2.955
 3946SOL     OW12736   5.022   1.013   1.036
 3946SOL    HW112737   5.032   1.048   0.943
 3946SOL    HW212738   4.926   1.020   1.064
 3947SOL     OW12739   5.329   0.303   1.040
 3947SOL    HW112740   5.270   0.328   1.116
 3947SOL    HW212741   5.419   0.276   1.075
 3948SOL     OW12742   1.762   1.493   3.891
 3948SOL    HW112743   1.832   1.421   3.885
 3948SOL    HW212744   1.801   1.579   3.857
 3949SOL     OW12745   6.093   6.773   2.575
 3949SOL    HW112746   6.133   6.837   2.509
 3949SOL    HW212747   6.086   6.818   2.664
 3950SOL     OW12748   2.285   4.712   1.428
 3950SOL    HW112749   2.300   4.626   1.377
 3950SOL    HW212750   2.195   4.749   1.404
 3951SOL     OW12751   0.246   3.203   2.940
 3951SOL    HW112752   0.284   3.200   2.847
 3951SOL    HW212753   0.300   3.145   3.000
 3952SOL     OW12754   5.799   5.379   6.798
 3952SOL    HW112755   5.866   5.408   6.867
 3952SOL    HW212756   5.824   5.418   6.710
 3953SOL     OW12757   3.303   2.877   4.826
 3953SOL    HW112758   3.396   2.845   4.808
 3953SOL    HW212759   3.275   2.942   4.755
 3954SOL     OW12760   0.522   5.362   6.392
 3954SOL    HW112761   0.621   5.376   6.391
 3954SOL    HW212762   0.484   5.392   6.480
 3955SOL     OW12763   5.939   3.159   0.197
 3955SOL    HW112764   5.969   3.122   0.285
 3955SOL    HW212765   5.979   3.106   0.123
 3956SOL     OW12766   0.082   3.413   4.536
 3956SOL    HW112767   0.000   3.420   4.593
 3956SOL    HW212768   0.150   3.480   4.567
 3957SOL     OW12769   1.599   2.549   1.684
 3957SOL    HW112770   1.664   2.591   1.747
 3957SOL    HW212771   1.579   2.456   1.714
 3958SOL     OW12772   5.128   5.255   0.822
 3958SOL    HW112773   5.098   5.311   0.744
 3958SOL    HW212774   5.073   5.172   0.826
 3959SOL     OW12775   2.167   4.877   0.479
 3959SOL    HW112776   2.240   4.844   0.539
 3959SOL    HW212777   2.176   4.976   0.469
 3960SOL     OW12778   5.919   3.612   1.349
 3960SOL    HW112779   5.855   3.543   1.383
 3960SOL    HW212780   5.897   3.634   1.254
 3961SOL     OW12781   0.252   1.504   2.159
 3961SOL    HW112782   0.169   1.454   2.132
 3961SOL    HW212783   0.332   1.458   2.123
 3962SOL     OW12784   0.467   6.819   0.284
 3962SOL    HW112785   0.392   6.849   0.344
 3962SOL    HW212786   0.507   6.735   0.319
 3963SOL     OW12787   6.245   3.037   4.871
 3963SOL    HW112788   6.216   3.007   4.961
 3963SOL    HW212789   6.223   3.134   4.859
 3964SOL     OW12790   5.955   5.014   6.614
 3964SOL    HW112791   6.049   5.024   6.647
 3964SOL    HW212792   5.891   5.034   6.689
 3965SOL     OW12793   2.108   5.179   1.957
 3965SOL    HW112794   2.168   5.228   1.894
 3965SOL    HW212795   2.158   5.103   1.999
 3966SOL     OW12796   6.856   4.374   5.531
 3966SOL    HW112797   6.954   4.387   5.545
 3966SOL    HW212798   6.811   4.464   5.529
 3967SOL     OW12799   2.954   0.394   0.698
 3967SOL    HW112800   3.010   0.378   0.779
 3967SOL    HW212801   3.001   0.359   0.617
 3968SOL     OW12802   4.847   2.420   0.545
 3968SOL    HW112803   4.863   2.483   0.621
 3968SOL    HW212804   4.923   2.424   0.480
 3969SOL     OW12805   6.349   6.760   1.331
 3969SOL    HW112806   6.417   6.692   1.358
 3969SOL    HW212807   6.264   6.742   1.380
 3970SOL     OW12808   5.815   4.045   3.402
 3970SOL    HW112809   5.908   4.059   3.438
 3970SOL    HW212810   5.751   4.035   3.478
 3971SOL     OW12811   6.860   5.480   4.188
 3971SOL    HW112812   6.845   5.403   4.250
 3971SOL    HW212813   6.876   5.563   4.241
 3972SOL     OW12814   0.569   1.003   6.352
 3972SOL    HW112815   0.582   1.038   6.259
 3972SOL    HW212816   0.496   0.935   6.352
 3973SOL     OW12817   3.950   3.160   1.548
 3973SOL    HW112818   3.982   3.255   1.543
 3973SOL    HW212819   3.860   3.153   1.505
 3974SOL     OW12820   5.630   0.635   6.742
 3974SOL    HW112821   5.700   0.590   6.686
 3974SOL    HW212822   5.565   0.566   6.775
 3975SOL     OW12823   0.162   6.260   3.599
 3975SOL    HW112824   0.253   6.219   3.606
 3975SOL    HW212825   0.134   6.263   3.503
 3976SOL     OW12826   0.894   3.028   4.923
 3976SOL    HW112827   0.915   3.051   5.018
 3976SOL    HW212828   0.960   3.072   4.862
 3977SOL     OW12829   2.162   4.874   6.174
 3977SOL    HW112830   2.092   4.839   6.236
 3977SOL    HW212831   2.126   4.875   6.081
 3978SOL     OW12832   4.110   3.259   6.246
 3978SOL    HW112833   4.114   3.344   6.298
 3978SOL    HW212834   4.109   3.181   6.309
 3979SOL     OW12835   0.284   5.607   2.879
 3979SOL    HW112836   0.208   5.651   2.926
 3979SOL    HW212837   0.369   5.622   2.929
 3980SOL     OW12838   5.180   4.006   4.066
 3980SOL    HW112839   5.214   4.077   4.128
 3980SOL    HW212840   5.098   4.040   4.019
 3981SOL     OW12841   6.809   1.168   6.968
 3981SOL    HW112842   6.712   1.172   6.943
 3981SOL    HW212843   6.848   1.082   6.936
 3982SOL     OW12844   1.971   3.093   3.671
 3982SOL    HW112845   1.975   2.995   3.690
 3982SOL    HW212846   1.876   3.121   3.658
 3983SOL     OW12847   2.225   1.678   3.498
 3983SOL    HW112848   2.297   1.707   3.436
 3983SOL    HW212849   2.217   1.579   3.496
 3984SOL     OW12850   1.357   6.099   2.645
 3984SOL    HW112851   1.338   6.115   2.742
 3984SOL    HW212852   1.343   6.184   2.594
 3985SOL     OW12853   0.972   2.263   1.370
 3985SOL    HW112854   1.005   2.337   1.312
 3985SOL    HW212855   0.989   2.175   1.325
 3986SOL     OW12856   1.043   0.567   2.983
 3986SOL    HW112857   0.971   0.505   3.015
 3986SOL    HW212858   1.054   0.643   3.047
 3987SOL     OW12859   1.434   4.555   5.882
 3987SOL    HW112860   1.417   4.615   5.804
 3987SOL    HW212861   1.446   4.611   5.964
 3988SOL     OW12862   4.839   5.461   2.297
 3988SOL    HW112863   4.863   5.386   2.359
 3988SOL    HW212864   4.906   5.464   2.222
 3989SOL     OW12865   4.646   0.982   6.278
 3989SOL    HW112866   4.660   0.953   6.372
 3989SOL    HW212867   4.574   0.925   6.237
 3990SOL     OW12868   6.173   6.200   4.120
 3990SOL    HW112869   6.241   6.136   4.085
 3990SOL    HW212870   6.082   6.173   4.089
 3991SOL     OW12871   0.611   2.069   4.464
 3991SOL    HW112872   0.650   2.150   4.507
 3991SOL    HW212873   0.511   2.079   4.458
 3992SOL     OW12874   5.994   3.617   5.715
 3992SOL    HW112875   6.010   3.640   5.619
 3992SOL    HW212876   6.021   3.522   5.733
 3993SOL     OW12877   1.749   0.767   4.479
 3993SOL    HW112878   1.795   0.837   4.534
 3993SOL    HW212879   1.779   0.676   4.509
 3994SOL     OW12880   3.129   2.070   3.586
 3994SOL    HW112881   3.180   1.991   3.619
 3994SOL    HW212882   3.072   2.043   3.508
 3995SOL     OW12883   1.977   3.922   1.997
 3995SOL    HW112884   1.940   3.857   1.930
 3995SOL    HW212885   2.066   3.890   2.028
 3996SOL     OW12886   0.360   5.543   5.557
 3996SOL    HW112887   0.332   5.558   5.463
 3996SOL    HW212888   0.321   5.614   5.615
 3997SOL     OW12889   6.154   3.303   4.812
 3997SOL    HW112890   6.168   3.315   4.910
 3997SOL    HW212891   6.058   3.322   4.790
 3998SOL     OW12892   4.745   2.432   2.818
 3998SOL    HW112893   4.806   2.449   2.896
 3998SOL    HW212894   4.697   2.517   2.795
 3999SOL     OW12895   4.607   3.606   1.178
 3999SOL    HW112896   4.609   3.534   1.248
 3999SOL    HW212897   4.701   3.633   1.157
 4000SOL     OW12898   2.937   4.970   2.526
 4000SOL    HW112899   2.862   4.963   2.460
 4000SOL    HW212900   2.995   4.888   2.520
 4001SOL     OW12901   0.931   5.715   4.065
 4001SOL    HW112902   0.994   5.792   4.070
 4001SOL    HW212903   0.839   5.746   4.089
 4002SOL     OW12904   3.776   3.710   4.795
 4002SOL    HW112905   3.800   3.666   4.882
 4002SOL    HW212906   3.677   3.704   4.782
 4003SOL     OW12907   3.176   1.716   4.400
 4003SOL    HW112908   3.161   1.715   4.301
 4003SOL    HW212909   3.268   1.749   4.420
 4004SOL     OW12910   1.991   3.594   4.827
 4004SOL    HW112911   2.008   3.495   4.826
 4004SOL    HW212912   1.911   3.613   4.884
 4005SOL     OW12913   5.827   2.130   1.430
 4005SOL    HW112914   5.879   2.204   1.472
 4005SOL    HW212915   5.879   2.092   1.354
 4006SOL     OW12916   6.772   5.818   2.100
 4006SOL    HW112917   6.805   5.909   2.075
 4006SOL    HW212918   6.694   5.794   2.043
 4007SOL     OW12919   0.781   1.346   1.574
 4007SOL    HW112920   0.691   1.382   1.600
 4007SOL    HW212921   0.824   1.409   1.509
 4008SOL     OW12922   4.350   0.462   1.628
 4008SOL    HW112923   4.340   0.402   1.708
 4008SOL    HW212924   4.262   0.501   1.605
 4009SOL     OW12925   3.642   2.536   1.320
 4009SOL    HW112926   3.602   2.557   1.231
 4009SOL    HW212927   3.597   2.456   1.359
 4010SOL     OW12928   0.884   5.673   0.707
 4010SOL    HW112929   0.897   5.768   0.680
 4010SOL    HW212930   0.971   5.635   0.739
 4011SOL     OW12931   5.975   6.733   0.005
 4011SOL    HW112932   5.993   6.692   6.937
 4011SOL    HW212933   6.061   6.763   0.046
 4012SOL     OW12934   5.601   4.425   1.998
 4012SOL    HW112935   5.507   4.453   1.978
 4012SOL    HW212936   5.660   4.449   1.921
 4013SOL     OW12937   0.122   2.042   6.674
 4013SOL    HW112938   0.031   2.025   6.638
 4013SOL    HW212939   0.125   2.134   6.715
 4014SOL     OW12940   4.144   6.462   2.996
 4014SOL    HW112941   4.117   6.439   3.090
 4014SOL    HW212942   4.065   6.499   2.947
 4015SOL     OW12943   3.578   6.407   4.841
 4015SOL    HW112944   3.677   6.418   4.832
 4015SOL    HW212945   3.536   6.403   4.751
 4016SOL     OW12946   4.587   4.935   3.740
 4016SOL    HW112947   4.579   5.032   3.761
 4016SOL    HW212948   4.521   4.884   3.795
 4017SOL     OW12949   1.646   5.709   6.227
 4017SOL    HW112950   1.568   5.757   6.188
 4017SOL    HW212951   1.627   5.686   6.322
 4018SOL     OW12952   5.529   5.691   6.657
 4018SOL    HW112953   5.621   5.690   6.694
 4018SOL    HW212954   5.531   5.726   6.563
 4019SOL     OW12955   1.168   2.234   3.073
 4019SOL    HW112956   1.124   2.291   3.003
 4019SOL    HW212957   1.128   2.143   3.071
 4020SOL     OW12958   6.476   5.669   4.820
 4020SOL    HW112959   6.571   5.641   4.803
 4020SOL    HW212960   6.441   5.718   4.739
 4021SOL     OW12961   4.982   5.685   5.899
 4021SOL    HW112962   4.959   5.591   5.875
 4021SOL    HW212963   4.965   5.744   5.820
 4022SOL     OW12964   3.789   0.342   1.306
 4022SOL    HW112965   3.834   0.281   1.240
 4022SOL    HW212966   3.737   0.287   1.371
 4023SOL     OW12967   1.244   1.995   3.651
 4023SOL    HW112968   1.237   1.982   3.750
 4023SOL    HW212969   1.246   2.093   3.630
 4024SOL     OW12970   0.968   6.825   6.572
 4024SOL    HW112971   1.024   6.890   6.623
 4024SOL    HW212972   0.968   6.737   6.619
 4025SOL     OW12973   1.254   4.708   4.678
 4025SOL    HW112974   1.186   4.753   4.735
 4025SOL    HW212975   1.321   4.776   4.646
 4026SOL     OW12976   0.594   6.327   3.992
 4026SOL    HW112977   0.661   6.400   4.006
 4026SOL    HW212978   0.598   6.263   4.069
 4027SOL     OW12979   3.345   5.876   4.785
 4027SOL    HW112980   3.301   5.870   4.875
 4027SOL    HW212981   3.428   5.820   4.785
 4028SOL     OW12982   4.600   1.905   4.681
 4028SOL    HW112983   4.611   1.846   4.601
 4028SOL    HW212984   4.670   1.977   4.680
 4029SOL     OW12985   2.213   6.949   1.059
 4029SOL    HW112986   2.201   0.016   1.011
 4029SOL    HW212987   2.124   6.918   1.094
 4030SOL     OW12988   0.555   1.199   1.936
 4030SOL    HW112989   0.482   1.141   1.972
 4030SOL    HW212990   0.589   1.161   1.850
 4031SOL     OW12991   5.889   5.938   0.749
 4031SOL    HW112992   5.839   5.951   0.664
 4031SOL    HW212993   5.978   5.984   0.743
 4032SOL     OW12994   4.773   1.954   2.094
 4032SOL    HW112995   4.732   2.014   2.162
 4032SOL    HW212996   4.704   1.932   2.024
 4033SOL     OW12997   1.206   4.203   2.946
 4033SOL    HW112998   1.253   4.198   3.034
 4033SOL    HW212999   1.169   4.113   2.923
 4034SOL     OW13000   2.920   1.878   4.505
 4034SOL    HW113001   2.991   1.946   4.491
 4034SOL    HW213002   2.842   1.920   4.553
 4035SOL     OW13003   3.507   2.294   1.223
 4035SOL    HW113004   3.520   2.197   1.243
 4035SOL    HW213005   3.436   2.331   1.283
 4036SOL     OW13006   4.590   0.277   3.133
 4036SOL    HW113007   4.602   0.331   3.217
 4036SOL    HW213008   4.673   0.224   3.116
 4037SOL     OW13009   1.909   0.749   5.871
 4037SOL    HW113010   1.991   0.694   5.888
 4037SOL    HW213011   1.829   0.701   5.907
 4038SOL     OW13012   3.849   5.201   5.689
 4038SOL    HW113013   3.838   5.155   5.777
 4038SOL    HW213014   3.761   5.200   5.641
 4039SOL     OW13015   6.066   4.411   2.210
 4039SOL    HW113016   6.045   4.412   2.113
 4039SOL    HW213017   6.148   4.356   2.226
 4040SOL     OW13018   2.290   6.695   5.472
 4040SOL    HW113019   2.194   6.668   5.477
 4040SOL    HW213020   2.329   6.664   5.385
 4041SOL     OW13021   1.120   6.292   1.375
 4041SOL    HW113022   1.115   6.269   1.278
 4041SOL    HW213023   1.171   6.378   1.386
 4042SOL     OW13024   1.560   1.741   4.569
 4042SOL    HW113025   1.588   1.776   4.658
 4042SOL    HW213026   1.464   1.715   4.571
 4043SOL     OW13027   3.601   2.946   5.928
 4043SOL    HW113028   3.621   2.859   5.972
 4043SOL    HW213029   3.611   2.936   5.829
 4044SOL     OW13030   4.586   4.324   3.669
 4044SOL    HW113031   4.499   4.366   3.644
 4044SOL    HW213032   4.586   4.305   3.767
 4045SOL     OW13033   4.398   1.725   4.845
 4045SOL    HW113034   4.429   1.784   4.770
 4045SOL    HW213035   4.363   1.640   4.807
 4046SOL     OW13036   5.264   0.829   4.169
 4046SOL    HW113037   5.191   0.761   4.176
 4046SOL    HW213038   5.226   0.920   4.182
 4047SOL     OW13039   2.413   2.227   6.522
 4047SOL    HW113040   2.350   2.299   6.492
 4047SOL    HW213041   2.365   2.165   6.584
 4048SOL     OW13042   4.763   2.347   3.192
 4048SOL    HW113043   4.828   2.416   3.223
 4048SOL    HW213044   4.810   2.260   3.177
 4049SOL     OW13045   3.859   3.766   2.706
 4049SOL    HW113046   3.903   3.750   2.617
 4049SOL    HW213047   3.888   3.854   2.742
 4050SOL     OW13048   0.169   4.914   2.948
 4050SOL    HW113049   0.132   4.988   2.893
 4050SOL    HW213050   0.254   4.881   2.906
 4051SOL     OW13051   5.828   0.415   3.484
 4051SOL    HW113052   5.760   0.449   3.548
 4051SOL    HW213053   5.899   0.485   3.471
 4052SOL     OW13054   4.225   1.166   4.801
 4052SOL    HW113055   4.165   1.231   4.847
 4052SOL    HW213056   4.319   1.200   4.802
 4053SOL     OW13057   1.067   4.851   2.838
 4053SOL    HW113058   1.064   4.947   2.811
 4053SOL    HW213059   0.990   4.802   2.796
 4054SOL     OW13060   5.519   4.181   1.832
 4054SOL    HW113061   5.582   4.227   1.895
 4054SOL    HW213062   5.476   4.104   1.878
 4055SOL     OW13063   0.090   4.111   6.961
 4055SOL    HW113064   7.012   4.126   6.963
 4055SOL    HW213065   0.126   4.114   0.034
 4056SOL     OW13066   4.594   4.163   6.881
 4056SOL    HW113067   4.522   4.186   6.947
 4056SOL    HW213068   4.681   4.202   6.912
 4057SOL     OW13069   6.779   4.656   5.559
 4057SOL    HW113070   6.863   4.706   5.539
 4057SOL    HW213071   6.760   4.661   5.657
 4058SOL     OW13072   2.920   0.852   3.986
 4058SOL    HW113073   2.977   0.780   4.026
 4058SOL    HW213074   2.850   0.810   3.928
 4059SOL     OW13075   1.920   1.311   3.699
 4059SOL    HW113076   1.823   1.326   3.685
 4059SOL    HW213077   1.936   1.216   3.727
 4060SOL     OW13078   6.919   6.424   4.013
 4060SOL    HW113079   6.901   6.462   3.922
 4060SOL    HW213080   7.018   6.410   4.024
 4061SOL     OW13081   1.549   4.288   2.626
 4061SOL    HW113082   1.458   4.285   2.666
 4061SOL    HW213083   1.543   4.268   2.529
 4062SOL     OW13084   2.603   3.787   0.416
 4062SOL    HW113085   2.577   3.809   0.322
 4062SOL    HW213086   2.701   3.765   0.419
 4063SOL     OW13087   3.536   0.947   1.244
 4063SOL    HW113088   3.619   0.893   1.228
 4063SOL    HW213089   3.495   0.917   1.330
 4064SOL     OW13090   2.692   6.518   4.894
 4064SOL    HW113091   2.667   6.555   4.805
 4064SOL    HW213092   2.680   6.419   4.894
 4065SOL     OW13093   2.334   1.251   1.646
 4065SOL    HW113094   2.248   1.203   1.661
 4065SOL    HW213095   2.411   1.189   1.664
 4066SOL     OW13096   0.461   4.079   4.997
 4066SOL    HW113097   0.396   4.090   5.071
 4066SOL    HW213098   0.448   4.152   4.929
 4067SOL     OW13099   5.647   4.128   1.201
 4067SOL    HW113100   5.675   4.208   1.147
 4067SOL    HW213101   5.547   4.124   1.205
 4068SOL     OW13102   2.486   2.293   5.785
 4068SOL    HW113103   2.500   2.376   5.838
 4068SOL    HW213104   2.487   2.316   5.687
 4069SOL     OW13105   4.134   0.519   6.147
 4069SOL    HW113106   4.092   0.604   6.179
 4069SOL    HW213107   4.137   0.518   6.047
 4070SOL     OW13108   1.778   3.993   4.433
 4070SOL    HW113109   1.806   3.941   4.352
 4070SOL    HW213110   1.836   4.074   4.443
 4071SOL     OW13111   1.166   0.369   5.439
 4071SOL    HW113112   1.104   0.306   5.486
 4071SOL    HW213113   1.120   0.406   5.358
 4072SOL     OW13114   2.635   6.241   2.526
 4072SOL    HW113115   2.713   6.233   2.588
 4072SOL    HW213116   2.661   6.297   2.447
 4073SOL     OW13117   4.826   4.962   6.796
 4073SOL    HW113118   4.738   5.000   6.768
 4073SOL    HW213119   4.873   4.924   6.716
 4074SOL     OW13120   1.422   5.512   1.968
 4074SOL    HW113121   1.431   5.472   2.059
 4074SOL    HW213122   1.362   5.454   1.912
 4075SOL     OW13123   5.238   0.412   6.754
 4075SOL    HW113124   5.336   0.396   6.763
 4075SOL    HW213125   5.190   0.364   6.828
 4076SOL     OW13126   2.222   5.744   3.508
 4076SOL    HW113127   2.275   5.802   3.570
 4076SOL    HW213128   2.280   5.670   3.474
 4077SOL     OW13129   2.576   1.886   1.216
 4077SOL    HW113130   2.584   1.787   1.206
 4077SOL    HW213131   2.480   1.912   1.210
 4078SOL     OW13132   4.569   4.812   1.997
 4078SOL    HW113133   4.603   4.895   2.041
 4078SOL    HW213134   4.643   4.746   1.988
 4079SOL     OW13135   0.787   2.623   4.017
 4079SOL    HW113136   0.843   2.554   4.064
 4079SOL    HW213137   0.777   2.703   4.076
 4080SOL     OW13138   6.236   2.220   4.789
 4080SOL    HW113139   6.169   2.257   4.854
 4080SOL    HW213140   6.324   2.266   4.804
 4081SOL     OW13141   6.115   3.664   2.402
 4081SOL    HW113142   6.123   3.636   2.306
 4081SOL    HW213143   6.127   3.584   2.461
 4082SOL     OW13144   0.584   3.455   0.920
 4082SOL    HW113145   0.485   3.469   0.927
 4082SOL    HW213146   0.610   3.376   0.975
 4083SOL     OW13147   6.919   3.607   5.593
 4083SOL    HW113148   6.967   3.531   5.549
 4083SOL    HW213149   6.948   3.613   5.689
 4084SOL     OW13150   4.780   0.544   3.846
 4084SOL    HW113151   4.846   0.498   3.905
 4084SOL    HW213152   4.749   0.629   3.889
 4085SOL     OW13153   2.545   5.303   6.479
 4085SOL    HW113154   2.565   5.381   6.539
 4085SOL    HW213155   2.477   5.245   6.522
 4086SOL     OW13156   0.024   2.404   1.946
 4086SOL    HW113157   6.963   2.412   1.889
 4086SOL    HW213158   0.105   2.427   1.893
 4087SOL     OW13159   1.116   0.701   3.334
 4087SOL    HW113160   1.082   0.755   3.256
 4087SOL    HW213161   1.193   0.748   3.376
 4088SOL     OW13162   0.331   3.078   6.410
 4088SOL    HW113163   0.282   2.996   6.381
 4088SOL    HW213164   0.302   3.103   6.503
 4089SOL     OW13165   0.282   1.942   5.454
 4089SOL    HW113166   0.373   1.919   5.490
 4089SOL    HW213167   0.213   1.885   5.498
 4090SOL     OW13168   3.173   5.472   6.682
 4090SOL    HW113169   3.263   5.485   6.642
 4090SOL    HW213170   3.181   5.419   6.766
 4091SOL     OW13171   4.082   6.227   1.141
 4091SOL    HW113172   4.110   6.183   1.055
 4091SOL    HW213173   4.020   6.166   1.191
 4092SOL     OW13174   1.123   1.178   3.822
 4092SOL    HW113175   1.107   1.153   3.727
 4092SOL    HW213176   1.109   1.276   3.835
 4093SOL     OW13177   4.633   6.781   3.577
 4093SOL    HW113178   4.629   6.860   3.638
 4093SOL    HW213179   4.691   6.710   3.619
 4094SOL     OW13180   3.085   2.902   6.388
 4094SOL    HW113181   3.078   2.986   6.334
 4094SOL    HW213182   3.169   2.904   6.442
 4095SOL     OW13183   1.956   3.886   5.908
 4095SOL    HW113184   2.033   3.846   5.858
 4095SOL    HW213185   1.969   3.870   6.006
 4096SOL     OW13186   4.695   4.490   1.646
 4096SOL    HW113187   4.771   4.424   1.643
 4096SOL    HW213188   4.713   4.563   1.580
 4097SOL     OW13189   3.861   3.585   2.916
 4097SOL    HW113190   3.929   3.619   2.982
 4097SOL    HW213191   3.852   3.651   2.841
 4098SOL     OW13192   1.587   3.109   2.412
 4098SOL    HW113193   1.586   3.192   2.356
 4098SOL    HW213194   1.560   3.131   2.505
 4099SOL     OW13195   2.456   6.141   1.422
 4099SOL    HW113196   2.442   6.095   1.334
 4099SOL    HW213197   2.533   6.205   1.414
 4100SOL     OW13198   3.434   0.289   2.734
 4100SOL    HW113199   3.482   0.204   2.758
 4100SOL    HW213200   3.489   0.367   2.763
 4101SOL     OW13201   5.060   1.386   6.961
 4101SOL    HW113202   5.040   1.437   6.878
 4101SOL    HW213203   5.145   1.334   6.949
 4102SOL     OW13204   4.933   1.627   6.003
 4102SOL    HW113205   4.857   1.692   6.014
 4102SOL    HW213206   4.965   1.630   5.908
 4103SOL     OW13207   6.703   0.094   1.827
 4103SOL    HW113208   6.755   0.016   1.792
 4103SOL    HW213209   6.736   0.117   1.918
 4104SOL     OW13210   2.429   4.587   2.231
 4104SOL    HW113211   2.440   4.497   2.272
 4104SOL    HW213212   2.346   4.630   2.265
 4105SOL     OW13213   6.314   4.868   0.764
 4105SOL    HW113214   6.357   4.878   0.674
 4105SOL    HW213215   6.218   4.896   0.759
 4106SOL     OW13216   0.732   3.021   4.092
 4106SOL    HW113217   0.755   3.016   3.995
 4106SOL    HW213218   0.645   3.070   4.103
 4107SOL     OW13219   6.651   0.437   0.831
 4107SOL    HW113220   6.749   0.424   0.846
 4107SOL    HW213221   6.603   0.438   0.919
 4108SOL     OW13222   6.670   2.502   4.735
 4108SOL    HW113223   6.722   2.433   4.785
 4108SOL    HW213224   6.723   2.587   4.730
 4109SOL     OW13225   2.177   6.344   3.786
 4109SOL    HW113226   2.137   6.376   3.700
 4109SOL    HW213227   2.129   6.263   3.817
 4110SOL     OW13228   4.809   3.312   5.152
 4110SOL    HW113229   4.799   3.250   5.074
 4110SOL    HW213230   4.805   3.406   5.120
 4111SOL     OW13231   3.820   3.352   6.682
 4111SOL    HW113232   3.878   3.284   6.637
 4111SOL    HW213233   3.878   3.416   6.732
 4112SOL     OW13234   3.988   0.809   5.973
 4112SOL    HW113235   4.016   0.834   5.880
 4112SOL    HW213236   3.908   0.750   5.969
 4113SOL     OW13237   3.643   5.684   4.055
 4113SOL    HW113238   3.739   5.661   4.068
 4113SOL    HW213239   3.599   5.697   4.144
 4114SOL     OW13240   3.805   1.346   3.377
 4114SOL    HW113241   3.893   1.363   3.333
 4114SOL    HW213242   3.785   1.248   3.374
 4115SOL     OW13243   5.029   3.682   3.439
 4115SOL    HW113244   4.992   3.746   3.506
 4115SOL    HW213245   5.111   3.722   3.397
 4116SOL     OW13246   2.520   1.533   1.527
 4116SOL    HW113247   2.508   1.490   1.617
 4116SOL    HW213248   2.556   1.626   1.540
 4117SOL     OW13249   1.232   5.731   1.915
 4117SOL    HW113250   1.196   5.759   1.826
 4117SOL    HW213251   1.319   5.683   1.902
 4118SOL     OW13252   1.684   0.637   6.004
 4118SOL    HW113253   1.658   0.666   6.096
 4118SOL    HW213254   1.678   0.537   5.998
 4119SOL     OW13255   5.140   1.369   3.223
 4119SOL    HW113256   5.086   1.352   3.141
 4119SOL    HW213257   5.232   1.333   3.210
 4120SOL     OW13258   5.678   0.720   1.806
 4120SOL    HW113259   5.655   0.684   1.716
 4120SOL    HW213260   5.620   0.677   1.875
 4121SOL     OW13261   5.289   2.402   3.963
 4121SOL    HW113262   5.254   2.328   3.906
 4121SOL    HW213263   5.328   2.474   3.905
 4122SOL     OW13264   2.260   5.080   0.129
 4122SOL    HW113265   2.271   5.176   0.154
 4122SOL    HW213266   2.259   5.024   0.211
 4123SOL     OW13267   3.868   3.569   5.015
 4123SOL    HW113268   3.862   3.535   5.109
 4123SOL    HW213269   3.962   3.596   4.995
 4124SOL     OW13270   4.660   6.172   2.834
 4124SOL    HW113271   4.580   6.202   2.885
 4124SOL    HW213272   4.741   6.220   2.868
 4125SOL     OW13273   4.499   1.854   1.678
 4125SOL    HW113274   4.441   1.918   1.629
 4125SOL    HW213275   4.536   1.787   1.613
 4126SOL     OW13276   1.939   3.994   4.714
 4126SOL    HW113277   2.021   3.955   4.755
 4126SOL    HW213278   1.947   3.994   4.615
 4127SOL     OW13279   5.245   4.890   3.866
 4127SOL    HW113280   5.200   4.916   3.951
 4127SOL    HW213281   5.217   4.798   3.839
 4128SOL     OW13282   6.981   2.078   1.901
 4128SOL    HW113283   0.006   2.029   1.826
 4128SOL    HW213284   0.026   2.095   1.975
 4129SOL     OW13285   0.152   3.036   0.374
 4129SOL    HW113286   0.171   2.938   0.367
 4129SOL    HW213287   0.232   3.083   0.410
 4130SOL     OW13288   6.648   2.096   1.278
 4130SOL    HW113289   6.607   2.005   1.292
 4130SOL    HW213290   6.616   2.158   1.349
 4131SOL     OW13291   6.917   3.765   3.584
 4131SOL    HW113292   6.820   3.743   3.590
 4131SOL    HW213293   6.968   3.712   3.651
 4132SOL     OW13294   4.605   1.409   4.240
 4132SOL    HW113295   4.537   1.478   4.266
 4132SOL    HW213296   4.559   1.322   4.222
 4133SOL     OW13297   2.757   2.716   0.453
 4133SOL    HW113298   2.802   2.675   0.374
 4133SOL    HW213299   2.659   2.693   0.451
 4134SOL     OW13300   2.408   1.226   0.050
 4134SOL    HW113301   2.370   1.261   6.985
 4134SOL    HW213302   2.506   1.213   0.040
 4135SOL     OW13303   1.446   0.453   0.854
 4135SOL    HW113304   1.518   0.491   0.912
 4135SOL    HW213305   1.460   0.354   0.844
 4136SOL     OW13306   1.802   1.953   3.317
 4136SOL    HW113307   1.770   1.960   3.222
 4136SOL    HW213308   1.731   1.989   3.378
 4137SOL     OW13309   3.723   3.058   4.993
 4137SOL    HW113310   3.668   3.125   5.044
 4137SOL    HW213311   3.817   3.090   4.988
 4138SOL     OW13312   4.945   5.425   1.378
 4138SOL    HW113313   4.946   5.443   1.280
 4138SOL    HW213314   5.030   5.460   1.419
 4139SOL     OW13315   3.061   1.532   6.802
 4139SOL    HW113316   3.046   1.631   6.794
 4139SOL    HW213317   3.153   1.514   6.837
 4140SOL     OW13318   4.790   2.414   4.708
 4140SOL    HW113319   4.751   2.506   4.711
 4140SOL    HW213320   4.717   2.347   4.703
 4141SOL     OW13321   5.218   6.101   1.091
 4141SOL    HW113322   5.242   6.133   0.999
 4141SOL    HW213323   5.124   6.067   1.091
 4142SOL     OW13324   5.927   2.939   1.982
 4142SOL    HW113325   5.859   2.980   1.922
 4142SOL    HW213326   5.920   2.839   1.977
 4143SOL     OW13327   1.847   2.555   1.837
 4143SOL    HW113328   1.914   2.505   1.781
 4143SOL    HW213329   1.891   2.632   1.882
 4144SOL     OW13330   4.307   0.698   2.464
 4144SOL    HW113331   4.327   0.610   2.506
 4144SOL    HW213332   4.329   0.694   2.366
 4145SOL     OW13333   3.069   0.386   3.586
 4145SOL    HW113334   3.131   0.455   3.626
 4145SOL    HW213335   2.975   0.407   3.612
 4146SOL     OW13336   4.616   4.708   0.866
 4146SOL    HW113337   4.656   4.679   0.953
 4146SOL    HW213338   4.584   4.803   0.875
 4147SOL     OW13339   2.714   1.680   5.682
 4147SOL    HW113340   2.708   1.593   5.731
 4147SOL    HW213341   2.630   1.694   5.630
 4148SOL     OW13342   6.893   6.462   2.331
 4148SOL    HW113343   6.796   6.463   2.357
 4148SOL    HW213344   6.917   6.548   2.287
 4149SOL     OW13345   4.691   4.275   2.192
 4149SOL    HW113346   4.637   4.263   2.109
 4149SOL    HW213347   4.645   4.340   2.253
 4150SOL     OW13348   3.189   0.603   4.718
 4150SOL    HW113349   3.096   0.606   4.681
 4150SOL    HW213350   3.208   0.510   4.752
 4151SOL     OW13351   0.180   5.559   0.125
 4151SOL    HW113352   0.169   5.485   0.192
 4151SOL    HW213353   0.277   5.577   0.112
 4152SOL     OW13354   3.599   4.117   0.972
 4152SOL    HW113355   3.627   4.213   0.977
 4152SOL    HW213356   3.678   4.059   0.995
 4153SOL     OW13357   6.316   5.664   6.382
 4153SOL    HW113358   6.288   5.738   6.321
 4153SOL    HW213359   6.266   5.581   6.358
 4154SOL     OW13360   4.560   2.658   4.694
 4154SOL    HW113361   4.506   2.580   4.663
 4154SOL    HW213362   4.559   2.728   4.622
 4155SOL     OW13363   1.793   3.314   1.068
 4155SOL    HW113364   1.799   3.350   1.162
 4155SOL    HW213365   1.882   3.322   1.024
 4156SOL     OW13366   5.955   1.446   5.700
 4156SOL    HW113367   6.004   1.443   5.612
 4156SOL    HW213368   5.981   1.528   5.750
 4157SOL     OW13369   3.526   1.392   3.575
 4157SOL    HW113370   3.556   1.438   3.492
 4157SOL    HW213371   3.605   1.355   3.623
 4158SOL     OW13372   0.621   0.255   2.834
 4158SOL    HW113373   0.651   0.290   2.923
 4158SOL    HW213374   0.671   0.302   2.762
 4159SOL     OW13375   0.918   4.660   5.259
 4159SOL    HW113376   0.956   4.573   5.293
 4159SOL    HW213377   0.978   4.735   5.285
 4160SOL     OW13378   6.557   0.954   1.447
 4160SOL    HW113379   6.610   1.029   1.408
 4160SOL    HW213380   6.462   0.960   1.417
 4161SOL     OW13381   6.616   1.170   1.791
 4161SOL    HW113382   6.544   1.100   1.786
 4161SOL    HW213383   6.697   1.138   1.743
 4162SOL     OW13384   0.508   6.800   4.908
 4162SOL    HW113385   0.506   6.868   4.982
 4162SOL    HW213386   0.426   6.743   4.913
 4163SOL     OW13387   0.554   1.927   5.215
 4163SOL    HW113388   0.477   1.866   5.231
 4163SOL    HW213389   0.543   1.972   5.126
 4164SOL     OW13390   2.450   6.694   5.742
 4164SOL    HW113391   2.535   6.672   5.695
 4164SOL    HW213392   2.373   6.679   5.680
 4165SOL     OW13393   0.826   6.081   1.134
 4165SOL    HW113394   0.906   6.040   1.179
 4165SOL    HW213395   0.779   6.142   1.198
 4166SOL     OW13396   6.466   1.847   2.724
 4166SOL    HW113397   6.457   1.939   2.685
 4166SOL    HW213398   6.391   1.790   2.692
 4167SOL     OW13399   1.545   2.695   1.307
 4167SOL    HW113400   1.558   2.656   1.216
 4167SOL    HW213401   1.627   2.680   1.362
 4168SOL     OW13402   2.289   5.737   0.729
 4168SOL    HW113403   2.258   5.670   0.661
 4168SOL    HW213404   2.372   5.782   0.695
 4169SOL     OW13405   6.054   3.400   6.692
 4169SOL    HW113406   5.998   3.385   6.774
 4169SOL    HW213407   6.072   3.313   6.648
 4170SOL     OW13408   3.086   0.625   5.327
 4170SOL    HW113409   3.002   0.654   5.279
 4170SOL    HW213410   3.148   0.703   5.335
 4171SOL     OW13411   6.432   3.112   1.786
 4171SOL    HW113412   6.400   3.019   1.804
 4171SOL    HW213413   6.366   3.158   1.726
 4172SOL     OW13414   2.689   0.373   1.165
 4172SOL    HW113415   2.720   0.304   1.100
 4172SOL    HW213416   2.717   0.346   1.258
 4173SOL     OW13417   4.381   4.140   5.476
 4173SOL    HW113418   4.397   4.211   5.545
 4173SOL    HW213419   4.315   4.173   5.409
 4174SOL     OW13420   4.487   0.939   3.771
 4174SOL    HW113421   4.395   0.976   3.772
 4174SOL    HW213422   4.509   0.908   3.678
 4175SOL     OW13423   2.347   1.324   1.963
 4175SOL    HW113424   2.416   1.389   1.932
 4175SOL    HW213425   2.349   1.244   1.904
 4176SOL     OW13426   5.569   4.739   2.951
 4176SOL    HW113427   5.493   4.677   2.928
 4176SOL    HW213428   5.654   4.701   2.917
 4177SOL     OW13429   0.562   6.041   2.922
 4177SOL    HW113430   0.608   5.960   2.887
 4177SOL    HW213431   0.549   6.107   2.848
 4178SOL     OW13432   4.046   2.740   5.284
 4178SOL    HW113433   3.956   2.697   5.294
 4178SOL    HW213434   4.111   2.673   5.248
 4179SOL     OW13435   0.167   1.640   0.063
 4179SOL    HW113436   0.108   1.615   0.140
 4179SOL    HW213437   0.246   1.692   0.098
 4180SOL     OW13438   5.835   4.169   1.805
 4180SOL    HW113439   5.834   4.269   1.806
 4180SOL    HW213440   5.891   4.137   1.728
 4181SOL     OW13441   6.026   1.118   0.193
 4181SOL    HW113442   6.124   1.116   0.173
 4181SOL    HW213443   5.975   1.114   0.107
 4182SOL     OW13444   5.913   0.894   3.698
 4182SOL    HW113445   5.971   0.861   3.773
 4182SOL    HW213446   5.963   0.965   3.647
 4183SOL     OW13447   0.548   0.518   1.714
 4183SOL    HW113448   0.599   0.588   1.764
 4183SOL    HW213449   0.606   0.437   1.701
 4184SOL     OW13450   4.349   4.866   6.254
 4184SOL    HW113451   4.305   4.836   6.169
 4184SOL    HW213452   4.280   4.871   6.327
 4185SOL     OW13453   6.972   1.022   4.442
 4185SOL    HW113454   0.043   1.023   4.482
 4185SOL    HW213455   6.911   0.966   4.499
 4186SOL     OW13456   3.236   3.633   1.878
 4186SOL    HW113457   3.306   3.597   1.940
 4186SOL    HW213458   3.214   3.727   1.904
 4187SOL     OW13459   4.772   5.240   5.513
 4187SOL    HW113460   4.728   5.226   5.424
 4187SOL    HW213461   4.821   5.327   5.513
 4188SOL     OW13462   5.417   5.878   2.389
 4188SOL    HW113463   5.479   5.921   2.324
 4188SOL    HW213464   5.323   5.889   2.358
 4189SOL     OW13465   1.442   3.361   2.960
 4189SOL    HW113466   1.478   3.330   3.048
 4189SOL    HW213467   1.389   3.288   2.919
 4190SOL     OW13468   2.656   6.302   2.022
 4190SOL    HW113469   2.635   6.259   2.110
 4190SOL    HW213470   2.598   6.383   2.009
 4191SOL     OW13471   0.135   2.046   3.763
 4191SOL    HW113472   0.205   1.982   3.731
 4191SOL    HW213473   0.179   2.131   3.792
 4192SOL     OW13474   5.920   6.237   4.005
 4192SOL    HW113475   5.953   6.235   3.910
 4192SOL    HW213476   5.854   6.311   4.016
 4193SOL     OW13477   1.519   6.795   4.041
 4193SOL    HW113478   1.462   6.877   4.046
 4193SOL    HW213479   1.587   6.806   3.969
 4194SOL     OW13480   5.018   6.973   3.091
 4194SOL    HW113481   5.048   6.881   3.067
 4194SOL    HW213482   4.938   6.997   3.036
 4195SOL     OW13483   4.588   0.483   3.340
 4195SOL    HW113484   4.619   0.463   3.433
 4195SOL    HW213485   4.488   0.481   3.338
 4196SOL     OW13486   4.931   2.635   3.025
 4196SOL    HW113487   5.002   2.682   2.973
 4196SOL    HW213488   4.949   2.536   3.025
 4197SOL     OW13489   5.758   4.535   4.689
 4197SOL    HW113490   5.810   4.451   4.678
 4197SOL    HW213491   5.712   4.558   4.604
 4198SOL     OW13492   6.461   3.394   5.997
 4198SOL    HW113493   6.425   3.367   5.908
 4198SOL    HW213494   6.530   3.466   5.985
 4199SOL     OW13495   3.187   4.464   6.119
 4199SOL    HW113496   3.271   4.452   6.172
 4199SOL    HW213497   3.127   4.385   6.133
 4200SOL     OW13498   2.411   0.263   5.160
 4200SOL    HW113499   2.352   0.289   5.237
 4200SOL    HW213500   2.355   0.237   5.082
 4201SOL     OW13501   6.217   0.174   4.974
 4201SOL    HW113502   6.149   0.118   4.928
 4201SOL    HW213503   6.285   0.115   5.018
 4202SOL     OW13504   5.850   3.485   4.981
 4202SOL    HW113505   5.797   3.569   4.987
 4202SOL    HW213506   5.896   3.469   5.069
 4203SOL     OW13507   3.418   5.847   4.497
 4203SOL    HW113508   3.402   5.762   4.447
 4203SOL    HW213509   3.342   5.864   4.560
 4204SOL     OW13510   1.771   4.153   0.056
 4204SOL    HW113511   1.698   4.214   0.025
 4204SOL    HW213512   1.808   4.187   0.143
 4205SOL     OW13513   2.508   6.663   3.630
 4205SOL    HW113514   2.559   6.737   3.587
 4205SOL    HW213515   2.515   6.672   3.730
 4206SOL     OW13516   4.699   6.457   3.340
 4206SOL    HW113517   4.623   6.484   3.281
 4206SOL    HW213518   4.760   6.535   3.352
 4207SOL     OW13519   1.886   6.082   0.119
 4207SOL    HW113520   1.984   6.068   0.133
 4207SOL    HW213521   1.839   6.080   0.208
 4208SOL     OW13522   1.162   1.751   1.970
 4208SOL    HW113523   1.134   1.691   2.045
 4208SOL    HW213524   1.168   1.699   1.885
 4209SOL     OW13525   2.210   0.326   5.665
 4209SOL    HW113526   2.229   0.273   5.748
 4209SOL    HW213527   2.235   0.421   5.679
 4210SOL     OW13528   3.578   3.264   0.697
 4210SOL    HW113529   3.646   3.319   0.648
 4210SOL    HW213530   3.618   3.174   0.718
 4211SOL     OW13531   6.631   3.160   4.019
 4211SOL    HW113532   6.552   3.115   4.061
 4211SOL    HW213533   6.709   3.097   4.017
 4212SOL     OW13534   5.465   6.905   1.749
 4212SOL    HW113535   5.471   6.957   1.834
 4212SOL    HW213536   5.544   6.844   1.742
 4213SOL     OW13537   0.967   0.294   0.974
 4213SOL    HW113538   0.945   0.388   0.947
 4213SOL    HW213539   1.064   0.287   0.998
 4214SOL     OW13540   2.981   5.379   3.778
 4214SOL    HW113541   3.073   5.371   3.817
 4214SOL    HW213542   2.982   5.344   3.684
 4215SOL     OW13543   1.408   5.942   6.909
 4215SOL    HW113544   1.350   6.007   6.958
 4215SOL    HW213545   1.476   5.903   6.971
 4216SOL     OW13546   2.483   2.842   5.361
 4216SOL    HW113547   2.482   2.930   5.313
 4216SOL    HW213548   2.419   2.780   5.316
 4217SOL     OW13549   6.201   0.426   4.803
 4217SOL    HW113550   6.130   0.401   4.737
 4217SOL    HW213551   6.247   0.344   4.835
 4218SOL     OW13552   3.192   5.612   2.136
 4218SOL    HW113553   3.221   5.603   2.231
 4218SOL    HW213554   3.141   5.530   2.109
 4219SOL     OW13555   5.253   0.345   2.657
 4219SOL    HW113556   5.208   0.428   2.691
 4219SOL    HW213557   5.322   0.315   2.724
 4220SOL     OW13558   0.861   4.685   3.027
 4220SOL    HW113559   0.931   4.621   2.995
 4220SOL    HW213560   0.782   4.633   3.061
 4221SOL     OW13561   5.219   6.191   5.755
 4221SOL    HW113562   5.310   6.154   5.733
 4221SOL    HW213563   5.192   6.255   5.683
 4222SOL     OW13564   2.183   3.103   6.987
 4222SOL    HW113565   2.203   3.121   6.891
 4222SOL    HW213566   2.171   3.005   7.001
 4223SOL     OW13567   3.630   4.073   2.839
 4223SOL    HW113568   3.554   4.056   2.776
 4223SOL    HW213569   3.600   4.056   2.933
 4224SOL     OW13570   3.368   2.078   5.095
 4224SOL    HW113571   3.331   2.170   5.079
 4224SOL    HW213572   3.320   2.012   5.037
 4225SOL     OW13573   4.974   6.533   4.524
 4225SOL    HW113574   4.942   6.503   4.434
 4225SOL    HW213575   5.005   6.454   4.576
 4226SOL     OW13576   2.428   2.173   1.781
 4226SOL    HW113577   2.446   2.235   1.857
 4226SOL    HW213578   2.510   2.117   1.764
 4227SOL     OW13579   5.639   3.736   0.236
 4227SOL    HW113580   5.730   3.693   0.244
 4227SOL    HW213581   5.620   3.756   0.140
 4228SOL     OW13582   4.466   5.563   2.808
 4228SOL    HW113583   4.561   5.591   2.825
 4228SOL    HW213584   4.465   5.492   2.738
 4229SOL     OW13585   4.432   4.795   4.644
 4229SOL    HW113586   4.458   4.704   4.612
 4229SOL    HW213587   4.356   4.788   4.708
 4230SOL     OW13588   1.640   1.122   5.317
 4230SOL    HW113589   1.636   1.063   5.236
 4230SOL    HW213590   1.734   1.155   5.330
 4231SOL     OW13591   3.791   6.726   6.559
 4231SOL    HW113592   3.777   6.780   6.643
 4231SOL    HW213593   3.889   6.720   6.540
 4232SOL     OW13594   1.938   4.152   1.477
 4232SOL    HW113595   1.888   4.186   1.398
 4232SOL    HW213596   1.877   4.097   1.534
 4233SOL     OW13597   4.911   5.460   1.096
 4233SOL    HW113598   4.844   5.433   1.027
 4233SOL    HW213599   5.002   5.466   1.054
 4234SOL     OW13600   3.668   3.578   5.845
 4234SOL    HW113601   3.665   3.657   5.783
 4234SOL    HW213602   3.755   3.530   5.835
 4235SOL     OW13603   0.351   3.851   4.907
 4235SOL    HW113604   0.383   3.946   4.918
 4235SOL    HW213605   0.429   3.789   4.914
 4236SOL     OW13606   1.112   3.338   4.295
 4236SOL    HW113607   1.069   3.249   4.277
 4236SOL    HW213608   1.043   3.409   4.291
 4237SOL     OW13609   5.224   3.445   5.301
 4237SOL    HW113610   5.131   3.474   5.278
 4237SOL    HW213611   5.280   3.525   5.324
 4238SOL     OW13612   5.012   4.668   5.005
 4238SOL    HW113613   4.944   4.669   5.078
 4238SOL    HW213614   5.060   4.756   5.004
 4239SOL     OW13615   5.135   4.752   5.324
 4239SOL    HW113616   5.161   4.790   5.235
 4239SOL    HW213617   5.122   4.827   5.389
 4240SOL     OW13618   2.120   4.167   6.035
 4240SOL    HW113619   2.063   4.248   6.023
 4240SOL    HW213620   2.163   4.143   5.948
 4241SOL     OW13621   3.711   2.368   0.281
 4241SOL    HW113622   3.787   2.310   0.309
 4241SOL    HW213623   3.677   2.338   0.192
 4242SOL     OW13624   2.878   0.537   1.825
 4242SOL    HW113625   2.796   0.482   1.840
 4242SOL    HW213626   2.915   0.567   1.912
 4243SOL     OW13627   2.037   1.888   2.021
 4243SOL    HW113628   2.117   1.869   1.964
 4243SOL    HW213629   2.030   1.987   2.037
 4244SOL     OW13630   2.638   0.016   0.752
 4244SOL    HW113631   2.592   0.074   0.818
 4244SOL    HW213632   2.585   6.953   0.737
 4245SOL     OW13633   0.426   1.478   1.547
 4245SOL    HW113634   0.365   1.417   1.597
 4245SOL    HW213635   0.488   1.524   1.611
 4246SOL     OW13636   3.586   2.032   3.445
 4246SOL    HW113637   3.609   2.130   3.452
 4246SOL    HW213638   3.666   1.982   3.413
 4247SOL     OW13639   2.386   5.119   6.621
 4247SOL    HW113640   2.385   5.029   6.576
 4247SOL    HW213641   2.368   5.108   6.718
 4248SOL     OW13642   3.062   6.495   1.913
 4248SOL    HW113643   2.983   6.488   1.851
 4248SOL    HW213644   3.048   6.570   1.977
 4249SOL     OW13645   6.114   1.418   5.484
 4249SOL    HW113646   6.102   1.479   5.407
 4249SOL    HW213647   6.156   1.333   5.454
 4250SOL     OW13648   0.848   5.318   4.456
 4250SOL    HW113649   0.904   5.302   4.374
 4250SOL    HW213650   0.833   5.231   4.503
 4251SOL     OW13651   4.591   1.819   5.653
 4251SOL    HW113652   4.677   1.863   5.629
 4251SOL    HW213653   4.609   1.725   5.680
 4252SOL     OW13654   0.732   6.696   6.749
 4252SOL    HW113655   0.723   6.785   6.706
 4252SOL    HW213656   0.768   6.630   6.683
 4253SOL     OW13657   3.206   0.275   2.533
 4253SOL    HW113658   3.283   0.297   2.593
 4253SOL    HW213659   3.132   0.341   2.549
 4254SOL     OW13660   0.791   0.711   4.831
 4254SOL    HW113661   0.699   0.694   4.797
 4254SOL    HW213662   0.807   0.658   4.913
 4255SOL     OW13663   1.729   2.999   4.532
 4255SOL    HW113664   1.778   3.060   4.469
 4255SOL    HW213665   1.697   2.919   4.483
 4256SOL     OW13666   5.899   6.085   1.122
 4256SOL    HW113667   5.874   6.146   1.197
 4256SOL    HW213668   5.816   6.058   1.072
 4257SOL     OW13669   0.369   1.298   2.423
 4257SOL    HW113670   0.292   1.332   2.476
 4257SOL    HW213671   0.398   1.369   2.358
 4258SOL     OW13672   2.303   6.519   0.930
 4258SOL    HW113673   2.330   6.606   0.972
 4258SOL    HW213674   2.359   6.502   0.849
 4259SOL     OW13675   1.084   0.645   0.394
 4259SOL    HW113676   1.023   0.716   0.430
 4259SOL    HW213677   1.176   0.658   0.431
 4260SOL     OW13678   6.885   0.504   5.784
 4260SOL    HW113679   6.972   0.487   5.739
 4260SOL    HW213680   6.843   0.417   5.809
 4261SOL     OW13681   1.779   6.414   3.053
 4261SOL    HW113682   1.776   6.484   2.983
 4261SOL    HW213683   1.689   6.369   3.059
 4262SOL     OW13684   1.518   3.779   4.612
 4262SOL    HW113685   1.581   3.826   4.675
 4262SOL    HW213686   1.424   3.789   4.644
 4263SOL     OW13687   3.265   0.859   2.505
 4263SOL    HW113688   3.217   0.926   2.449
 4263SOL    HW213689   3.254   0.768   2.466
 4264SOL     OW13690   4.322   2.446   6.218
 4264SOL    HW113691   4.334   2.360   6.268
 4264SOL    HW213692   4.236   2.489   6.247
 4265SOL     OW13693   3.619   5.943   6.286
 4265SOL    HW113694   3.566   6.028   6.281
 4265SOL    HW213695   3.601   5.887   6.206
 4266SOL     OW13696   1.341   3.910   2.569
 4266SOL    HW113697   1.273   3.859   2.621
 4266SOL    HW213698   1.430   3.901   2.614
 4267SOL     OW13699   1.697   3.733   3.591
 4267SOL    HW113700   1.659   3.720   3.683
 4267SOL    HW213701   1.623   3.732   3.524
 4268SOL     OW13702   1.252   4.590   5.303
 4268SOL    HW113703   1.213   4.524   5.239
 4268SOL    HW213704   1.189   4.603   5.380
 4269SOL     OW13705   2.347   1.932   4.221
 4269SOL    HW113706   2.359   1.998   4.147
 4269SOL    HW213707   2.424   1.938   4.284
 4270SOL     OW13708   4.125   4.162   1.176
 4270SOL    HW113709   4.178   4.167   1.261
 4270SOL    HW213710   4.032   4.132   1.196
 4271SOL     OW13711   6.215   6.850   0.071
 4271SOL    HW113712   6.294   6.790   0.059
 4271SOL    HW213713   6.210   6.881   0.166
 4272SOL     OW13714   6.496   2.155   5.559
 4272SOL    HW113715   6.406   2.159   5.603
 4272SOL    HW213716   6.501   2.223   5.486
 4273SOL     OW13717   3.480   6.388   3.635
 4273SOL    HW113718   3.390   6.372   3.676
 4273SOL    HW213719   3.483   6.344   3.545
 4274SOL     OW13720   5.929   0.434   2.300
 4274SOL    HW113721   5.928   0.456   2.203
 4274SOL    HW213722   5.881   0.505   2.351
 4275SOL     OW13723   5.696   1.923   4.079
 4275SOL    HW113724   5.610   1.936   4.129
 4275SOL    HW213725   5.736   1.835   4.104
 4276SOL     OW13726   2.363   0.987   3.132
 4276SOL    HW113727   2.347   0.965   3.229
 4276SOL    HW213728   2.351   1.085   3.117
 4277SOL     OW13729   6.534   4.805   2.749
 4277SOL    HW113730   6.631   4.784   2.741
 4277SOL    HW213731   6.522   4.893   2.796
 4278SOL     OW13732   0.439   6.809   1.555
 4278SOL    HW113733   0.398   6.888   1.509
 4278SOL    HW213734   0.405   6.804   1.649
 4279SOL     OW13735   1.542   3.821   2.800
 4279SOL    HW113736   1.559   3.754   2.728
 4279SOL    HW213737   1.590   3.906   2.778
 4280SOL     OW13738   2.391   0.087   6.065
 4280SOL    HW113739   2.414   0.037   5.981
 4280SOL    HW213740   2.375   0.022   6.139
 4281SOL     OW13741   6.691   6.758   2.705
 4281SOL    HW113742   6.776   6.811   2.701
 4281SOL    HW213743   6.619   6.807   2.655
 4282SOL     OW13744   4.874   4.630   2.472
 4282SOL    HW113745   4.791   4.647   2.525
 4282SOL    HW213746   4.902   4.534   2.482
 4283SOL     OW13747   6.961   2.019   5.537
 4283SOL    HW113748   6.880   2.002   5.593
 4283SOL    HW213749   7.016   1.935   5.532
 4284SOL     OW13750   4.650   6.364   0.132
 4284SOL    HW113751   4.644   6.373   0.231
 4284SOL    HW213752   4.590   6.289   0.102
 4285SOL     OW13753   2.764   1.504   6.118
 4285SOL    HW113754   2.691   1.571   6.102
 4285SOL    HW213755   2.731   1.413   6.095
 4286SOL     OW13756   5.471   6.864   6.728
 4286SOL    HW113757   5.398   6.891   6.666
 4286SOL    HW213758   5.435   6.855   6.821
 4287SOL     OW13759   4.683   0.173   0.913
 4287SOL    HW113760   4.773   0.136   0.888
 4287SOL    HW213761   4.638   0.207   0.831
 4288SOL     OW13762   6.107   6.439   2.686
 4288SOL    HW113763   6.012   6.425   2.715
 4288SOL    HW213764   6.150   6.351   2.666
 4289SOL     OW13765   0.191   4.926   5.672
 4289SOL    HW113766   0.098   4.962   5.677
 4289SOL    HW213767   0.228   4.914   5.765
 4290SOL     OW13768   0.203   0.840   3.017
 4290SOL    HW113769   0.175   0.821   3.111
 4290SOL    HW213770   0.123   0.833   2.956
 4291SOL     OW13771   4.740   4.907   5.486
 4291SOL    HW113772   4.755   4.813   5.515
 4291SOL    HW213773   4.692   4.908   5.399
 4292SOL     OW13774   6.316   0.412   0.015
 4292SOL    HW113775   6.222   0.379   0.008
 4292SOL    HW213776   6.317   0.500   0.063
 4293SOL     OW13777   4.149   2.123   6.013
 4293SOL    HW113778   4.119   2.064   5.938
 4293SOL    HW213779   4.144   2.072   6.100
 4294SOL     OW13780   2.934   1.678   0.273
 4294SOL    HW113781   2.976   1.607   0.217
 4294SOL    HW213782   2.838   1.690   0.245
 4295SOL     OW13783   4.128   6.966   2.521
 4295SOL    HW113784   4.159   6.890   2.578
 4295SOL    HW213785   4.187   0.025   2.535
 4296SOL     OW13786   1.780   5.309   1.712
 4296SOL    HW113787   1.687   5.335   1.737
 4296SOL    HW213788   1.782   5.212   1.687
 4297SOL     OW13789   4.944   3.975   0.463
 4297SOL    HW113790   4.885   3.994   0.541
 4297SOL    HW213791   5.028   4.028   0.471
 4298SOL     OW13792   1.856   6.470   0.910
 4298SOL    HW113793   1.793   6.431   0.843
 4298SOL    HW213794   1.935   6.510   0.864
 4299SOL     OW13795   0.063   3.632   0.278
 4299SOL    HW113796   0.103   3.548   0.241
 4299SOL    HW213797   0.130   3.706   0.272
 4300SOL     OW13798   3.678   0.842   2.313
 4300SOL    HW113799   3.664   0.903   2.235
 4300SOL    HW213800   3.660   0.892   2.398
 4301SOL     OW13801   1.982   5.756   4.456
 4301SOL    HW113802   2.052   5.775   4.387
 4301SOL    HW213803   1.906   5.707   4.414
 4302SOL     OW13804   3.525   4.815   6.904
 4302SOL    HW113805   3.507   4.869   6.821
 4302SOL    HW213806   3.603   4.755   6.888
 4303SOL     OW13807   4.732   5.313   3.157
 4303SOL    HW113808   4.713   5.333   3.061
 4303SOL    HW213809   4.651   5.335   3.212
 4304SOL     OW13810   2.738   4.143   1.348
 4304SOL    HW113811   2.673   4.144   1.272
 4304SOL    HW213812   2.821   4.095   1.320
 4305SOL     OW13813   0.561   0.150   6.031
 4305SOL    HW113814   0.556   0.236   5.980
 4305SOL    HW213815   0.511   0.079   5.981
 4306SOL     OW13816   6.295   4.259   4.960
 4306SOL    HW113817   6.226   4.304   5.017
 4306SOL    HW213818   6.374   4.320   4.949
 4307SOL     OW13819   6.926   1.803   4.214
 4307SOL    HW113820   6.951   1.843   4.126
 4307SOL    HW213821   6.828   1.814   4.229
 4308SOL     OW13822   5.032   5.984   6.333
 4308SOL    HW113823   4.967   5.934   6.275
 4308SOL    HW213824   5.074   5.921   6.398
 4309SOL     OW13825   2.457   2.118   0.546
 4309SOL    HW113826   2.517   2.153   0.474
 4309SOL    HW213827   2.378   2.178   0.556
 4310SOL     OW13828   6.305   1.221   4.927
 4310SOL    HW113829   6.394   1.266   4.919
 4310SOL    HW213830   6.260   1.219   4.838
 4311SOL     OW13831   1.168   6.738   0.679
 4311SOL    HW113832   1.213   6.649   0.673
 4311SOL    HW213833   1.071   6.726   0.699
 4312SOL     OW13834   0.553   3.279   2.684
 4312SOL    HW113835   0.545   3.241   2.592
 4312SOL    HW213836   0.514   3.371   2.685
 4313SOL     OW13837   0.620   3.483   0.634
 4313SOL    HW113838   0.604   3.468   0.732
 4313SOL    HW213839   0.542   3.532   0.595
 4314SOL     OW13840   2.592   1.953   5.660
 4314SOL    HW113841   2.502   1.987   5.632
 4314SOL    HW213842   2.618   1.876   5.603
 4315SOL     OW13843   2.742   2.403   5.560
 4315SOL    HW113844   2.644   2.395   5.543
 4315SOL    HW213845   2.789   2.425   5.474
 4316SOL     OW13846   4.980   4.179   1.136
 4316SOL    HW113847   4.908   4.152   1.201
 4316SOL    HW213848   5.038   4.100   1.117
 4317SOL     OW13849   4.859   0.222   3.604
 4317SOL    HW113850   4.863   0.175   3.692
 4317SOL    HW213851   4.808   0.307   3.614
 4318SOL     OW13852   2.184   5.782   3.818
 4318SOL    HW113853   2.117   5.797   3.744
 4318SOL    HW213854   2.264   5.840   3.802
 4319SOL     OW13855   2.697   4.534   0.909
 4319SOL    HW113856   2.753   4.486   0.978
 4319SOL    HW213857   2.601   4.507   0.920
 4320SOL     OW13858   4.475   1.358   1.953
 4320SOL    HW113859   4.498   1.435   2.013
 4320SOL    HW213860   4.553   1.296   1.948
 4321SOL     OW13861   6.965   5.859   3.581
 4321SOL    HW113862   6.955   5.942   3.636
 4321SOL    HW213863   6.890   5.796   3.602
 4322SOL     OW13864   2.695   2.092   4.075
 4322SOL    HW113865   2.715   2.179   4.030
 4322SOL    HW213866   2.721   2.099   4.172
 4323SOL     OW13867   5.759   3.936   1.926
 4323SOL    HW113868   5.840   3.878   1.930
 4323SOL    HW213869   5.783   4.025   1.888
 4324SOL     OW13870   6.570   3.968   5.129
 4324SOL    HW113871   6.550   3.936   5.037
 4324SOL    HW213872   6.485   3.999   5.173
 4325SOL     OW13873   1.568   0.542   0.566
 4325SOL    HW113874   1.511   0.613   0.608
 4325SOL    HW213875   1.600   0.574   0.477
 4326SOL     OW13876   5.275   2.876   2.160
 4326SOL    HW113877   5.228   2.828   2.085
 4326SOL    HW213878   5.352   2.822   2.191
 4327SOL     OW13879   3.508   6.415   3.994
 4327SOL    HW113880   3.513   6.439   3.897
 4327SOL    HW213881   3.581   6.463   4.043
 4328SOL     OW13882   5.620   0.158   1.753
 4328SOL    HW113883   5.607   0.173   1.655
 4328SOL    HW213884   5.684   0.083   1.767
 4329SOL     OW13885   6.442   3.809   0.511
 4329SOL    HW113886   6.404   3.822   0.419
 4329SOL    HW213887   6.540   3.829   0.510
 4330SOL     OW13888   2.849   6.253   5.313
 4330SOL    HW113889   2.805   6.332   5.271
 4330SOL    HW213890   2.781   6.183   5.335
 4331SOL     OW13891   6.042   1.479   2.845
 4331SOL    HW113892   6.050   1.396   2.899
 4331SOL    HW213893   5.998   1.458   2.757
 4332SOL     OW13894   6.708   6.215   1.422
 4332SOL    HW113895   6.644   6.192   1.348
 4332SOL    HW213896   6.773   6.284   1.391
 4333SOL     OW13897   3.313   3.179   5.950
 4333SOL    HW113898   3.406   3.152   5.927
 4333SOL    HW213899   3.253   3.099   5.945
 4334SOL     OW13900   0.490   1.496   3.839
 4334SOL    HW113901   0.565   1.501   3.774
 4334SOL    HW213902   0.464   1.589   3.867
 4335SOL     OW13903   2.222   2.433   1.341
 4335SOL    HW113904   2.272   2.401   1.421
 4335SOL    HW213905   2.183   2.355   1.293
 4336SOL     OW13906   2.497   5.622   5.427
 4336SOL    HW113907   2.476   5.529   5.396
 4336SOL    HW213908   2.438   5.646   5.504
 4337SOL     OW13909   6.865   4.508   4.113
 4337SOL    HW113910   6.800   4.550   4.177
 4337SOL    HW213911   6.942   4.570   4.098
 4338SOL     OW13912   3.221   3.519   5.467
 4338SOL    HW113913   3.124   3.514   5.443
 4338SOL    HW213914   3.230   3.531   5.566
 4339SOL     OW13915   3.855   3.857   5.257
 4339SOL    HW113916   3.792   3.826   5.329
 4339SOL    HW213917   3.815   3.935   5.209
 4340SOL     OW13918   0.048   4.417   0.430
 4340SOL    HW113919   0.008   4.329   0.453
 4340SOL    HW213920   0.124   4.404   0.366
 4341SOL     OW13921   5.804   6.948   1.751
 4341SOL    HW113922   5.883   6.977   1.806
 4341SOL    HW213923   5.831   6.944   1.655
 4342SOL     OW13924   5.101   3.743   2.061
 4342SOL    HW113925   5.121   3.731   2.158
 4342SOL    HW213926   5.006   3.716   2.043
 4343SOL     OW13927   4.866   6.933   6.301
 4343SOL    HW113928   4.842   6.874   6.223
 4343SOL    HW213929   4.853   6.882   6.386
 4344SOL     OW13930   1.609   4.332   2.187
 4344SOL    HW113931   1.589   4.420   2.145
 4344SOL    HW213932   1.598   4.259   2.120
 4345SOL     OW13933   3.876   3.608   2.315
 4345SOL    HW113934   3.803   3.549   2.350
 4345SOL    HW213935   3.921   3.564   2.238
 4346SOL     OW13936   1.277   3.202   1.850
 4346SOL    HW113937   1.216   3.125   1.866
 4346SOL    HW213938   1.361   3.170   1.805
 4347SOL     OW13939   5.781   5.819   0.980
 4347SOL    HW113940   5.846   5.880   0.933
 4347SOL    HW213941   5.830   5.765   1.048
 4348SOL     OW13942   6.732   4.345   5.923
 4348SOL    HW113943   6.653   4.350   5.983
 4348SOL    HW213944   6.705   4.310   5.834
 4349SOL     OW13945   0.667   3.575   3.648
 4349SOL    HW113946   0.741   3.509   3.658
 4349SOL    HW213947   0.700   3.665   3.677
 4350SOL     OW13948   4.910   0.015   4.273
 4350SOL    HW113949   4.883   6.942   4.254
 4350SOL    HW213950   4.893   0.072   4.192
 4351SOL     OW13951   0.186   6.426   1.376
 4351SOL    HW113952   0.214   6.382   1.291
 4351SOL    HW213953   0.266   6.441   1.433
 4352SOL     OW13954   4.597   4.578   1.358
 4352SOL    HW113955   4.615   4.484   1.327
 4352SOL    HW213956   4.501   4.585   1.387
 4353SOL     OW13957   2.341   3.273   0.102
 4353SOL    HW113958   2.367   3.229   0.188
 4353SOL    HW213959   2.257   3.233   0.068
 4354SOL     OW13960   6.341   4.343   3.041
 4354SOL    HW113961   6.362   4.417   2.977
 4354SOL    HW213962   6.246   4.349   3.069
 4355SOL     OW13963   2.076   5.141   3.975
 4355SOL    HW113964   2.126   5.216   3.930
 4355SOL    HW213965   2.032   5.084   3.906
 4356SOL     OW13966   5.699   1.582   5.531
 4356SOL    HW113967   5.704   1.597   5.630
 4356SOL    HW213968   5.791   1.584   5.492
 4357SOL     OW13969   5.335   5.824   2.973
 4357SOL    HW113970   5.356   5.821   2.875
 4357SOL    HW213971   5.362   5.738   3.015
 4358SOL     OW13972   3.831   0.504   1.521
 4358SOL    HW113973   3.832   0.592   1.568
 4358SOL    HW213974   3.762   0.505   1.449
 4359SOL     OW13975   3.145   4.143   1.521
 4359SOL    HW113976   3.215   4.121   1.590
 4359SOL    HW213977   3.186   4.199   1.449
 4360SOL     OW13978   2.850   6.520   3.564
 4360SOL    HW113979   2.924   6.566   3.515
 4360SOL    HW213980   2.815   6.580   3.636
 4361SOL     OW13981   1.741   0.280   6.686
 4361SOL    HW113982   1.777   0.241   6.601
 4361SOL    HW213983   1.641   0.285   6.680
 4362SOL     OW13984   5.848   5.270   2.129
 4362SOL    HW113985   5.779   5.319   2.182
 4362SOL    HW213986   5.913   5.226   2.192
 4363SOL     OW13987   4.407   0.464   2.594
 4363SOL    HW113988   4.502   0.455   2.624
 4363SOL    HW213989   4.349   0.404   2.650
 4364SOL     OW13990   3.667   3.093   3.070
 4364SOL    HW113991   3.765   3.076   3.061
 4364SOL    HW213992   3.631   3.128   2.983
 4365SOL     OW13993   2.253   1.276   0.880
 4365SOL    HW113994   2.239   1.187   0.836
 4365SOL    HW213995   2.337   1.273   0.935
 4366SOL     OW13996   4.789   5.515   4.729
 4366SOL    HW113997   4.694   5.536   4.751
 4366SOL    HW213998   4.805   5.417   4.739
 4367SOL     OW13999   1.503   0.102   1.678
 4367SOL    HW114000   1.421   0.155   1.656
 4367SOL    HW214001   1.583   0.161   1.672
 4368SOL     OW14002   5.172   5.401   4.242
 4368SOL    HW114003   5.116   5.417   4.324
 4368SOL    HW214004   5.254   5.458   4.248
 4369SOL     OW14005   6.877   4.265   3.868
 4369SOL    HW114006   6.956   4.261   3.806
 4369SOL    HW214007   6.902   4.315   3.950
 4370SOL     OW14008   5.348   4.407   1.280
 4370SOL    HW114009   5.426   4.385   1.222
 4370SOL    HW214010   5.378   4.464   1.356
 4371SOL     OW14011   3.068   0.894   3.538
 4371SOL    HW114012   3.102   0.826   3.602
 4371SOL    HW214013   2.997   0.854   3.481
 4372SOL     OW14014   1.934   4.349   5.628
 4372SOL    HW114015   1.836   4.362   5.638
 4372SOL    HW214016   1.984   4.413   5.686
 4373SOL     OW14017   3.944   0.571   0.572
 4373SOL    HW114018   3.880   0.645   0.596
 4373SOL    HW214019   3.900   0.483   0.589
 4374SOL     OW14020   1.807   6.064   0.378
 4374SOL    HW114021   1.824   6.152   0.423
 4374SOL    HW214022   1.715   6.033   0.401
 4375SOL     OW14023   4.554   0.543   5.342
 4375SOL    HW114024   4.597   0.484   5.411
 4375SOL    HW214025   4.461   0.565   5.370
 4376SOL     OW14026   2.368   4.708   6.901
 4376SOL    HW114027   2.433   4.777   6.933
 4376SOL    HW214028   2.313   4.677   6.979
 4377SOL     OW14029   5.580   6.264   0.123
 4377SOL    HW114030   5.547   6.256   0.217
 4377SOL    HW214031   5.670   6.221   0.116
 4378SOL     OW14032   2.881   5.254   1.553
 4378SOL    HW114033   2.849   5.208   1.636
 4378SOL    HW214034   2.840   5.210   1.473
 4379SOL     OW14035   5.855   6.500   1.072
 4379SOL    HW114036   5.806   6.431   1.020
 4379SOL    HW214037   5.921   6.546   1.012
 4380SOL     OW14038   1.709   6.072   4.907
 4380SOL    HW114039   1.636   6.063   4.974
 4380SOL    HW214040   1.738   6.167   4.901
 4381SOL     OW14041   3.317   6.140   4.843
 4381SOL    HW114042   3.318   6.041   4.829
 4381SOL    HW214043   3.384   6.182   4.781
 4382SOL     OW14044   5.830   3.509   3.434
 4382SOL    HW114045   5.788   3.578   3.374
 4382SOL    HW214046   5.759   3.461   3.484
 4383SOL     OW14047   1.327   0.020   6.711
 4383SOL    HW114048   1.387   0.037   6.789
 4383SOL    HW214049   1.358   0.074   6.633
 4384SOL     OW14050   3.935   6.962   1.524
 4384SOL    HW114051   3.985   7.007   1.450
 4384SOL    HW214052   3.921   6.866   1.502
 4385SOL     OW14053   5.930   2.421   4.265
 4385SOL    HW114054   5.907   2.378   4.352
 4385SOL    HW214055   5.848   2.428   4.207
 4386SOL     OW14056   1.613   5.284   0.136
 4386SOL    HW114057   1.600   5.199   0.085
 4386SOL    HW214058   1.554   5.355   0.097
 4387SOL     OW14059   6.607   2.828   0.622
 4387SOL    HW114060   6.568   2.825   0.714
 4387SOL    HW214061   6.592   2.919   0.582
 4388SOL     OW14062   4.126   0.817   5.726
 4388SOL    HW114063   4.186   0.822   5.646
 4388SOL    HW214064   4.060   0.892   5.722
 4389SOL     OW14065   0.732   2.879   2.695
 4389SOL    HW114066   0.677   2.938   2.753
 4389SOL    HW214067   0.818   2.857   2.742
 4390SOL     OW14068   5.126   3.970   1.080
 4390SOL    HW114069   5.161   3.924   0.999
 4390SOL    HW214070   5.163   3.926   1.162
 4391SOL     OW14071   0.497   5.613   1.462
 4391SOL    HW114072   0.543   5.693   1.424
 4391SOL    HW214073   0.418   5.641   1.516
 4392SOL     OW14074   5.340   5.164   4.775
 4392SOL    HW114075   5.306   5.087   4.720
 4392SOL    HW214076   5.275   5.240   4.771
 4393SOL     OW14077   5.142   6.917   2.531
 4393SOL    HW114078   5.176   6.937   2.622
 4393SOL    HW214079   5.066   6.852   2.538
 4394SOL     OW14080   4.742   1.084   3.290
 4394SOL    HW114081   4.757   1.004   3.232
 4394SOL    HW214082   4.823   1.102   3.345
 4395SOL     OW14083   5.053   2.748   1.132
 4395SOL    HW114084   5.107   2.759   1.215
 4395SOL    HW214085   5.071   2.658   1.092
 4396SOL     OW14086   1.858   0.645   2.197
 4396SOL    HW114087   1.934   0.625   2.135
 4396SOL    HW214088   1.893   0.654   2.291
 4397SOL     OW14089   3.930   1.916   0.287
 4397SOL    HW114090   4.021   1.953   0.305
 4397SOL    HW214091   3.921   1.894   0.190
 4398SOL     OW14092   0.901   5.291   4.780
 4398SOL    HW114093   0.941   5.249   4.861
 4398SOL    HW214094   0.801   5.282   4.783
 4399SOL     OW14095   2.914   0.568   1.347
 4399SOL    HW114096   2.913   0.498   1.276
 4399SOL    HW214097   2.877   0.654   1.309
 4400SOL     OW14098   3.745   4.989   2.774
 4400SOL    HW114099   3.649   5.003   2.800
 4400SOL    HW214100   3.786   5.077   2.750
 4401SOL     OW14101   4.693   6.656   4.518
 4401SOL    HW114102   4.714   6.637   4.613
 4401SOL    HW214103   4.662   6.573   4.472
 4402SOL     OW14104   7.017   6.691   0.805
 4402SOL    HW114105   6.946   6.693   0.876
 4402SOL    HW214106   7.017   6.602   0.760
 4403SOL     OW14107   6.373   1.669   3.019
 4403SOL    HW114108   6.370   1.765   3.045
 4403SOL    HW214109   6.466   1.644   2.994
 4404SOL     OW14110   1.583   3.639   2.614
 4404SOL    HW114111   1.616   3.651   2.520
 4404SOL    HW214112   1.566   3.542   2.630
 4405SOL     OW14113   3.241   4.030   6.685
 4405SOL    HW114114   3.331   4.043   6.727
 4405SOL    HW214115   3.170   4.058   6.750
 4406SOL     OW14116   6.174   2.541   2.815
 4406SOL    HW114117   6.081   2.514   2.790
 4406SOL    HW214118   6.178   2.560   2.913
 4407SOL     OW14119   0.930   0.835   0.519
 4407SOL    HW114120   0.908   0.932   0.523
 4407SOL    HW214121   0.887   0.787   0.596
 4408SOL     OW14122   5.044   6.277   1.210
 4408SOL    HW114123   5.127   6.239   1.170
 4408SOL    HW214124   5.017   6.359   1.159
 4409SOL     OW14125   3.923   1.657   3.046
 4409SOL    HW114126   3.993   1.666   3.117
 4409SOL    HW214127   3.902   1.560   3.032
 4410SOL     OW14128   2.028   5.797   0.555
 4410SOL    HW114129   1.987   5.882   0.589
 4410SOL    HW214130   2.093   5.762   0.623
 4411SOL     OW14131   3.546   3.156   1.940
 4411SOL    HW114132   3.507   3.067   1.919
 4411SOL    HW214133   3.636   3.164   1.897
 4412SOL     OW14134   3.521   1.324   6.635
 4412SOL    HW114135   3.528   1.302   6.537
 4412SOL    HW214136   3.542   1.242   6.688
 4413SOL     OW14137   3.957   5.871   4.102
 4413SOL    HW114138   3.914   5.948   4.149
 4413SOL    HW214139   4.008   5.905   4.023
 4414SOL     OW14140   3.457   4.487   1.527
 4414SOL    HW114141   3.448   4.390   1.549
 4414SOL    HW214142   3.505   4.534   1.601
 4415SOL     OW14143   4.659   1.155   1.903
 4415SOL    HW114144   4.716   1.179   1.981
 4415SOL    HW214145   4.716   1.116   1.830
 4416SOL     OW14146   2.630   2.442   4.746
 4416SOL    HW114147   2.584   2.510   4.690
 4416SOL    HW214148   2.712   2.409   4.698
 4417SOL     OW14149   4.834   1.024   1.403
 4417SOL    HW114150   4.911   0.963   1.381
 4417SOL    HW214151   4.793   1.059   1.319
 4418SOL     OW14152   4.283   0.538   3.007
 4418SOL    HW114153   4.253   0.444   2.992
 4418SOL    HW214154   4.374   0.550   2.967
 4419SOL     OW14155   6.586   5.383   6.387
 4419SOL    HW114156   6.504   5.430   6.355
 4419SOL    HW214157   6.667   5.434   6.358
 4420SOL     OW14158   5.606   1.332   0.531
 4420SOL    HW114159   5.614   1.271   0.610
 4420SOL    HW214160   5.509   1.343   0.507
 4421SOL     OW14161   1.099   1.699   3.312
 4421SOL    HW114162   1.109   1.602   3.336
 4421SOL    HW214163   1.173   1.752   3.353
 4422SOL     OW14164   1.936   4.091   5.499
 4422SOL    HW114165   1.936   4.011   5.559
 4422SOL    HW214166   1.935   4.174   5.555
 4423SOL     OW14167   6.559   2.288   6.090
 4423SOL    HW114168   6.608   2.321   6.009
 4423SOL    HW214169   6.621   2.288   6.168
 4424SOL     OW14170   2.133   5.100   3.266
 4424SOL    HW114171   2.134   5.165   3.342
 4424SOL    HW214172   2.072   5.024   3.289
 4425SOL     OW14173   5.449   4.130   3.079
 4425SOL    HW114174   5.454   4.122   2.979
 4425SOL    HW214175   5.453   4.038   3.119
 4426SOL     OW14176   0.281   6.383   6.855
 4426SOL    HW114177   0.223   6.464   6.870
 4426SOL    HW214178   0.355   6.383   6.922
 4427SOL     OW14179   0.337   5.075   4.083
 4427SOL    HW114180   0.382   5.012   4.146
 4427SOL    HW214181   0.336   5.037   3.991
 4428SOL     OW14182   1.882   6.963   2.395
 4428SOL    HW114183   1.808   6.895   2.385
 4428SOL    HW214184   1.943   6.935   2.468
 4429SOL     OW14185   2.341   6.919   1.471
 4429SOL    HW114186   2.367   7.015   1.464
 4429SOL    HW214187   2.388   6.865   1.402
 4430SOL     OW14188   1.790   0.354   1.983
 4430SOL    HW114189   1.767   0.350   1.886
 4430SOL    HW214190   1.882   0.319   1.997
 4431SOL     OW14191   2.240   1.949   2.617
 4431SOL    HW114192   2.267   1.927   2.524
 4431SOL    HW214193   2.151   1.908   2.637
 4432SOL     OW14194   3.868   4.010   4.773
 4432SOL    HW114195   3.837   3.915   4.772
 4432SOL    HW214196   3.847   4.052   4.685
 4433SOL     OW14197   6.005   0.029   1.244
 4433SOL    HW114198   6.102   0.004   1.242
 4433SOL    HW214199   5.950   6.972   1.214
 4434SOL     OW14200   5.403   2.060   5.818
 4434SOL    HW114201   5.306   2.060   5.796
 4434SOL    HW214202   5.431   1.969   5.848
 4435SOL     OW14203   3.697   2.619   1.768
 4435SOL    HW114204   3.759   2.624   1.690
 4435SOL    HW214205   3.685   2.523   1.794
 4436SOL     OW14206   5.912   0.167   0.067
 4436SOL    HW114207   5.846   0.110   0.018
 4436SOL    HW214208   5.911   0.142   0.164
 4437SOL     OW14209   3.024   6.892   5.896
 4437SOL    HW114210   3.020   6.963   5.826
 4437SOL    HW214211   2.933   6.879   5.936
 4438SOL     OW14212   3.926   2.629   6.652
 4438SOL    HW114213   3.882   2.661   6.568
 4438SOL    HW214214   3.947   2.707   6.710
 4439SOL     OW14215   1.078   5.171   2.829
 4439SOL    HW114216   1.137   5.247   2.855
 4439SOL    HW214217   1.062   5.113   2.909
 4440SOL     OW14218   6.389   1.512   0.212
 4440SOL    HW114219   6.357   1.419   0.229
 4440SOL    HW214220   6.354   1.573   0.282
 4441SOL     OW14221   6.080   0.848   3.898
 4441SOL    HW114222   6.021   0.771   3.922
 4441SOL    HW214223   6.056   0.927   3.954
 4442SOL     OW14224   2.144   6.008   2.180
 4442SOL    HW114225   2.183   5.997   2.089
 4442SOL    HW214226   2.162   6.101   2.213
 4443SOL     OW14227   1.845   1.147   1.140
 4443SOL    HW114228   1.893   1.230   1.170
 4443SOL    HW214229   1.769   1.173   1.080
 4444SOL     OW14230   5.052   2.086   2.609
 4444SOL    HW114231   4.992   2.096   2.688
 4444SOL    HW214232   5.068   1.989   2.590
 4445SOL     OW14233   1.211   2.067   6.157
 4445SOL    HW114234   1.121   2.092   6.119
 4445SOL    HW214235   1.266   2.023   6.085
 4446SOL     OW14236   6.538   5.641   4.350
 4446SOL    HW114237   6.564   5.665   4.256
 4446SOL    HW214238   6.512   5.724   4.399
 4447SOL     OW14239   4.927   3.782   4.993
 4447SOL    HW114240   4.886   3.694   5.015
 4447SOL    HW214241   4.859   3.842   4.951
 4448SOL     OW14242   2.711   3.595   6.572
 4448SOL    HW114243   2.624   3.632   6.541
 4448SOL    HW214244   2.707   3.496   6.572
 4449SOL     OW14245   0.217   2.193   5.614
 4449SOL    HW114246   0.182   2.282   5.586
 4449SOL    HW214247   0.265   2.150   5.537
 4450SOL     OW14248   4.153   3.407   3.184
 4450SOL    HW114249   4.103   3.328   3.220
 4450SOL    HW214250   4.219   3.376   3.116
 4451SOL     OW14251   0.612   5.479   1.231
 4451SOL    HW114252   0.633   5.514   1.139
 4451SOL    HW214253   0.579   5.553   1.288
 4452SOL     OW14254   1.091   4.178   6.500
 4452SOL    HW114255   1.020   4.171   6.430
 4452SOL    HW214256   1.067   4.122   6.579
 4453SOL     OW14257   5.618   0.861   0.719
 4453SOL    HW114258   5.652   0.955   0.723
 4453SOL    HW214259   5.645   0.813   0.803
 4454SOL     OW14260   6.289   3.433   2.084
 4454SOL    HW114261   6.321   3.344   2.052
 4454SOL    HW214262   6.360   3.475   2.141
 4455SOL     OW14263   4.798   2.671   2.463
 4455SOL    HW114264   4.713   2.629   2.495
 4455SOL    HW214265   4.845   2.608   2.401
 4456SOL     OW14266   0.008   5.857   2.762
 4456SOL    HW114267   0.044   5.846   2.855
 4456SOL    HW214268   6.931   5.839   2.762
 4457SOL     OW14269   4.921   2.523   6.312
 4457SOL    HW114270   4.961   2.608   6.277
 4457SOL    HW214271   4.993   2.463   6.346
 4458SOL     OW14272   4.353   1.960   1.307
 4458SOL    HW114273   4.372   1.979   1.403
 4458SOL    HW214274   4.357   1.862   1.290
 4459SOL     OW14275   6.534   5.104   6.313
 4459SOL    HW114276   6.562   5.197   6.337
 4459SOL    HW214277   6.477   5.066   6.386
 4460SOL     OW14278   1.874   0.086   0.313
 4460SOL    HW114279   1.951   0.097   0.249
 4460SOL    HW214280   1.903   0.029   0.389
 4461SOL     OW14281   2.034   0.106   3.285
 4461SOL    HW114282   1.982   0.029   3.248
 4461SOL    HW214283   2.095   0.143   3.215
 4462SOL     OW14284   0.374   2.962   1.671
 4462SOL    HW114285   0.387   3.008   1.583
 4462SOL    HW214286   0.280   2.974   1.701
 4463SOL     OW14287   0.733   3.918   6.483
 4463SOL    HW114288   0.755   3.900   6.388
 4463SOL    HW214289   0.634   3.928   6.494
 4464SOL     OW14290   6.873   3.435   0.826
 4464SOL    HW114291   6.895   3.370   0.899
 4464SOL    HW214292   6.949   3.499   0.815
 4465SOL     OW14293   5.809   4.679   1.321
 4465SOL    HW114294   5.813   4.579   1.318
 4465SOL    HW214295   5.731   4.708   1.377
 4466SOL     OW14296   0.047   3.262   3.790
 4466SOL    HW114297   0.010   3.169   3.785
 4466SOL    HW214298   0.105   3.279   3.710
 4467SOL     OW14299   1.341   0.635   4.363
 4467SOL    HW114300   1.316   0.590   4.449
 4467SOL    HW214301   1.311   0.578   4.286
 4468SOL     OW14302   0.933   1.297   0.492
 4468SOL    HW114303   0.962   1.387   0.525
 4468SOL    HW214304   0.921   1.236   0.569
 4469SOL     OW14305   5.021   6.601   0.470
 4469SOL    HW114306   4.965   6.521   0.495
 4469SOL    HW214307   5.005   6.624   0.374
 4470SOL     OW14308   4.670   4.339   1.232
 4470SOL    HW114309   4.711   4.250   1.252
 4470SOL    HW214310   4.742   4.407   1.218
 4471SOL     OW14311   6.511   2.180   1.858
 4471SOL    HW114312   6.431   2.214   1.908
 4471SOL    HW214313   6.482   2.147   1.768
 4472SOL     OW14314   2.196   5.438   1.539
 4472SOL    HW114315   2.101   5.444   1.508
 4472SOL    HW214316   2.218   5.517   1.597
 4473SOL     OW14317   5.656   0.968   0.198
 4473SOL    HW114318   5.718   0.976   0.275
 4473SOL    HW214319   5.562   0.986   0.228
 4474SOL     OW14320   6.922   1.719   5.003
 4474SOL    HW114321   6.881   1.747   4.916
 4474SOL    HW214322   7.011   1.677   4.986
 4475SOL     OW14323   1.539   3.274   0.970
 4475SOL    HW114324   1.634   3.285   0.999
 4475SOL    HW214325   1.518   3.338   0.896
 4476SOL     OW14326   3.410   6.563   2.925
 4476SOL    HW114327   3.378   6.585   3.018
 4476SOL    HW214328   3.380   6.470   2.901
 4477SOL     OW14329   1.569   2.019   0.766
 4477SOL    HW114330   1.568   2.100   0.707
 4477SOL    HW214331   1.507   2.034   0.844
 4478SOL     OW14332   1.314   4.410   0.794
 4478SOL    HW114333   1.344   4.350   0.869
 4478SOL    HW214334   1.324   4.362   0.707
 4479SOL     OW14335   1.203   5.713   6.294
 4479SOL    HW114336   1.158   5.788   6.343
 4479SOL    HW214337   1.138   5.638   6.282
 4480SOL     OW14338   6.883   3.222   3.062
 4480SOL    HW114339   6.908   3.316   3.037
 4480SOL    HW214340   6.826   3.224   3.144
 4481SOL     OW14341   0.761   0.761   3.975
 4481SOL    HW114342   0.859   0.743   3.982
 4481SOL    HW214343   0.711   0.674   3.985
 4482SOL     OW14344   0.747   3.997   3.138
 4482SOL    HW114345   0.826   4.060   3.141
 4482SOL    HW214346   0.727   3.965   3.230
 4483SOL     OW14347   6.369   4.173   0.950
 4483SOL    HW114348   6.360   4.144   1.045
 4483SOL    HW214349   6.466   4.186   0.928
 4484SOL     OW14350   3.713   3.933   6.622
 4484SOL    HW114351   3.800   3.911   6.577
 4484SOL    HW214352   3.675   4.017   6.582
 4485SOL     OW14353   4.296   6.664   5.501
 4485SOL    HW114354   4.388   6.628   5.483
 4485SOL    HW214355   4.228   6.602   5.464
 4486SOL     OW14356   6.214   3.739   4.237
 4486SOL    HW114357   6.256   3.750   4.327
 4486SOL    HW214358   6.124   3.698   4.248
 4487SOL     OW14359   3.215   2.771   6.168
 4487SOL    HW114360   3.159   2.793   6.248
 4487SOL    HW214361   3.207   2.845   6.101
 4488SOL     OW14362   6.927   2.509   6.862
 4488SOL    HW114363   6.918   2.414   6.892
 4488SOL    HW214364   6.956   2.511   6.766
 4489SOL     OW14365   0.468   1.732   3.940
 4489SOL    HW114366   0.438   1.821   3.904
 4489SOL    HW214367   0.483   1.740   4.039
 4490SOL     OW14368   6.773   2.155   3.835
 4490SOL    HW114369   6.815   2.082   3.780
 4490SOL    HW214370   6.676   2.135   3.848
 4491SOL     OW14371   1.978   4.791   2.101
 4491SOL    HW114372   2.009   4.712   2.154
 4491SOL    HW214373   1.964   4.869   2.162
 4492SOL     OW14374   5.528   3.894   4.997
 4492SOL    HW114375   5.511   3.802   5.032
 4492SOL    HW214376   5.495   3.900   4.903
 4493SOL     OW14377   6.058   4.955   3.785
 4493SOL    HW114378   5.971   4.928   3.828
 4493SOL    HW214379   6.117   4.998   3.853
 4494SOL     OW14380   5.326   2.968   1.857
 4494SOL    HW114381   5.387   3.005   1.786
 4494SOL    HW214382   5.315   3.035   1.930
 4495SOL     OW14383   5.831   4.761   2.324
 4495SOL    HW114384   5.775   4.680   2.339
 4495SOL    HW214385   5.927   4.739   2.344
 4496SOL     OW14386   6.076   3.272   6.272
 4496SOL    HW114387   6.168   3.302   6.249
 4496SOL    HW214388   6.009   3.336   6.234
 4497SOL     OW14389   6.145   0.178   0.912
 4497SOL    HW114390   6.162   0.210   1.005
 4497SOL    HW214391   6.199   0.234   0.848
 4498SOL     OW14392   1.227   4.604   6.301
 4498SOL    HW114393   1.200   4.603   6.397
 4498SOL    HW214394   1.176   4.675   6.253
 4499SOL     OW14395   5.842   4.094   0.399
 4499SOL    HW114396   5.809   4.083   0.492
 4499SOL    HW214397   5.904   4.173   0.394
 4500SOL     OW14398   3.213   3.940   1.816
 4500SOL    HW114399   3.183   3.985   1.900
 4500SOL    HW214400   3.289   3.990   1.776
 4501SOL     OW14401   1.458   5.370   4.728
 4501SOL    HW114402   1.536   5.388   4.788
 4501SOL    HW214403   1.414   5.456   4.704
 4502SOL     OW14404   5.525   2.581   0.419
 4502SOL    HW114405   5.469   2.634   0.355
 4502SOL    HW214406   5.595   2.641   0.460
 4503SOL     OW14407   1.195   4.139   2.566
 4503SOL    HW114408   1.220   4.048   2.532
 4503SOL    HW214409   1.275   4.183   2.606
 4504SOL     OW14410   4.465   2.076   4.121
 4504SOL    HW114411   4.373   2.039   4.128
 4504SOL    HW214412   4.486   2.093   4.024
 4505SOL     OW14413   2.316   5.380   0.087
 4505SOL    HW114414   2.237   5.431   0.119
 4505SOL    HW214415   2.390   5.444   0.064
 4506SOL     OW14416   3.488   6.088   6.001
 4506SOL    HW114417   3.490   5.988   6.012
 4506SOL    HW214418   3.563   6.117   5.943
 4507SOL     OW14419   6.217   4.084   2.732
 4507SOL    HW114420   6.239   4.071   2.635
 4507SOL    HW214421   6.153   4.013   2.763
 4508SOL     OW14422   1.781   4.750   1.367
 4508SOL    HW114423   1.683   4.759   1.389
 4508SOL    HW214424   1.822   4.683   1.429
 4509SOL     OW14425   1.192   2.799   3.705
 4509SOL    HW114426   1.151   2.815   3.615
 4509SOL    HW214427   1.280   2.846   3.710
 4510SOL     OW14428   2.832   0.357   6.814
 4510SOL    HW114429   2.775   0.285   6.854
 4510SOL    HW214430   2.788   0.445   6.828
 4511SOL     OW14431   0.258   2.786   0.329
 4511SOL    HW114432   0.335   2.747   0.378
 4511SOL    HW214433   0.260   2.757   0.233
 4512SOL     OW14434   2.036   3.785   0.607
 4512SOL    HW114435   2.042   3.695   0.564
 4512SOL    HW214436   2.123   3.833   0.596
 4513SOL     OW14437   6.304   1.834   2.277
 4513SOL    HW114438   6.299   1.767   2.351
 4513SOL    HW214439   6.307   1.786   2.189
 4514SOL     OW14440   1.691   0.288   4.490
 4514SOL    HW114441   1.774   0.242   4.458
 4514SOL    HW214442   1.611   0.233   4.469
 4515SOL     OW14443   0.422   4.265   0.505
 4515SOL    HW114444   0.388   4.316   0.427
 4515SOL    HW214445   0.516   4.234   0.487
 4516SOL     OW14446   0.303   0.006   3.878
 4516SOL    HW114447   0.354   0.016   3.793
 4516SOL    HW214448   0.239   0.082   3.889
 4517SOL     OW14449   2.794   0.552   0.113
 4517SOL    HW114450   2.803   0.466   0.163
 4517SOL    HW214451   2.884   0.596   0.105
 4518SOL     OW14452   0.973   0.980   3.655
 4518SOL    HW114453   0.873   0.974   3.652
 4518SOL    HW214454   1.011   0.932   3.576
 4519SOL     OW14455   0.153   2.434   4.150
 4519SOL    HW114456   0.103   2.512   4.188
 4519SOL    HW214457   0.125   2.419   4.055
 4520SOL     OW14458   6.765   3.692   3.182
 4520SOL    HW114459   6.705   3.750   3.238
 4520SOL    HW214460   6.856   3.732   3.178
 4521SOL     OW14461   5.181   1.587   6.323
 4521SOL    HW114462   5.083   1.575   6.338
 4521SOL    HW214463   5.207   1.681   6.349
 4522SOL     OW14464   5.177   6.687   3.429
 4522SOL    HW114465   5.108   6.753   3.399
 4522SOL    HW214466   5.242   6.733   3.489
 4523SOL     OW14467   5.097   1.661   5.524
 4523SOL    HW114468   5.052   1.732   5.578
 4523SOL    HW214469   5.185   1.638   5.566
 4524SOL     OW14470   5.810   1.595   5.202
 4524SOL    HW114471   5.874   1.633   5.269
 4524SOL    HW214472   5.859   1.530   5.144
 4525SOL     OW14473   0.419   1.375   4.138
 4525SOL    HW114474   0.416   1.279   4.164
 4525SOL    HW214475   0.434   1.382   4.040
 4526SOL     OW14476   2.617   2.046   0.951
 4526SOL    HW114477   2.678   2.103   0.897
 4526SOL    HW214478   2.568   2.102   1.018
 4527SOL     OW14479   4.752   0.011   2.979
 4527SOL    HW114480   4.746   6.968   2.901
 4527SOL    HW214481   4.662   0.019   3.022
 4528SOL     OW14482   4.187   0.334   6.363
 4528SOL    HW114483   4.286   0.344   6.363
 4528SOL    HW214484   4.147   0.399   6.298
 4529SOL     OW14485   2.824   6.998   4.085
 4529SOL    HW114486   2.856   0.049   4.147
 4529SOL    HW214487   2.835   6.909   4.129
 4530SOL     OW14488   6.382   2.295   4.202
 4530SOL    HW114489   6.365   2.344   4.288
 4530SOL    HW214490   6.470   2.322   4.165
 4531SOL     OW14491   0.240   4.135   3.284
 4531SOL    HW114492   0.308   4.062   3.276
 4531SOL    HW214493   0.150   4.100   3.259
 4532SOL     OW14494   0.529   2.145   0.739
 4532SOL    HW114495   0.436   2.137   0.705
 4532SOL    HW214496   0.532   2.214   0.812
 4533SOL     OW14497   3.606   6.144   1.882
 4533SOL    HW114498   3.659   6.105   1.806
 4533SOL    HW214499   3.509   6.141   1.859
 4534SOL     OW14500   6.585   3.871   6.451
 4534SOL    HW114501   6.582   3.805   6.526
 4534SOL    HW214502   6.542   3.957   6.479
 4535SOL     OW14503   4.824   1.861   2.527
 4535SOL    HW114504   4.828   1.959   2.507
 4535SOL    HW214505   4.762   1.816   2.463
 4536SOL     OW14506   6.699   6.783   3.253
 4536SOL    HW114507   6.782   6.753   3.205
 4536SOL    HW214508   6.681   6.721   3.330
 4537SOL     OW14509   5.185   2.996   5.233
 4537SOL    HW114510   5.223   2.999   5.141
 4537SOL    HW214511   5.115   3.067   5.242
 4538SOL     OW14512   3.546   1.832   1.549
 4538SOL    HW114513   3.603   1.889   1.609
 4538SOL    HW214514   3.592   1.746   1.532
 4539SOL     OW14515   2.239   3.952   0.986
 4539SOL    HW114516   2.286   3.930   0.900
 4539SOL    HW214517   2.259   3.881   1.054
 4540SOL     OW14518   3.612   3.346   4.239
 4540SOL    HW114519   3.639   3.439   4.264
 4540SOL    HW214520   3.516   3.333   4.261
 4541SOL     OW14521   6.361   1.069   1.714
 4541SOL    HW114522   6.385   1.108   1.625
 4541SOL    HW214523   6.303   1.134   1.764
 4542SOL     OW14524   5.790   6.258   3.462
 4542SOL    HW114525   5.699   6.263   3.422
 4542SOL    HW214526   5.857   6.293   3.397
 4543SOL     OW14527   5.160   2.797   2.830
 4543SOL    HW114528   5.210   2.866   2.777
 4543SOL    HW214529   5.119   2.731   2.767
 4544SOL     OW14530   5.321   4.704   0.054
 4544SOL    HW114531   5.391   4.652   0.102
 4544SOL    HW214532   5.306   4.792   0.101
 4545SOL     OW14533   4.638   3.480   0.687
 4545SOL    HW114534   4.579   3.481   0.768
 4545SOL    HW214535   4.582   3.471   0.605
 4546SOL     OW14536   0.923   6.182   0.465
 4546SOL    HW114537   0.916   6.123   0.384
 4546SOL    HW214538   1.018   6.208   0.479
 4547SOL     OW14539   4.459   1.532   2.610
 4547SOL    HW114540   4.495   1.484   2.690
 4547SOL    HW214541   4.361   1.547   2.622
 4548SOL     OW14542   1.245   2.894   4.360
 4548SOL    HW114543   1.201   2.830   4.423
 4548SOL    HW214544   1.249   2.985   4.401
 4549SOL     OW14545   5.820   1.527   3.005
 4549SOL    HW114546   5.910   1.525   2.961
 4549SOL    HW214547   5.816   1.603   3.070
 4550SOL     OW14548   1.631   5.108   5.749
 4550SOL    HW114549   1.543   5.129   5.706
 4550SOL    HW214550   1.704   5.146   5.693
 4551SOL     OW14551   6.001   3.340   1.181
 4551SOL    HW114552   5.916   3.386   1.208
 4551SOL    HW214553   5.983   3.281   1.102
 4552SOL     OW14554   0.192   3.744   5.122
 4552SOL    HW114555   0.255   3.717   5.050
 4552SOL    HW214556   0.155   3.834   5.103
 4553SOL     OW14557   5.389   5.404   6.642
 4553SOL    HW114558   5.436   5.491   6.628
 4553SOL    HW214559   5.295   5.411   6.608
 4554SOL     OW14560   6.662   6.042   4.053
 4554SOL    HW114561   6.566   6.066   4.066
 4554SOL    HW214562   6.718   6.089   4.122
 4555SOL     OW14563   3.865   2.665   0.017
 4555SOL    HW114564   3.939   2.706   6.984
 4555SOL    HW214565   3.810   2.737   0.059
 4556SOL     OW14566   3.711   0.670   4.948
 4556SOL    HW114567   3.790   0.718   4.986
 4556SOL    HW214568   3.734   0.573   4.935
 4557SOL     OW14569   4.961   0.959   3.935
 4557SOL    HW114570   4.988   1.028   4.002
 4557SOL    HW214571   5.024   0.962   3.857
 4558SOL     OW14572   0.068   3.570   6.899
 4558SOL    HW114573   0.035   3.534   6.812
 4558SOL    HW214574   0.073   3.670   6.894
 4559SOL     OW14575   1.769   6.450   1.583
 4559SOL    HW114576   1.838   6.467   1.654
 4559SOL    HW214577   1.682   6.490   1.611
 4560SOL     OW14578   5.763   2.444   3.737
 4560SOL    HW114579   5.679   2.390   3.742
 4560SOL    HW214580   5.822   2.421   3.814
 4561SOL     OW14581   2.470   6.129   6.723
 4561SOL    HW114582   2.526   6.130   6.806
 4561SOL    HW214583   2.485   6.043   6.674
 4562SOL     OW14584   3.048   4.304   5.859
 4562SOL    HW114585   3.085   4.218   5.824
 4562SOL    HW214586   3.056   4.375   5.789
 4563SOL     OW14587   5.428   2.854   6.899
 4563SOL    HW114588   5.330   2.874   6.903
 4563SOL    HW214589   5.454   2.797   6.978
 4564SOL     OW14590   6.519   5.211   0.300
 4564SOL    HW114591   6.589   5.241   0.235
 4564SOL    HW214592   6.559   5.145   0.363
 4565SOL     OW14593   4.367   0.924   4.208
 4565SOL    HW114594   4.449   0.868   4.195
 4565SOL    HW214595   4.286   0.867   4.199
 4566SOL     OW14596   1.861   0.499   1.254
 4566SOL    HW114597   1.929   0.429   1.277
 4566SOL    HW214598   1.891   0.549   1.173
 4567SOL     OW14599   5.879   2.754   0.335
 4567SOL    HW114600   5.801   2.802   0.295
 4567SOL    HW214601   5.856   2.724   0.427
 4568SOL     OW14602   4.396   4.808   3.935
 4568SOL    HW114603   4.301   4.829   3.959
 4568SOL    HW214604   4.434   4.747   4.005
 4569SOL     OW14605   2.115   1.417   3.500
 4569SOL    HW114606   2.193   1.382   3.551
 4569SOL    HW214607   2.031   1.402   3.553
 4570SOL     OW14608   5.423   6.069   5.035
 4570SOL    HW114609   5.508   6.017   5.042
 4570SOL    HW214610   5.439   6.162   5.068
 4571SOL     OW14611   3.765   3.043   4.004
 4571SOL    HW114612   3.809   3.063   4.092
 4571SOL    HW214613   3.773   3.123   3.944
 4572SOL     OW14614   2.589   5.191   1.086
 4572SOL    HW114615   2.608   5.127   1.012
 4572SOL    HW214616   2.602   5.145   1.174
 4573SOL     OW14617   5.218   6.962   1.943
 4573SOL    HW114618   5.276   0.001   1.888
 4573SOL    HW214619   5.271   6.923   2.018
 4574SOL     OW14620   0.138   4.913   1.984
 4574SOL    HW114621   0.141   4.822   2.025
 4574SOL    HW214622   0.229   4.953   1.985
 4575SOL     OW14623   6.217   5.951   1.332
 4575SOL    HW114624   6.173   5.989   1.413
 4575SOL    HW214625   6.161   5.971   1.251
 4576SOL     OW14626   3.530   6.078   4.580
 4576SOL    HW114627   3.498   5.983   4.578
 4576SOL    HW214628   3.452   6.140   4.575
 4577SOL     OW14629   2.594   4.565   3.604
 4577SOL    HW114630   2.552   4.474   3.598
 4577SOL    HW214631   2.581   4.601   3.696
 4578SOL     OW14632   5.988   6.236   3.738
 4578SOL    HW114633   6.044   6.155   3.721
 4578SOL    HW214634   5.895   6.220   3.706
 4579SOL     OW14635   4.227   1.638   2.896
 4579SOL    HW114636   4.157   1.583   2.850
 4579SOL    HW214637   4.212   1.735   2.875
 4580SOL     OW14638   0.573   5.054   0.358
 4580SOL    HW114639   0.599   5.052   0.454
 4580SOL    HW214640   0.640   5.001   0.305
 4581SOL     OW14641   2.931   5.496   4.427
 4581SOL    HW114642   2.904   5.408   4.390
 4581SOL    HW214643   2.903   5.502   4.523
 4582SOL     OW14644   5.070   6.237   2.722
 4582SOL    HW114645   5.146   6.256   2.660
 4582SOL    HW214646   5.093   6.159   2.780
 4583SOL     OW14647   3.707   6.860   5.347
 4583SOL    HW114648   3.658   6.839   5.263
 4583SOL    HW214649   3.788   6.914   5.326
 4584SOL     OW14650   6.786   5.218   5.551
 4584SOL    HW114651   6.750   5.257   5.636
 4584SOL    HW214652   6.745   5.264   5.473
 4585SOL     OW14653   3.377   6.755   1.942
 4585SOL    HW114654   3.318   6.828   1.976
 4585SOL    HW214655   3.471   6.787   1.937
 4586SOL     OW14656   1.417   6.109   1.587
 4586SOL    HW114657   1.449   6.014   1.591
 4586SOL    HW214658   1.456   6.161   1.663
 4587SOL     OW14659   3.455   4.624   1.279
 4587SOL    HW114660   3.448   4.552   1.349
 4587SOL    HW214661   3.550   4.633   1.249
 4588SOL     OW14662   3.518   4.045   4.930
 4588SOL    HW114663   3.428   4.086   4.943
 4588SOL    HW214664   3.510   3.964   4.871
 4589SOL     OW14665   2.236   2.098   3.780
 4589SOL    HW114666   2.153   2.091   3.835
 4589SOL    HW214667   2.241   2.020   3.717
 4590SOL     OW14668   4.035   6.577   2.567
 4590SOL    HW114669   3.942   6.615   2.573
 4590SOL    HW214670   4.101   6.652   2.570
 4591SOL     OW14671   4.774   5.832   4.621
 4591SOL    HW114672   4.812   5.774   4.550
 4591SOL    HW214673   4.808   5.802   4.710
 4592SOL     OW14674   3.340   2.150   6.097
 4592SOL    HW114675   3.360   2.186   6.007
 4592SOL    HW214676   3.424   2.149   6.152
 4593SOL     OW14677   4.971   5.189   1.583
 4593SOL    HW114678   5.004   5.266   1.528
 4593SOL    HW214679   4.873   5.198   1.597
 4594SOL     OW14680   4.532   2.294   2.660
 4594SOL    HW114681   4.590   2.350   2.718
 4594SOL    HW214682   4.478   2.352   2.599
 4595SOL     OW14683   4.063   3.203   5.200
 4595SOL    HW114684   3.964   3.212   5.190
 4595SOL    HW214685   4.104   3.293   5.214
 4596SOL     OW14686   4.589   1.115   2.333
 4596SOL    HW114687   4.490   1.103   2.328
 4596SOL    HW214688   4.630   1.090   2.246
 4597SOL     OW14689   7.001   3.480   6.663
 4597SOL    HW114690   6.993   3.571   6.622
 4597SOL    HW214691   6.926   3.422   6.630
 4598SOL     OW14692   2.502   3.854   0.184
 4598SOL    HW114693   2.422   3.803   0.153
 4598SOL    HW214694   2.520   3.930   0.121
 4599SOL     OW14695   3.268   4.489   0.681
 4599SOL    HW114696   3.340   4.420   0.696
 4599SOL    HW214697   3.195   4.475   0.747
 4600SOL     OW14698   2.311   3.578   0.873
 4600SOL    HW114699   2.363   3.550   0.954
 4600SOL    HW214700   2.297   3.498   0.814
 4601SOL     OW14701   1.849   5.425   3.312
 4601SOL    HW114702   1.785   5.465   3.377
 4601SOL    HW214703   1.807   5.346   3.268
 4602SOL     OW14704   1.128   0.272   1.487
 4602SOL    HW114705   1.064   0.325   1.431
 4602SOL    HW214706   1.189   0.221   1.427
 4603SOL     OW14707   2.601   1.626   1.173
 4603SOL    HW114708   2.617   1.625   1.074
 4603SOL    HW214709   2.676   1.579   1.219
 4604SOL     OW14710   1.284   6.592   3.066
 4604SOL    HW114711   1.258   6.576   2.971
 4604SOL    HW214712   1.202   6.609   3.121
 4605SOL     OW14713   5.520   6.628   5.668
 4605SOL    HW114714   5.581   6.649   5.744
 4605SOL    HW214715   5.426   6.650   5.694
 4606SOL     OW14716   5.860   6.193   4.837
 4606SOL    HW114717   5.856   6.165   4.741
 4606SOL    HW214718   5.812   6.126   4.894
 4607SOL     OW14719   2.817   3.105   0.543
 4607SOL    HW114720   2.880   3.028   0.551
 4607SOL    HW214721   2.865   3.189   0.566
 4608SOL     OW14722   1.764   3.544   6.026
 4608SOL    HW114723   1.685   3.515   6.079
 4608SOL    HW214724   1.843   3.486   6.048
 4609SOL     OW14725   3.484   0.104   0.154
 4609SOL    HW114726   3.413   0.090   0.085
 4609SOL    HW214727   3.535   0.019   0.167
 4610SOL     OW14728   6.465   3.517   0.677
 4610SOL    HW114729   6.402   3.575   0.624
 4610SOL    HW214730   6.452   3.534   0.774
 4611SOL     OW14731   1.390   4.836   5.809
 4611SOL    HW114732   1.406   4.854   5.712
 4611SOL    HW214733   1.476   4.847   5.859
 4612SOL     OW14734   1.246   0.460   6.612
 4612SOL    HW114735   1.179   0.400   6.657
 4612SOL    HW214736   1.201   0.543   6.581
 4613SOL     OW14737   4.072   4.759   1.499
 4613SOL    HW114738   4.033   4.851   1.488
 4613SOL    HW214739   4.169   4.767   1.520
 4614SOL     OW14740   2.109   4.185   0.721
 4614SOL    HW114741   2.152   4.108   0.768
 4614SOL    HW214742   2.099   4.261   0.785
 4615SOL     OW14743   5.896   2.990   6.598
 4615SOL    HW114744   5.801   2.972   6.571
 4615SOL    HW214745   5.948   2.904   6.595
 4616SOL     OW14746   5.057   0.552   6.591
 4616SOL    HW114747   5.143   0.520   6.632
 4616SOL    HW214748   5.042   0.647   6.619
 4617SOL     OW14749   0.600   4.168   1.866
 4617SOL    HW114750   0.527   4.101   1.875
 4617SOL    HW214751   0.639   4.187   1.957
 4618SOL     OW14752   1.411   2.693   6.329
 4618SOL    HW114753   1.412   2.610   6.274
 4618SOL    HW214754   1.419   2.773   6.269
 4619SOL     OW14755   3.983   0.959   4.027
 4619SOL    HW114756   4.001   0.913   3.939
 4619SOL    HW214757   3.998   1.057   4.017
 4620SOL     OW14758   1.548   5.710   0.685
 4620SOL    HW114759   1.483   5.785   0.689
 4620SOL    HW214760   1.614   5.718   0.759
 4621SOL     OW14761   6.572   1.035   0.171
 4621SOL    HW114762   6.590   1.106   0.239
 4621SOL    HW214763   6.555   1.077   0.082
 4622SOL     OW14764   1.546   4.456   0.560
 4622SOL    HW114765   1.497   4.540   0.539
 4622SOL    HW214766   1.482   4.379   0.561
 4623SOL     OW14767   6.558   3.424   4.018
 4623SOL    HW114768   6.465   3.403   4.049
 4623SOL    HW214769   6.613   3.340   4.016
 4624SOL     OW14770   4.410   6.363   5.568
 4624SOL    HW114771   4.330   6.412   5.533
 4624SOL    HW214772   4.422   6.278   5.517
 4625SOL     OW14773   0.715   4.367   6.262
 4625SOL    HW114774   0.633   4.403   6.307
 4625SOL    HW214775   0.740   4.426   6.185
 4626SOL     OW14776   6.819   4.878   2.157
 4626SOL    HW114777   6.789   4.971   2.177
 4626SOL    HW214778   6.762   4.813   2.205
 4627SOL     OW14779   2.368   6.665   4.676
 4627SOL    HW114780   2.318   6.666   4.589
 4627SOL    HW214781   2.449   6.723   4.668
 4628SOL     OW14782   6.322   2.491   1.616
 4628SOL    HW114783   6.318   2.391   1.610
 4628SOL    HW214784   6.274   2.521   1.699
 4629SOL     OW14785   4.621   5.528   3.906
 4629SOL    HW114786   4.622   5.446   3.848
 4629SOL    HW214787   4.585   5.504   3.996
 4630SOL     OW14788   2.838   6.064   3.046
 4630SOL    HW114789   2.918   6.124   3.052
 4630SOL    HW214790   2.861   5.976   3.088
 4631SOL     OW14791   1.724   0.617   2.640
 4631SOL    HW114792   1.731   0.688   2.570
 4631SOL    HW214793   1.727   0.659   2.731
 4632SOL     OW14794   5.850   6.083   4.607
 4632SOL    HW114795   5.820   6.160   4.550
 4632SOL    HW214796   5.940   6.052   4.576
 4633SOL     OW14797   4.807   3.225   6.088
 4633SOL    HW114798   4.855   3.255   6.006
 4633SOL    HW214799   4.736   3.291   6.112
 4634SOL     OW14800   2.578   3.457   0.419
 4634SOL    HW114801   2.580   3.544   0.468
 4634SOL    HW214802   2.490   3.413   0.433
 4635SOL     OW14803   4.856   3.178   1.481
 4635SOL    HW114804   4.844   3.113   1.556
 4635SOL    HW214805   4.770   3.188   1.431
 4636SOL     OW14806   1.247   5.384   1.820
 4636SOL    HW114807   1.241   5.458   1.752
 4636SOL    HW214808   1.295   5.306   1.781
 4637SOL     OW14809   0.333   0.896   5.391
 4637SOL    HW114810   0.382   0.888   5.478
 4637SOL    HW214811   0.284   0.982   5.388
 4638SOL     OW14812   4.510   5.117   5.685
 4638SOL    HW114813   4.497   5.059   5.766
 4638SOL    HW214814   4.445   5.089   5.615
 4639SOL     OW14815   6.545   2.628   5.283
 4639SOL    HW114816   6.566   2.653   5.189
 4639SOL    HW214817   6.446   2.633   5.297
 4640SOL     OW14818   0.454   5.830   3.208
 4640SOL    HW114819   0.354   5.841   3.208
 4640SOL    HW214820   0.485   5.806   3.299
 4641SOL     OW14821   2.171   3.940   5.341
 4641SOL    HW114822   2.119   4.025   5.355
 4641SOL    HW214823   2.234   3.953   5.265
 4642SOL     OW14824   5.913   5.368   4.646
 4642SOL    HW114825   5.965   5.356   4.562
 4642SOL    HW214826   5.851   5.291   4.659
 4643SOL     OW14827   4.438   3.787   1.103
 4643SOL    HW114828   4.491   3.703   1.113
 4643SOL    HW214829   4.490   3.853   1.049
 4644SOL     OW14830   3.370   5.094   5.537
 4644SOL    HW114831   3.274   5.121   5.533
 4644SOL    HW214832   3.387   5.046   5.623
 4645SOL     OW14833   1.716   5.890   4.660
 4645SOL    HW114834   1.732   5.952   4.736
 4645SOL    HW214835   1.742   5.934   4.574
 4646SOL     OW14836   3.444   1.411   1.073
 4646SOL    HW114837   3.371   1.424   1.140
 4646SOL    HW214838   3.416   1.342   1.007
 4647SOL     OW14839   6.359   0.479   5.408
 4647SOL    HW114840   6.329   0.433   5.324
 4647SOL    HW214841   6.349   0.578   5.397
 4648SOL     OW14842   2.537   6.405   3.564
 4648SOL    HW114843   2.515   6.500   3.587
 4648SOL    HW214844   2.633   6.397   3.540
 4649SOL     OW14845   5.646   4.816   6.236
 4649SOL    HW114846   5.587   4.785   6.161
 4649SOL    HW214847   5.690   4.902   6.210
 4650SOL     OW14848   6.596   4.534   1.665
 4650SOL    HW114849   6.674   4.568   1.717
 4650SOL    HW214850   6.555   4.456   1.713
 4651SOL     OW14851   6.430   1.383   1.000
 4651SOL    HW114852   6.514   1.357   1.047
 4651SOL    HW214853   6.422   1.332   0.914
 4652SOL     OW14854   0.235   6.577   5.745
 4652SOL    HW114855   0.296   6.591   5.666
 4652SOL    HW214856   0.212   6.480   5.753
 4653SOL     OW14857   1.806   4.651   0.175
 4653SOL    HW114858   1.735   4.721   0.168
 4653SOL    HW214859   1.893   4.688   0.140
 4654SOL     OW14860   1.571   1.283   0.389
 4654SOL    HW114861   1.477   1.313   0.400
 4654SOL    HW214862   1.624   1.356   0.345
 4655SOL     OW14863   0.301   4.767   4.541
 4655SOL    HW114864   0.289   4.790   4.638
 4655SOL    HW214865   0.320   4.669   4.532
 4656SOL     OW14866   2.649   0.260   2.638
 4656SOL    HW114867   2.619   0.172   2.600
 4656SOL    HW214868   2.570   0.321   2.646
 4657SOL     OW14869   6.550   1.118   5.471
 4657SOL    HW114870   6.459   1.086   5.497
 4657SOL    HW214871   6.616   1.044   5.485
 4658SOL     OW14872   5.379   6.793   3.699
 4658SOL    HW114873   5.469   6.757   3.675
 4658SOL    HW214874   5.387   6.891   3.720
 4659SOL     OW14875   2.142   3.043   3.484
 4659SOL    HW114876   2.185   3.123   3.443
 4659SOL    HW214877   2.077   3.072   3.554
 4660SOL     OW14878   6.791   1.356   4.863
 4660SOL    HW114879   6.852   1.354   4.942
 4660SOL    HW214880   6.839   1.318   4.783
 4661SOL     OW14881   3.356   3.173   3.751
 4661SOL    HW114882   3.380   3.077   3.741
 4661SOL    HW214883   3.388   3.207   3.839
 4662SOL     OW14884   6.523   6.698   4.573
 4662SOL    HW114885   6.466   6.779   4.561
 4662SOL    HW214886   6.519   6.667   4.668
 4663SOL     OW14887   0.658   1.757   2.774
 4663SOL    HW114888   0.646   1.693   2.699
 4663SOL    HW214889   0.743   1.808   2.761
 4664SOL     OW14890   3.270   5.031   0.235
 4664SOL    HW114891   3.227   5.023   0.145
 4664SOL    HW214892   3.306   4.942   0.262
 4665SOL     OW14893   6.044   0.998   6.316
 4665SOL    HW114894   5.957   0.995   6.267
 4665SOL    HW214895   6.043   0.929   6.388
 4666SOL     OW14896   1.787   1.073   0.778
 4666SOL    HW114897   1.697   1.095   0.741
 4666SOL    HW214898   1.851   1.057   0.703
 4667SOL     OW14899   0.279   6.041   4.055
 4667SOL    HW114900   0.299   5.982   4.133
 4667SOL    HW214901   0.363   6.059   4.004
 4668SOL     OW14902   6.018   0.961   4.836
 4668SOL    HW114903   5.947   0.990   4.771
 4668SOL    HW214904   6.037   1.036   4.900
 4669SOL     OW14905   2.331   2.119   2.144
 4669SOL    HW114906   2.430   2.119   2.130
 4669SOL    HW214907   2.286   2.156   2.063
 4670SOL     OW14908   2.822   2.248   4.651
 4670SOL    HW114909   2.912   2.251   4.694
 4670SOL    HW214910   2.828   2.282   4.557
 4671SOL     OW14911   6.412   2.422   2.752
 4671SOL    HW114912   6.464   2.427   2.837
 4671SOL    HW214913   6.316   2.443   2.771
 4672SOL     OW14914   2.852   2.430   5.309
 4672SOL    HW114915   2.780   2.415   5.240
 4672SOL    HW214916   2.929   2.370   5.290
 4673SOL     OW14917   5.286   0.790   2.358
 4673SOL    HW114918   5.224   0.730   2.308
 4673SOL    HW214919   5.272   0.884   2.328
 4674SOL     OW14920   4.496   7.003   5.597
 4674SOL    HW114921   4.426   7.017   5.666
 4674SOL    HW214922   4.453   6.993   5.507
 4675SOL     OW14923   0.766   4.165   5.839
 4675SOL    HW114924   0.843   4.111   5.871
 4675SOL    HW214925   0.800   4.243   5.786
 4676SOL     OW14926   1.365   4.466   3.697
 4676SOL    HW114927   1.307   4.417   3.763
 4676SOL    HW214928   1.333   4.560   3.689
 4677SOL     OW14929   1.300   3.624   1.028
 4677SOL    HW114930   1.390   3.667   1.023
 4677SOL    HW214931   1.283   3.571   0.945
 4678SOL     OW14932   1.478   2.063   1.092
 4678SOL    HW114933   1.484   1.967   1.118
 4678SOL    HW214934   1.382   2.090   1.084
 4679SOL     OW14935   4.464   0.149   2.020
 4679SOL    HW114936   4.398   0.184   2.087
 4679SOL    HW214937   4.492   0.057   2.046
 4680SOL     OW14938   3.009   1.031   6.732
 4680SOL    HW114939   2.962   1.040   6.644
 4680SOL    HW214940   3.010   1.120   6.779
 4681SOL     OW14941   4.949   5.347   2.036
 4681SOL    HW114942   4.872   5.288   2.061
 4681SOL    HW214943   4.987   5.316   1.949
 4682SOL     OW14944   3.598   3.178   6.747
 4682SOL    HW114945   3.646   3.122   6.815
 4682SOL    HW214946   3.647   3.264   6.735
 4683SOL     OW14947   0.010   3.890   3.930
 4683SOL    HW114948   0.092   3.834   3.915
 4683SOL    HW214949   0.004   3.914   4.027
 4684SOL     OW14950   4.972   0.493   5.801
 4684SOL    HW114951   5.037   0.471   5.728
 4684SOL    HW214952   4.903   0.556   5.765
 4685SOL     OW14953   2.953   3.756   4.403
 4685SOL    HW114954   2.903   3.697   4.339
 4685SOL    HW214955   2.940   3.722   4.496
 4686SOL     OW14956   1.361   6.518   6.103
 4686SOL    HW114957   1.441   6.571   6.075
 4686SOL    HW214958   1.281   6.577   6.110
 4687SOL     OW14959   1.375   6.887   2.279
 4687SOL    HW114960   1.287   6.845   2.255
 4687SOL    HW214961   1.359   6.967   2.336
 4688SOL     OW14962   4.858   2.498   4.447
 4688SOL    HW114963   4.920   2.540   4.513
 4688SOL    HW214964   4.816   2.417   4.487
 4689SOL     OW14965   6.750   1.153   1.394
 4689SOL    HW114966   6.735   1.169   1.492
 4689SOL    HW214967   6.830   1.094   1.382
 4690SOL     OW14968   3.561   1.985   1.213
 4690SOL    HW114969   3.612   1.917   1.160
 4690SOL    HW214970   3.478   2.011   1.163
 4691SOL     OW14971   6.106   2.758   1.737
 4691SOL    HW114972   6.060   2.698   1.802
 4691SOL    HW214973   6.040   2.791   1.670
 4692SOL     OW14974   6.548   2.768   3.080
 4692SOL    HW114975   6.473   2.777   3.015
 4692SOL    HW214976   6.552   2.673   3.113
 4693SOL     OW14977   0.149   0.240   3.812
 4693SOL    HW114978   0.063   0.262   3.857
 4693SOL    HW214979   0.182   0.320   3.762
 4694SOL     OW14980   1.761   6.641   5.821
 4694SOL    HW114981   1.821   6.567   5.792
 4694SOL    HW214982   1.746   6.705   5.745
 4695SOL     OW14983   1.601   4.587   1.860
 4695SOL    HW114984   1.619   4.527   1.782
 4695SOL    HW214985   1.679   4.647   1.875
 4696SOL     OW14986   2.069   6.205   6.023
 4696SOL    HW114987   2.123   6.127   5.991
 4696SOL    HW214988   1.982   6.172   6.061
 4697SOL     OW14989   4.320   6.015   1.253
 4697SOL    HW114990   4.314   5.928   1.204
 4697SOL    HW214991   4.265   6.084   1.205
 4698SOL     OW14992   5.932   1.461   4.635
 4698SOL    HW114993   6.023   1.467   4.676
 4698SOL    HW214994   5.873   1.404   4.692
 4699SOL     OW14995   0.933   1.753   3.113
 4699SOL    HW114996   0.944   1.667   3.063
 4699SOL    HW214997   0.987   1.750   3.197
 4700SOL     OW14998   6.494   2.094   3.835
 4700SOL    HW114999   6.403   2.053   3.846
 4700SOL    HW215000   6.500   2.139   3.746
 4701SOL     OW15001   2.345   2.729   1.882
 4701SOL    HW115002   2.439   2.725   1.850
 4701SOL    HW215003   2.302   2.813   1.850
 4702SOL     OW15004   5.977   4.770   1.135
 4702SOL    HW115005   6.057   4.822   1.164
 4702SOL    HW215006   5.923   4.744   1.216
 4703SOL     OW15007   6.914   5.209   4.303
 4703SOL    HW115008   6.975   5.162   4.239
 4703SOL    HW215009   6.840   5.148   4.329
 4704SOL     OW15010   1.483   4.677   4.005
 4704SOL    HW115011   1.404   4.730   3.974
 4704SOL    HW215012   1.527   4.725   4.081
 4705SOL     OW15013   3.120   2.342   1.193
 4705SOL    HW115014   3.047   2.342   1.125
 4705SOL    HW215015   3.082   2.323   1.283
 4706SOL     OW15016   2.317   1.729   1.052
 4706SOL    HW115017   2.220   1.717   1.074
 4706SOL    HW215018   2.372   1.708   1.133
 4707SOL     OW15019   2.147   5.742   2.223
 4707SOL    HW115020   2.152   5.842   2.223
 4707SOL    HW215021   2.151   5.709   2.317
 4708SOL     OW15022   1.866   2.817   6.654
 4708SOL    HW115023   1.910   2.769   6.730
 4708SOL    HW215024   1.931   2.879   6.610
 4709SOL     OW15025   6.206   3.751   4.654
 4709SOL    HW115026   6.142   3.822   4.626
 4709SOL    HW215027   6.175   3.710   4.740
 4710SOL     OW15028   6.251   4.587   5.754
 4710SOL    HW115029   6.159   4.584   5.794
 4710SOL    HW215030   6.250   4.646   5.673
 4711SOL     OW15031   4.710   4.283   2.976
 4711SOL    HW115032   4.729   4.283   2.878
 4711SOL    HW215033   4.730   4.193   3.014
 4712SOL     OW15034   4.441   4.968   5.932
 4712SOL    HW115035   4.424   5.029   6.010
 4712SOL    HW215036   4.392   4.881   5.948
 4713SOL     OW15037   5.758   4.476   1.766
 4713SOL    HW115038   5.682   4.467   1.702
 4713SOL    HW215039   5.795   4.569   1.761
 4714SOL     OW15040   4.920   2.268   5.780
 4714SOL    HW115041   4.880   2.177   5.785
 4714SOL    HW215042   4.876   2.327   5.848
 4715SOL     OW15043   0.272   1.344   1.705
 4715SOL    HW115044   0.220   1.345   1.790
 4715SOL    HW215045   0.227   1.282   1.640
 4716SOL     OW15046   4.118   4.476   5.427
 4716SOL    HW115047   4.031   4.461   5.472
 4716SOL    HW215048   4.137   4.400   5.365
 4717SOL     OW15049   1.386   4.387   6.257
 4717SOL    HW115050   1.438   4.409   6.174
 4717SOL    HW215051   1.335   4.468   6.287
 4718SOL     OW15052   4.896   3.582   2.265
 4718SOL    HW115053   4.859   3.582   2.172
 4718SOL    HW215054   4.868   3.498   2.312
 4719SOL     OW15055   5.653   3.968   3.629
 4719SOL    HW115056   5.662   3.882   3.679
 4719SOL    HW215057   5.563   3.972   3.586
 4720SOL     OW15058   1.134   1.818   5.891
 4720SOL    HW115059   1.078   1.890   5.850
 4720SOL    HW215060   1.109   1.730   5.851
 4721SOL     OW15061   0.272   2.564   2.507
 4721SOL    HW115062   0.305   2.655   2.533
 4721SOL    HW215063   0.173   2.560   2.521
 4722SOL     OW15064   1.567   5.508   5.767
 4722SOL    HW115065   1.583   5.504   5.865
 4722SOL    HW215066   1.469   5.515   5.749
 4723SOL     OW15067   3.421   4.671   6.132
 4723SOL    HW115068   3.439   4.743   6.199
 4723SOL    HW215069   3.437   4.582   6.174
 4724SOL     OW15070   0.535   0.590   4.361
 4724SOL    HW115071   0.531   0.544   4.450
 4724SOL    HW215072   0.447   0.634   4.342
 4725SOL     OW15073   5.429   5.813   1.290
 4725SOL    HW115074   5.403   5.908   1.274
 4725SOL    HW215075   5.506   5.789   1.231
 4726SOL     OW15076   1.888   2.356   6.066
 4726SOL    HW115077   1.837   2.403   6.138
 4726SOL    HW215078   1.985   2.379   6.073
 4727SOL     OW15079   6.356   5.126   1.890
 4727SOL    HW115080   6.278   5.111   1.829
 4727SOL    HW215081   6.440   5.136   1.835
 4728SOL     OW15082   4.275   0.920   3.316
 4728SOL    HW115083   4.210   0.845   3.330
 4728SOL    HW215084   4.316   0.945   3.404
 4729SOL     OW15085   0.492   0.926   3.201
 4729SOL    HW115086   0.401   0.885   3.201
 4729SOL    HW215087   0.486   1.021   3.171
 4730SOL     OW15088   2.900   1.088   3.130
 4730SOL    HW115089   2.928   1.125   3.042
 4730SOL    HW215090   2.874   1.163   3.191
 4731SOL     OW15091   3.627   6.760   2.756
 4731SOL    HW115092   3.529   6.752   2.741
 4731SOL    HW215093   3.645   6.800   2.845
 4732SOL     OW15094   0.311   4.826   4.259
 4732SOL    HW115095   0.293   4.795   4.352
 4732SOL    HW215096   0.329   4.747   4.200
 4733SOL     OW15097   2.232   4.212   3.289
 4733SOL    HW115098   2.219   4.147   3.215
 4733SOL    HW215099   2.248   4.162   3.375
 4734SOL     OW15100   4.615   4.749   6.112
 4734SOL    HW115101   4.544   4.804   6.156
 4734SOL    HW215102   4.575   4.697   6.037
 4735SOL     OW15103   6.908   1.007   5.445
 4735SOL    HW115104   6.853   1.044   5.520
 4735SOL    HW215105   6.868   1.035   5.358
 4736SOL     OW15106   6.267   0.156   4.521
 4736SOL    HW115107   6.349   0.212   4.507
 4736SOL    HW215108   6.217   0.147   4.434
 4737SOL     OW15109   1.932   4.988   0.336
 4737SOL    HW115110   1.922   5.085   0.357
 4737SOL    HW215111   1.966   4.940   0.417
 4738SOL     OW15112   0.237   5.934   3.793
 4738SOL    HW115113   0.275   5.983   3.715
 4738SOL    HW215114   0.261   5.981   3.877
 4739SOL     OW15115   5.757   3.601   3.053
 4739SOL    HW115116   5.852   3.569   3.054
 4739SOL    HW215117   5.752   3.694   3.089
 4740SOL     OW15118   1.754   6.265   0.697
 4740SOL    HW115119   1.852   6.247   0.689
 4740SOL    HW215120   1.723   6.312   0.614
 4741SOL     OW15121   5.684   4.505   2.420
 4741SOL    HW115122   5.619   4.489   2.346
 4741SOL    HW215123   5.732   4.420   2.442
 4742SOL     OW15124   2.253   5.681   1.980
 4742SOL    HW115125   2.230   5.712   2.073
 4742SOL    HW215126   2.263   5.582   1.979
 4743SOL     OW15127   2.653   3.153   0.319
 4743SOL    HW115128   2.685   3.238   0.278
 4743SOL    HW215129   2.717   3.122   0.389
 4744SOL     OW15130   2.934   1.793   5.580
 4744SOL    HW115131   2.864   1.746   5.633
 4744SOL    HW215132   2.949   1.746   5.493
 4745SOL     OW15133   4.465   5.963   4.254
 4745SOL    HW115134   4.501   6.021   4.327
 4745SOL    HW215135   4.501   5.870   4.265
 4746SOL     OW15136   5.641   1.576   0.683
 4746SOL    HW115137   5.636   1.503   0.616
 4746SOL    HW215138   5.590   1.550   0.765
 4747SOL     OW15139   1.207   2.804   2.415
 4747SOL    HW115140   1.199   2.899   2.447
 4747SOL    HW215141   1.265   2.801   2.334
 4748SOL     OW15142   1.798   6.678   0.547
 4748SOL    HW115143   1.890   6.693   0.510
 4748SOL    HW215144   1.744   6.626   0.482
 4749SOL     OW15145   4.062   1.032   6.959
 4749SOL    HW115146   4.041   1.028   6.862
 4749SOL    HW215147   4.031   0.948   7.004
 4750SOL     OW15148   0.874   2.261   4.874
 4750SOL    HW115149   0.789   2.281   4.925
 4750SOL    HW215150   0.942   2.331   4.895
 4751SOL     OW15151   1.655   3.792   6.376
 4751SOL    HW115152   1.678   3.790   6.279
 4751SOL    HW215153   1.700   3.870   6.420
 4752SOL     OW15154   1.668   5.703   0.923
 4752SOL    HW115155   1.636   5.613   0.951
 4752SOL    HW215156   1.756   5.722   0.967
 4753SOL     OW15157   0.063   1.302   6.682
 4753SOL    HW115158   7.014   1.233   6.662
 4753SOL    HW215159   0.046   1.342   6.772
 4754SOL     OW15160   1.452   0.624   6.766
 4754SOL    HW115161   1.372   0.595   6.712
 4754SOL    HW215162   1.473   0.554   6.834
 4755SOL     OW15163   3.071   6.891   3.318
 4755SOL    HW115164   3.000   6.889   3.247
 4755SOL    HW215165   3.029   6.913   3.406
 4756SOL     OW15166   5.632   2.129   1.037
 4756SOL    HW115167   5.608   2.137   1.134
 4756SOL    HW215168   5.721   2.171   1.021
 4757SOL     OW15169   2.154   3.072   0.983
 4757SOL    HW115170   2.234   3.126   0.957
 4757SOL    HW215171   2.159   3.052   1.081
 4758SOL     OW15172   6.568   3.630   6.597
 4758SOL    HW115173   6.549   3.584   6.510
 4758SOL    HW215174   6.526   3.579   6.672
 4759SOL     OW15175   6.783   3.845   6.710
 4759SOL    HW115176   6.827   3.887   6.630
 4759SOL    HW215177   6.741   3.758   6.683
 4760SOL     OW15178   0.820   2.776   6.974
 4760SOL    HW115179   0.781   2.857   6.930
 4760SOL    HW215180   0.860   2.802   0.041
 4761SOL     OW15181   3.062   5.996   0.066
 4761SOL    HW115182   2.988   6.061   0.050
 4761SOL    HW215183   3.034   5.905   0.036
 4762SOL     OW15184   3.290   0.609   2.939
 4762SOL    HW115185   3.272   0.522   2.892
 4762SOL    HW215186   3.285   0.684   2.873
 4763SOL     OW15187   5.070   4.835   4.764
 4763SOL    HW115188   5.146   4.853   4.700
 4763SOL    HW215189   5.035   4.922   4.799
 4764SOL     OW15190   3.178   3.644   4.166
 4764SOL    HW115191   3.191   3.613   4.071
 4764SOL    HW215192   3.242   3.718   4.186
 4765SOL     OW15193   6.736   5.355   6.629
 4765SOL    HW115194   6.693   5.355   6.539
 4765SOL    HW215195   6.782   5.267   6.644
 4766SOL     OW15196   3.599   1.685   3.073
 4766SOL    HW115197   3.643   1.603   3.036
 4766SOL    HW215198   3.606   1.760   3.008
 4767SOL     OW15199   4.445   0.825   6.187
 4767SOL    HW115200   4.350   0.801   6.163
 4767SOL    HW215201   4.475   0.770   6.264
 4768SOL     OW15202   2.293   0.374   5.388
 4768SOL    HW115203   2.261   0.334   5.474
 4768SOL    HW215204   2.368   0.437   5.406
 4769SOL     OW15205   4.651   0.714   2.072
 4769SOL    HW115206   4.603   0.645   2.018
 4769SOL    HW215207   4.615   0.805   2.050
 4770SOL     OW15208   2.915   1.636   3.650
 4770SOL    HW115209   3.005   1.599   3.627
 4770SOL    HW215210   2.853   1.560   3.671
 4771SOL     OW15211   4.110   4.933   6.413
 4771SOL    HW115212   4.039   4.918   6.482
 4771SOL    HW215213   4.100   5.025   6.374
 4772SOL     OW15214   3.932   2.458   6.851
 4772SOL    HW115215   3.934   2.515   6.769
 4772SOL    HW215216   3.908   2.513   6.931
 4773SOL     OW15217   0.125   5.010   4.476
 4773SOL    HW115218   0.107   5.002   4.378
 4773SOL    HW215219   0.177   4.930   4.507
 4774SOL     OW15220   2.150   4.082   0.058
 4774SOL    HW115221   2.198   3.995   0.049
 4774SOL    HW215222   2.086   4.077   0.135
 4775SOL     OW15223   1.872   3.056   2.575
 4775SOL    HW115224   1.834   3.110   2.500
 4775SOL    HW215225   1.969   3.041   2.560
 4776SOL     OW15226   4.475   5.553   1.160
 4776SOL    HW115227   4.407   5.505   1.216
 4776SOL    HW215228   4.566   5.538   1.198
 4777SOL     OW15229   1.613   3.795   1.535
 4777SOL    HW115230   1.611   3.758   1.442
 4777SOL    HW215231   1.627   3.721   1.601
 4778SOL     OW15232   5.569   3.389   2.686
 4778SOL    HW115233   5.606   3.482   2.684
 4778SOL    HW215234   5.644   3.323   2.686
 4779SOL     OW15235   6.200   1.725   2.621
 4779SOL    HW115236   6.203   1.711   2.522
 4779SOL    HW215237   6.108   1.705   2.654
 4780SOL     OW15238   1.446   1.290   5.241
 4780SOL    HW115239   1.441   1.356   5.316
 4780SOL    HW215240   1.537   1.248   5.240
 4781SOL     OW15241   2.612   5.907   2.946
 4781SOL    HW115242   2.559   5.859   3.016
 4781SOL    HW215243   2.671   5.975   2.991
 4782SOL     OW15244   6.140   6.170   6.948
 4782SOL    HW115245   6.132   6.243   7.015
 4782SOL    HW215246   6.189   6.203   6.867
 4783SOL     OW15247   5.721   4.764   3.209
 4783SOL    HW115248   5.787   4.690   3.198
 4783SOL    HW215249   5.669   4.776   3.125
 4784SOL     OW15250   4.872   4.154   4.565
 4784SOL    HW115251   4.947   4.159   4.631
 4784SOL    HW215252   4.851   4.058   4.546
 4785SOL     OW15253   5.598   6.012   0.316
 4785SOL    HW115254   5.534   6.088   0.328
 4785SOL    HW215255   5.558   5.944   0.255
 4786SOL     OW15256   1.395   4.544   3.171
 4786SOL    HW115257   1.359   4.490   3.247
 4786SOL    HW215258   1.491   4.519   3.154
 4787SOL     OW15259   4.097   2.127   2.522
 4787SOL    HW115260   4.006   2.110   2.559
 4787SOL    HW215261   4.145   2.192   2.580
 4788SOL     OW15262   2.417   0.372   4.769
 4788SOL    HW115263   2.436   0.468   4.788
 4788SOL    HW215264   2.501   0.328   4.736
 4789SOL     OW15265   4.804   5.845   6.644
 4789SOL    HW115266   4.707   5.860   6.663
 4789SOL    HW215267   4.814   5.774   6.574
 4790SOL     OW15268   5.780   6.958   0.014
 4790SOL    HW115269   5.759   6.956   6.937
 4790SOL    HW215270   5.863   6.906   0.031
 4791SOL     OW15271   4.531   2.389   3.083
 4791SOL    HW115272   4.548   2.418   2.988
 4791SOL    HW215273   4.617   2.362   3.125
 4792SOL     OW15274   3.429   3.098   0.376
 4792SOL    HW115275   3.479   3.012   0.373
 4792SOL    HW215276   3.445   3.149   0.291
 4793SOL     OW15277   0.851   0.966   6.918
 4793SOL    HW115278   0.852   1.065   6.904
 4793SOL    HW215279   0.863   0.919   6.831
 4794SOL     OW15280   5.705   1.151   1.641
 4794SOL    HW115281   5.752   1.105   1.717
 4794SOL    HW215282   5.768   1.162   1.564
 4795SOL     OW15283   6.520   2.116   4.539
 4795SOL    HW115284   6.426   2.084   4.525
 4795SOL    HW215285   6.525   2.214   4.519
 4796SOL     OW15286   4.750   3.722   0.622
 4796SOL    HW115287   4.748   3.722   0.522
 4796SOL    HW215288   4.719   3.634   0.657
 4797SOL     OW15289   1.307   5.936   4.834
 4797SOL    HW115290   1.343   5.985   4.913
 4797SOL    HW215291   1.343   5.842   4.835
 4798SOL     OW15292   0.227   5.730   6.187
 4798SOL    HW115293   0.224   5.806   6.252
 4798SOL    HW215294   0.285   5.754   6.109
 4799SOL     OW15295   5.252   1.254   4.632
 4799SOL    HW115296   5.290   1.285   4.720
 4799SOL    HW215297   5.292   1.307   4.558
 4800SOL     OW15298   1.647   2.993   4.171
 4800SOL    HW115299   1.669   3.075   4.223
 4800SOL    HW215300   1.696   2.915   4.209
 4801SOL     OW15301   0.200   1.978   0.851
 4801SOL    HW115302   0.273   1.939   0.907
 4801SOL    HW215303   0.234   2.060   0.805
 4802SOL     OW15304   1.747   7.000   1.906
 4802SOL    HW115305   1.814   6.954   1.964
 4802SOL    HW215306   1.702   0.052   1.957
 4803SOL     OW15307   0.424   6.721   1.168
 4803SOL    HW115308   0.348   6.765   1.217
 4803SOL    HW215309   0.401   6.625   1.153
 4804SOL     OW15310   4.448   4.970   0.107
 4804SOL    HW115311   4.407   4.880   0.122
 4804SOL    HW215312   4.389   5.024   0.047
 4805SOL     OW15313   6.581   6.883   1.245
 4805SOL    HW115314   6.657   6.888   1.310
 4805SOL    HW215315   6.506   6.832   1.286
 4806SOL     OW15316   0.364   1.894   3.652
 4806SOL    HW115317   0.463   1.893   3.668
 4806SOL    HW215318   0.341   1.825   3.584
 4807SOL     OW15319   1.384   0.194   3.103
 4807SOL    HW115320   1.331   0.254   3.163
 4807SOL    HW215321   1.408   0.111   3.153
 4808SOL     OW15322   6.634   1.673   0.793
 4808SOL    HW115323   6.650   1.769   0.812
 4808SOL    HW215324   6.720   1.623   0.799
 4809SOL     OW15325   4.534   6.644   0.816
 4809SOL    HW115326   4.481   6.574   0.768
 4809SOL    HW215327   4.473   6.717   0.846
 4810SOL     OW15328   2.099   6.654   5.846
 4810SOL    HW115329   2.049   6.604   5.917
 4810SOL    HW215330   2.145   6.733   5.886
 4811SOL     OW15331   4.941   4.377   4.282
 4811SOL    HW115332   4.923   4.313   4.208
 4811SOL    HW215333   5.040   4.390   4.291
 4812SOL     OW15334   6.712   5.023   3.285
 4812SOL    HW115335   6.721   5.119   3.259
 4812SOL    HW215336   6.661   4.973   3.215
 4813SOL     OW15337   5.792   3.562   2.602
 4813SOL    HW115338   5.815   3.515   2.517
 4813SOL    HW215339   5.780   3.660   2.584
 4814SOL     OW15340   0.129   2.973   1.784
 4814SOL    HW115341   0.108   3.064   1.820
 4814SOL    HW215342   0.069   2.905   1.826
 4815SOL     OW15343   4.799   1.012   3.626
 4815SOL    HW115344   4.833   1.055   3.710
 4815SOL    HW215345   4.873   0.961   3.583
 4816SOL     OW15346   6.033   4.225   4.238
 4816SOL    HW115347   6.088   4.142   4.247
 4816SOL    HW215348   6.067   4.279   4.161
 4817SOL     OW15349   5.757   1.576   6.642
 4817SOL    HW115350   5.835   1.514   6.635
 4817SOL    HW215351   5.776   1.644   6.713
 4818SOL     OW15352   0.065   6.266   3.328
 4818SOL    HW115353   0.010   6.182   3.330
 4818SOL    HW215354   0.005   6.345   3.323
 4819SOL     OW15355   0.841   3.219   1.232
 4819SOL    HW115356   0.823   3.243   1.136
 4819SOL    HW215357   0.775   3.150   1.262
 4820SOL     OW15358   6.055   3.200   2.001
 4820SOL    HW115359   6.003   3.118   1.980
 4820SOL    HW215360   6.030   3.234   2.092
 4821SOL     OW15361   0.184   5.651   3.787
 4821SOL    HW115362   0.241   5.603   3.854
 4821SOL    HW215363   0.188   5.749   3.805
 4822SOL     OW15364   2.904   5.597   4.867
 4822SOL    HW115365   2.853   5.638   4.943
 4822SOL    HW215366   2.848   5.601   4.784
 4823SOL     OW15367   1.198   1.959   0.295
 4823SOL    HW115368   1.261   1.887   0.267
 4823SOL    HW215369   1.174   2.015   0.216
 4824SOL     OW15370   6.210   2.336   6.678
 4824SOL    HW115371   6.264   2.370   6.755
 4824SOL    HW215372   6.254   2.256   6.639
 4825SOL     OW15373   1.003   5.674   3.544
 4825SOL    HW115374   1.064   5.687   3.623
 4825SOL    HW215375   1.030   5.736   3.471
 4826SOL     OW15376   4.691   6.533   0.578
 4826SOL    HW115377   4.783   6.495   0.566
 4826SOL    HW215378   4.690   6.596   0.655
 4827SOL     OW15379   5.618   1.129   2.026
 4827SOL    HW115380   5.543   1.121   2.091
 4827SOL    HW215381   5.646   1.224   2.018
 4828SOL     OW15382   5.027   1.216   5.768
 4828SOL    HW115383   4.928   1.225   5.758
 4828SOL    HW215384   5.053   1.235   5.862
 4829SOL     OW15385   4.944   5.590   4.944
 4829SOL    HW115386   4.892   5.549   5.019
 4829SOL    HW215387   4.890   5.588   4.860
 4830SOL     OW15388   1.578   6.240   3.059
 4830SOL    HW115389   1.495   6.248   3.115
 4830SOL    HW215390   1.559   6.180   2.981
 4831SOL     OW15391   2.774   4.171   6.251
 4831SOL    HW115392   2.780   4.155   6.350
 4831SOL    HW215393   2.710   4.246   6.233
 4832SOL     OW15394   3.986   3.236   3.526
 4832SOL    HW115395   4.010   3.197   3.614
 4832SOL    HW215396   4.013   3.332   3.523
 4833SOL     OW15397   5.837   2.453   5.350
 4833SOL    HW115398   5.761   2.404   5.392
 4833SOL    HW215399   5.908   2.470   5.418
 4834SOL     OW15400   1.080   4.411   0.931
 4834SOL    HW115401   1.031   4.344   0.986
 4834SOL    HW215402   1.170   4.374   0.906
 4835SOL     OW15403   0.491   3.427   6.292
 4835SOL    HW115404   0.502   3.328   6.296
 4835SOL    HW215405   0.580   3.471   6.307
 4836SOL     OW15406   3.895   0.404   5.919
 4836SOL    HW115407   3.890   0.441   5.826
 4836SOL    HW215408   3.875   0.477   5.985
 4837SOL     OW15409   1.414   3.440   4.468
 4837SOL    HW115410   1.317   3.462   4.460
 4837SOL    HW215411   1.462   3.516   4.513
 4838SOL     OW15412   1.622   4.434   6.102
 4838SOL    HW115413   1.713   4.441   6.144
 4838SOL    HW215414   1.632   4.429   6.003
 4839SOL     OW15415   2.807   0.913   1.921
 4839SOL    HW115416   2.754   0.888   2.002
 4839SOL    HW215417   2.766   0.994   1.878
 4840SOL     OW15418   5.278   2.277   3.578
 4840SOL    HW115419   5.329   2.239   3.500
 4840SOL    HW215420   5.212   2.344   3.544
 4841SOL     OW15421   2.725   5.032   3.443
 4841SOL    HW115422   2.746   5.021   3.346
 4841SOL    HW215423   2.749   4.949   3.493
 4842SOL     OW15424   3.982   5.217   3.400
 4842SOL    HW115425   3.927   5.296   3.427
 4842SOL    HW215426   3.935   5.133   3.425
 4843SOL     OW15427   5.976   2.511   6.954
 4843SOL    HW115428   6.046   2.555   7.011
 4843SOL    HW215429   5.887   2.517   7.000
 4844SOL     OW15430   0.923   4.770   6.573
 4844SOL    HW115431   0.849   4.759   6.507
 4844SOL    HW215432   0.893   4.736   6.662
 4845SOL     OW15433   5.828   4.274   5.463
 4845SOL    HW115434   5.781   4.347   5.513
 4845SOL    HW215435   5.780   4.256   5.377
 4846SOL     OW15436   6.209   4.017   4.395
 4846SOL    HW115437   6.273   3.941   4.401
 4846SOL    HW215438   6.116   3.984   4.411
 4847SOL     OW15439   2.189   6.817   6.624
 4847SOL    HW115440   2.158   6.796   6.717
 4847SOL    HW215441   2.184   6.734   6.568
 4848SOL     OW15442   4.918   1.521   3.116
 4848SOL    HW115443   4.985   1.521   3.190
 4848SOL    HW215444   4.908   1.613   3.079
 4849SOL     OW15445   1.332   5.376   1.450
 4849SOL    HW115446   1.344   5.432   1.367
 4849SOL    HW215447   1.288   5.431   1.521
 4850SOL     OW15448   3.348   0.142   2.348
 4850SOL    HW115449   3.290   0.193   2.412
 4850SOL    HW215450   3.441   0.178   2.350
 4851SOL     OW15451   4.325   4.812   6.856
 4851SOL    HW115452   4.398   4.792   6.922
 4851SOL    HW215453   4.239   4.823   6.905
 4852SOL     OW15454   4.274   3.938   5.852
 4852SOL    HW115455   4.272   3.958   5.754
 4852SOL    HW215456   4.354   3.881   5.872
 4853SOL     OW15457   4.290   0.289   2.773
 4853SOL    HW115458   4.273   0.241   2.686
 4853SOL    HW215459   4.349   0.233   2.831
 4854SOL     OW15460   3.699   6.683   1.585
 4854SOL    HW115461   3.685   6.588   1.613
 4854SOL    HW215462   3.613   6.733   1.595
 4855SOL     OW15463   4.624   4.934   5.254
 4855SOL    HW115464   4.635   5.005   5.184
 4855SOL    HW215465   4.551   4.872   5.225
 4856SOL     OW15466   0.723   2.770   2.990
 4856SOL    HW115467   0.653   2.805   2.928
 4856SOL    HW215468   0.807   2.823   2.979
 4857SOL     OW15469   2.593   0.997   5.841
 4857SOL    HW115470   2.635   0.952   5.762
 4857SOL    HW215471   2.507   0.951   5.863
 4858SOL     OW15472   2.926   5.213   5.214
 4858SOL    HW115473   3.003   5.267   5.246
 4858SOL    HW215474   2.957   5.147   5.146
 4859SOL     OW15475   6.903   5.469   3.245
 4859SOL    HW115476   6.869   5.481   3.151
 4859SOL    HW215477   6.959   5.548   3.270
 4860SOL     OW15478   4.140   5.269   0.751
 4860SOL    HW115479   4.183   5.269   0.661
 4860SOL    HW215480   4.161   5.183   0.799
 4861SOL     OW15481   5.147   4.651   4.422
 4861SOL    HW115482   5.132   4.714   4.346
 4861SOL    HW215483   5.059   4.616   4.454
 4862SOL     OW15484   1.626   5.123   4.029
 4862SOL    HW115485   1.572   5.206   4.015
 4862SOL    HW215486   1.576   5.062   4.091
 4863SOL     OW15487   5.826   1.524   1.796
 4863SOL    HW115488   5.766   1.538   1.717
 4863SOL    HW215489   5.911   1.481   1.766
 4864SOL     OW15490   2.877   3.079   1.727
 4864SOL    HW115491   2.902   3.132   1.808
 4864SOL    HW215492   2.947   3.092   1.657
 4865SOL     OW15493   3.580   6.852   5.110
 4865SOL    HW115494   3.546   6.882   5.021
 4865SOL    HW215495   3.632   6.768   5.100
 4866SOL     OW15496   1.354   5.100   1.763
 4866SOL    HW115497   1.415   5.021   1.776
 4866SOL    HW215498   1.284   5.076   1.696
 4867SOL     OW15499   5.581   4.309   6.086
 4867SOL    HW115500   5.535   4.223   6.068
 4867SOL    HW215501   5.614   4.348   6.000
 4868SOL     OW15502   1.997   5.876   1.851
 4868SOL    HW115503   2.086   5.908   1.884
 4868SOL    HW215504   1.960   5.808   1.915
 4869SOL     OW15505   0.504   1.833   1.582
 4869SOL    HW115506   0.409   1.854   1.605
 4869SOL    HW215507   0.517   1.840   1.483
 4870SOL     OW15508   5.959   1.355   1.465
 4870SOL    HW115509   5.916   1.272   1.428
 4870SOL    HW215510   5.999   1.334   1.555
 4871SOL     OW15511   1.481   2.149   5.545
 4871SOL    HW115512   1.452   2.230   5.494
 4871SOL    HW215513   1.438   2.150   5.635
 4872SOL     OW15514   2.322   2.658   2.604
 4872SOL    HW115515   2.404   2.656   2.660
 4872SOL    HW215516   2.262   2.733   2.636
 4873SOL     OW15517   1.123   6.596   5.738
 4873SOL    HW115518   1.204   6.544   5.767
 4873SOL    HW215519   1.143   6.694   5.739
 4874SOL     OW15520   6.313   1.767   4.529
 4874SOL    HW115521   6.254   1.846   4.543
 4874SOL    HW215522   6.401   1.798   4.494
 4875SOL     OW15523   0.155   3.273   0.875
 4875SOL    HW115524   0.201   3.302   0.791
 4875SOL    HW215525   0.103   3.189   0.857
 4876SOL     OW15526   6.910   1.434   0.015
 4876SOL    HW115527   6.886   1.337   0.016
 4876SOL    HW215528   6.976   1.451   6.962
 4877SOL     OW15529   4.372   1.980   2.126
 4877SOL    HW115530   4.311   1.906   2.153
 4877SOL    HW215531   4.359   2.059   2.187
 4878SOL     OW15532   1.181   2.542   2.634
 4878SOL    HW115533   1.106   2.486   2.599
 4878SOL    HW215534   1.263   2.526   2.580
 4879SOL     OW15535   3.328   6.607   3.183
 4879SOL    HW115536   3.382   6.629   3.264
 4879SOL    HW215537   3.233   6.635   3.198
 4880SOL     OW15538   0.131   2.525   5.850
 4880SOL    HW115539   0.142   2.428   5.869
 4880SOL    HW215540   0.048   2.540   5.797
 4881SOL     OW15541   3.005   6.200   5.908
 4881SOL    HW115542   2.954   6.171   5.989
 4881SOL    HW215543   2.953   6.177   5.825
 4882SOL     OW15544   5.669   6.252   6.221
 4882SOL    HW115545   5.571   6.266   6.234
 4882SOL    HW215546   5.713   6.338   6.195
 4883SOL     OW15547   6.154   5.932   0.274
 4883SOL    HW115548   6.077   5.879   0.237
 4883SOL    HW215549   6.149   6.025   0.240
 4884SOL     OW15550   4.597   6.332   2.194
 4884SOL    HW115551   4.525   6.278   2.149
 4884SOL    HW215552   4.676   6.339   2.132
 4885SOL     OW15553   1.008   0.002   1.860
 4885SOL    HW115554   1.058   7.015   1.946
 4885SOL    HW215555   0.988   6.931   1.824
 4886SOL     OW15556   6.226   1.259   5.728
 4886SOL    HW115557   6.148   1.320   5.744
 4886SOL    HW215558   6.297   1.308   5.677
 4887SOL     OW15559   0.201   2.758   5.597
 4887SOL    HW115560   0.271   2.687   5.594
 4887SOL    HW215561   0.187   2.796   5.505
 4888SOL     OW15562   4.601   6.017   1.042
 4888SOL    HW115563   4.560   5.927   1.050
 4888SOL    HW215564   4.532   6.083   1.014
 4889SOL     OW15565   1.246   3.407   6.095
 4889SOL    HW115566   1.208   3.376   6.008
 4889SOL    HW215567   1.280   3.329   6.146
 4890SOL     OW15568   6.297   0.354   3.991
 4890SOL    HW115569   6.376   0.344   3.932
 4890SOL    HW215570   6.213   0.337   3.939
 4891SOL     OW15571   0.474   4.978   0.842
 4891SOL    HW115572   0.467   5.035   0.923
 4891SOL    HW215573   0.463   4.882   0.867
 4892SOL     OW15574   1.890   5.568   1.781
 4892SOL    HW115575   1.906   5.469   1.772
 4892SOL    HW215576   1.896   5.594   1.877
 4893SOL     OW15577   6.660   4.440   6.654
 4893SOL    HW115578   6.604   4.487   6.722
 4893SOL    HW215579   6.731   4.387   6.699
 4894SOL     OW15580   0.036   6.662   3.605
 4894SOL    HW115581   0.060   6.709   3.690
 4894SOL    HW215582   0.043   6.726   3.528
 4895SOL     OW15583   6.450   3.507   6.809
 4895SOL    HW115584   6.540   3.491   6.850
 4895SOL    HW215585   6.380   3.461   6.864
 4896SOL     OW15586   4.608   1.047   5.234
 4896SOL    HW115587   4.551   1.127   5.248
 4896SOL    HW215588   4.649   1.051   5.143
 4897SOL     OW15589   2.697   5.998   0.227
 4897SOL    HW115590   2.714   5.947   0.312
 4897SOL    HW215591   2.760   5.966   0.156
 4898SOL     OW15592   4.898   2.830   4.641
 4898SOL    HW115593   4.942   2.742   4.626
 4898SOL    HW215594   4.921   2.892   4.565
 4899SOL     OW15595   0.455   3.128   4.182
 4899SOL    HW115596   0.455   3.124   4.282
 4899SOL    HW215597   0.393   3.200   4.151
 4900SOL     OW15598   0.410   6.660   6.661
 4900SOL    HW115599   0.426   6.689   6.755
 4900SOL    HW215600   0.317   6.683   6.634
 4901SOL     OW15601   6.503   6.658   2.912
 4901SOL    HW115602   6.585   6.674   2.856
 4901SOL    HW215603   6.424   6.643   2.852
 4902SOL     OW15604   3.245   5.787   0.263
 4902SOL    HW115605   3.206   5.810   0.174
 4902SOL    HW215606   3.339   5.822   0.268
 4903SOL     OW15607   5.827   4.545   6.822
 4903SOL    HW115608   5.860   4.452   6.808
 4903SOL    HW215609   5.814   4.590   6.733
 4904SOL     OW15610   2.709   0.736   3.867
 4904SOL    HW115611   2.683   0.663   3.930
 4904SOL    HW215612   2.739   0.696   3.780
 4905SOL     OW15613   6.008   4.387   3.360
 4905SOL    HW115614   6.033   4.484   3.363
 4905SOL    HW215615   5.910   4.377   3.377
 4906SOL     OW15616   5.223   0.328   1.949
 4906SOL    HW115617   5.260   0.304   2.039
 4906SOL    HW215618   5.250   0.420   1.924
 4907SOL     OW15619   3.099   2.668   1.339
 4907SOL    HW115620   3.152   2.686   1.422
 4907SOL    HW215621   3.106   2.571   1.316
 4908SOL     OW15622   5.132   4.352   6.049
 4908SOL    HW115623   5.070   4.383   6.121
 4908SOL    HW215624   5.082   4.295   5.983
 4909SOL     OW15625   6.319   6.690   5.368
 4909SOL    HW115626   6.347   6.676   5.273
 4909SOL    HW215627   6.231   6.738   5.371
 4910SOL     OW15628   5.463   0.092   5.599
 4910SOL    HW115629   5.425   0.029   5.531
 4910SOL    HW215630   5.512   0.166   5.552
 4911SOL     OW15631   6.845   3.561   7.015
 4911SOL    HW115632   6.941   3.553   6.989
 4911SOL    HW215633   6.833   3.641   0.052
 4912SOL     OW15634   1.846   3.280   2.036
 4912SOL    HW115635   1.784   3.356   2.057
 4912SOL    HW215636   1.822   3.202   2.093
 4913SOL     OW15637   2.924   3.666   1.962
 4913SOL    HW115638   2.920   3.574   1.924
 4913SOL    HW215639   2.914   3.733   1.888
 4914SOL     OW15640   1.285   0.001   2.525
 4914SOL    HW115641   1.325   0.091   2.541
 4914SOL    HW215642   1.195   0.012   2.483
 4915SOL     OW15643   4.075   6.657   3.594
 4915SOL    HW115644   4.107   6.565   3.617
 4915SOL    HW215645   4.151   6.721   3.596
 4916SOL     OW15646   1.879   1.700   1.873
 4916SOL    HW115647   1.951   1.644   1.830
 4916SOL    HW215648   1.920   1.778   1.918
 4917SOL     OW15649   0.667   5.948   6.512
 4917SOL    HW115650   0.723   6.029   6.529
 4917SOL    HW215651   0.706   5.896   6.436
 4918SOL     OW15652   2.314   6.481   3.980
 4918SOL    HW115653   2.278   6.426   3.904
 4918SOL    HW215654   2.242   6.544   4.011
 4919SOL     OW15655   2.257   2.782   1.449
 4919SOL    HW115656   2.208   2.838   1.516
 4919SOL    HW215657   2.192   2.731   1.393
 4920SOL     OW15658   3.759   2.285   6.077
 4920SOL    HW115659   3.724   2.359   6.135
 4920SOL    HW215660   3.700   2.205   6.087
 4921SOL     OW15661   6.671   4.348   1.848
 4921SOL    HW115662   6.738   4.422   1.844
 4921SOL    HW215663   6.599   4.372   1.913
 4922SOL     OW15664   1.249   3.623   5.846
 4922SOL    HW115665   1.229   3.607   5.749
 4922SOL    HW215666   1.265   3.535   5.891
 4923SOL     OW15667   3.936   2.144   7.005
 4923SOL    HW115668   3.974   2.180   6.920
 4923SOL    HW215669   3.967   2.050   7.018
 4924SOL     OW15670   0.923   3.145   4.521
 4924SOL    HW115671   0.928   3.125   4.423
 4924SOL    HW215672   0.831   3.176   4.544
 4925SOL     OW15673   4.747   4.844   4.881
 4925SOL    HW115674   4.758   4.776   4.953
 4925SOL    HW215675   4.806   4.923   4.900
 4926SOL     OW15676   4.076   3.743   0.717
 4926SOL    HW115677   4.148   3.787   0.664
 4926SOL    HW215678   4.111   3.717   0.807
 4927SOL     OW15679   2.883   3.250   2.185
 4927SOL    HW115680   2.850   3.156   2.184
 4927SOL    HW215681   2.865   3.292   2.096
 4928SOL     OW15682   6.647   1.943   5.899
 4928SOL    HW115683   6.595   1.867   5.860
 4928SOL    HW215684   6.585   2.019   5.920
 4929SOL     OW15685   1.023   4.318   4.082
 4929SOL    HW115686   1.100   4.379   4.062
 4929SOL    HW215687   1.058   4.226   4.104
 4930SOL     OW15688   0.992   3.270   0.357
 4930SOL    HW115689   0.931   3.286   0.434
 4930SOL    HW215690   0.969   3.333   0.283
 4931SOL     OW15691   5.508   6.513   0.850
 4931SOL    HW115692   5.574   6.439   0.861
 4931SOL    HW215693   5.522   6.557   0.762
 4932SOL     OW15694   3.187   1.993   0.898
 4932SOL    HW115695   3.192   1.996   0.798
 4932SOL    HW215696   3.121   1.923   0.926
 4933SOL     OW15697   2.281   7.012   4.839
 4933SOL    HW115698   2.237   6.998   4.751
 4933SOL    HW215699   2.259   0.083   4.873
 4934SOL     OW15700   1.921   6.401   5.883
 4934SOL    HW115701   1.832   6.412   5.927
 4934SOL    HW215702   1.978   6.340   5.938
 4935SOL     OW15703   1.155   2.854   1.313
 4935SOL    HW115704   1.122   2.773   1.361
 4935SOL    HW215705   1.226   2.828   1.248
 4936SOL     OW15706   6.738   3.843   1.468
 4936SOL    HW115707   6.799   3.789   1.410
 4936SOL    HW215708   6.784   3.862   1.555
 4937SOL     OW15709   0.904   3.575   5.404
 4937SOL    HW115710   0.937   3.527   5.485
 4937SOL    HW215711   0.870   3.666   5.430
 4938SOL     OW15712   2.991   3.782   1.092
 4938SOL    HW115713   3.016   3.712   1.026
 4938SOL    HW215714   2.917   3.748   1.150
 4939SOL     OW15715   1.154   1.611   1.722
 4939SOL    HW115716   1.250   1.586   1.711
 4939SOL    HW215717   1.099   1.561   1.655
 4940SOL     OW15718   1.840   1.432   5.290
 4940SOL    HW115719   1.799   1.523   5.289
 4940SOL    HW215720   1.852   1.403   5.385
 4941SOL     OW15721   3.207   1.862   6.150
 4941SOL    HW115722   3.240   1.950   6.115
 4941SOL    HW215723   3.284   1.800   6.161
 4942SOL     OW15724   0.303   0.901   2.522
 4942SOL    HW115725   0.297   0.801   2.518
 4942SOL    HW215726   0.397   0.928   2.542
 4943SOL     OW15727   5.149   2.166   6.817
 4943SOL    HW115728   5.169   2.170   6.719
 4943SOL    HW215729   5.201   2.237   6.865
 4944SOL     OW15730   0.852   4.546   0.490
 4944SOL    HW115731   0.917   4.558   0.566
 4944SOL    HW215732   0.763   4.583   0.515
 4945SOL     OW15733   2.525   0.642   6.456
 4945SOL    HW115734   2.603   0.595   6.498
 4945SOL    HW215735   2.558   0.713   6.394
 4946SOL     OW15736   1.869   5.763   0.037
 4946SOL    HW115737   1.883   5.781   0.135
 4946SOL    HW215738   1.910   5.836   7.004
 4947SOL     OW15739   1.301   0.181   1.311
 4947SOL    HW115740   1.269   0.182   1.216
 4947SOL    HW215741   1.377   0.246   1.321
 4948SOL     OW15742   1.664   3.478   2.038
 4948SOL    HW115743   1.571   3.511   2.024
 4948SOL    HW215744   1.728   3.552   2.021
 4949SOL     OW15745   6.179   4.847   7.017
 4949SOL    HW115746   6.222   4.865   0.085
 4949SOL    HW215747   6.244   4.866   6.944
 4950SOL     OW15748   4.116   3.679   5.757
 4950SOL    HW115749   4.196   3.739   5.759
 4950SOL    HW215750   4.107   3.640   5.665
 4951SOL     OW15751   4.514   5.427   3.330
 4951SOL    HW115752   4.530   5.520   3.363
 4951SOL    HW215753   4.417   5.405   3.338
 4952SOL     OW15754   0.862   0.739   6.381
 4952SOL    HW115755   0.872   0.653   6.431
 4952SOL    HW215756   0.765   0.762   6.373
 4953SOL     OW15757   0.770   1.381   6.099
 4953SOL    HW115758   0.726   1.335   6.176
 4953SOL    HW215759   0.717   1.461   6.073
 4954SOL     OW15760   3.390   3.449   5.813
 4954SOL    HW115761   3.418   3.364   5.857
 4954SOL    HW215762   3.470   3.510   5.804
 4955SOL     OW15763   3.942   6.065   6.916
 4955SOL    HW115764   3.902   6.090   7.004
 4955SOL    HW215765   4.023   6.009   6.931
 4956SOL     OW15766   2.528   0.270   4.014
 4956SOL    HW115767   2.495   0.301   4.104
 4956SOL    HW215768   2.531   0.348   3.952
 4957SOL     OW15769   5.905   5.578   0.203
 4957SOL    HW115770   5.921   5.512   0.130
 4957SOL    HW215771   5.873   5.531   0.285
 4958SOL     OW15772   3.108   5.118   0.908
 4958SOL    HW115773   3.031   5.064   0.875
 4958SOL    HW215774   3.166   5.062   0.967
 4959SOL     OW15775   2.261   1.436   2.361
 4959SOL    HW115776   2.306   1.523   2.343
 4959SOL    HW215777   2.221   1.437   2.453
 4960SOL     OW15778   5.398   3.904   4.751
 4960SOL    HW115779   5.314   3.860   4.784
 4960SOL    HW215780   5.376   3.994   4.713
 4961SOL     OW15781   4.092   3.377   2.543
 4961SOL    HW115782   3.995   3.356   2.549
 4961SOL    HW215783   4.126   3.409   2.631
 4962SOL     OW15784   1.617   2.803   0.625
 4962SOL    HW115785   1.663   2.891   0.640
 4962SOL    HW215786   1.527   2.804   0.669
 4963SOL     OW15787   0.430   3.907   6.514
 4963SOL    HW115788   0.376   3.833   6.475
 4963SOL    HW215789   0.381   3.994   6.505
 4964SOL     OW15790   1.269   5.219   3.648
 4964SOL    HW115791   1.202   5.287   3.618
 4964SOL    HW215792   1.291   5.235   3.745
 4965SOL     OW15793   2.520   0.042   2.859
 4965SOL    HW115794   2.465   0.123   2.837
 4965SOL    HW215795   2.497   0.010   2.951
 4966SOL     OW15796   4.060   6.887   5.634
 4966SOL    HW115797   4.026   6.817   5.572
 4966SOL    HW215798   4.150   6.918   5.604
 4967SOL     OW15799   4.620   4.685   2.960
 4967SOL    HW115800   4.549   4.615   2.974
 4967SOL    HW215801   4.581   4.775   2.976
 4968SOL     OW15802   6.524   2.980   3.265
 4968SOL    HW115803   6.538   2.899   3.207
 4968SOL    HW215804   6.428   2.988   3.289
 4969SOL     OW15805   1.547   5.567   4.192
 4969SOL    HW115806   1.454   5.603   4.195
 4969SOL    HW215807   1.547   5.476   4.149
 4970SOL     OW15808   2.576   0.678   0.857
 4970SOL    HW115809   2.554   0.663   0.761
 4970SOL    HW215810   2.563   0.592   0.908
 4971SOL     OW15811   0.512   6.270   2.292
 4971SOL    HW115812   0.475   6.357   2.324
 4971SOL    HW215813   0.536   6.213   2.370
 4972SOL     OW15814   0.346   3.544   0.983
 4972SOL    HW115815   0.295   3.584   0.907
 4972SOL    HW215816   0.282   3.508   1.051
 4973SOL     OW15817   5.293   2.471   0.126
 4973SOL    HW115818   5.260   2.542   0.188
 4973SOL    HW215819   5.336   2.398   0.178
 4974SOL     OW15820   3.189   0.386   5.412
 4974SOL    HW115821   3.195   0.362   5.509
 4974SOL    HW215822   3.136   0.469   5.401
 4975SOL     OW15823   5.910   4.106   0.905
 4975SOL    HW115824   5.855   4.115   0.822
 4975SOL    HW215825   5.873   4.166   0.976
 4976SOL     OW15826   1.866   0.247   4.131
 4976SOL    HW115827   1.767   0.262   4.126
 4976SOL    HW215828   1.913   0.314   4.074
 4977SOL     OW15829   1.181   3.620   4.488
 4977SOL    HW115830   1.105   3.593   4.428
 4977SOL    HW215831   1.235   3.691   4.443
 4978SOL     OW15832   6.659   5.471   4.532
 4978SOL    HW115833   6.634   5.540   4.464
 4978SOL    HW215834   6.699   5.516   4.612
 4979SOL     OW15835   3.389   6.458   6.044
 4979SOL    HW115836   3.390   6.416   5.953
 4979SOL    HW215837   3.450   6.537   6.045
 4980SOL     OW15838   5.453   2.887   4.166
 4980SOL    HW115839   5.531   2.913   4.109
 4980SOL    HW215840   5.454   2.941   4.250
 4981SOL     OW15841   3.203   0.062   3.004
 4981SOL    HW115842   3.246   6.994   3.018
 4981SOL    HW215843   3.133   0.055   2.933
 4982SOL     OW15844   3.763   1.865   4.954
 4982SOL    HW115845   3.669   1.884   4.925
 4982SOL    HW215846   3.827   1.913   4.893
 4983SOL     OW15847   5.248   3.898   3.285
 4983SOL    HW115848   5.171   3.937   3.234
 4983SOL    HW215849   5.329   3.896   3.226
 4984SOL     OW15850   4.991   3.571   5.269
 4984SOL    HW115851   5.026   3.664   5.270
 4984SOL    HW215852   4.905   3.568   5.218
 4985SOL     OW15853   4.793   0.188   2.436
 4985SOL    HW115854   4.856   0.265   2.435
 4985SOL    HW215855   4.772   0.160   2.342
 4986SOL     OW15856   1.320   5.512   1.205
 4986SOL    HW115857   1.334   5.585   1.138
 4986SOL    HW215858   1.316   5.424   1.157
 4987SOL     OW15859   2.084   4.172   2.008
 4987SOL    HW115860   2.014   4.100   2.010
 4987SOL    HW215861   2.045   4.256   1.970
 4988SOL     OW15862   6.343   4.793   4.032
 4988SOL    HW115863   6.397   4.786   4.116
 4988SOL    HW215864   6.301   4.704   4.012
 4989SOL     OW15865   6.841   0.264   4.320
 4989SOL    HW115866   6.834   0.362   4.301
 4989SOL    HW215867   6.831   0.248   4.418
 4990SOL     OW15868   4.480   1.880   5.970
 4990SOL    HW115869   4.385   1.864   5.995
 4990SOL    HW215870   4.489   1.879   5.870
 4991SOL     OW15871   2.336   5.151   5.340
 4991SOL    HW115872   2.272   5.181   5.411
 4991SOL    HW215873   2.306   5.064   5.303
 4992SOL     OW15874   2.954   2.677   5.393
 4992SOL    HW115875   2.940   2.579   5.376
 4992SOL    HW215876   2.869   2.726   5.371
 4993SOL     OW15877   2.234   5.287   3.809
 4993SOL    HW115878   2.321   5.332   3.834
 4993SOL    HW215879   2.253   5.207   3.752
 4994SOL     OW15880   3.196   4.931   5.854
 4994SOL    HW115881   3.287   4.894   5.838
 4994SOL    HW215882   3.200   5.001   5.926
 4995SOL     OW15883   0.343   2.254   6.215
 4995SOL    HW115884   0.350   2.230   6.312
 4995SOL    HW215885   0.435   2.267   6.177
 4996SOL     OW15886   0.179   0.919   4.794
 4996SOL    HW115887   0.268   0.891   4.831
 4996SOL    HW215888   0.112   0.921   4.868
 4997SOL     OW15889   3.661   1.813   0.994
 4997SOL    HW115890   3.568   1.777   0.990
 4997SOL    HW215891   3.723   1.741   1.025
 4998SOL     OW15892   1.037   3.904   3.242
 4998SOL    HW115893   0.944   3.882   3.271
 4998SOL    HW215894   1.102   3.866   3.307
 4999SOL     OW15895   0.001   3.001   3.174
 4999SOL    HW115896   6.965   2.971   3.251
 4999SOL    HW215897   6.975   3.074   3.125
 5000SOL     OW15898   2.903   6.403   2.881
 5000SOL    HW115899   2.857   6.488   2.852
 5000SOL    HW215900   2.893   6.334   2.810
 5001SOL     OW15901   0.200   6.044   2.915
 5001SOL    HW115902   0.177   6.138   2.941
 5001SOL    HW215903   0.291   6.042   2.874
 5002SOL     OW15904   1.448   5.322   4.014
 5002SOL    HW115905   1.434   5.403   3.958
 5002SOL    HW215906   1.369   5.309   4.075
 5003SOL     OW15907   3.952   1.269   1.276
 5003SOL    HW115908   3.861   1.288   1.239
 5003SOL    HW215909   3.953   1.290   1.374
 5004SOL     OW15910   3.721   6.046   0.220
 5004SOL    HW115911   3.810   6.061   0.264
 5004SOL    HW215912   3.678   6.135   0.201
 5005SOL     OW15913   4.438   3.184   0.933
 5005SOL    HW115914   4.400   3.222   0.849
 5005SOL    HW215915   4.400   3.232   1.012
 5006SOL     OW15916   4.633   0.754   2.714
 5006SOL    HW115917   4.578   0.812   2.775
 5006SOL    HW215918   4.726   0.789   2.710
 5007SOL     OW15919   6.753   5.384   2.992
 5007SOL    HW115920   6.743   5.428   2.903
 5007SOL    HW215921   6.665   5.347   3.021
 5008SOL     OW15922   4.529   0.402   3.801
 5008SOL    HW115923   4.617   0.439   3.829
 5008SOL    HW215924   4.465   0.403   3.878
 5009SOL     OW15925   0.630   1.778   6.260
 5009SOL    HW115926   0.575   1.820   6.332
 5009SOL    HW215927   0.717   1.827   6.252
 5010SOL     OW15928   5.396   4.649   0.961
 5010SOL    HW115929   5.407   4.697   1.048
 5010SOL    HW215930   5.463   4.576   0.954
 5011SOL     OW15931   1.724   2.039   5.432
 5011SOL    HW115932   1.803   2.093   5.405
 5011SOL    HW215933   1.652   2.099   5.467
 5012SOL     OW15934   5.725   2.712   5.501
 5012SOL    HW115935   5.805   2.670   5.543
 5012SOL    HW215936   5.726   2.811   5.516
 5013SOL     OW15937   6.295   5.642   5.744
 5013SOL    HW115938   6.196   5.655   5.751
 5013SOL    HW215939   6.317   5.545   5.752
 5014SOL     OW15940   6.041   2.989   0.403
 5014SOL    HW115941   6.136   2.983   0.434
 5014SOL    HW215942   6.013   2.902   0.364
 5015SOL     OW15943   6.422   5.082   4.221
 5015SOL    HW115944   6.472   5.164   4.249
 5015SOL    HW215945   6.463   5.044   4.138
 5016SOL     OW15946   1.152   1.739   6.526
 5016SOL    HW115947   1.153   1.830   6.484
 5016SOL    HW215948   1.218   1.680   6.480
 5017SOL     OW15949   1.105   2.981   1.928
 5017SOL    HW115950   1.031   2.976   1.860
 5017SOL    HW215951   1.154   2.894   1.930
 5018SOL     OW15952   0.405   0.602   0.455
 5018SOL    HW115953   0.330   0.660   0.487
 5018SOL    HW215954   0.462   0.653   0.391
 5019SOL     OW15955   2.102   4.172   3.874
 5019SOL    HW115956   2.164   4.164   3.952
 5019SOL    HW215957   2.009   4.191   3.907
 5020SOL     OW15958   1.651   7.000   2.759
 5020SOL    HW115959   1.649   0.031   2.673
 5020SOL    HW215960   1.735   0.001   2.809
 5021SOL     OW15961   2.462   0.436   1.390
 5021SOL    HW115962   2.537   0.473   1.445
 5021SOL    HW215963   2.377   0.479   1.417
 5022SOL     OW15964   0.090   3.275   1.786
 5022SOL    HW115965   0.164   3.343   1.789
 5022SOL    HW215966   0.080   3.242   1.692
 5023SOL     OW15967   0.733   2.290   3.120
 5023SOL    HW115968   0.739   2.230   3.200
 5023SOL    HW215969   0.648   2.342   3.125
 5024SOL     OW15970   4.085   4.096   0.195
 5024SOL    HW115971   4.026   4.174   0.179
 5024SOL    HW215972   4.173   4.110   0.149
 5025SOL     OW15973   4.715   2.152   4.487
 5025SOL    HW115974   4.616   2.136   4.484
 5025SOL    HW215975   4.759   2.081   4.541
 5026SOL     OW15976   5.320   5.948   4.781
 5026SOL    HW115977   5.322   5.848   4.785
 5026SOL    HW215978   5.369   5.985   4.860
 5027SOL     OW15979   5.563   6.302   1.413
 5027SOL    HW115980   5.545   6.400   1.420
 5027SOL    HW215981   5.652   6.288   1.371
 5028SOL     OW15982   0.123   2.100   2.504
 5028SOL    HW115983   0.196   2.066   2.445
 5028SOL    HW215984   0.105   2.034   2.576
 5029SOL     OW15985   5.907   2.790   2.866
 5029SOL    HW115986   5.969   2.813   2.791
 5029SOL    HW215987   5.858   2.872   2.895
 5030SOL     OW15988   0.789   3.142   0.775
 5030SOL    HW115989   0.869   3.085   0.798
 5030SOL    HW215990   0.715   3.122   0.839
 5031SOL     OW15991   6.034   0.566   6.298
 5031SOL    HW115992   6.087   0.536   6.219
 5031SOL    HW215993   5.943   0.524   6.295
 5032SOL     OW15994   2.270   4.855   6.615
 5032SOL    HW115995   2.334   4.778   6.618
 5032SOL    HW215996   2.216   4.857   6.699
 5033SOL     OW15997   2.101   6.838   3.998
 5033SOL    HW115998   2.048   6.919   3.973
 5033SOL    HW215999   2.125   6.842   4.095
 5034SOL     OW16000   4.318   6.227   3.409
 5034SOL    HW116001   4.410   6.215   3.373
 5034SOL    HW216002   4.292   6.146   3.462
 5035SOL     OW16003   1.696   3.881   4.088
 5035SOL    HW116004   1.659   3.942   4.158
 5035SOL    HW216005   1.679   3.786   4.114
 5036SOL     OW16006   1.476   2.952   4.664
 5036SOL    HW116007   1.573   2.933   4.679
 5036SOL    HW216008   1.466   3.022   4.593
 5037SOL     OW16009   5.454   4.783   1.169
 5037SOL    HW116010   5.453   4.860   1.232
 5037SOL    HW216011   5.537   4.787   1.112
 5038SOL     OW16012   3.321   3.619   4.708
 5038SOL    HW116013   3.238   3.674   4.705
 5038SOL    HW216014   3.352   3.601   4.615
 5039SOL     OW16015   0.175   3.043   6.657
 5039SOL    HW116016   0.265   3.020   6.694
 5039SOL    HW216017   0.159   3.141   6.669
 5040SOL     OW16018   0.860   1.495   5.082
 5040SOL    HW116019   0.922   1.502   5.004
 5040SOL    HW216020   0.771   1.462   5.050
 5041SOL     OW16021   6.724   2.397   1.229
 5041SOL    HW116022   6.658   2.347   1.286
 5041SOL    HW216023   6.715   2.495   1.246
 5042SOL     OW16024   0.944   1.505   5.514
 5042SOL    HW116025   0.965   1.563   5.436
 5042SOL    HW216026   0.915   1.415   5.482
 5043SOL     OW16027   2.619   0.139   1.663
 5043SOL    HW116028   2.665   0.050   1.667
 5043SOL    HW216029   2.592   0.158   1.569
 5044SOL     OW16030   6.942   6.067   1.124
 5044SOL    HW116031   7.004   6.020   1.061
 5044SOL    HW216032   6.957   6.034   1.216
 5045SOL     OW16033   5.875   2.663   2.141
 5045SOL    HW116034   5.780   2.666   2.110
 5045SOL    HW216035   5.877   2.644   2.239
 5046SOL     OW16036   4.155   3.137   1.768
 5046SOL    HW116037   4.137   3.215   1.828
 5046SOL    HW216038   4.095   3.142   1.687
 5047SOL     OW16039   2.307   4.359   3.730
 5047SOL    HW116040   2.227   4.304   3.755
 5047SOL    HW216041   2.355   4.387   3.813
 5048SOL     OW16042   1.573   6.674   6.039
 5048SOL    HW116043   1.552   6.760   5.993
 5048SOL    HW216044   1.629   6.617   5.979
 5049SOL     OW16045   3.841   1.753   6.463
 5049SOL    HW116046   3.874   1.659   6.455
 5049SOL    HW216047   3.881   1.796   6.544
 5050SOL     OW16048   0.921   0.025   1.264
 5050SOL    HW116049   0.926   0.089   1.187
 5050SOL    HW216050   0.974   6.964   1.244
 5051SOL     OW16051   4.297   4.170   0.967
 5051SOL    HW116052   4.229   4.191   1.038
 5051SOL    HW216053   4.386   4.154   1.009
 5052SOL     OW16054   1.952   3.738   4.386
 5052SOL    HW116055   1.993   3.657   4.343
 5052SOL    HW216056   1.858   3.717   4.413
 5053SOL     OW16057   6.854   0.523   0.334
 5053SOL    HW116058   6.856   0.507   0.236
 5053SOL    HW216059   6.779   0.585   0.357
 5054SOL     OW16060   4.105   5.477   2.916
 5054SOL    HW116061   4.140   5.467   2.823
 5054SOL    HW216062   4.007   5.495   2.914
 5055SOL     OW16063   6.170   4.283   5.700
 5055SOL    HW116064   6.254   4.315   5.746
 5055SOL    HW216065   6.140   4.197   5.741
 5056SOL     OW16066   6.568   4.903   3.100
 5056SOL    HW116067   6.499   4.952   3.046
 5056SOL    HW216068   6.522   4.834   3.157
 5057SOL     OW16069   6.654   6.490   2.647
 5057SOL    HW116070   6.737   6.444   2.680
 5057SOL    HW216071   6.662   6.588   2.664
 5058SOL     OW16072   2.965   5.669   5.712
 5058SOL    HW116073   2.945   5.751   5.765
 5058SOL    HW216074   2.952   5.588   5.770
 5059SOL     OW16075   6.527   6.668   2.470
 5059SOL    HW116076   6.543   6.595   2.536
 5059SOL    HW216077   6.486   6.747   2.515
 5060SOL     OW16078   6.940   3.186   0.339
 5060SOL    HW116079   0.004   3.134   0.349
 5060SOL    HW216080   6.941   3.235   0.252
 5061SOL     OW16081   5.611   3.254   0.809
 5061SOL    HW116082   5.589   3.299   0.722
 5061SOL    HW216083   5.528   3.247   0.864
 5062SOL     OW16084   6.779   0.237   0.043
 5062SOL    HW116085   6.690   0.242   7.019
 5062SOL    HW216086   6.822   0.327   0.042
 5063SOL     OW16087   1.115   6.485   2.564
 5063SOL    HW116088   1.094   6.575   2.525
 5063SOL    HW216089   1.036   6.425   2.553
 5064SOL     OW16090   5.339   4.214   6.824
 5064SOL    HW116091   5.314   4.167   6.740
 5064SOL    HW216092   5.257   4.248   6.869
 5065SOL     OW16093   1.992   6.975   5.964
 5065SOL    HW116094   1.987   7.010   6.057
 5065SOL    HW216095   1.955   6.882   5.961
 5066SOL     OW16096   5.018   4.457   0.502
 5066SOL    HW116097   5.098   4.500   0.459
 5066SOL    HW216098   5.024   4.469   0.602
 5067SOL     OW16099   5.132   0.838   6.561
 5067SOL    HW116100   5.131   0.937   6.578
 5067SOL    HW216101   5.214   0.814   6.509
 5068SOL     OW16102   3.042   4.935   1.322
 5068SOL    HW116103   2.993   4.853   1.292
 5068SOL    HW216104   3.057   4.930   1.421
 5069SOL     OW16105   0.188   5.550   3.150
 5069SOL    HW116106   0.099   5.596   3.155
 5069SOL    HW216107   0.190   5.473   3.214
 5070SOL     OW16108   5.240   2.487   3.202
 5070SOL    HW116109   5.147   2.502   3.236
 5070SOL    HW216110   5.271   2.568   3.153
 5071SOL     OW16111   4.842   0.787   1.621
 5071SOL    HW116112   4.874   0.727   1.693
 5071SOL    HW216113   4.842   0.882   1.653
 5072SOL     OW16114   0.857   4.142   2.289
 5072SOL    HW116115   0.828   4.048   2.307
 5072SOL    HW216116   0.938   4.142   2.231
 5073SOL     OW16117   4.425   2.185   3.256
 5073SOL    HW116118   4.498   2.185   3.324
 5073SOL    HW216119   4.430   2.270   3.203
 5074SOL     OW16120   4.133   3.623   4.955
 5074SOL    HW116121   4.213   3.563   4.958
 5074SOL    HW216122   4.157   3.711   4.996
 5075SOL     OW16123   6.539   0.270   4.267
 5075SOL    HW116124   6.520   0.368   4.260
 5075SOL    HW216125   6.634   0.253   4.239
 5076SOL     OW16126   5.430   0.426   0.266
 5076SOL    HW116127   5.343   0.388   0.233
 5076SOL    HW216128   5.412   0.507   0.322
 5077SOL     OW16129   0.278   1.327   2.840
 5077SOL    HW116130   0.238   1.239   2.865
 5077SOL    HW216131   0.375   1.313   2.818
 5078SOL     OW16132   0.303   1.925   4.427
 5078SOL    HW116133   0.228   1.914   4.492
 5078SOL    HW216134   0.267   1.924   4.334
 5079SOL     OW16135   4.949   5.032   4.865
 5079SOL    HW116136   5.016   5.094   4.904
 5079SOL    HW216137   4.880   5.085   4.814
 5080SOL     OW16138   4.765   0.650   5.745
 5080SOL    HW116139   4.785   0.735   5.697
 5080SOL    HW216140   4.735   0.669   5.838
 5081SOL     OW16141   3.178   3.455   3.274
 5081SOL    HW116142   3.185   3.423   3.179
 5081SOL    HW216143   3.214   3.384   3.335
 5082SOL     OW16144   0.789   2.281   5.263
 5082SOL    HW116145   0.887   2.288   5.243
 5082SOL    HW216146   0.738   2.275   5.177
 5083SOL     OW16147   1.105   3.799   2.312
 5083SOL    HW116148   1.114   3.831   2.218
 5083SOL    HW216149   1.125   3.701   2.317
 5084SOL     OW16150   1.629   5.808   2.652
 5084SOL    HW116151   1.571   5.767   2.581
 5084SOL    HW216152   1.693   5.872   2.609
 5085SOL     OW16153   6.402   3.239   0.886
 5085SOL    HW116154   6.340   3.314   0.863
 5085SOL    HW216155   6.378   3.159   0.832
 5086SOL     OW16156   6.448   4.971   4.730
 5086SOL    HW116157   6.415   4.946   4.821
 5086SOL    HW216158   6.371   5.003   4.675
 5087SOL     OW16159   5.376   5.354   5.806
 5087SOL    HW116160   5.422   5.279   5.759
 5087SOL    HW216161   5.328   5.411   5.739
 5088SOL     OW16162   5.681   1.113   6.730
 5088SOL    HW116163   5.725   1.026   6.754
 5088SOL    HW216164   5.610   1.097   6.662
 5089SOL     OW16165   5.426   3.030   4.430
 5089SOL    HW116166   5.419   3.073   4.519
 5089SOL    HW216167   5.495   3.078   4.375
 5090SOL     OW16168   0.998   4.392   6.881
 5090SOL    HW116169   0.925   4.390   6.812
 5090SOL    HW216170   0.965   4.354   6.967
 5091SOL     OW16171   0.768   6.000   3.940
 5091SOL    HW116172   0.801   5.956   3.856
 5091SOL    HW216173   0.839   6.058   3.978
 5092SOL     OW16174   3.610   2.969   0.685
 5092SOL    HW116175   3.601   3.008   0.594
 5092SOL    HW216176   3.565   2.879   0.687
 5093SOL     OW16177   0.937   1.070   2.492
 5093SOL    HW116178   0.891   0.986   2.519
 5093SOL    HW216179   0.946   1.130   2.571
 5094SOL     OW16180   0.776   0.402   6.175
 5094SOL    HW116181   0.821   0.314   6.161
 5094SOL    HW216182   0.822   0.472   6.120
 5095SOL     OW16183   3.355   6.057   5.188
 5095SOL    HW116184   3.365   5.960   5.212
 5095SOL    HW216185   3.258   6.080   5.180
 5096SOL     OW16186   3.521   5.778   1.980
 5096SOL    HW116187   3.510   5.842   2.057
 5096SOL    HW216188   3.454   5.800   1.909
 5097SOL     OW16189   0.441   2.412   6.852
 5097SOL    HW116190   0.445   2.428   6.950
 5097SOL    HW216191   0.531   2.431   6.811
 5098SOL     OW16192   1.320   2.547   2.893
 5098SOL    HW116193   1.279   2.578   2.808
 5098SOL    HW216194   1.371   2.462   2.878
 5099SOL     OW16195   1.013   1.585   4.420
 5099SOL    HW116196   0.967   1.578   4.509
 5099SOL    HW216197   0.992   1.505   4.365
 5100SOL     OW16198   4.899   4.662   5.593
 5100SOL    HW116199   4.858   4.598   5.658
 5100SOL    HW216200   4.900   4.622   5.501
 5101SOL     OW16201   5.430   6.208   0.358
 5101SOL    HW116202   5.458   6.280   0.422
 5101SOL    HW216203   5.344   6.233   0.315
 5102SOL     OW16204   3.903   6.094   3.657
 5102SOL    HW116205   3.828   6.045   3.614
 5102SOL    HW216206   3.874   6.187   3.680
 5103SOL     OW16207   1.713   2.028   3.600
 5103SOL    HW116208   1.678   1.983   3.682
 5103SOL    HW216209   1.813   2.039   3.608
 5104SOL     OW16210   0.805   0.674   0.748
 5104SOL    HW116211   0.734   0.608   0.724
 5104SOL    HW216212   0.877   0.629   0.802
 5105SOL     OW16213   1.495   3.375   0.521
 5105SOL    HW116214   1.479   3.319   0.440
 5105SOL    HW216215   1.555   3.451   0.497
 5106SOL     OW16216   2.232   6.916   2.304
 5106SOL    HW116217   2.162   6.847   2.317
 5106SOL    HW216218   2.198   6.987   2.242
 5107SOL     OW16219   1.583   6.956   5.936
 5107SOL    HW116220   1.505   6.983   5.991
 5107SOL    HW216221   1.576   6.998   5.845
 5108SOL     OW16222   3.690   3.793   4.538
 5108SOL    HW116223   3.731   3.743   4.614
 5108SOL    HW216224   3.731   3.884   4.532
 5109SOL     OW16225   0.787   2.236   2.208
 5109SOL    HW116226   0.778   2.336   2.211
 5109SOL    HW216227   0.720   2.199   2.144
 5110SOL     OW16228   1.207   5.633   5.459
 5110SOL    HW116229   1.155   5.701   5.511
 5110SOL    HW216230   1.150   5.597   5.385
 5111SOL     OW16231   1.078   0.918   6.384
 5111SOL    HW116232   1.028   0.831   6.389
 5111SOL    HW216233   1.102   0.937   6.289
 5112SOL     OW16234   0.585   0.014   3.296
 5112SOL    HW116235   0.630   6.971   3.358
 5112SOL    HW216236   0.645   0.035   3.219
 5113SOL     OW16237   0.259   1.895   6.427
 5113SOL    HW116238   0.198   1.891   6.348
 5113SOL    HW216239   0.213   1.938   6.504
 5114SOL     OW16240   5.019   5.519   6.365
 5114SOL    HW116241   4.963   5.452   6.317
 5114SOL    HW216242   5.099   5.542   6.310
 5115SOL     OW16243   2.575   3.868   5.313
 5115SOL    HW116244   2.522   3.795   5.356
 5115SOL    HW216245   2.514   3.931   5.265
 5116SOL     OW16246   6.549   3.788   1.709
 5116SOL    HW116247   6.451   3.791   1.731
 5116SOL    HW216248   6.561   3.763   1.613
 5117SOL     OW16249   2.424   5.654   2.447
 5117SOL    HW116250   2.433   5.752   2.434
 5117SOL    HW216251   2.354   5.635   2.516
 5118SOL     OW16252   4.198   6.912   1.780
 5118SOL    HW116253   4.132   6.853   1.734
 5118SOL    HW216254   4.180   7.008   1.755
 5119SOL     OW16255   6.567   1.158   3.136
 5119SOL    HW116256   6.507   1.142   3.058
 5119SOL    HW216257   6.591   1.071   3.178
 5120SOL     OW16258   3.715   1.292   1.154
 5120SOL    HW116259   3.685   1.206   1.112
 5120SOL    HW216260   3.636   1.349   1.176
 5121SOL     OW16261   0.706   3.714   4.316
 5121SOL    HW116262   0.754   3.724   4.403
 5121SOL    HW216263   0.621   3.767   4.319
 5122SOL     OW16264   2.784   5.754   2.793
 5122SOL    HW116265   2.760   5.684   2.860
 5122SOL    HW216266   2.748   5.842   2.824
 5123SOL     OW16267   6.408   3.187   2.044
 5123SOL    HW116268   6.409   3.150   1.951
 5123SOL    HW216269   6.351   3.129   2.102
 5124SOL     OW16270   3.641   6.903   6.888
 5124SOL    HW116271   3.554   6.911   6.840
 5124SOL    HW216272   3.633   6.946   6.979
 5125SOL     OW16273   0.661   2.115   6.382
 5125SOL    HW116274   0.670   2.169   6.466
 5125SOL    HW216275   0.750   2.110   6.336
 5126SOL     OW16276   4.171   1.512   0.609
 5126SOL    HW116277   4.169   1.591   0.548
 5126SOL    HW216278   4.078   1.478   0.623
 5127SOL     OW16279   4.799   3.648   5.872
 5127SOL    HW116280   4.720   3.608   5.919
 5127SOL    HW216281   4.860   3.576   5.840
 5128SOL     OW16282   0.259   0.626   0.147
 5128SOL    HW116283   0.315   0.619   0.064
 5128SOL    HW216284   0.198   0.547   0.153
 5129SOL     OW16285   4.530   2.519   3.772
 5129SOL    HW116286   4.442   2.488   3.808
 5129SOL    HW216287   4.594   2.535   3.847
 5130SOL     OW16288   1.653   6.661   4.650
 5130SOL    HW116289   1.558   6.630   4.652
 5130SOL    HW216290   1.714   6.582   4.640
 5131SOL     OW16291   3.469   5.040   2.810
 5131SOL    HW116292   3.439   5.018   2.717
 5131SOL    HW216293   3.394   5.081   2.861
 5132SOL     OW16294   3.197   1.541   5.903
 5132SOL    HW116295   3.211   1.476   5.978
 5132SOL    HW216296   3.115   1.596   5.921
 5133SOL     OW16297   3.412   3.873   6.008
 5133SOL    HW116298   3.334   3.904   6.062
 5133SOL    HW216299   3.450   3.949   5.955
 5134SOL     OW16300   5.433   5.960   1.573
 5134SOL    HW116301   5.502   5.925   1.511
 5134SOL    HW216302   5.459   6.052   1.604
 5135SOL     OW16303   0.902   2.982   2.244
 5135SOL    HW116304   0.994   3.007   2.214
 5135SOL    HW216305   0.841   2.979   2.165
 5136SOL     OW16306   6.982   0.323   5.131
 5136SOL    HW116307   6.999   0.421   5.142
 5136SOL    HW216308   0.030   0.285   5.068
 5137SOL     OW16309   5.304   1.211   3.580
 5137SOL    HW116310   5.401   1.233   3.586
 5137SOL    HW216311   5.250   1.291   3.606
 5138SOL     OW16312   3.484   3.438   2.839
 5138SOL    HW116313   3.562   3.395   2.883
 5138SOL    HW216314   3.516   3.489   2.758
 5139SOL     OW16315   5.064   0.742   4.599
 5139SOL    HW116316   4.982   0.685   4.602
 5139SOL    HW216317   5.144   0.684   4.589
 5140SOL     OW16318   2.644   3.602   5.701
 5140SOL    HW116319   2.743   3.603   5.716
 5140SOL    HW216320   2.619   3.518   5.652
 5141SOL     OW16321   0.681   2.681   1.894
 5141SOL    HW116322   0.670   2.728   1.807
 5141SOL    HW216323   0.772   2.639   1.897
 5142SOL     OW16324   6.840   6.172   3.050
 5142SOL    HW116325   6.815   6.192   3.145
 5142SOL    HW216326   6.921   6.226   3.025
 5143SOL     OW16327   6.047   5.813   2.381
 5143SOL    HW116328   5.963   5.802   2.329
 5143SOL    HW216329   6.111   5.740   2.356
 5144SOL     OW16330   1.568   2.686   5.277
 5144SOL    HW116331   1.555   2.678   5.178
 5144SOL    HW216332   1.666   2.687   5.298
 5145SOL     OW16333   0.897   5.166   6.553
 5145SOL    HW116334   0.832   5.114   6.608
 5145SOL    HW216335   0.985   5.170   6.601
 5146SOL     OW16336   5.349   6.182   6.343
 5146SOL    HW116337   5.320   6.277   6.333
 5146SOL    HW216338   5.295   6.137   6.413
 5147SOL     OW16339   4.125   1.026   3.092
 5147SOL    HW116340   4.186   0.985   3.159
 5147SOL    HW216341   4.150   1.121   3.076
 5148SOL     OW16342   6.325   1.449   0.653
 5148SOL    HW116343   6.332   1.366   0.709
 5148SOL    HW216344   6.246   1.441   0.592
 5149SOL     OW16345   2.734   6.981   3.683
 5149SOL    HW116346   2.638   6.984   3.654
 5149SOL    HW216347   2.752   0.035   3.746
 5150SOL     OW16348   0.056   0.879   4.216
 5150SOL    HW116349   0.001   0.934   4.279
 5150SOL    HW216350   0.029   0.783   4.224
 5151SOL     OW16351   5.096   4.751   1.977
 5151SOL    HW116352   5.083   4.652   1.980
 5151SOL    HW216353   5.180   4.775   2.026
 5152SOL     OW16354   2.207   1.252   0.351
 5152SOL    HW116355   2.136   1.310   0.390
 5152SOL    HW216356   2.258   1.302   0.282
 5153SOL     OW16357   2.345   1.999   0.059
 5153SOL    HW116358   2.419   1.954   0.109
 5153SOL    HW216359   2.274   2.026   0.124
 5154SOL     OW16360   0.991   3.031   6.764
 5154SOL    HW116361   1.029   3.085   6.689
 5154SOL    HW216362   1.018   2.935   6.753
 5155SOL     OW16363   1.471   0.807   0.156
 5155SOL    HW116364   1.496   0.903   0.166
 5155SOL    HW216365   1.501   0.774   0.067
 5156SOL     OW16366   5.294   3.621   5.516
 5156SOL    HW116367   5.290   3.675   5.432
 5156SOL    HW216368   5.350   3.669   5.584
 5157SOL     OW16369   3.656   1.042   2.116
 5157SOL    HW116370   3.705   0.994   2.043
 5157SOL    HW216371   3.716   1.112   2.156
 5158SOL     OW16372   1.292   3.416   2.080
 5158SOL    HW116373   1.271   3.358   2.001
 5158SOL    HW216374   1.316   3.358   2.158
 5159SOL     OW16375   6.229   3.143   5.797
 5159SOL    HW116376   6.208   3.120   5.892
 5159SOL    HW216377   6.180   3.226   5.771
 5160SOL     OW16378   6.150   1.312   3.254
 5160SOL    HW116379   6.239   1.315   3.208
 5160SOL    HW216380   6.130   1.402   3.293
 5161SOL     OW16381   1.364   1.949   6.664
 5161SOL    HW116382   1.317   1.925   6.579
 5161SOL    HW216383   1.349   1.877   6.731
 5162SOL     OW16384   0.194   0.674   6.104
 5162SOL    HW116385   0.263   0.744   6.086
 5162SOL    HW216386   0.235   0.583   6.099
 5163SOL     OW16387   3.605   1.501   1.469
 5163SOL    HW116388   3.576   1.418   1.422
 5163SOL    HW216389   3.676   1.547   1.416
 5164SOL     OW16390   2.348   2.822   6.997
 5164SOL    HW116391   2.346   2.773   6.910
 5164SOL    HW216392   2.278   2.785   0.037
 5165SOL     OW16393   1.113   5.251   5.312
 5165SOL    HW116394   1.205   5.216   5.291
 5165SOL    HW216395   1.092   5.328   5.252
 5166SOL     OW16396   6.161   5.522   6.036
 5166SOL    HW116397   6.231   5.450   6.028
 5166SOL    HW216398   6.129   5.548   5.945
 5167SOL     OW16399   5.953   3.144   5.945
 5167SOL    HW116400   5.924   3.088   5.867
 5167SOL    HW216401   5.990   3.085   6.016
 5168SOL     OW16402   5.381   1.231   3.183
 5168SOL    HW116403   5.394   1.168   3.260
 5168SOL    HW216404   5.409   1.186   3.098
 5169SOL     OW16405   4.885   5.843   4.933
 5169SOL    HW116406   4.919   5.749   4.937
 5169SOL    HW216407   4.937   5.894   4.864
 5170SOL     OW16408   2.489   2.949   6.579
 5170SOL    HW116409   2.587   2.931   6.590
 5170SOL    HW216410   2.468   2.959   6.482
 5171SOL     OW16411   1.340   6.463   5.817
 5171SOL    HW116412   1.355   6.366   5.797
 5171SOL    HW216413   1.354   6.479   5.915
 5172SOL     OW16414   4.908   5.103   5.821
 5172SOL    HW116415   4.931   5.188   5.774
 5172SOL    HW216416   4.990   5.048   5.833
 5173SOL     OW16417   4.479   6.321   3.794
 5173SOL    HW116418   4.386   6.338   3.762
 5173SOL    HW216419   4.522   6.408   3.819
 5174SOL     OW16420   0.836   5.925   3.693
 5174SOL    HW116421   0.872   5.948   3.603
 5174SOL    HW216422   0.737   5.914   3.688
 5175SOL     OW16423   2.932   1.952   6.011
 5175SOL    HW116424   2.924   2.005   6.095
 5175SOL    HW216425   3.019   1.902   6.011
 5176SOL     OW16426   5.565   6.996   5.956
 5176SOL    HW116427   5.605   6.987   6.047
 5176SOL    HW216428   5.637   0.000   5.891
 5177SOL     OW16429   5.081   5.151   1.132
 5177SOL    HW116430   5.040   5.063   1.108
 5177SOL    HW216431   5.019   5.225   1.107
 5178SOL     OW16432   1.057   4.000   1.228
 5178SOL    HW116433   1.004   4.012   1.312
 5178SOL    HW216434   1.053   3.904   1.199
 5179SOL     OW16435   3.820   5.440   2.873
 5179SOL    HW116436   3.726   5.414   2.897
 5179SOL    HW216437   3.818   5.521   2.815
 5180SOL     OW16438   3.043   5.251   2.123
 5180SOL    HW116439   3.004   5.340   2.097
 5180SOL    HW216440   3.062   5.199   2.040
 5181SOL     OW16441   6.739   1.822   5.447
 5181SOL    HW116442   6.639   1.813   5.449
 5181SOL    HW216443   6.766   1.899   5.505
 5182SOL     OW16444   2.432   5.934   2.411
 5182SOL    HW116445   2.459   5.921   2.315
 5182SOL    HW216446   2.361   6.004   2.417
 5183SOL     OW16447   5.362   1.887   2.971
 5183SOL    HW116448   5.450   1.919   3.005
 5183SOL    HW216449   5.368   1.790   2.947
 5184SOL     OW16450   3.056   1.337   1.825
 5184SOL    HW116451   3.079   1.410   1.890
 5184SOL    HW216452   3.138   1.309   1.776
 5185SOL     OW16453   6.208   0.668   1.276
 5185SOL    HW116454   6.116   0.672   1.236
 5185SOL    HW216455   6.229   0.573   1.300
 5186SOL     OW16456   6.038   2.500   6.550
 5186SOL    HW116457   5.973   2.439   6.503
 5186SOL    HW216458   6.089   2.447   6.618
 5187SOL     OW16459   1.120   4.694   4.966
 5187SOL    HW116460   1.170   4.652   5.043
 5187SOL    HW216461   1.134   4.793   4.967
 5188SOL     OW16462   0.055   0.524   1.580
 5188SOL    HW116463   0.150   0.552   1.588
 5188SOL    HW216464   0.028   0.525   1.484
 5189SOL     OW16465   5.463   6.405   6.114
 5189SOL    HW116466   5.399   6.389   6.189
 5189SOL    HW216467   5.413   6.437   6.034
 5190SOL     OW16468   1.148   5.222   0.742
 5190SOL    HW116469   1.096   5.144   0.706
 5190SOL    HW216470   1.097   5.263   0.817
 5191SOL     OW16471   3.255   3.731   1.209
 5191SOL    HW116472   3.207   3.731   1.122
 5191SOL    HW216473   3.279   3.825   1.235
 5192SOL     OW16474   0.662   4.740   2.597
 5192SOL    HW116475   0.620   4.823   2.561
 5192SOL    HW216476   0.592   4.684   2.642
 5193SOL     OW16477   3.612   0.683   4.674
 5193SOL    HW116478   3.635   0.682   4.771
 5193SOL    HW216479   3.524   0.729   4.661
 5194SOL     OW16480   4.065   1.568   5.504
 5194SOL    HW116481   4.083   1.665   5.521
 5194SOL    HW216482   3.967   1.550   5.513
 5195SOL     OW16483   2.179   1.228   4.887
 5195SOL    HW116484   2.087   1.204   4.919
 5195SOL    HW216485   2.222   1.289   4.954
 5196SOL     OW16486   5.848   6.068   2.892
 5196SOL    HW116487   5.765   6.024   2.925
 5196SOL    HW216488   5.917   5.998   2.874
 5197SOL     OW16489   2.464   3.819   5.660
 5197SOL    HW116490   2.548   3.766   5.675
 5197SOL    HW216491   2.479   3.886   5.588
 5198SOL     OW16492   6.779   5.633   3.650
 5198SOL    HW116493   6.703   5.591   3.701
 5198SOL    HW216494   6.849   5.564   3.631
 5199SOL     OW16495   0.766   5.260   1.236
 5199SOL    HW116496   0.865   5.254   1.227
 5199SOL    HW216497   0.739   5.356   1.238
 5200SOL     OW16498   0.147   4.245   5.851
 5200SOL    HW116499   0.138   4.156   5.805
 5200SOL    HW216500   0.233   4.288   5.823
 5201SOL     OW16501   1.130   5.480   4.355
 5201SOL    HW116502   1.077   5.564   4.362
 5201SOL    HW216503   1.123   5.429   4.441
 5202SOL     OW16504   0.037   4.996   1.717
 5202SOL    HW116505   0.122   5.034   1.680
 5202SOL    HW216506   0.057   4.942   1.799
 5203SOL     OW16507   6.927   3.298   0.090
 5203SOL    HW116508   6.891   3.265   0.003
 5203SOL    HW216509   7.010   3.350   0.074
 5204SOL     OW16510   5.467   5.336   6.169
 5204SOL    HW116511   5.468   5.284   6.254
 5204SOL    HW216512   5.373   5.345   6.135
 5205SOL     OW16513   2.492   6.037   0.478
 5205SOL    HW116514   2.515   5.984   0.559
 5205SOL    HW216515   2.572   6.090   0.449
 5206SOL     OW16516   0.316   4.470   4.528
 5206SOL    HW116517   0.247   4.448   4.459
 5206SOL    HW216518   0.288   4.434   4.617
 5207SOL     OW16519   1.392   6.360   2.214
 5207SOL    HW116520   1.465   6.428   2.227
 5207SOL    HW216521   1.407   6.311   2.128
 5208SOL     OW16522   4.626   1.954   0.578
 5208SOL    HW116523   4.666   1.889   0.513
 5208SOL    HW216524   4.551   2.004   0.534
 5209SOL     OW16525   6.372   5.100   3.340
 5209SOL    HW116526   6.406   5.193   3.347
 5209SOL    HW216527   6.425   5.040   3.400
 5210SOL     OW16528   4.827   3.500   3.574
 5210SOL    HW116529   4.740   3.464   3.541
 5210SOL    HW216530   4.890   3.512   3.497
 5211SOL     OW16531   2.757   4.298   1.718
 5211SOL    HW116532   2.806   4.370   1.767
 5211SOL    HW216533   2.717   4.335   1.634
 5212SOL     OW16534   0.318   6.962   6.177
 5212SOL    HW116535   0.384   6.954   6.252
 5212SOL    HW216536   0.237   6.908   6.199
 5213SOL     OW16537   4.781   1.874   6.761
 5213SOL    HW116538   4.829   1.949   6.807
 5213SOL    HW216539   4.847   1.805   6.734
 5214SOL     OW16540   4.842   2.287   0.109
 5214SOL    HW116541   4.870   2.367   0.163
 5214SOL    HW216542   4.823   2.315   0.015
 5215SOL     OW16543   6.042   5.684   4.459
 5215SOL    HW116544   6.103   5.611   4.430
 5215SOL    HW216545   6.034   5.752   4.386
 5216SOL     OW16546   2.838   6.477   1.327
 5216SOL    HW116547   2.774   6.506   1.255
 5216SOL    HW216548   2.894   6.402   1.293
 5217SOL     OW16549   2.868   5.613   4.100
 5217SOL    HW116550   2.789   5.647   4.152
 5217SOL    HW216551   2.841   5.533   4.047
 5218SOL     OW16552   0.870   0.428   3.863
 5218SOL    HW116553   0.923   0.475   3.791
 5218SOL    HW216554   0.792   0.485   3.889
 5219SOL     OW16555   2.967   6.738   1.123
 5219SOL    HW116556   3.018   6.673   1.066
 5219SOL    HW216557   3.002   6.736   1.216
 5220SOL     OW16558   0.758   6.561   2.364
 5220SOL    HW116559   0.835   6.581   2.425
 5220SOL    HW216560   0.776   6.599   2.274
 5221SOL     OW16561   4.596   0.513   0.324
 5221SOL    HW116562   4.648   0.445   0.375
 5221SOL    HW216563   4.656   0.562   0.261
 5222SOL     OW16564   6.568   5.498   2.405
 5222SOL    HW116565   6.493   5.434   2.390
 5222SOL    HW216566   6.531   5.587   2.430
 5223SOL     OW16567   4.314   6.598   1.591
 5223SOL    HW116568   4.245   6.617   1.520
 5223SOL    HW216569   4.350   6.684   1.626
 5224SOL     OW16570   5.410   0.383   3.492
 5224SOL    HW116571   5.476   0.424   3.554
 5224SOL    HW216572   5.350   0.322   3.543
 5225SOL     OW16573   7.012   6.775   6.015
 5225SOL    HW116574   6.913   6.789   6.020
 5225SOL    HW216575   0.028   6.821   5.935
 5226SOL     OW16576   2.365   0.855   3.387
 5226SOL    HW116577   2.407   0.874   3.476
 5226SOL    HW216578   2.266   0.866   3.394
 5227SOL     OW16579   5.627   3.969   4.202
 5227SOL    HW116580   5.577   3.906   4.143
 5227SOL    HW216581   5.669   4.040   4.147
 5228SOL     OW16582   5.019   6.865   2.280
 5228SOL    HW116583   4.977   6.951   2.309
 5228SOL    HW216584   5.105   6.851   2.329
 5229SOL     OW16585   0.762   3.827   3.752
 5229SOL    HW116586   0.714   3.904   3.710
 5229SOL    HW216587   0.860   3.846   3.756
 5230SOL     OW16588   0.363   1.344   6.708
 5230SOL    HW116589   0.290   1.364   6.643
 5230SOL    HW216590   0.345   1.390   6.795
 5231SOL     OW16591   2.991   3.662   3.346
 5231SOL    HW116592   2.997   3.707   3.434
 5231SOL    HW216593   3.069   3.601   3.334
 5232SOL     OW16594   5.342   2.872   4.685
 5232SOL    HW116595   5.439   2.848   4.680
 5232SOL    HW216596   5.302   2.836   4.769
 5233SOL     OW16597   0.684   0.186   2.512
 5233SOL    HW116598   0.759   0.239   2.551
 5233SOL    HW216599   0.664   0.108   2.571
 5234SOL     OW16600   3.547   4.152   1.398
 5234SOL    HW116601   3.614   4.077   1.401
 5234SOL    HW216602   3.588   4.231   1.353
 5235SOL     OW16603   0.822   1.584   1.889
 5235SOL    HW116604   0.906   1.619   1.848
 5235SOL    HW216605   0.844   1.511   1.953
 5236SOL     OW16606   6.317   2.878   0.451
 5236SOL    HW116607   6.370   2.949   0.405
 5236SOL    HW216608   6.323   2.892   0.550
 5237SOL     OW16609   1.714   1.879   2.408
 5237SOL    HW116610   1.803   1.845   2.439
 5237SOL    HW216611   1.675   1.937   2.478
 5238SOL     OW16612   1.815   3.750   1.735
 5238SOL    HW116613   1.832   3.737   1.637
 5238SOL    HW216614   1.870   3.685   1.787
 5239SOL     OW16615   2.843   3.386   5.090
 5239SOL    HW116616   2.903   3.359   5.165
 5239SOL    HW216617   2.887   3.458   5.037
 5240SOL     OW16618   4.005   2.099   3.711
 5240SOL    HW116619   4.057   2.181   3.685
 5240SOL    HW216620   3.934   2.125   3.777
 5241SOL     OW16621   4.509   5.890   5.097
 5241SOL    HW116622   4.508   5.946   5.014
 5241SOL    HW216623   4.431   5.914   5.154
 5242SOL     OW16624   3.027   0.629   6.121
 5242SOL    HW116625   3.009   0.654   6.216
 5242SOL    HW216626   3.023   0.711   6.063
 5243SOL     OW16627   1.534   3.726   0.132
 5243SOL    HW116628   1.569   3.714   0.225
 5243SOL    HW216629   1.605   3.768   0.076
 5244SOL     OW16630   6.129   3.131   6.810
 5244SOL    HW116631   6.194   3.083   6.752
 5244SOL    HW216632   6.154   3.227   6.817
 5245SOL     OW16633   4.453   4.385   5.881
 5245SOL    HW116634   4.516   4.313   5.910
 5245SOL    HW216635   4.423   4.367   5.787
 5246SOL     OW16636   1.296   3.243   3.425
 5246SOL    HW116637   1.248   3.156   3.431
 5246SOL    HW216638   1.334   3.267   3.514
 5247SOL     OW16639   0.688   4.001   6.907
 5247SOL    HW116640   0.629   4.075   6.876
 5247SOL    HW216641   0.650   3.913   6.878
 5248SOL     OW16642   4.922   1.226   0.386
 5248SOL    HW116643   4.895   1.235   0.482
 5248SOL    HW216644   4.849   1.261   0.327
 5249SOL     OW16645   0.745   5.305   0.202
 5249SOL    HW116646   0.783   5.289   0.293
 5249SOL    HW216647   0.741   5.219   0.152
 5250SOL     OW16648   1.437   1.530   5.391
 5250SOL    HW116649   1.337   1.532   5.384
 5250SOL    HW216650   1.464   1.547   5.485
 5251SOL     OW16651   0.809   2.256   1.641
 5251SOL    HW116652   0.758   2.170   1.633
 5251SOL    HW216653   0.842   2.283   1.551
 5252SOL     OW16654   5.580   5.437   1.337
 5252SOL    HW116655   5.623   5.382   1.409
 5252SOL    HW216656   5.512   5.382   1.289
 5253SOL     OW16657   5.659   3.163   4.288
 5253SOL    HW116658   5.747   3.119   4.307
 5253SOL    HW216659   5.675   3.255   4.252
 5254SOL     OW16660   5.414   0.458   4.782
 5254SOL    HW116661   5.352   0.481   4.857
 5254SOL    HW216662   5.487   0.526   4.777
 5255SOL     OW16663   2.131   5.572   2.433
 5255SOL    HW116664   2.174   5.509   2.368
 5255SOL    HW216665   2.161   5.548   2.526
 5256SOL     OW16666   4.956   6.222   2.250
 5256SOL    HW116667   5.000   6.312   2.247
 5256SOL    HW216668   5.013   6.155   2.202
 5257SOL     OW16669   2.473   1.733   2.060
 5257SOL    HW116670   2.393   1.686   2.098
 5257SOL    HW216671   2.523   1.779   2.134
 5258SOL     OW16672   5.434   1.862   1.707
 5258SOL    HW116673   5.388   1.817   1.630
 5258SOL    HW216674   5.508   1.803   1.740
 5259SOL     OW16675   5.848   4.962   1.297
 5259SOL    HW116676   5.819   4.876   1.339
 5259SOL    HW216677   5.948   4.967   1.296
 5260SOL     OW16678   5.335   3.185   2.066
 5260SOL    HW116679   5.344   3.114   2.137
 5260SOL    HW216680   5.256   3.242   2.088
 5261SOL     OW16681   2.268   2.761   4.993
 5261SOL    HW116682   2.309   2.852   5.005
 5261SOL    HW216683   2.263   2.740   4.895
 5262SOL     OW16684   1.171   0.621   1.983
 5262SOL    HW116685   1.254   0.605   1.929
 5262SOL    HW216686   1.142   0.716   1.972
 5263SOL     OW16687   1.339   6.702   6.529
 5263SOL    HW116688   1.275   6.727   6.602
 5263SOL    HW216689   1.352   6.602   6.530
 5264SOL     OW16690   1.230   0.619   0.810
 5264SOL    HW116691   1.265   0.681   0.740
 5264SOL    HW216692   1.300   0.550   0.831
 5265SOL     OW16693   5.076   4.997   3.667
 5265SOL    HW116694   5.117   4.981   3.757
 5265SOL    HW216695   5.141   4.972   3.596
 5266SOL     OW16696   1.261   6.533   1.395
 5266SOL    HW116697   1.235   6.610   1.453
 5266SOL    HW216698   1.283   6.566   1.303
 5267SOL     OW16699   3.655   3.392   4.956
 5267SOL    HW116700   3.745   3.429   4.979
 5267SOL    HW216701   3.625   3.429   4.868
 5268SOL     OW16702   5.809   4.193   6.468
 5268SOL    HW116703   5.728   4.181   6.411
 5268SOL    HW216704   5.889   4.207   6.411
 5269SOL     OW16705   2.922   5.002   5.399
 5269SOL    HW116706   2.892   5.067   5.328
 5269SOL    HW216707   2.860   4.923   5.400
 5270SOL     OW16708   0.130   1.067   2.864
 5270SOL    HW116709   0.183   1.005   2.921
 5270SOL    HW216710   0.094   1.018   2.785
 5271SOL     OW16711   5.762   3.767   5.027
 5271SOL    HW116712   5.825   3.794   5.100
 5271SOL    HW216713   5.681   3.825   5.029
 5272SOL     OW16714   2.026   2.429   3.579
 5272SOL    HW116715   2.031   2.389   3.670
 5272SOL    HW216716   1.933   2.422   3.544
 5273SOL     OW16717   6.789   1.128   5.661
 5273SOL    HW116718   6.800   1.070   5.742
 5273SOL    HW216719   6.709   1.187   5.674
 5274SOL     OW16720   0.687   5.166   5.026
 5274SOL    HW116721   0.655   5.078   5.061
 5274SOL    HW216722   0.620   5.202   4.961
 5275SOL     OW16723   2.364   6.374   6.771
 5275SOL    HW116724   2.386   6.281   6.800
 5275SOL    HW216725   2.266   6.383   6.757
 5276SOL     OW16726   0.048   0.884   6.834
 5276SOL    HW116727   6.976   0.920   6.825
 5276SOL    HW216728   0.112   0.959   6.847
 5277SOL     OW16729   0.937   0.863   1.364
 5277SOL    HW116730   0.917   0.816   1.450
 5277SOL    HW216731   0.940   0.962   1.381
 5278SOL     OW16732   6.881   4.686   6.734
 5278SOL    HW116733   6.941   4.765   6.746
 5278SOL    HW216734   6.926   4.605   6.772
 5279SOL     OW16735   2.569   6.236   0.166
 5279SOL    HW116736   2.623   6.309   0.125
 5279SOL    HW216737   2.628   6.157   0.185
 5280SOL     OW16738   4.893   6.371   5.887
 5280SOL    HW116739   4.879   6.281   5.928
 5280SOL    HW216740   4.866   6.368   5.791
 5281SOL     OW16741   2.110   6.310   4.822
 5281SOL    HW116742   2.160   6.312   4.735
 5281SOL    HW216743   2.086   6.215   4.845
 5282SOL     OW16744   6.700   5.820   1.155
 5282SOL    HW116745   6.684   5.883   1.079
 5282SOL    HW216746   6.613   5.784   1.188
 5283SOL     OW16747   1.577   0.370   4.104
 5283SOL    HW116748   1.504   0.302   4.097
 5283SOL    HW216749   1.564   0.425   4.186
 5284SOL     OW16750   4.939   3.235   1.904
 5284SOL    HW116751   5.009   3.241   1.975
 5284SOL    HW216752   4.866   3.173   1.934
 5285SOL     OW16753   2.100   1.357   4.073
 5285SOL    HW116754   2.133   1.283   4.015
 5285SOL    HW216755   2.102   1.443   4.022
 5286SOL     OW16756   0.363   2.703   1.777
 5286SOL    HW116757   0.382   2.721   1.873
 5286SOL    HW216758   0.364   2.788   1.725
 5287SOL     OW16759   0.221   5.735   2.123
 5287SOL    HW116760   0.143   5.745   2.062
 5287SOL    HW216761   0.244   5.638   2.133
 5288SOL     OW16762   3.985   0.627   1.785
 5288SOL    HW116763   4.041   0.601   1.706
 5288SOL    HW216764   4.036   0.609   1.869
 5289SOL     OW16765   1.210   5.093   6.631
 5289SOL    HW116766   1.243   5.120   6.721
 5289SOL    HW216767   1.267   5.019   6.596
 5290SOL     OW16768   2.013   2.552   5.256
 5290SOL    HW116769   1.991   2.495   5.336
 5290SOL    HW216770   2.056   2.495   5.186
 5291SOL     OW16771   2.895   6.215   4.492
 5291SOL    HW116772   2.954   6.134   4.501
 5291SOL    HW216773   2.903   6.271   4.574
 5292SOL     OW16774   0.741   4.251   4.576
 5292SOL    HW116775   0.761   4.220   4.669
 5292SOL    HW216776   0.820   4.301   4.540
 5293SOL     OW16777   2.568   0.448   3.793
 5293SOL    HW116778   2.586   0.416   3.700
 5293SOL    HW216779   2.506   0.526   3.791
 5294SOL     OW16780   5.179   0.009   4.323
 5294SOL    HW116781   5.079   0.003   4.317
 5294SOL    HW216782   5.220   6.968   4.255
 5295SOL     OW16783   1.994   0.244   1.237
 5295SOL    HW116784   1.991   0.156   1.284
 5295SOL    HW216785   2.077   0.249   1.182
 5296SOL     OW16786   4.732   5.121   2.070
 5296SOL    HW116787   4.814   5.080   2.030
 5296SOL    HW216788   4.683   5.173   2.000
 5297SOL     OW16789   3.728   5.017   5.886
 5297SOL    HW116790   3.730   5.109   5.924
 5297SOL    HW216791   3.717   4.951   5.961
 5298SOL     OW16792   3.552   1.004   0.016
 5298SOL    HW116793   3.624   0.970   0.077
 5298SOL    HW216794   3.485   0.932   0.000
 5299SOL     OW16795   1.586   0.091   1.102
 5299SOL    HW116796   1.551   0.153   1.171
 5299SOL    HW216797   1.637   0.017   1.146
 5300SOL     OW16798   2.770   5.068   6.739
 5300SOL    HW116799   2.727   4.988   6.700
 5300SOL    HW216800   2.798   5.130   6.666
 5301SOL     OW16801   6.316   0.084   5.822
 5301SOL    HW116802   6.302   7.005   5.821
 5301SOL    HW216803   6.229   0.130   5.839
 5302SOL     OW16804   4.946   5.693   3.426
 5302SOL    HW116805   4.907   5.645   3.348
 5302SOL    HW216806   5.004   5.631   3.478
 5303SOL     OW16807   1.829   6.464   5.176
 5303SOL    HW116808   1.751   6.460   5.239
 5303SOL    HW216809   1.882   6.379   5.183
 5304SOL     OW16810   0.477   0.279   3.255
 5304SOL    HW116811   0.441   0.273   3.162
 5304SOL    HW216812   0.488   0.187   3.293
 5305SOL     OW16813   6.504   5.234   4.656
 5305SOL    HW116814   6.430   5.292   4.692
 5305SOL    HW216815   6.487   5.139   4.681
 5306SOL     OW16816   0.507   1.885   6.487
 5306SOL    HW116817   0.409   1.866   6.486
 5306SOL    HW216818   0.523   1.983   6.474
 5307SOL     OW16819   0.777   1.120   1.730
 5307SOL    HW116820   0.780   1.196   1.665
 5307SOL    HW216821   0.862   1.118   1.784
 5308SOL     OW16822   2.216   4.539   2.909
 5308SOL    HW116823   2.163   4.495   2.981
 5308SOL    HW216824   2.211   4.639   2.920
 5309SOL     OW16825   6.066   6.155   3.021
 5309SOL    HW116826   5.982   6.130   2.974
 5309SOL    HW216827   6.140   6.093   2.993
 5310SOL     OW16828   6.093   2.040   3.281
 5310SOL    HW116829   6.006   2.026   3.233
 5310SOL    HW216830   6.092   1.987   3.366
 5311SOL     OW16831   6.045   0.416   0.350
 5311SOL    HW116832   6.056   0.355   0.428
 5311SOL    HW216833   5.949   0.443   0.342
 5312SOL     OW16834   5.369   6.519   1.272
 5312SOL    HW116835   5.396   6.560   1.358
 5312SOL    HW216836   5.377   6.586   1.198
 5313SOL     OW16837   0.905   6.595   5.595
 5313SOL    HW116838   0.928   6.680   5.548
 5313SOL    HW216839   0.986   6.561   5.643
 5314SOL     OW16840   5.660   1.890   2.258
 5314SOL    HW116841   5.718   1.816   2.290
 5314SOL    HW216842   5.694   1.977   2.295
 5315SOL     OW16843   4.413   1.990   3.669
 5315SOL    HW116844   4.420   2.035   3.580
 5315SOL    HW216845   4.316   1.978   3.692
 5316SOL     OW16846   0.156   3.030   5.063
 5316SOL    HW116847   0.204   2.945   5.044
 5316SOL    HW216848   0.059   3.020   5.042
 5317SOL     OW16849   5.622   2.827   1.596
 5317SOL    HW116850   5.577   2.911   1.627
 5317SOL    HW216851   5.626   2.761   1.671
 5318SOL     OW16852   6.773   4.840   6.115
 5318SOL    HW116853   6.675   4.836   6.130
 5318SOL    HW216854   6.820   4.778   6.178
 5319SOL     OW16855   4.252   5.613   2.457
 5319SOL    HW116856   4.348   5.622   2.483
 5319SOL    HW216857   4.220   5.700   2.419
 5320SOL     OW16858   4.569   6.091   0.095
 5320SOL    HW116859   4.614   6.088   0.006
 5320SOL    HW216860   4.505   6.015   0.104
 5321SOL     OW16861   1.411   4.138   5.232
 5321SOL    HW116862   1.489   4.195   5.259
 5321SOL    HW216863   1.439   4.074   5.161
 5322SOL     OW16864   4.530   5.887   1.693
 5322SOL    HW116865   4.479   5.858   1.774
 5322SOL    HW216866   4.466   5.925   1.626
 5323SOL     OW16867   3.812   7.007   6.097
 5323SOL    HW116868   3.828   7.013   5.998
 5323SOL    HW216869   3.803   6.912   6.123
 5324SOL     OW16870   1.077   0.874   1.917
 5324SOL    HW116871   1.038   0.837   1.833
 5324SOL    HW216872   1.054   0.971   1.926
 5325SOL     OW16873   2.183   3.050   4.076
 5325SOL    HW116874   2.097   2.999   4.086
 5325SOL    HW216875   2.230   3.052   4.164
 5326SOL     OW16876   6.008   0.405   1.220
 5326SOL    HW116877   5.989   0.331   1.156
 5326SOL    HW216878   6.103   0.434   1.211
 5327SOL     OW16879   0.141   2.253   6.019
 5327SOL    HW116880   0.146   2.185   5.947
 5327SOL    HW216881   0.217   2.240   6.082
 5328SOL     OW16882   3.493   5.138   0.839
 5328SOL    HW116883   3.461   5.168   0.929
 5328SOL    HW216884   3.514   5.218   0.783
 5329SOL     OW16885   2.409   5.692   6.097
 5329SOL    HW116886   2.432   5.623   6.164
 5329SOL    HW216887   2.309   5.704   6.094
 5330SOL     OW16888   2.472   5.498   0.774
 5330SOL    HW116889   2.540   5.502   0.848
 5330SOL    HW216890   2.426   5.586   0.766
 5331SOL     OW16891   6.351   1.687   6.822
 5331SOL    HW116892   6.406   1.604   6.838
 5331SOL    HW216893   6.328   1.692   6.725
 5332SOL     OW16894   1.179   4.758   2.485
 5332SOL    HW116895   1.253   4.804   2.535
 5332SOL    HW216896   1.208   4.742   2.391
 5333SOL     OW16897   0.909   6.448   4.377
 5333SOL    HW116898   0.940   6.499   4.457
 5333SOL    HW216899   0.868   6.362   4.405
 5334SOL     OW16900   2.941   6.760   5.514
 5334SOL    HW116901   2.869   6.775   5.446
 5334SOL    HW216902   2.986   6.847   5.533
 5335SOL     OW16903   6.001   6.768   1.035
 5335SOL    HW116904   6.095   6.801   1.030
 5335SOL    HW216905   5.963   6.759   0.943
 5336SOL     OW16906   1.148   3.652   1.411
 5336SOL    HW116907   1.133   3.684   1.317
 5336SOL    HW216908   1.211   3.713   1.458
 5337SOL     OW16909   5.483   5.049   1.629
 5337SOL    HW116910   5.442   4.970   1.673
 5337SOL    HW216911   5.581   5.051   1.649
 5338SOL     OW16912   5.356   2.839   0.896
 5338SOL    HW116913   5.263   2.833   0.932
 5338SOL    HW216914   5.407   2.909   0.945
 5339SOL     OW16915   6.223   0.556   1.915
 5339SOL    HW116916   6.188   0.649   1.926
 5339SOL    HW216917   6.192   0.500   1.992
 5340SOL     OW16918   4.961   2.566   0.218
 5340SOL    HW116919   5.012   2.644   0.256
 5340SOL    HW216920   4.863   2.582   0.227
 5341SOL     OW16921   4.174   0.353   1.105
 5341SOL    HW116922   4.236   0.413   1.154
 5341SOL    HW216923   4.148   0.395   1.018
 5342SOL     OW16924   1.950   0.012   6.226
 5342SOL    HW116925   1.856   6.998   6.228
 5342SOL    HW216926   1.958   0.089   6.289
 5343SOL     OW16927   2.917   4.052   1.171
 5343SOL    HW116928   2.936   3.954   1.169
 5343SOL    HW216929   2.898   4.084   1.078
 5344SOL     OW16930   2.010   2.718   2.857
 5344SOL    HW116931   2.042   2.631   2.818
 5344SOL    HW216932   1.987   2.705   2.953
 5345SOL     OW16933   5.117   0.548   3.318
 5345SOL    HW116934   5.174   0.612   3.370
 5345SOL    HW216935   5.098   0.467   3.373
 5346SOL     OW16936   3.493   0.927   3.938
 5346SOL    HW116937   3.569   0.948   3.999
 5346SOL    HW216938   3.428   1.003   3.937
 5347SOL     OW16939   6.786   1.202   2.244
 5347SOL    HW116940   6.799   1.169   2.150
 5347SOL    HW216941   6.811   1.299   2.249
 5348SOL     OW16942   6.403   2.191   0.208
 5348SOL    HW116943   6.471   2.263   0.200
 5348SOL    HW216944   6.449   2.104   0.225
 5349SOL     OW16945   5.367   0.939   0.526
 5349SOL    HW116946   5.455   0.916   0.567
 5349SOL    HW216947   5.382   0.993   0.443
 5350SOL     OW16948   3.012   0.721   6.777
 5350SOL    HW116949   3.049   0.651   6.839
 5350SOL    HW216950   3.082   0.789   6.758
 5351SOL     OW16951   4.699   1.462   2.438
 5351SOL    HW116952   4.638   1.505   2.505
 5351SOL    HW216953   4.665   1.478   2.346
 5352SOL     OW16954   3.649   0.764   3.822
 5352SOL    HW116955   3.594   0.833   3.868
 5352SOL    HW216956   3.611   0.747   3.731
 5353SOL     OW16957   6.367   0.008   6.110
 5353SOL    HW116958   6.332   0.073   6.043
 5353SOL    HW216959   6.336   0.034   6.202
 5354SOL     OW16960   0.669   2.835   1.685
 5354SOL    HW116961   0.587   2.886   1.711
 5354SOL    HW216962   0.699   2.863   1.594
 5355SOL     OW16963   4.753   1.386   5.611
 5355SOL    HW116964   4.664   1.426   5.636
 5355SOL    HW216965   4.738   1.298   5.565
 5356SOL     OW16966   6.767   3.726   1.898
 5356SOL    HW116967   6.827   3.679   1.834
 5356SOL    HW216968   6.681   3.749   1.851
 5357SOL     OW16969   4.214   5.566   0.174
 5357SOL    HW116970   4.295   5.540   0.122
 5357SOL    HW216971   4.141   5.501   0.158
 5358SOL     OW16972   5.565   4.426   1.587
 5358SOL    HW116973   5.489   4.364   1.606
 5358SOL    HW216974   5.541   4.488   1.513
 5359SOL     OW16975   3.223   0.375   5.701
 5359SOL    HW116976   3.322   0.359   5.708
 5359SOL    HW216977   3.179   0.341   5.784
 5360SOL     OW16978   4.158   2.024   0.413
 5360SOL    HW116979   4.158   2.120   0.439
 5360SOL    HW216980   4.212   2.011   0.330
 5361SOL     OW16981   0.146   1.609   6.597
 5361SOL    HW116982   0.084   1.618   6.519
 5361SOL    HW216983   0.213   1.537   6.578
 5362SOL     OW16984   4.314   5.970   3.783
 5362SOL    HW116985   4.259   6.053   3.786
 5362SOL    HW216986   4.410   5.993   3.797
 5363SOL     OW16987   0.747   5.770   4.780
 5363SOL    HW116988   0.729   5.683   4.826
 5363SOL    HW216989   0.846   5.788   4.780
 5364SOL     OW16990   0.977   5.854   6.640
 5364SOL    HW116991   0.919   5.773   6.628
 5364SOL    HW216992   1.031   5.869   6.557
 5365SOL     OW16993   3.981   2.382   5.956
 5365SOL    HW116994   3.916   2.324   6.004
 5365SOL    HW216995   4.070   2.337   5.952
 5366SOL     OW16996   3.949   4.026   5.695
 5366SOL    HW116997   3.987   3.990   5.780
 5366SOL    HW216998   3.967   3.963   5.620
 5367SOL     OW16999   0.491   3.996   0.991
 5367SOL    HW117000   0.529   4.015   0.900
 5367SOL    HW217001   0.417   4.061   1.009
 5368SOL     OW17002   0.542   6.843   3.564
 5368SOL    HW117003   0.611   6.826   3.635
 5368SOL    HW217004   0.491   6.927   3.586
 5369SOL     OW17005   1.958   3.604   2.467
 5369SOL    HW117006   2.031   3.595   2.399
 5369SOL    HW217007   1.871   3.620   2.420
 5370SOL     OW17008   3.609   2.820   1.975
 5370SOL    HW117009   3.679   2.757   1.942
 5370SOL    HW217010   3.653   2.894   2.026
 5371SOL     OW17011   2.185   4.215   4.962
 5371SOL    HW117012   2.212   4.269   5.042
 5371SOL    HW217013   2.231   4.127   4.963
 5372SOL     OW17014   3.703   6.481   2.439
 5372SOL    HW117015   3.670   6.415   2.507
 5372SOL    HW217016   3.693   6.442   2.348
 5373SOL     OW17017   2.612   4.900   3.871
 5373SOL    HW117018   2.553   4.943   3.803
 5373SOL    HW217019   2.706   4.932   3.859
 5374SOL     OW17020   3.651   2.261   0.790
 5374SOL    HW117021   3.570   2.292   0.841
 5374SOL    HW217022   3.700   2.341   0.755
 5375SOL     OW17023   1.446   4.248   4.628
 5375SOL    HW117024   1.423   4.339   4.662
 5375SOL    HW217025   1.447   4.250   4.528
 5376SOL     OW17026   3.188   4.954   6.259
 5376SOL    HW117027   3.162   4.867   6.216
 5376SOL    HW217028   3.182   4.945   6.358
 5377SOL     OW17029   1.157   2.200   1.647
 5377SOL    HW117030   1.127   2.283   1.600
 5377SOL    HW217031   1.084   2.169   1.708
 5378SOL     OW17032   5.070   6.923   6.641
 5378SOL    HW117033   5.131   6.994   6.676
 5378SOL    HW217034   5.066   6.928   6.542
 5379SOL     OW17035   0.036   0.154   0.021
 5379SOL    HW117036   6.968   0.167   6.997
 5379SOL    HW217037   0.064   0.059   0.013
 5380SOL     OW17038   1.945   1.621   4.918
 5380SOL    HW117039   1.981   1.713   4.899
 5380SOL    HW217040   1.969   1.560   4.843
 5381SOL     OW17041   5.888   3.671   1.989
 5381SOL    HW117042   5.809   3.611   1.986
 5381SOL    HW217043   5.908   3.695   2.084
 5382SOL     OW17044   2.181   6.578   1.313
 5382SOL    HW117045   2.166   6.544   1.220
 5382SOL    HW217046   2.181   6.502   1.377
 5383SOL     OW17047   2.368   2.446   4.904
 5383SOL    HW117048   2.359   2.357   4.859
 5383SOL    HW217049   2.465   2.471   4.908
 5384SOL     OW17050   5.363   6.499   4.945
 5384SOL    HW117051   5.430   6.561   4.986
 5384SOL    HW217052   5.326   6.541   4.862
 5385SOL     OW17053   3.456   4.166   2.455
 5385SOL    HW117054   3.473   4.247   2.400
 5385SOL    HW217055   3.359   4.141   2.449
 5386SOL     OW17056   5.653   6.289   5.791
 5386SOL    HW117057   5.737   6.328   5.829
 5386SOL    HW217058   5.617   6.221   5.854
 5387SOL     OW17059   4.320   4.827   0.567
 5387SOL    HW117060   4.278   4.764   0.632
 5387SOL    HW217061   4.251   4.886   0.527
 5388SOL     OW17062   5.887   5.636   3.311
 5388SOL    HW117063   5.813   5.701   3.327
 5388SOL    HW217064   5.920   5.601   3.399
 5389SOL     OW17065   5.780   3.410   1.441
 5389SOL    HW117066   5.854   3.354   1.477
 5389SOL    HW217067   5.733   3.456   1.517
 5390SOL     OW17068   6.655   4.985   6.783
 5390SOL    HW117069   6.658   5.067   6.724
 5390SOL    HW217070   6.728   4.990   6.850
 5391SOL     OW17071   3.192   5.076   6.986
 5391SOL    HW117072   3.117   5.141   6.973
 5391SOL    HW217073   3.181   4.998   6.925
 5392SOL     OW17074   0.836   2.628   3.307
 5392SOL    HW117075   0.905   2.610   3.376
 5392SOL    HW217076   0.879   2.632   3.217
 5393SOL     OW17077   6.521   0.136   6.360
 5393SOL    HW117078   6.485   0.043   6.373
 5393SOL    HW217079   6.519   0.185   6.447
 5394SOL     OW17080   2.300   3.859   6.243
 5394SOL    HW117081   2.390   3.866   6.200
 5394SOL    HW217082   2.286   3.765   6.276
 5395SOL     OW17083   4.834   0.371   1.607
 5395SOL    HW117084   4.761   0.381   1.675
 5395SOL    HW217085   4.909   0.319   1.646
 5396SOL     OW17086   4.473   2.028   1.065
 5396SOL    HW117087   4.555   1.971   1.058
 5396SOL    HW217088   4.433   2.018   1.156
 5397SOL     OW17089   1.317   2.246   1.899
 5397SOL    HW117090   1.337   2.149   1.912
 5397SOL    HW217091   1.244   2.256   1.831
 5398SOL     OW17092   3.013   3.657   2.239
 5398SOL    HW117093   2.981   3.649   2.145
 5398SOL    HW217094   2.954   3.602   2.299
 5399SOL     OW17095   0.457   5.324   0.349
 5399SOL    HW117096   0.507   5.378   0.280
 5399SOL    HW217097   0.509   5.241   0.369
 5400SOL     OW17098   2.573   4.084   7.008
 5400SOL    HW117099   2.657   4.082   0.041
 5400SOL    HW217100   2.570   4.168   6.954
 5401SOL     OW17101   6.321   1.630   0.913
 5401SOL    HW117102   6.377   1.672   0.841
 5401SOL    HW217103   6.360   1.541   0.938
 5402SOL     OW17104   0.752   5.998   1.884
 5402SOL    HW117105   0.772   5.968   1.978
 5402SOL    HW217106   0.747   5.919   1.824
 5403SOL     OW17107   0.182   2.493   6.178
 5403SOL    HW117108   0.232   2.441   6.247
 5403SOL    HW217109   0.121   2.433   6.128
 5404SOL     OW17110   0.484   2.449   3.106
 5404SOL    HW117111   0.516   2.469   3.013
 5404SOL    HW217112   0.386   2.467   3.112
 5405SOL     OW17113   6.198   4.003   4.935
 5405SOL    HW117114   6.180   3.994   4.838
 5405SOL    HW217115   6.251   4.087   4.952
 5406SOL     OW17116   2.046   0.203   2.927
 5406SOL    HW117117   2.113   0.223   2.999
 5406SOL    HW217118   2.094   0.168   2.847
 5407SOL     OW17119   3.787   2.906   6.239
 5407SOL    HW117120   3.797   3.005   6.230
 5407SOL    HW217121   3.752   2.869   6.153
 5408SOL     OW17122   4.397   0.983   6.983
 5408SOL    HW117123   4.407   0.902   0.021
 5408SOL    HW217124   4.322   0.968   6.919
 5409SOL     OW17125   4.469   0.537   1.957
 5409SOL    HW117126   4.372   0.516   1.968
 5409SOL    HW217127   4.524   0.461   1.992
 5410SOL     OW17128   1.630   2.781   2.880
 5410SOL    HW117129   1.664   2.708   2.822
 5410SOL    HW217130   1.664   2.769   2.973
 5411SOL     OW17131   3.196   4.875   4.880
 5411SOL    HW117132   3.276   4.934   4.883
 5411SOL    HW217133   3.216   4.790   4.928
 5412SOL     OW17134   6.797   1.543   2.483
 5412SOL    HW117135   6.773   1.640   2.474
 5412SOL    HW217136   6.871   1.521   2.419
 5413SOL     OW17137   1.557   6.618   2.177
 5413SOL    HW117138   1.516   6.653   2.092
 5413SOL    HW217139   1.576   6.694   2.238
 5414SOL     OW17140   4.274   0.290   6.073
 5414SOL    HW117141   4.220   0.279   5.990
 5414SOL    HW217142   4.263   0.383   6.108
 5415SOL     OW17143   6.374   3.496   2.801
 5415SOL    HW117144   6.371   3.413   2.856
 5415SOL    HW217145   6.281   3.531   2.789
 5416SOL     OW17146   4.192   5.255   4.551
 5416SOL    HW117147   4.139   5.173   4.530
 5416SOL    HW217148   4.130   5.334   4.559
 5417SOL     OW17149   2.723   6.630   5.620
 5417SOL    HW117150   2.811   6.670   5.594
 5417SOL    HW217151   2.729   6.593   5.713
 5418SOL     OW17152   3.591   1.566   3.352
 5418SOL    HW117153   3.649   1.507   3.297
 5418SOL    HW217154   3.556   1.641   3.295
 5419SOL     OW17155   3.246   4.612   0.238
 5419SOL    HW117156   3.345   4.596   0.242
 5419SOL    HW217157   3.200   4.545   0.296
 5420SOL     OW17158   1.250   2.176   2.685
 5420SOL    HW117159   1.311   2.096   2.682
 5420SOL    HW217160   1.180   2.166   2.614
 5421SOL     OW17161   2.567   3.008   0.675
 5421SOL    HW117162   2.619   2.942   0.730
 5421SOL    HW217163   2.630   3.077   0.639
 5422SOL     OW17164   0.819   3.155   0.121
 5422SOL    HW117165   0.743   3.093   0.140
 5422SOL    HW217166   0.810   3.237   0.179
 5423SOL     OW17167   3.719   3.312   5.658
 5423SOL    HW117168   3.788   3.378   5.684
 5423SOL    HW217169   3.762   3.235   5.611
 5424SOL     OW17170   5.530   3.418   5.200
 5424SOL    HW117171   5.553   3.486   5.269
 5424SOL    HW217172   5.567   3.329   5.227
 5425SOL     OW17173   5.047   1.759   5.074
 5425SOL    HW117174   5.062   1.662   5.096
 5425SOL    HW217175   5.026   1.809   5.158
 5426SOL     OW17176   0.505   6.931   4.663
 5426SOL    HW117177   0.524   6.907   4.758
 5426SOL    HW217178   0.407   6.921   4.645
 5427SOL     OW17179   3.959   6.650   0.290
 5427SOL    HW117180   4.035   6.589   0.270
 5427SOL    HW217181   3.901   6.608   0.360
 5428SOL     OW17182   1.819   0.345   0.393
 5428SOL    HW117183   1.834   0.364   0.490
 5428SOL    HW217184   1.824   0.246   0.377
 5429SOL     OW17185   0.996   2.103   5.970
 5429SOL    HW117186   0.909   2.143   5.941
 5429SOL    HW217187   1.068   2.134   5.908
 5430SOL     OW17188   2.255   2.676   5.244
 5430SOL    HW117189   2.163   2.643   5.267
 5430SOL    HW217190   2.267   2.674   5.145
 5431SOL     OW17191   3.090   5.652   4.256
 5431SOL    HW117192   3.050   5.635   4.166
 5431SOL    HW217193   3.040   5.600   4.325
 5432SOL     OW17194   6.131   4.285   0.852
 5432SOL    HW117195   6.210   4.245   0.898
 5432SOL    HW217196   6.050   4.230   0.873
 5433SOL     OW17197   1.701   1.664   3.549
 5433SOL    HW117198   1.728   1.653   3.453
 5433SOL    HW217199   1.618   1.720   3.553
 5434SOL     OW17200   2.017   6.241   5.564
 5434SOL    HW117201   1.978   6.297   5.636
 5434SOL    HW217202   1.966   6.156   5.555
 5435SOL     OW17203   4.542   1.904   1.941
 5435SOL    HW117204   4.474   1.950   1.998
 5435SOL    HW217205   4.510   1.902   1.846
 5436SOL     OW17206   5.512   4.220   3.458
 5436SOL    HW117207   5.459   4.142   3.424
 5436SOL    HW217208   5.459   4.268   3.529
 5437SOL     OW17209   3.473   4.861   6.315
 5437SOL    HW117210   3.413   4.941   6.303
 5437SOL    HW217211   3.568   4.889   6.300
 5438SOL     OW17212   6.621   1.252   0.375
 5438SOL    HW117213   6.536   1.268   0.424
 5438SOL    HW217214   6.638   1.328   0.311
 5439SOL     OW17215   1.658   2.378   0.624
 5439SOL    HW117216   1.577   2.323   0.645
 5439SOL    HW217217   1.656   2.405   0.528
 5440SOL     OW17218   2.101   0.501   0.835
 5440SOL    HW117219   2.177   0.475   0.776
 5440SOL    HW217220   2.058   0.418   0.872
 5441SOL     OW17221   3.700   1.742   5.236
 5441SOL    HW117222   3.753   1.798   5.172
 5441SOL    HW217223   3.702   1.784   5.327
 5442SOL     OW17224   4.218   1.050   1.850
 5442SOL    HW117225   4.295   1.060   1.786
 5442SOL    HW217226   4.133   1.045   1.799
 5443SOL     OW17227   0.832   6.535   5.315
 5443SOL    HW117228   0.747   6.581   5.339
 5443SOL    HW217229   0.812   6.442   5.282
 5444SOL     OW17230   0.477   0.519   3.695
 5444SOL    HW117231   0.523   0.591   3.644
 5444SOL    HW217232   0.379   0.527   3.684
 5445SOL     OW17233   6.005   3.482   2.190
 5445SOL    HW117234   6.052   3.405   2.233
 5445SOL    HW217235   5.979   3.456   2.096
 5446SOL     OW17236   6.580   6.499   5.977
 5446SOL    HW117237   6.644   6.461   5.910
 5446SOL    HW217238   6.505   6.544   5.929
 5447SOL     OW17239   3.429   2.754   1.234
 5447SOL    HW117240   3.523   2.762   1.202
 5447SOL    HW217241   3.383   2.680   1.185
 5448SOL     OW17242   5.205   1.859   6.396
 5448SOL    HW117243   5.270   1.864   6.471
 5448SOL    HW217244   5.199   1.949   6.351
 5449SOL     OW17245   6.916   3.036   6.872
 5449SOL    HW117246   6.928   2.954   6.816
 5449SOL    HW217247   6.977   3.033   6.951
 5450SOL     OW17248   2.183   6.075   0.847
 5450SOL    HW117249   2.162   6.136   0.923
 5450SOL    HW217250   2.175   5.980   0.878
 5451SOL     OW17251   2.530   0.169   2.316
 5451SOL    HW117252   2.440   0.190   2.356
 5451SOL    HW217253   2.574   0.098   2.371
 5452SOL     OW17254   2.759   4.066   5.903
 5452SOL    HW117255   2.669   4.049   5.943
 5452SOL    HW217256   2.751   4.135   5.831
 5453SOL     OW17257   0.220   5.326   5.665
 5453SOL    HW117258   0.293   5.389   5.637
 5453SOL    HW217259   0.161   5.371   5.731
 5454SOL     OW17260   0.782   3.895   6.203
 5454SOL    HW117261   0.861   3.834   6.195
 5454SOL    HW217262   0.814   3.990   6.199
 5455SOL     OW17263   6.061   1.840   1.245
 5455SOL    HW117264   5.989   1.777   1.214
 5455SOL    HW217265   6.041   1.932   1.211
 5456SOL     OW17266   3.751   6.998   1.247
 5456SOL    HW117267   3.661   6.996   1.203
 5456SOL    HW217268   3.806   0.050   1.207
 5457SOL     OW17269   6.412   3.262   1.305
 5457SOL    HW117270   6.356   3.210   1.370
 5457SOL    HW217271   6.456   3.338   1.352
 5458SOL     OW17272   1.461   4.083   5.792
 5458SOL    HW117273   1.439   3.986   5.806
 5458SOL    HW217274   1.399   4.122   5.724
 5459SOL     OW17275   1.905   4.380   5.951
 5459SOL    HW117276   1.845   4.301   5.940
 5459SOL    HW217277   1.860   4.461   5.911
 5460SOL     OW17278   3.971   0.636   4.671
 5460SOL    HW117279   4.069   0.615   4.669
 5460SOL    HW217280   3.930   0.614   4.583
 5461SOL     OW17281   3.889   6.597   4.580
 5461SOL    HW117282   3.912   6.512   4.534
 5461SOL    HW217283   3.947   6.671   4.547
 5462SOL     OW17284   6.923   1.017   2.384
 5462SOL    HW117285   6.988   0.970   2.325
 5462SOL    HW217286   6.876   1.089   2.332
 5463SOL     OW17287   6.775   3.297   1.175
 5463SOL    HW117288   6.757   3.393   1.152
 5463SOL    HW217289   6.695   3.242   1.153
 5464SOL     OW17290   1.466   6.405   4.410
 5464SOL    HW117291   1.424   6.496   4.410
 5464SOL    HW217292   1.564   6.415   4.393
 5465SOL     OW17293   2.636   5.905   6.044
 5465SOL    HW117294   2.573   5.827   6.042
 5465SOL    HW217295   2.598   5.980   5.990
 5466SOL     OW17296   4.641   6.571   3.889
 5466SOL    HW117297   4.732   6.531   3.890
 5466SOL    HW217298   4.646   6.667   3.918
 5467SOL     OW17299   6.602   1.458   1.695
 5467SOL    HW117300   6.573   1.404   1.773
 5467SOL    HW217301   6.702   1.454   1.687
 5468SOL     OW17302   4.730   1.370   6.462
 5468SOL    HW117303   4.739   1.359   6.561
 5468SOL    HW217304   4.663   1.442   6.442
 5469SOL     OW17305   4.871   4.565   1.269
 5469SOL    HW117306   4.854   4.605   1.359
 5469SOL    HW217307   4.949   4.502   1.274
 5470SOL     OW17308   0.329   5.123   3.524
 5470SOL    HW117309   0.273   5.064   3.465
 5470SOL    HW217310   0.270   5.189   3.570
 5471SOL     OW17311   6.466   3.642   2.510
 5471SOL    HW117312   6.445   3.688   2.597
 5471SOL    HW217313   6.396   3.572   2.492
 5472SOL     OW17314   3.533   5.383   5.335
 5472SOL    HW117315   3.601   5.392   5.262
 5472SOL    HW217316   3.460   5.321   5.304
 5473SOL     OW17317   2.397   4.390   4.008
 5473SOL    HW117318   2.377   4.293   4.024
 5473SOL    HW217319   2.410   4.436   4.095
 5474SOL     OW17320   1.217   6.186   2.884
 5474SOL    HW117321   1.127   6.225   2.863
 5474SOL    HW217322   1.236   6.194   2.982
 5475SOL     OW17323   2.970   1.875   2.091
 5475SOL    HW117324   3.040   1.924   2.039
 5475SOL    HW217325   2.908   1.942   2.133
 5476SOL     OW17326   1.916   3.233   6.709
 5476SOL    HW117327   1.962   3.150   6.677
 5476SOL    HW217328   1.860   3.211   6.789
 5477SOL     OW17329   1.977   2.512   2.326
 5477SOL    HW117330   1.937   2.471   2.407
 5477SOL    HW217331   2.073   2.483   2.318
 5478SOL     OW17332   0.351   5.614   5.271
 5478SOL    HW117333   0.265   5.614   5.219
 5478SOL    HW217334   0.387   5.707   5.276
 5479SOL     OW17335   4.424   0.081   5.044
 5479SOL    HW117336   4.377   0.139   5.111
 5479SOL    HW217337   4.519   0.110   5.035
 5480SOL     OW17338   0.284   2.083   5.873
 5480SOL    HW117339   0.254   2.104   5.780
 5480SOL    HW217340   0.341   2.002   5.872
 5481SOL     OW17341   4.533   6.745   2.994
 5481SOL    HW117342   4.505   6.739   2.898
 5481SOL    HW217343   4.466   6.799   3.045
 5482SOL     OW17344   1.391   6.123   2.048
 5482SOL    HW117345   1.296   6.096   2.063
 5482SOL    HW217346   1.433   6.062   1.982
 5483SOL     OW17347   0.673   2.514   6.741
 5483SOL    HW117348   0.772   2.522   6.754
 5483SOL    HW217349   0.629   2.601   6.760
 5484SOL     OW17350   4.999   6.793   5.372
 5484SOL    HW117351   4.938   6.825   5.445
 5484SOL    HW217352   4.997   6.859   5.296
 5485SOL     OW17353   3.238   0.546   4.435
 5485SOL    HW117354   3.142   0.524   4.421
 5485SOL    HW217355   3.246   0.628   4.492
 5486SOL     OW17356   2.826   5.903   4.259
 5486SOL    HW117357   2.773   5.828   4.219
 5486SOL    HW217358   2.899   5.866   4.316
 5487SOL     OW17359   3.853   6.088   5.164
 5487SOL    HW117360   3.755   6.085   5.149
 5487SOL    HW217361   3.901   6.052   5.084
 5488SOL     OW17362   4.557   2.229   6.423
 5488SOL    HW117363   4.470   2.181   6.419
 5488SOL    HW217364   4.632   2.163   6.430
 5489SOL     OW17365   6.666   2.475   3.886
 5489SOL    HW117366   6.587   2.488   3.826
 5489SOL    HW217367   6.750   2.476   3.832
 5490SOL     OW17368   0.751   5.143   1.516
 5490SOL    HW117369   0.738   5.179   1.423
 5490SOL    HW217370   0.848   5.141   1.538
 5491SOL     OW17371   0.026   3.977   0.606
 5491SOL    HW117372   6.999   3.889   0.607
 5491SOL    HW217373   0.072   3.991   0.693
 5492SOL     OW17374   0.930   1.715   6.910
 5492SOL    HW117375   0.997   1.789   6.902
 5492SOL    HW217376   0.963   1.635   6.862
 5493SOL     OW17377   4.409   3.633   5.634
 5493SOL    HW117378   4.367   3.721   5.612
 5493SOL    HW217379   4.508   3.643   5.636
 5494SOL     OW17380   5.916   1.953   4.709
 5494SOL    HW117381   5.915   2.014   4.788
 5494SOL    HW217382   5.985   1.983   4.644
 5495SOL     OW17383   5.854   1.120   7.004
 5495SOL    HW117384   5.806   1.169   6.930
 5495SOL    HW217385   5.790   1.057   0.027
 5496SOL     OW17386   4.176   6.571   6.124
 5496SOL    HW117387   4.112   6.510   6.077
 5496SOL    HW217388   4.153   6.666   6.103
 5497SOL     OW17389   1.027   0.446   5.860
 5497SOL    HW117390   1.017   0.456   5.761
 5497SOL    HW217391   1.064   0.530   5.899
 5498SOL     OW17392   7.007   5.750   1.984
 5498SOL    HW117393   6.922   5.791   2.018
 5498SOL    HW217394   0.016   5.797   1.902
 5499SOL     OW17395   2.485   7.001   3.586
 5499SOL    HW117396   2.420   0.033   3.531
 5499SOL    HW217397   2.436   6.952   3.658
 5500SOL     OW17398   0.700   6.271   1.316
 5500SOL    HW117399   0.638   6.264   1.395
 5500SOL    HW217400   0.750   6.358   1.322
 5501SOL     OW17401   4.901   3.640   1.154
 5501SOL    HW117402   4.907   3.572   1.227
 5501SOL    HW217403   4.969   3.619   1.083
 5502SOL     OW17404   4.444   3.487   0.467
 5502SOL    HW117405   4.404   3.430   0.395
 5502SOL    HW217406   4.514   3.547   0.427
 5503SOL     OW17407   5.847   2.756   1.090
 5503SOL    HW117408   5.776   2.685   1.090
 5503SOL    HW217409   5.804   2.846   1.085
 5504SOL     OW17410   3.540   2.400   6.993
 5504SOL    HW117411   3.497   2.455   0.044
 5504SOL    HW217412   3.592   2.460   6.931
 5505SOL     OW17413   2.726   5.560   2.979
 5505SOL    HW117414   2.716   5.487   2.910
 5505SOL    HW217415   2.815   5.549   3.025
 5506SOL     OW17416   6.626   3.037   6.896
 5506SOL    HW117417   6.596   3.077   6.809
 5506SOL    HW217418   6.722   3.008   6.888
 5507SOL     OW17419   4.070   5.947   6.652
 5507SOL    HW117420   4.169   5.956   6.647
 5507SOL    HW217421   4.027   6.036   6.637
 5508SOL     OW17422   6.570   2.958   6.138
 5508SOL    HW117423   6.570   3.031   6.070
 5508SOL    HW217424   6.497   2.974   6.204
 5509SOL     OW17425   6.194   4.253   0.504
 5509SOL    HW117426   6.123   4.288   0.443
 5509SOL    HW217427   6.239   4.330   0.550
 5510SOL     OW17428   5.151   6.347   6.897
 5510SOL    HW117429   5.169   6.260   6.852
 5510SOL    HW217430   5.069   6.389   6.857
 5511SOL     OW17431   0.639   2.885   5.736
 5511SOL    HW117432   0.584   2.852   5.813
 5511SOL    HW217433   0.679   2.808   5.688
 5512SOL     OW17434   3.289   0.019   2.108
 5512SOL    HW117435   3.316   0.075   2.029
 5512SOL    HW217436   3.287   0.076   2.190
 5513SOL     OW17437   3.883   4.870   6.591
 5513SOL    HW117438   3.861   4.899   6.684
 5513SOL    HW217439   3.836   4.784   6.571
 5514SOL     OW17440   3.958   1.852   6.957
 5514SOL    HW117441   4.053   1.884   6.957
 5514SOL    HW217442   3.956   1.754   6.977
 5515SOL     OW17443   3.450   4.946   2.549
 5515SOL    HW117444   3.537   4.914   2.513
 5515SOL    HW217445   3.375   4.902   2.500
 5516SOL     OW17446   1.332   2.926   5.818
 5516SOL    HW117447   1.334   2.846   5.758
 5516SOL    HW217448   1.258   2.987   5.790
 5517SOL     OW17449   1.337   2.245   4.675
 5517SOL    HW117450   1.272   2.246   4.599
 5517SOL    HW217451   1.357   2.151   4.702
 5518SOL     OW17452   4.037   3.885   5.484
 5518SOL    HW117453   4.009   3.940   5.406
 5518SOL    HW217454   4.026   3.788   5.463
 5519SOL     OW17455   5.245   2.613   5.555
 5519SOL    HW117456   5.186   2.533   5.566
 5519SOL    HW217457   5.208   2.672   5.483
 5520SOL     OW17458   4.642   5.645   1.400
 5520SOL    HW117459   4.569   5.662   1.466
 5520SOL    HW217460   4.695   5.566   1.428
 5521SOL     OW17461   4.963   0.049   2.017
 5521SOL    HW117462   5.047   7.020   1.997
 5521SOL    HW217463   4.958   0.131   1.959
 5522SOL     OW17464   4.954   6.076   6.652
 5522SOL    HW117465   4.918   5.982   6.644
 5522SOL    HW217466   5.053   6.072   6.662
 5523SOL     OW17467   5.451   1.629   0.369
 5523SOL    HW117468   5.405   1.551   0.412
 5523SOL    HW217469   5.523   1.595   0.308
 5524SOL     OW17470   2.402   1.943   2.374
 5524SOL    HW117471   2.359   1.984   2.293
 5524SOL    HW217472   2.458   2.012   2.420
 5525SOL     OW17473   6.404   1.200   0.791
 5525SOL    HW117474   6.502   1.214   0.776
 5525SOL    HW217475   6.388   1.105   0.818
 5526SOL     OW17476   4.920   4.196   4.086
 5526SOL    HW117477   4.899   4.115   4.139
 5526SOL    HW217478   4.879   4.188   3.995
 5527SOL     OW17479   6.635   0.202   2.725
 5527SOL    HW117480   6.687   0.126   2.686
 5527SOL    HW217481   6.663   0.288   2.681
 5528SOL     OW17482   1.881   1.633   0.363
 5528SOL    HW117483   1.922   1.578   0.290
 5528SOL    HW217484   1.788   1.661   0.336
 5529SOL     OW17485   3.390   0.729   1.834
 5529SOL    HW117486   3.480   0.687   1.819
 5529SOL    HW217487   3.393   0.783   1.918
 5530SOL     OW17488   1.151   1.449   1.372
 5530SOL    HW117489   1.148   1.349   1.372
 5530SOL    HW217490   1.239   1.480   1.337
 5531SOL     OW17491   1.331   4.215   6.746
 5531SOL    HW117492   1.290   4.146   6.806
 5531SOL    HW217493   1.356   4.173   6.659
 5532SOL     OW17494   0.271   4.848   5.941
 5532SOL    HW117495   0.224   4.876   6.024
 5532SOL    HW217496   0.241   4.756   5.915
 5533SOL     OW17497   3.711   1.008   4.067
 5533SOL    HW117498   3.714   0.988   4.165
 5533SOL    HW217499   3.791   0.970   4.022
 5534SOL     OW17500   1.466   0.158   4.412
 5534SOL    HW117501   1.388   0.193   4.463
 5534SOL    HW217502   1.483   0.063   4.437
 5535SOL     OW17503   1.032   1.572   2.718
 5535SOL    HW117504   1.002   1.555   2.812
 5535SOL    HW217505   1.062   1.666   2.709
 5536SOL     OW17506   4.582   0.722   4.733
 5536SOL    HW117507   4.577   0.810   4.780
 5536SOL    HW217508   4.554   0.734   4.638
 5537SOL     OW17509   2.714   2.394   2.665
 5537SOL    HW117510   2.701   2.426   2.759
 5537SOL    HW217511   2.799   2.341   2.659
 5538SOL     OW17512   3.393   5.470   4.065
 5538SOL    HW117513   3.474   5.442   4.116
 5538SOL    HW217514   3.369   5.564   4.090
 5539SOL     OW17515   2.336   3.885   0.491
 5539SOL    HW117516   2.425   3.911   0.454
 5539SOL    HW217517   2.300   3.807   0.440
 5540SOL     OW17518   3.851   5.374   1.535
 5540SOL    HW117519   3.772   5.394   1.592
 5540SOL    HW217520   3.822   5.323   1.454
 5541SOL     OW17521   4.573   0.653   6.378
 5541SOL    HW117522   4.665   0.637   6.414
 5541SOL    HW217523   4.535   0.567   6.343
 5542SOL     OW17524   5.388   3.687   6.636
 5542SOL    HW117525   5.444   3.765   6.665
 5542SOL    HW217526   5.426   3.603   6.674
 5543SOL     OW17527   0.640   3.016   4.776
 5543SOL    HW117528   0.739   3.013   4.788
 5543SOL    HW217529   0.605   3.103   4.810
 5544SOL     OW17530   5.284   6.845   0.397
 5544SOL    HW117531   5.313   6.941   0.393
 5544SOL    HW217532   5.186   6.839   0.382
 5545SOL     OW17533   2.648   2.408   1.977
 5545SOL    HW117534   2.635   2.389   1.880
 5545SOL    HW217535   2.741   2.385   2.004
 5546SOL     OW17536   3.120   6.118   4.620
 5546SOL    HW117537   3.102   6.023   4.643
 5546SOL    HW217538   3.141   6.169   4.703
 5547SOL     OW17539   2.872   4.995   3.889
 5547SOL    HW117540   2.960   4.953   3.915
 5547SOL    HW217541   2.863   5.084   3.934
 5548SOL     OW17542   6.413   1.456   4.290
 5548SOL    HW117543   6.329   1.450   4.236
 5548SOL    HW217544   6.453   1.547   4.278
 5549SOL     OW17545   3.768   4.983   5.410
 5549SOL    HW117546   3.669   4.985   5.395
 5549SOL    HW217547   3.787   4.966   5.506
 5550SOL     OW17548   3.061   5.980   1.799
 5550SOL    HW117549   3.011   5.909   1.849
 5550SOL    HW217550   3.105   6.042   1.864
 5551SOL     OW17551   0.738   1.097   2.323
 5551SOL    HW117552   0.725   1.196   2.314
 5551SOL    HW217553   0.815   1.079   2.385
 5552SOL     OW17554   2.175   2.597   2.056
 5552SOL    HW117555   2.242   2.658   2.014
 5552SOL    HW217556   2.198   2.585   2.153
 5553SOL     OW17557   4.707   6.768   6.120
 5553SOL    HW117558   4.625   6.716   6.144
 5553SOL    HW217559   4.770   6.709   6.069
 5554SOL     OW17560   3.299   0.158   6.159
 5554SOL    HW117561   3.368   0.176   6.089
 5554SOL    HW217562   3.210   0.190   6.126
 5555SOL     OW17563   1.138   6.089   1.547
 5555SOL    HW117564   1.123   6.166   1.486
 5555SOL    HW217565   1.234   6.087   1.576
 5556SOL     OW17566   0.060   1.196   4.820
 5556SOL    HW117567   0.069   1.101   4.848
 5556SOL    HW217568   0.047   1.254   4.901
 5557SOL     OW17569   3.524   0.734   2.647
 5557SOL    HW117570   3.575   0.811   2.609
 5557SOL    HW217571   3.437   0.766   2.682
 5558SOL     OW17572   5.375   2.504   6.556
 5558SOL    HW117573   5.400   2.408   6.567
 5558SOL    HW217574   5.299   2.527   6.617
 5559SOL     OW17575   3.486   1.236   1.374
 5559SOL    HW117576   3.386   1.236   1.378
 5559SOL    HW217577   3.516   1.167   1.308
 5560SOL     OW17578   0.095   2.532   4.685
 5560SOL    HW117579   0.045   2.448   4.707
 5560SOL    HW217580   0.032   2.599   4.646
 5561SOL     OW17581   1.765   4.722   2.569
 5561SOL    HW117582   1.673   4.697   2.538
 5561SOL    HW217583   1.823   4.640   2.569
 5562SOL     OW17584   4.741   2.925   0.485
 5562SOL    HW117585   4.803   2.894   0.412
 5562SOL    HW217586   4.660   2.868   0.486
 5563SOL     OW17587   4.044   4.419   1.060
 5563SOL    HW117588   4.060   4.332   1.107
 5563SOL    HW217589   4.046   4.494   1.126
 5564SOL     OW17590   6.048   0.859   2.401
 5564SOL    HW117591   5.982   0.884   2.472
 5564SOL    HW217592   6.005   0.866   2.312
 5565SOL     OW17593   1.979   2.738   5.784
 5565SOL    HW117594   1.938   2.647   5.794
 5565SOL    HW217595   2.070   2.730   5.745
 5566SOL     OW17596   2.410   4.264   0.605
 5566SOL    HW117597   2.461   4.343   0.571
 5566SOL    HW217598   2.331   4.248   0.546
 5567SOL     OW17599   1.216   5.924   3.066
 5567SOL    HW117600   1.222   5.917   2.966
 5567SOL    HW217601   1.261   6.008   3.095
 5568SOL     OW17602   4.537   2.826   6.902
 5568SOL    HW117603   4.449   2.862   6.871
 5568SOL    HW217604   4.538   2.821   7.001
 5569SOL     OW17605   4.370   1.494   5.930
 5569SOL    HW117606   4.300   1.460   5.867
 5569SOL    HW217607   4.328   1.554   5.998
 5570SOL     OW17608   1.793   1.762   5.686
 5570SOL    HW117609   1.798   1.774   5.586
 5570SOL    HW217610   1.867   1.702   5.715
 5571SOL     OW17611   0.587   4.797   6.950
 5571SOL    HW117612   0.664   4.754   6.903
 5571SOL    HW217613   0.590   4.774   0.026
 5572SOL     OW17614   1.107   3.408   5.124
 5572SOL    HW117615   1.205   3.403   5.103
 5572SOL    HW217616   1.078   3.504   5.124
 5573SOL     OW17617   0.290   4.139   6.703
 5573SOL    HW117618   0.262   4.144   6.607
 5573SOL    HW217619   0.226   4.081   6.754
 5574SOL     OW17620   2.075   6.024   4.664
 5574SOL    HW117621   2.056   5.931   4.634
 5574SOL    HW217622   2.095   6.024   4.762
 5575SOL     OW17623   1.147   1.820   2.688
 5575SOL    HW117624   1.214   1.779   2.750
 5575SOL    HW217625   1.194   1.862   2.611
 5576SOL     OW17626   5.011   6.704   6.834
 5576SOL    HW117627   5.018   6.624   6.775
 5576SOL    HW217628   5.027   6.787   6.780
 5577SOL     OW17629   1.542   5.066   5.332
 5577SOL    HW117630   1.634   5.027   5.320
 5577SOL    HW217631   1.551   5.164   5.352
 5578SOL     OW17632   3.883   1.889   6.214
 5578SOL    HW117633   3.901   1.799   6.175
 5578SOL    HW217634   3.820   1.879   6.291
 5579SOL     OW17635   4.917   4.856   2.275
 5579SOL    HW117636   4.892   4.843   2.179
 5579SOL    HW217637   4.891   4.775   2.327
 5580SOL     OW17638   6.491   1.195   2.445
 5580SOL    HW117639   6.408   1.140   2.460
 5580SOL    HW217640   6.564   1.163   2.506
 5581SOL     OW17641   3.333   3.215   0.590
 5581SOL    HW117642   3.371   3.160   0.516
 5581SOL    HW217643   3.406   3.240   0.654
 5582SOL     OW17644   2.898   3.996   5.517
 5582SOL    HW117645   2.930   3.901   5.510
 5582SOL    HW217646   2.838   4.016   5.440
 5583SOL     OW17647   4.239   1.213   6.552
 5583SOL    HW117648   4.252   1.274   6.631
 5583SOL    HW217649   4.169   1.251   6.492
 5584SOL     OW17650   5.290   3.540   4.827
 5584SOL    HW117651   5.235   3.486   4.891
 5584SOL    HW217652   5.287   3.499   4.736
 5585SOL     OW17653   0.322   0.789   3.888
 5585SOL    HW117654   0.375   0.861   3.841
 5585SOL    HW217655   0.283   0.727   3.819
 5586SOL     OW17656   1.682   0.850   0.587
 5586SOL    HW117657   1.699   0.908   0.507
 5586SOL    HW217658   1.763   0.792   0.603
 5587SOL     OW17659   3.910   0.118   3.203
 5587SOL    HW117660   3.818   0.083   3.188
 5587SOL    HW217661   3.961   0.056   3.262
 5588SOL     OW17662   4.431   5.869   0.177
 5588SOL    HW117663   4.412   5.881   0.274
 5588SOL    HW217664   4.492   5.791   0.165
 5589SOL     OW17665   1.186   2.504   6.371
 5589SOL    HW117666   1.248   2.503   6.293
 5589SOL    HW217667   1.100   2.459   6.345
 5590SOL     OW17668   5.772   0.139   3.597
 5590SOL    HW117669   5.815   0.078   3.531
 5590SOL    HW217670   5.775   0.233   3.563
 5591SOL     OW17671   5.111   1.236   6.032
 5591SOL    HW117672   5.032   1.271   6.082
 5591SOL    HW217673   5.179   1.309   6.022
 5592SOL     OW17674   1.052   3.491   2.834
 5592SOL    HW117675   0.986   3.452   2.770
 5592SOL    HW217676   1.006   3.515   2.919
 5593SOL     OW17677   2.448   3.647   5.414
 5593SOL    HW117678   2.465   3.642   5.512
 5593SOL    HW217679   2.349   3.654   5.398
 5594SOL     OW17680   2.742   0.866   6.046
 5594SOL    HW117681   2.835   0.859   6.009
 5594SOL    HW217682   2.683   0.912   5.980
 5595SOL     OW17683   6.440   3.582   0.992
 5595SOL    HW117684   6.376   3.538   1.055
 5595SOL    HW217685   6.441   3.680   1.008
 5596SOL     OW17686   5.164   3.967   4.415
 5596SOL    HW117687   5.096   3.978   4.343
 5596SOL    HW217688   5.244   3.919   4.379
 5597SOL     OW17689   0.350   2.188   6.501
 5597SOL    HW117690   0.410   2.189   6.581
 5597SOL    HW217691   0.265   2.139   6.523
 5598SOL     OW17692   0.020   0.161   3.146
 5598SOL    HW117693   0.106   0.118   3.117
 5598SOL    HW217694   6.967   0.133   3.085
 5599SOL     OW17695   4.871   3.348   2.387
 5599SOL    HW117696   4.846   3.253   2.364
 5599SOL    HW217697   4.899   3.353   2.483
 5600SOL     OW17698   2.105   3.557   2.242
 5600SOL    HW117699   2.097   3.461   2.269
 5600SOL    HW217700   2.154   3.563   2.154
 5601SOL     OW17701   5.127   2.551   6.697
 5601SOL    HW117702   5.047   2.553   6.636
 5601SOL    HW217703   5.099   2.520   6.788
 5602SOL     OW17704   5.441   1.339   2.887
 5602SOL    HW117705   5.426   1.240   2.886
 5602SOL    HW217706   5.534   1.358   2.854
 5603SOL     OW17707   3.569   1.581   6.570
 5603SOL    HW117708   3.657   1.571   6.525
 5603SOL    HW217709   3.539   1.493   6.606
 5604SOL     OW17710   1.803   4.267   4.222
 5604SOL    HW117711   1.830   4.227   4.310
 5604SOL    HW217712   1.804   4.196   4.151
 5605SOL     OW17713   3.233   6.706   4.201
 5605SOL    HW117714   3.219   6.624   4.145
 5605SOL    HW217715   3.252   6.784   4.142
 5606SOL     OW17716   4.170   4.690   0.746
 5606SOL    HW117717   4.134   4.752   0.816
 5606SOL    HW217718   4.231   4.623   0.789
 5607SOL     OW17719   1.789   2.009   1.581
 5607SOL    HW117720   1.696   2.005   1.619
 5607SOL    HW217721   1.848   2.062   1.643
 5608SOL     OW17722   6.687   6.394   3.743
 5608SOL    HW117723   6.612   6.383   3.678
 5608SOL    HW217724   6.774   6.400   3.693
 5609SOL     OW17725   0.346   1.132   0.453
 5609SOL    HW117726   0.248   1.118   0.466
 5609SOL    HW217727   0.397   1.085   0.525
 5610SOL     OW17728   5.324   6.525   6.563
 5610SOL    HW117729   5.356   6.473   6.642
 5610SOL    HW217730   5.400   6.579   6.526
 5611SOL     OW17731   0.117   3.906   1.766
 5611SOL    HW117732   0.134   4.000   1.797
 5611SOL    HW217733   0.020   3.895   1.745
 5612SOL     OW17734   5.136   1.997   1.125
 5612SOL    HW117735   5.192   2.079   1.135
 5612SOL    HW217736   5.078   2.006   1.043
 5613SOL     OW17737   0.027   4.977   5.182
 5613SOL    HW117738   6.964   5.015   5.143
 5613SOL    HW217739   0.012   4.958   5.280
 5614SOL     OW17740   6.092   2.205   4.563
 5614SOL    HW117741   5.998   2.233   4.581
 5614SOL    HW217742   6.145   2.206   4.648
 5615SOL     OW17743   0.855   3.509   3.055
 5615SOL    HW117744   0.844   3.608   3.045
 5615SOL    HW217745   0.864   3.486   3.152
 5616SOL     OW17746   1.431   3.025   2.129
 5616SOL    HW117747   1.510   3.040   2.070
 5616SOL    HW217748   1.401   2.930   2.121
 5617SOL     OW17749   0.760   5.306   5.464
 5617SOL    HW117750   0.844   5.288   5.514
 5617SOL    HW217751   0.780   5.319   5.367
 5618SOL     OW17752   5.090   1.441   3.646
 5618SOL    HW117753   5.123   1.400   3.731
 5618SOL    HW217754   5.131   1.531   3.633
 5619SOL     OW17755   3.646   4.132   4.197
 5619SOL    HW117756   3.682   4.165   4.110
 5619SOL    HW217757   3.552   4.161   4.208
 5620SOL     OW17758   4.912   4.346   5.234
 5620SOL    HW117759   4.867   4.399   5.305
 5620SOL    HW217760   5.000   4.389   5.211
 5621SOL     OW17761   0.742   3.403   0.274
 5621SOL    HW117762   0.746   3.394   0.374
 5621SOL    HW217763   0.734   3.499   0.249
 5622SOL     OW17764   5.536   5.221   4.197
 5622SOL    HW117765   5.465   5.190   4.259
 5622SOL    HW217766   5.600   5.281   4.246
 5623SOL     OW17767   4.668   4.345   3.362
 5623SOL    HW117768   4.752   4.349   3.308
 5623SOL    HW217769   4.681   4.395   3.447
 5624SOL     OW17770   4.878   3.932   4.193
 5624SOL    HW117771   4.839   3.955   4.283
 5624SOL    HW217772   4.941   3.855   4.203
 5625SOL     OW17773   3.959   0.526   6.486
 5625SOL    HW117774   3.925   0.452   6.545
 5625SOL    HW217775   3.951   0.498   6.390
 5626SOL     OW17776   1.813   4.107   5.947
 5626SOL    HW117777   1.738   4.077   6.007
 5626SOL    HW217778   1.868   4.028   5.921
 5627SOL     OW17779   0.833   5.158   0.848
 5627SOL    HW117780   0.907   5.184   0.910
 5627SOL    HW217781   0.834   5.059   0.835
 5628SOL     OW17782   1.043   2.781   6.709
 5628SOL    HW117783   0.980   2.720   6.755
 5628SOL    HW217784   1.048   2.757   6.612
 5629SOL     OW17785   0.933   3.354   4.800
 5629SOL    HW117786   0.987   3.269   4.804
 5629SOL    HW217787   0.992   3.432   4.821
 5630SOL     OW17788   0.515   4.226   6.829
 5630SOL    HW117789   0.424   4.208   6.791
 5630SOL    HW217790   0.583   4.218   6.756
 5631SOL     OW17791   2.356   0.926   3.661
 5631SOL    HW117792   2.307   0.892   3.742
 5631SOL    HW217793   2.439   0.973   3.691
 5632SOL     OW17794   2.663   6.193   6.022
 5632SOL    HW117795   2.721   6.118   6.052
 5632SOL    HW217796   2.612   6.230   6.099
 5633SOL     OW17797   1.757   4.900   4.992
 5633SOL    HW117798   1.719   4.958   4.919
 5633SOL    HW217799   1.827   4.952   5.042
 5634SOL     OW17800   1.746   0.266   1.382
 5634SOL    HW117801   1.818   0.265   1.312
 5634SOL    HW217802   1.784   0.238   1.470
 5635SOL     OW17803   4.304   0.573   3.299
 5635SOL    HW117804   4.219   0.596   3.345
 5635SOL    HW217805   4.290   0.577   3.200
 5636SOL     OW17806   5.034   0.260   4.796
 5636SOL    HW117807   5.126   0.250   4.758
 5636SOL    HW217808   5.036   0.326   4.872
 5637SOL     OW17809   5.751   6.960   5.455
 5637SOL    HW117810   5.808   7.020   5.399
 5637SOL    HW217811   5.723   6.881   5.401
 5638SOL     OW17812   1.713   6.557   0.303
 5638SOL    HW117813   1.662   6.637   0.272
 5638SOL    HW217814   1.807   6.563   0.269
 5639SOL     OW17815   3.421   7.011   1.478
 5639SOL    HW117816   3.378   0.054   1.541
 5639SOL    HW217817   3.440   6.924   1.525
 5640SOL     OW17818   4.574   6.459   4.153
 5640SOL    HW117819   4.531   6.530   4.098
 5640SOL    HW217820   4.598   6.381   4.094
 5641SOL     OW17821   6.713   4.849   3.692
 5641SOL    HW117822   6.685   4.794   3.770
 5641SOL    HW217823   6.781   4.916   3.721
 5642SOL     OW17824   1.960   1.785   6.550
 5642SOL    HW117825   1.976   1.874   6.593
 5642SOL    HW217826   2.020   1.717   6.592
 5643SOL     OW17827   4.973   2.367   3.490
 5643SOL    HW117828   4.972   2.441   3.423
 5643SOL    HW217829   4.973   2.279   3.443
 5644SOL     OW17830   2.359   0.559   5.736
 5644SOL    HW117831   2.391   0.527   5.647
 5644SOL    HW217832   2.437   0.582   5.794
 5645SOL     OW17833   6.903   6.010   4.356
 5645SOL    HW117834   6.966   6.043   4.426
 5645SOL    HW217835   6.886   6.082   4.289
 5646SOL     OW17836   6.427   0.898   2.361
 5646SOL    HW117837   6.362   0.946   2.302
 5646SOL    HW217838   6.486   0.841   2.305
 5647SOL     OW17839   5.800   3.150   6.797
 5647SOL    HW117840   5.859   3.205   6.856
 5647SOL    HW217841   5.857   3.093   6.737
 5648SOL     OW17842   1.714   1.785   4.234
 5648SOL    HW117843   1.744   1.870   4.189
 5648SOL    HW217844   1.646   1.740   4.177
 5649SOL     OW17845   6.978   0.747   4.735
 5649SOL    HW117846   6.929   0.710   4.814
 5649SOL    HW217847   6.950   0.841   4.719
 5650SOL     OW17848   5.976   4.470   6.161
 5650SOL    HW117849   6.033   4.539   6.206
 5650SOL    HW217850   5.881   4.484   6.188
 5651SOL     OW17851   5.863   0.885   2.984
 5651SOL    HW117852   5.877   0.805   3.042
 5651SOL    HW217853   5.816   0.956   3.036
 5652SOL     OW17854   3.921   4.255   6.176
 5652SOL    HW117855   3.930   4.337   6.232
 5652SOL    HW217856   3.978   4.182   6.213
 5653SOL     OW17857   2.330   6.968   5.817
 5653SOL    HW117858   2.301   0.000   5.737
 5653SOL    HW217859   2.335   6.871   5.792
 5654SOL     OW17860   3.116   6.825   6.866
 5654SOL    HW117861   3.161   6.756   6.923
 5654SOL    HW217862   3.082   6.783   6.782
 5655SOL     OW17863   5.968   5.089   1.890
 5655SOL    HW117864   5.937   5.026   1.962
 5655SOL    HW217865   5.916   5.174   1.896
 5656SOL     OW17866   2.802   4.602   6.451
 5656SOL    HW117867   2.737   4.606   6.375
 5656SOL    HW217868   2.894   4.619   6.416
 5657SOL     OW17869   5.283   5.504   1.713
 5657SOL    HW117870   5.276   5.510   1.614
 5657SOL    HW217871   5.296   5.409   1.741
 5658SOL     OW17872   4.451   6.707   6.207
 5658SOL    HW117873   4.371   6.653   6.233
 5658SOL    HW217874   4.433   6.804   6.225
 5659SOL     OW17875   2.915   3.349   2.616
 5659SOL    HW117876   3.005   3.388   2.635
 5659SOL    HW217877   2.876   3.312   2.701
 5660SOL     OW17878   0.822   4.565   1.887
 5660SOL    HW117879   0.847   4.537   1.980
 5660SOL    HW217880   0.897   4.543   1.825
 5661SOL     OW17881   5.908   5.522   5.215
 5661SOL    HW117882   5.994   5.508   5.263
 5661SOL    HW217883   5.919   5.593   5.146
 5662SOL     OW17884   1.626   4.287   5.271
 5662SOL    HW117885   1.584   4.373   5.298
 5662SOL    HW217886   1.724   4.299   5.261
 5663SOL     OW17887   2.324   3.343   0.494
 5663SOL    HW117888   2.323   3.344   0.594
 5663SOL    HW217889   2.241   3.387   0.460
 5664SOL     OW17890   6.294   0.038   1.279
 5664SOL    HW117891   6.325   0.114   1.336
 5664SOL    HW217892   6.355   6.980   1.290
 5665SOL     OW17893   1.203   0.595   6.311
 5665SOL    HW117894   1.264   0.668   6.281
 5665SOL    HW217895   1.164   0.618   6.400
 5666SOL     OW17896   4.739   6.123   6.204
 5666SOL    HW117897   4.828   6.167   6.189
 5666SOL    HW217898   4.667   6.192   6.203
 5667SOL     OW17899   5.275   4.988   3.463
 5667SOL    HW117900   5.199   4.982   3.399
 5667SOL    HW217901   5.360   5.001   3.412
 5668SOL     OW17902   6.468   2.644   6.415
 5668SOL    HW117903   6.376   2.617   6.389
 5668SOL    HW217904   6.535   2.597   6.357
 5669SOL     OW17905   0.835   2.067   5.615
 5669SOL    HW117906   0.935   2.074   5.622
 5669SOL    HW217907   0.810   2.048   5.520
 5670SOL     OW17908   1.401   2.567   2.460
 5670SOL    HW117909   1.410   2.524   2.370
 5670SOL    HW217910   1.420   2.665   2.451
 5671SOL     OW17911   0.323   0.890   5.979
 5671SOL    HW117912   0.242   0.942   5.954
 5671SOL    HW217913   0.400   0.919   5.922
 5672SOL     OW17914   4.204   4.737   6.036
 5672SOL    HW117915   4.111   4.710   6.060
 5672SOL    HW217916   4.206   4.768   5.941
 5673SOL     OW17917   2.213   6.333   1.453
 5673SOL    HW117918   2.301   6.293   1.479
 5673SOL    HW217919   2.180   6.290   1.370
 5674SOL     OW17920   0.593   2.828   0.252
 5674SOL    HW117921   0.689   2.808   0.231
 5674SOL    HW217922   0.537   2.807   0.172
 5675SOL     OW17923   4.183   1.451   5.735
 5675SOL    HW117924   4.154   1.489   5.647
 5675SOL    HW217925   4.172   1.352   5.735
 5676SOL     OW17926   2.523   5.948   2.150
 5676SOL    HW117927   2.619   5.926   2.137
 5676SOL    HW217928   2.478   5.954   2.061
 5677SOL     OW17929   5.550   0.702   3.355
 5677SOL    HW117930   5.528   0.675   3.449
 5677SOL    HW217931   5.628   0.765   3.357
 5678SOL     OW17932   1.266   5.318   2.546
 5678SOL    HW117933   1.178   5.306   2.594
 5678SOL    HW217934   1.289   5.415   2.543
 5679SOL     OW17935   4.114   5.815   5.629
 5679SOL    HW117936   4.204   5.851   5.655
 5679SOL    HW217937   4.125   5.725   5.588
 5680SOL     OW17938   0.954   0.198   6.524
 5680SOL    HW117939   1.005   0.203   6.610
 5680SOL    HW217940   1.018   0.203   6.447
 5681SOL     OW17941   3.079   3.200   0.358
 5681SOL    HW117942   3.061   3.177   0.453
 5681SOL    HW217943   3.075   3.117   0.303
 5682SOL     OW17944   2.223   4.672   4.570
 5682SOL    HW117945   2.189   4.665   4.664
 5682SOL    HW217946   2.323   4.678   4.572
 5683SOL     OW17947   3.201   3.749   5.142
 5683SOL    HW117948   3.234   3.656   5.123
 5683SOL    HW217949   3.222   3.772   5.237
 5684SOL     OW17950   3.160   4.063   2.498
 5684SOL    HW117951   3.131   4.063   2.594
 5684SOL    HW217952   3.143   3.973   2.458
 5685SOL     OW17953   6.578   0.371   1.656
 5685SOL    HW117954   6.639   0.319   1.716
 5685SOL    HW217955   6.631   0.441   1.609
 5686SOL     OW17956   3.300   4.718   6.462
 5686SOL    HW117957   3.343   4.641   6.511
 5686SOL    HW217958   3.367   4.760   6.401
 5687SOL     OW17959   4.635   0.007   6.010
 5687SOL    HW117960   4.647   7.005   5.913
 5687SOL    HW217961   4.662   6.949   6.066
 5688SOL     OW17962   5.443   1.153   2.376
 5688SOL    HW117963   5.529   1.102   2.374
 5688SOL    HW217964   5.391   1.133   2.292
 5689SOL     OW17965   3.792   3.236   5.264
 5689SOL    HW117966   3.702   3.192   5.257
 5689SOL    HW217967   3.780   3.334   5.281
 5690SOL     OW17968   3.393   0.412   3.388
 5690SOL    HW117969   3.368   0.482   3.321
 5690SOL    HW217970   3.369   0.322   3.353
 5691SOL     OW17971   3.095   0.245   4.415
 5691SOL    HW117972   3.123   0.160   4.371
 5691SOL    HW217973   3.111   0.238   4.514
 5692SOL     OW17974   6.052   2.837   0.745
 5692SOL    HW117975   6.030   2.771   0.674
 5692SOL    HW217976   6.043   2.930   0.708
 5693SOL     OW17977   5.681   3.523   1.661
 5693SOL    HW117978   5.593   3.563   1.687
 5693SOL    HW217979   5.754   3.588   1.682
 5694SOL     OW17980   1.911   2.455   4.901
 5694SOL    HW117981   1.816   2.443   4.930
 5694SOL    HW217982   1.932   2.552   4.894
 5695SOL     OW17983   1.807   3.323   2.936
 5695SOL    HW117984   1.794   3.225   2.922
 5695SOL    HW217985   1.815   3.369   2.848
 5696SOL     OW17986   3.340   1.445   6.830
 5696SOL    HW117987   3.351   1.384   6.908
 5696SOL    HW217988   3.400   1.415   6.755
 5697SOL     OW17989   6.430   3.852   1.081
 5697SOL    HW117990   6.365   3.897   1.143
 5697SOL    HW217991   6.400   3.865   0.986
 5698SOL     OW17992   1.935   4.872   4.337
 5698SOL    HW117993   2.022   4.860   4.384
 5698SOL    HW217994   1.935   4.959   4.288
 5699SOL     OW17995   1.083   2.170   5.676
 5699SOL    HW117996   1.180   2.150   5.694
 5699SOL    HW217997   1.057   2.252   5.727
 5700SOL     OW17998   1.760   5.195   4.388
 5700SOL    HW117999   1.779   5.136   4.466
 5700SOL    HW218000   1.811   5.162   4.308
 5701SOL     OW18001   5.073   2.196   2.352
 5701SOL    HW118002   5.113   2.164   2.438
 5701SOL    HW218003   5.080   2.296   2.348
 5702SOL     OW18004   4.206   0.597   0.139
 5702SOL    HW118005   4.278   0.664   0.123
 5702SOL    HW218006   4.242   0.522   0.196
 5703SOL     OW18007   4.889   4.044   2.453
 5703SOL    HW118008   4.865   4.026   2.358
 5703SOL    HW218009   4.838   4.124   2.486
 5704SOL     OW18010   5.597   3.351   3.477
 5704SOL    HW118011   5.636   3.291   3.546
 5704SOL    HW218012   5.645   3.338   3.390
 5705SOL     OW18013   6.437   1.139   3.992
 5705SOL    HW118014   6.491   1.129   4.075
 5705SOL    HW218015   6.427   1.050   3.948
 5706SOL     OW18016   2.118   1.534   5.547
 5706SOL    HW118017   2.037   1.477   5.557
 5706SOL    HW218018   2.092   1.619   5.500
 5707SOL     OW18019   4.551   0.447   1.452
 5707SOL    HW118020   4.620   0.514   1.481
 5707SOL    HW218021   4.476   0.446   1.518
 5708SOL     OW18022   1.161   7.003   0.316
 5708SOL    HW118023   1.202   0.014   0.402
 5708SOL    HW218024   1.069   0.022   0.307
 5709SOL     OW18025   0.373   3.147   0.979
 5709SOL    HW118026   0.334   3.207   0.909
 5709SOL    HW218027   0.304   3.081   1.008
 5710SOL     OW18028   3.158   5.360   6.398
 5710SOL    HW118029   3.125   5.400   6.483
 5710SOL    HW218030   3.220   5.285   6.419
 5711SOL     OW18031   5.206   1.335   5.337
 5711SOL    HW118032   5.264   1.310   5.259
 5711SOL    HW218033   5.113   1.303   5.321
 5712SOL     OW18034   5.083   7.019   6.138
 5712SOL    HW118035   5.059   0.074   6.077
 5712SOL    HW218036   5.006   7.000   6.199
 5713SOL     OW18037   0.522   3.589   2.635
 5713SOL    HW118038   0.549   3.665   2.575
 5713SOL    HW218039   0.426   3.600   2.662
 5714SOL     OW18040   2.434   0.726   1.159
 5714SOL    HW118041   2.394   0.666   1.228
 5714SOL    HW218042   2.417   0.821   1.183
 5715SOL     OW18043   0.582   5.768   3.976
 5715SOL    HW118044   0.613   5.858   3.943
 5715SOL    HW218045   0.586   5.702   3.901
 5716SOL     OW18046   1.215   2.828   4.764
 5716SOL    HW118047   1.294   2.881   4.735
 5716SOL    HW218048   1.217   2.817   4.864
 5717SOL     OW18049   0.257   4.395   5.166
 5717SOL    HW118050   0.275   4.459   5.091
 5717SOL    HW218051   0.219   4.445   5.244
 5718SOL     OW18052   2.507   5.636   5.851
 5718SOL    HW118053   2.601   5.619   5.882
 5718SOL    HW218054   2.445   5.634   5.929
 5719SOL     OW18055   1.521   1.100   0.196
 5719SOL    HW118056   1.605   1.098   0.143
 5719SOL    HW218057   1.533   1.156   0.278
 5720SOL     OW18058   2.153   5.789   4.215
 5720SOL    HW118059   2.111   5.763   4.128
 5720SOL    HW218060   2.243   5.747   4.223
 5721SOL     OW18061   6.276   5.347   6.883
 5721SOL    HW118062   6.229   5.317   6.967
 5721SOL    HW218063   6.360   5.395   6.908
 5722SOL     OW18064   5.515   0.811   4.049
 5722SOL    HW118065   5.417   0.811   4.066
 5722SOL    HW218066   5.536   0.752   3.971
 5723SOL     OW18067   6.264   5.256   0.705
 5723SOL    HW118068   6.331   5.301   0.763
 5723SOL    HW218069   6.280   5.281   0.609
 5724SOL     OW18070   4.827   2.942   5.862
 5724SOL    HW118071   4.836   3.040   5.845
 5724SOL    HW218072   4.734   2.923   5.892
 5725SOL     OW18073   6.091   6.841   5.420
 5725SOL    HW118074   6.020   6.884   5.364
 5725SOL    HW218075   6.169   6.902   5.429
 5726SOL     OW18076   4.300   5.888   5.262
 5726SOL    HW118077   4.349   5.881   5.348
 5726SOL    HW218078   4.206   5.920   5.279
 5727SOL     OW18079   5.136   3.201   3.432
 5727SOL    HW118080   5.220   3.227   3.480
 5727SOL    HW218081   5.083   3.283   3.411
 5728SOL     OW18082   3.562   1.052   5.153
 5728SOL    HW118083   3.654   1.028   5.124
 5728SOL    HW218084   3.528   0.983   5.217
 5729SOL     OW18085   2.875   2.023   3.894
 5729SOL    HW118086   2.871   2.108   3.841
 5729SOL    HW218087   2.826   2.035   3.980
 5730SOL     OW18088   4.054   4.936   0.109
 5730SOL    HW118089   4.056   4.942   0.209
 5730SOL    HW218090   4.059   4.840   0.082
 5731SOL     OW18091   4.470   1.292   5.231
 5731SOL    HW118092   4.411   1.342   5.168
 5731SOL    HW218093   4.556   1.342   5.244
 5732SOL     OW18094   6.811   3.822   4.392
 5732SOL    HW118095   6.738   3.844   4.327
 5732SOL    HW218096   6.845   3.907   4.433
 5733SOL     OW18097   2.110   6.361   0.562
 5733SOL    HW118098   2.192   6.316   0.600
 5733SOL    HW218099   2.098   6.450   0.607
 5734SOL     OW18100   1.645   0.273   6.387
 5734SOL    HW118101   1.573   0.332   6.424
 5734SOL    HW218102   1.643   0.185   6.432
 5735SOL     OW18103   5.496   1.455   0.923
 5735SOL    HW118104   5.438   1.376   0.904
 5735SOL    HW218105   5.581   1.425   0.966
 5736SOL     OW18106   4.062   3.495   6.377
 5736SOL    HW118107   4.119   3.480   6.458
 5736SOL    HW218108   3.967   3.506   6.404
 5737SOL     OW18109   5.352   5.396   2.220
 5737SOL    HW118110   5.325   5.358   2.308
 5737SOL    HW218111   5.414   5.331   2.174
 5738SOL     OW18112   3.151   1.771   1.184
 5738SOL    HW118113   3.156   1.862   1.223
 5738SOL    HW218114   3.078   1.768   1.115
 5739SOL     OW18115   1.963   0.991   5.991
 5739SOL    HW118116   1.960   0.907   5.937
 5739SOL    HW218117   1.957   0.968   6.088
 5740SOL     OW18118   5.444   2.846   2.384
 5740SOL    HW118119   5.538   2.872   2.405
 5740SOL    HW218120   5.442   2.750   2.358
 5741SOL     OW18121   1.465   3.354   4.021
 5741SOL    HW118122   1.490   3.308   4.106
 5741SOL    HW218123   1.372   3.389   4.029
 5742SOL     OW18124   6.512   4.712   2.121
 5742SOL    HW118125   6.520   4.622   2.078
 5742SOL    HW218126   6.449   4.769   2.068
 5743SOL     OW18127   3.155   6.390   6.431
 5743SOL    HW118128   3.249   6.382   6.398
 5743SOL    HW218129   3.099   6.436   6.361
 5744SOL     OW18130   5.326   5.649   3.998
 5744SOL    HW118131   5.295   5.640   4.093
 5744SOL    HW218132   5.357   5.560   3.965
 5745SOL     OW18133   2.039   4.097   2.295
 5745SOL    HW118134   2.060   4.007   2.258
 5745SOL    HW218135   2.107   4.163   2.263
 5746SOL     OW18136   5.239   0.799   3.526
 5746SOL    HW118137   5.149   0.778   3.564
 5746SOL    HW218138   5.229   0.827   3.430
 5747SOL     OW18139   1.136   6.510   1.835
 5747SOL    HW118140   1.208   6.502   1.766
 5747SOL    HW218141   1.143   6.435   1.900
 5748SOL     OW18142   6.347   0.010   0.255
 5748SOL    HW118143   6.389   6.986   0.334
 5748SOL    HW218144   6.418   0.060   0.204
 5749SOL     OW18145   1.889   6.003   6.060
 5749SOL    HW118146   1.984   5.974   6.070
 5749SOL    HW218147   1.832   5.925   6.036
 5750SOL     OW18148   6.120   2.291   4.100
 5750SOL    HW118149   6.219   2.299   4.111
 5750SOL    HW218150   6.074   2.349   4.166
 5751SOL     OW18151   0.058   3.791   4.331
 5751SOL    HW118152   0.075   3.822   4.424
 5751SOL    HW218153   6.980   3.780   4.317
 5752SOL     OW18154   5.797   1.758   6.425
 5752SOL    HW118155   5.771   1.847   6.462
 5752SOL    HW218156   5.769   1.686   6.487
 5753SOL     OW18157   3.756   3.579   3.923
 5753SOL    HW118158   3.690   3.645   3.958
 5753SOL    HW218159   3.771   3.596   3.825
 5754SOL     OW18160   6.127   0.913   0.969
 5754SOL    HW118161   6.135   0.834   1.030
 5754SOL    HW218162   6.179   0.990   1.007
 5755SOL     OW18163   0.864   4.147   6.296
 5755SOL    HW118164   0.949   4.158   6.244
 5755SOL    HW218165   0.811   4.232   6.292
 5756SOL     OW18166   5.311   0.150   1.771
 5756SOL    HW118167   5.283   0.222   1.835
 5756SOL    HW218168   5.410   0.140   1.774
 5757SOL     OW18169   1.369   1.894   3.945
 5757SOL    HW118170   1.458   1.934   3.920
 5757SOL    HW218171   1.383   1.822   4.013
 5758SOL     OW18172   6.331   0.081   2.778
 5758SOL    HW118173   6.410   0.141   2.764
 5758SOL    HW218174   6.253   0.136   2.808
 5759SOL     OW18175   3.045   6.605   3.196
 5759SOL    HW118176   3.020   6.676   3.262
 5759SOL    HW218177   2.966   6.545   3.180
 5760SOL     OW18178   0.482   2.490   0.123
 5760SOL    HW118179   0.471   2.426   0.200
 5760SOL    HW218180   0.579   2.507   0.107
 5761SOL     OW18181   0.043   6.693   5.261
 5761SOL    HW118182   7.019   6.642   5.335
 5761SOL    HW218183   0.002   6.668   5.174
 5762SOL     OW18184   0.601   6.543   5.965
 5762SOL    HW118185   0.615   6.557   6.064
 5762SOL    HW218186   0.655   6.464   5.935
 5763SOL     OW18187   4.740   0.429   6.843
 5763SOL    HW118188   4.654   0.382   6.863
 5763SOL    HW218189   4.794   0.374   6.780
 5764SOL     OW18190   4.169   6.175   3.798
 5764SOL    HW118191   4.121   6.234   3.733
 5764SOL    HW218192   4.135   6.193   3.891
 5765SOL     OW18193   6.452   6.893   2.586
 5765SOL    HW118194   6.465   6.968   2.520
 5765SOL    HW218195   6.383   6.920   2.654
 5766SOL     OW18196   0.965   0.641   4.640
 5766SOL    HW118197   0.888   0.655   4.703
 5766SOL    HW218198   0.944   0.682   4.552
 5767SOL     OW18199   6.279   6.988   0.677
 5767SOL    HW118200   6.292   6.914   0.742
 5767SOL    HW218201   6.349   6.983   0.606
 5768SOL     OW18202   1.418   0.335   5.170
 5768SOL    HW118203   1.407   0.237   5.188
 5768SOL    HW218204   1.375   0.387   5.243
 5769SOL     OW18205   1.204   1.989   6.412
 5769SOL    HW118206   1.223   1.987   6.314
 5769SOL    HW218207   1.146   2.068   6.433
 5770SOL     OW18208   1.351   3.326   2.397
 5770SOL    HW118209   1.427   3.374   2.354
 5770SOL    HW218210   1.377   3.297   2.489
 5771SOL     OW18211   2.804   6.486   3.172
 5771SOL    HW118212   2.720   6.531   3.203
 5771SOL    HW218213   2.780   6.406   3.116
 5772SOL     OW18214   2.652   0.879   3.367
 5772SOL    HW118215   2.671   0.946   3.438
 5772SOL    HW218216   2.560   0.841   3.380
 5773SOL     OW18217   6.013   0.358   4.284
 5773SOL    HW118218   5.991   0.433   4.346
 5773SOL    HW218219   5.965   0.372   4.197
 5774SOL     OW18220   1.183   6.414   3.457
 5774SOL    HW118221   1.127   6.332   3.468
 5774SOL    HW218222   1.129   6.495   3.482
 5775SOL     OW18223   5.828   4.820   2.644
 5775SOL    HW118224   5.778   4.734   2.641
 5775SOL    HW218225   5.765   4.896   2.640
 5776SOL     OW18226   3.802   0.584   4.302
 5776SOL    HW118227   3.764   0.584   4.210
 5776SOL    HW218228   3.863   0.663   4.312
 5777SOL     OW18229   0.326   0.605   1.558
 5777SOL    HW118230   0.283   0.686   1.599
 5777SOL    HW218231   0.399   0.572   1.618
 5778SOL     OW18232   0.207   1.100   6.853
 5778SOL    HW118233   0.206   1.171   6.782
 5778SOL    HW218234   0.298   1.059   6.858
 5779SOL     OW18235   5.929   1.432   0.127
 5779SOL    HW118236   5.937   1.337   0.096
 5779SOL    HW218237   5.978   1.443   0.214
 5780SOL     OW18238   5.169   5.046   4.580
 5780SOL    HW118239   5.248   5.074   4.524
 5780SOL    HW218240   5.089   5.034   4.521
 5781SOL     OW18241   1.462   5.983   5.633
 5781SOL    HW118242   1.424   5.891   5.636
 5781SOL    HW218243   1.404   6.041   5.576
 5782SOL     OW18244   5.089   1.072   1.734
 5782SOL    HW118245   5.069   1.135   1.809
 5782SOL    HW218246   5.162   1.010   1.761
 5783SOL     OW18247   1.983   2.103   6.655
 5783SOL    HW118248   2.070   2.091   6.608
 5783SOL    HW218249   1.973   2.197   6.685
 5784SOL     OW18250   6.560   6.142   0.537
 5784SOL    HW118251   6.561   6.043   0.550
 5784SOL    HW218252   6.630   6.167   0.470
 5785SOL     OW18253   1.881   1.127   2.387
 5785SOL    HW118254   1.908   1.114   2.483
 5785SOL    HW218255   1.949   1.185   2.341
 5786SOL     OW18256   5.556   4.757   2.261
 5786SOL    HW118257   5.638   4.793   2.306
 5786SOL    HW218258   5.492   4.724   2.331
 5787SOL     OW18259   2.148   2.708   6.445
 5787SOL    HW118260   2.121   2.641   6.515
 5787SOL    HW218261   2.248   2.714   6.442
 5788SOL     OW18262   3.319   1.125   4.042
 5788SOL    HW118263   3.399   1.183   4.060
 5788SOL    HW218264   3.241   1.158   4.096
 5789SOL     OW18265   3.463   4.976   5.753
 5789SOL    HW118266   3.534   5.039   5.783
 5789SOL    HW218267   3.478   4.887   5.794
 5790SOL     OW18268   1.741   3.292   3.873
 5790SOL    HW118269   1.668   3.357   3.893
 5790SOL    HW218270   1.792   3.322   3.793
 5791SOL     OW18271   1.213   1.177   3.533
 5791SOL    HW118272   1.296   1.226   3.506
 5791SOL    HW218273   1.133   1.227   3.502
 5792SOL     OW18274   0.959   1.296   3.205
 5792SOL    HW118275   0.883   1.231   3.197
 5792SOL    HW218276   0.974   1.317   3.301
 5793SOL     OW18277   6.542   1.501   5.432
 5793SOL    HW118278   6.547   1.447   5.348
 5793SOL    HW218279   6.448   1.528   5.449
 5794SOL     OW18280   0.104   3.819   6.589
 5794SOL    HW118281   0.163   3.739   6.583
 5794SOL    HW218282   0.109   3.871   6.503
 5795SOL     OW18283   6.842   4.282   0.038
 5795SOL    HW118284   6.743   4.294   0.046
 5795SOL    HW218285   6.888   4.367   0.063
 5796SOL     OW18286   2.821   2.017   0.571
 5796SOL    HW118287   2.848   1.979   0.483
 5796SOL    HW218288   2.901   2.054   0.618
 5797SOL     OW18289   3.017   3.298   5.766
 5797SOL    HW118290   2.980   3.347   5.687
 5797SOL    HW218291   2.990   3.202   5.761
 5798SOL     OW18292   6.200   4.586   3.934
 5798SOL    HW118293   6.188   4.639   3.850
 5798SOL    HW218294   6.114   4.585   3.985
 5799SOL     OW18295   5.125   0.233   3.940
 5799SOL    HW118296   5.184   0.173   3.994
 5799SOL    HW218297   5.065   0.178   3.883
 5800SOL     OW18298   5.590   6.680   6.574
 5800SOL    HW118299   5.562   6.735   6.653
 5800SOL    HW218300   5.631   6.594   6.606
 5801SOL     OW18301   1.659   1.036   2.214
 5801SOL    HW118302   1.740   1.071   2.262
 5801SOL    HW218303   1.663   0.936   2.211
 5802SOL     OW18304   0.352   2.723   4.358
 5802SOL    HW118305   0.282   2.740   4.288
 5802SOL    HW218306   0.428   2.671   4.317
 5803SOL     OW18307   1.436   4.665   1.080
 5803SOL    HW118308   1.491   4.586   1.107
 5803SOL    HW218309   1.340   4.646   1.100
 5804SOL     OW18310   0.240   3.261   6.940
 5804SOL    HW118311   0.329   3.224   6.968
 5804SOL    HW218312   0.249   3.305   6.851
 5805SOL     OW18313   4.490   3.201   6.871
 5805SOL    HW118314   4.543   3.233   6.792
 5805SOL    HW218315   4.552   3.179   6.946
 5806SOL     OW18316   5.822   6.474   6.121
 5806SOL    HW118317   5.838   6.461   6.023
 5806SOL    HW218318   5.851   6.565   6.148
 5807SOL     OW18319   2.653   4.375   1.474
 5807SOL    HW118320   2.558   4.377   1.504
 5807SOL    HW218321   2.669   4.294   1.418
 5808SOL     OW18322   6.474   1.864   3.397
 5808SOL    HW118323   6.565   1.831   3.375
 5808SOL    HW218324   6.478   1.960   3.422
 5809SOL     OW18325   0.930   3.333   3.587
 5809SOL    HW118326   1.006   3.357   3.527
 5809SOL    HW218327   0.895   3.242   3.563
 5810SOL     OW18328   3.435   1.778   2.498
 5810SOL    HW118329   3.431   1.792   2.597
 5810SOL    HW218330   3.401   1.860   2.451
 5811SOL     OW18331   2.844   0.004   1.337
 5811SOL    HW118332   2.816   0.098   1.358
 5811SOL    HW218333   2.787   6.961   1.389
 5812SOL     OW18334   4.642   0.900   4.205
 5812SOL    HW118335   4.718   0.841   4.176
 5812SOL    HW218336   4.674   0.995   4.210
 5813SOL     OW18337   1.442   2.274   5.104
 5813SOL    HW118338   1.402   2.192   5.064
 5813SOL    HW218339   1.373   2.320   5.161
 5814SOL     OW18340   0.584   5.040   1.224
 5814SOL    HW118341   0.632   5.127   1.232
 5814SOL    HW218342   0.527   5.026   1.304
 5815SOL     OW18343   4.249   6.307   4.915
 5815SOL    HW118344   4.232   6.375   4.986
 5815SOL    HW218345   4.162   6.263   4.891
 5816SOL     OW18346   5.283   6.006   6.542
 5816SOL    HW118347   5.274   6.010   6.642
 5816SOL    HW218348   5.270   5.912   6.512
 5817SOL     OW18349   6.200   2.632   6.387
 5817SOL    HW118350   6.155   2.574   6.455
 5817SOL    HW218351   6.181   2.597   6.295
 5818SOL     OW18352   6.067   6.514   5.282
 5818SOL    HW118353   6.072   6.513   5.182
 5818SOL    HW218354   5.974   6.536   5.310
 5819SOL     OW18355   6.910   0.918   1.410
 5819SOL    HW118356   7.000   0.887   1.379
 5819SOL    HW218357   6.849   0.839   1.419
 5820SOL     OW18358   5.216   4.699   1.565
 5820SOL    HW118359   5.177   4.607   1.559
 5820SOL    HW218360   5.143   4.767   1.554
 5821SOL     OW18361   2.965   6.753   2.942
 5821SOL    HW118362   2.889   6.736   2.879
 5821SOL    HW218363   2.937   6.732   3.035
 5822SOL     OW18364   0.532   0.736   2.599
 5822SOL    HW118365   0.502   0.664   2.663
 5822SOL    HW218366   0.552   0.695   2.510
 5823SOL     OW18367   1.544   2.501   3.642
 5823SOL    HW118368   1.571   2.441   3.567
 5823SOL    HW218369   1.621   2.560   3.667
 5824SOL     OW18370   5.018   0.672   3.680
 5824SOL    HW118371   4.955   0.690   3.755
 5824SOL    HW218372   4.967   0.665   3.594
 5825SOL     OW18373   3.208   1.740   1.747
 5825SOL    HW118374   3.111   1.724   1.769
 5825SOL    HW218375   3.239   1.669   1.684
 5826SOL     OW18376   0.306   6.671   2.903
 5826SOL    HW118377   0.281   6.615   2.824
 5826SOL    HW218378   0.273   6.627   2.987
 5827SOL     OW18379   1.720   5.257   5.957
 5827SOL    HW118380   1.655   5.212   5.896
 5827SOL    HW218381   1.808   5.210   5.951
 5828SOL     OW18382   6.550   1.536   1.348
 5828SOL    HW118383   6.461   1.581   1.339
 5828SOL    HW218384   6.549   1.477   1.430
 5829SOL     OW18385   2.141   0.774   1.808
 5829SOL    HW118386   2.133   0.829   1.725
 5829SOL    HW218387   2.238   0.767   1.834
 5830SOL     OW18388   1.253   1.211   6.260
 5830SOL    HW118389   1.191   1.206   6.339
 5830SOL    HW218390   1.201   1.194   6.176
 5831SOL     OW18391   5.706   5.648   2.739
 5831SOL    HW118392   5.728   5.572   2.677
 5831SOL    HW218393   5.646   5.615   2.812
 5832SOL     OW18394   3.712   3.809   4.089
 5832SOL    HW118395   3.692   3.900   4.126
 5832SOL    HW218396   3.811   3.796   4.084
 5833SOL     OW18397   3.048   3.335   4.733
 5833SOL    HW118398   3.016   3.240   4.734
 5833SOL    HW218399   3.143   3.337   4.700
 5834SOL     OW18400   5.504   1.082   6.533
 5834SOL    HW118401   5.412   1.104   6.502
 5834SOL    HW218402   5.571   1.115   6.467
 5835SOL     OW18403   5.446   2.606   4.171
 5835SOL    HW118404   5.364   2.594   4.116
 5835SOL    HW218405   5.457   2.703   4.193
 5836SOL     OW18406   3.644   0.006   3.947
 5836SOL    HW118407   3.716   7.020   4.016
 5836SOL    HW218408   3.590   0.089   3.961
 5837SOL     OW18409   4.033   4.226   6.659
 5837SOL    HW118410   3.998   4.192   6.746
 5837SOL    HW218411   3.958   4.261   6.604
 5838SOL     OW18412   0.423   1.468   6.006
 5838SOL    HW118413   0.415   1.485   6.104
 5838SOL    HW218414   0.342   1.502   5.959
 5839SOL     OW18415   6.785   2.703   2.447
 5839SOL    HW118416   6.833   2.707   2.535
 5839SOL    HW218417   6.839   2.749   2.377
 5840SOL     OW18418   3.112   5.878   0.490
 5840SOL    HW118419   3.159   5.870   0.402
 5840SOL    HW218420   3.179   5.885   0.563
 5841SOL     OW18421   6.466   2.103   3.531
 5841SOL    HW118422   6.374   2.137   3.511
 5841SOL    HW218423   6.532   2.178   3.524
 5842SOL     OW18424   3.972   2.360   1.007
 5842SOL    HW118425   3.885   2.339   1.052
 5842SOL    HW218426   4.025   2.276   0.997
 5843SOL     OW18427   0.275   1.906   1.717
 5843SOL    HW118428   0.307   1.981   1.775
 5843SOL    HW218429   0.261   1.825   1.774
 5844SOL     OW18430   1.845   5.913   6.435
 5844SOL    HW118431   1.806   5.839   6.381
 5844SOL    HW218432   1.806   5.910   6.528
 5845SOL     OW18433   2.287   2.942   4.310
 5845SOL    HW118434   2.366   2.942   4.372
 5845SOL    HW218435   2.204   2.925   4.363
 5846SOL     OW18436   0.543   3.749   6.888
 5846SOL    HW118437   0.615   3.717   6.950
 5846SOL    HW218438   0.458   3.762   6.939
 5847SOL     OW18439   1.246   2.458   4.070
 5847SOL    HW118440   1.238   2.359   4.081
 5847SOL    HW218441   1.282   2.479   3.979
 5848SOL     OW18442   1.002   4.551   3.565
 5848SOL    HW118443   0.997   4.646   3.598
 5848SOL    HW218444   1.016   4.490   3.643
 5849SOL     OW18445   2.162   0.171   5.926
 5849SOL    HW118446   2.243   0.141   5.975
 5849SOL    HW218447   2.104   0.092   5.906
 5850SOL     OW18448   0.839   4.984   3.075
 5850SOL    HW118449   0.822   4.889   3.051
 5850SOL    HW218450   0.938   5.001   3.077
 5851SOL     OW18451   6.839   3.547   1.688
 5851SOL    HW118452   6.933   3.577   1.672
 5851SOL    HW218453   6.794   3.529   1.600
 5852SOL     OW18454   3.753   6.199   2.783
 5852SOL    HW118455   3.691   6.223   2.709
 5852SOL    HW218456   3.759   6.275   2.848
 5853SOL     OW18457   5.082   3.857   5.234
 5853SOL    HW118458   5.037   3.853   5.145
 5853SOL    HW218459   5.048   3.935   5.286
 5854SOL     OW18460   1.406   1.331   6.843
 5854SOL    HW118461   1.373   1.295   6.756
 5854SOL    HW218462   1.367   1.277   6.918
 5855SOL     OW18463   1.746   1.918   5.094
 5855SOL    HW118464   1.788   1.950   5.178
 5855SOL    HW218465   1.647   1.933   5.098
 5856SOL     OW18466   1.049   6.698   3.187
 5856SOL    HW118467   0.979   6.770   3.191
 5856SOL    HW218468   1.081   6.678   3.280
 5857SOL     OW18469   0.641   2.273   5.030
 5857SOL    HW118470   0.585   2.191   5.019
 5857SOL    HW218471   0.583   2.351   5.053
 5858SOL     OW18472   2.995   0.298   3.953
 5858SOL    HW118473   3.040   0.378   3.913
 5858SOL    HW218474   3.033   0.280   4.043
 5859SOL     OW18475   5.649   4.930   1.884
 5859SOL    HW118476   5.658   5.028   1.865
 5859SOL    HW218477   5.558   4.911   1.921
 5860SOL     OW18478   6.792   4.764   0.266
 5860SOL    HW118479   6.860   4.739   0.335
 5860SOL    HW218480   6.780   4.689   0.201
 5861SOL     OW18481   6.221   1.998   4.478
 5861SOL    HW118482   6.165   2.078   4.501
 5861SOL    HW218483   6.243   2.000   4.381
 5862SOL     OW18484   5.992   5.336   4.387
 5862SOL    HW118485   5.963   5.403   4.318
 5862SOL    HW218486   6.090   5.319   4.377
 5863SOL     OW18487   2.069   1.486   0.502
 5863SOL    HW118488   1.991   1.524   0.452
 5863SOL    HW218489   2.111   1.557   0.558
 5864SOL     OW18490   4.789   5.194   0.281
 5864SOL    HW118491   4.719   5.263   0.300
 5864SOL    HW218492   4.762   5.141   0.201
 5865SOL     OW18493   4.786   0.183   3.336
 5865SOL    HW118494   4.817   0.185   3.431
 5865SOL    HW218495   4.859   0.216   3.277
 5866SOL     OW18496   3.432   2.049   6.505
 5866SOL    HW118497   3.419   2.124   6.439
 5866SOL    HW218498   3.480   1.974   6.461
 5867SOL     OW18499   6.651   2.888   2.080
 5867SOL    HW118500   6.595   2.808   2.059
 5867SOL    HW218501   6.688   2.926   1.995
 5868SOL     OW18502   0.241   6.343   5.418
 5868SOL    HW118503   0.244   6.312   5.323
 5868SOL    HW218504   0.149   6.328   5.454
 5869SOL     OW18505   2.538   5.153   4.856
 5869SOL    HW118506   2.556   5.241   4.901
 5869SOL    HW218507   2.445   5.152   4.820
 5870SOL     OW18508   5.443   6.008   4.200
 5870SOL    HW118509   5.507   5.933   4.180
 5870SOL    HW218510   5.408   5.998   4.293
 5871SOL     OW18511   3.702   4.431   1.051
 5871SOL    HW118512   3.797   4.462   1.065
 5871SOL    HW218513   3.653   4.497   0.994
 5872SOL     OW18514   4.158   5.711   3.747
 5872SOL    HW118515   4.213   5.629   3.759
 5872SOL    HW218516   4.217   5.792   3.753
 5873SOL     OW18517   2.109   3.259   1.237
 5873SOL    HW118518   2.132   3.162   1.228
 5873SOL    HW218519   2.017   3.268   1.274
 5874SOL     OW18520   0.537   4.677   6.066
 5874SOL    HW118521   0.527   4.776   6.071
 5874SOL    HW218522   0.623   4.654   6.020
 5875SOL     OW18523   3.994   2.475   1.508
 5875SOL    HW118524   3.921   2.544   1.504
 5875SOL    HW218525   3.981   2.418   1.589
 5876SOL     OW18526   4.042   4.253   5.938
 5876SOL    HW118527   4.047   4.158   5.906
 5876SOL    HW218528   3.997   4.256   6.027
 5877SOL     OW18529   5.538   6.234   3.087
 5877SOL    HW118530   5.631   6.269   3.089
 5877SOL    HW218531   5.504   6.235   2.993
 5878SOL     OW18532   4.941   3.539   2.992
 5878SOL    HW118533   4.910   3.581   2.907
 5878SOL    HW218534   4.919   3.441   2.991
 5879SOL     OW18535   3.128   4.490   5.657
 5879SOL    HW118536   3.104   4.586   5.670
 5879SOL    HW218537   3.137   4.470   5.560
 5880SOL     OW18538   5.850   2.247   0.568
 5880SOL    HW118539   5.789   2.298   0.628
 5880SOL    HW218540   5.825   2.150   0.568
 5881SOL     OW18541   0.820   6.277   3.354
 5881SOL    HW118542   0.842   6.348   3.287
 5881SOL    HW218543   0.765   6.206   3.310
 5882SOL     OW18544   1.185   5.731   5.039
 5882SOL    HW118545   1.111   5.745   4.974
 5882SOL    HW218546   1.260   5.681   4.994
 5883SOL     OW18547   0.159   5.737   6.896
 5883SOL    HW118548   0.175   5.836   6.901
 5883SOL    HW218549   0.061   5.719   6.907
 5884SOL     OW18550   0.876   0.714   1.577
 5884SOL    HW118551   0.785   0.748   1.556
 5884SOL    HW218552   0.874   0.665   1.664
 5885SOL     OW18553   6.804   5.874   1.742
 5885SOL    HW118554   6.901   5.863   1.765
 5885SOL    HW218555   6.787   5.968   1.712
 5886SOL     OW18556   1.732   4.461   3.236
 5886SOL    HW118557   1.654   4.416   3.279
 5886SOL    HW218558   1.813   4.403   3.243
 5887SOL     OW18559   2.153   3.521   1.404
 5887SOL    HW118560   2.162   3.450   1.334
 5887SOL    HW218561   2.243   3.546   1.438
 5888SOL     OW18562   3.345   6.256   2.211
 5888SOL    HW118563   3.405   6.335   2.194
 5888SOL    HW218564   3.262   6.265   2.156
 5889SOL     OW18565   4.466   0.791   1.714
 5889SOL    HW118566   4.456   0.888   1.693
 5889SOL    HW218567   4.549   0.777   1.768
 5890SOL     OW18568   2.363   4.798   3.350
 5890SOL    HW118569   2.375   4.871   3.283
 5890SOL    HW218570   2.392   4.711   3.311
 5891SOL     OW18571   2.264   3.116   6.690
 5891SOL    HW118572   2.283   3.167   6.606
 5891SOL    HW218573   2.340   3.054   6.709
 5892SOL     OW18574   0.525   2.312   1.768
 5892SOL    HW118575   0.605   2.262   1.735
 5892SOL    HW218576   0.546   2.352   1.857
 5893SOL     OW18577   0.022   6.599   1.232
 5893SOL    HW118578   0.058   6.692   1.228
 5893SOL    HW218579   0.089   6.539   1.274
 5894SOL     OW18580   3.021   5.290   6.908
 5894SOL    HW118581   2.982   5.302   6.817
 5894SOL    HW218582   2.979   5.356   6.971
 5895SOL     OW18583   5.893   2.923   4.236
 5895SOL    HW118584   5.799   2.916   4.203
 5895SOL    HW218585   5.931   2.832   4.250
 5896SOL     OW18586   5.494   2.230   0.844
 5896SOL    HW118587   5.443   2.167   0.786
 5896SOL    HW218588   5.530   2.182   0.923
 5897SOL     OW18589   3.339   3.507   0.164
 5897SOL    HW118590   3.304   3.470   0.251
 5897SOL    HW218591   3.262   3.534   0.107
 5898SOL     OW18592   4.079   0.644   6.705
 5898SOL    HW118593   4.010   0.653   6.776
 5898SOL    HW218594   4.044   0.586   6.632
 5899SOL     OW18595   0.259   0.381   0.517
 5899SOL    HW118596   0.325   0.452   0.491
 5899SOL    HW218597   0.170   0.424   0.534
 5900SOL     OW18598   5.313   6.058   2.623
 5900SOL    HW118599   5.264   6.143   2.607
 5900SOL    HW218600   5.400   6.060   2.574
 5901SOL     OW18601   1.004   0.332   5.000
 5901SOL    HW118602   1.082   0.334   4.937
 5901SOL    HW218603   0.919   0.337   4.948
 5902SOL     OW18604   4.321   3.443   5.962
 5902SOL    HW118605   4.333   3.414   5.867
 5902SOL    HW218606   4.320   3.362   6.022
 5903SOL     OW18607   5.253   0.923   6.163
 5903SOL    HW118608   5.245   0.824   6.177
 5903SOL    HW218609   5.193   0.951   6.089
 5904SOL     OW18610   0.067   5.567   1.664
 5904SOL    HW118611   6.993   5.564   1.695
 5904SOL    HW218612   0.127   5.534   1.737
 5905SOL     OW18613   6.694   2.117   4.769
 5905SOL    HW118614   6.640   2.104   4.686
 5905SOL    HW218615   6.634   2.140   4.846
 5906SOL     OW18616   3.908   0.463   4.875
 5906SOL    HW118617   3.961   0.383   4.846
 5906SOL    HW218618   3.910   0.532   4.803
 5907SOL     OW18619   1.280   3.341   5.828
 5907SOL    HW118620   1.214   3.349   5.754
 5907SOL    HW218621   1.355   3.282   5.799
 5908SOL     OW18622   4.727   3.063   6.557
 5908SOL    HW118623   4.763   3.075   6.465
 5908SOL    HW218624   4.767   2.981   6.598
 5909SOL     OW18625   6.984   5.260   2.992
 5909SOL    HW118626   6.896   5.306   2.996
 5909SOL    HW218627   0.027   5.305   3.056
 5910SOL     OW18628   2.370   4.360   2.364
 5910SOL    HW118629   2.373   4.296   2.287
 5910SOL    HW218630   2.351   4.310   2.449
 5911SOL     OW18631   0.003   1.344   5.042
 5911SOL    HW118632   6.963   1.312   5.115
 5911SOL    HW218633   0.044   1.432   5.069
 5912SOL     OW18634   0.753   3.570   5.933
 5912SOL    HW118635   0.761   3.638   6.005
 5912SOL    HW218636   0.745   3.616   5.844
 5913SOL     OW18637   1.542   3.105   5.103
 5913SOL    HW118638   1.595   3.131   5.183
 5913SOL    HW218639   1.577   3.019   5.066
 5914SOL     OW18640   0.975   5.519   0.199
 5914SOL    HW118641   1.042   5.569   0.143
 5914SOL    HW218642   0.915   5.465   0.140
 5915SOL     OW18643   5.661   4.218   4.840
 5915SOL    HW118644   5.624   4.131   4.807
 5915SOL    HW218645   5.713   4.262   4.767
 5916SOL     OW18646   3.592   1.125   6.795
 5916SOL    HW118647   3.613   1.050   6.732
 5916SOL    HW218648   3.585   1.089   6.888
 5917SOL     OW18649   3.549   3.763   2.122
 5917SOL    HW118650   3.605   3.682   2.138
 5917SOL    HW218651   3.519   3.801   2.210
 5918SOL     OW18652   3.252   2.132   4.168
 5918SOL    HW118653   3.250   2.046   4.219
 5918SOL    HW218654   3.337   2.180   4.187
 5919SOL     OW18655   1.537   1.599   6.029
 5919SOL    HW118656   1.594   1.657   6.087
 5919SOL    HW218657   1.595   1.554   5.960
 5920SOL     OW18658   2.375   3.939   6.839
 5920SOL    HW118659   2.365   3.998   6.759
 5920SOL    HW218660   2.457   3.966   6.889
 5921SOL     OW18661   3.882   6.095   4.229
 5921SOL    HW118662   3.791   6.133   4.209
 5921SOL    HW218663   3.898   6.097   4.327
 5922SOL     OW18664   6.725   5.394   2.186
 5922SOL    HW118665   6.692   5.459   2.255
 5922SOL    HW218666   6.825   5.402   2.180
 5923SOL     OW18667   0.940   0.010   3.214
 5923SOL    HW118668   0.887   6.993   3.290
 5923SOL    HW218669   0.884   0.010   3.131
 5924SOL     OW18670   5.912   2.092   4.935
 5924SOL    HW118671   5.827   2.082   4.985
 5924SOL    HW218672   5.937   2.189   4.930
 5925SOL     OW18673   6.509   6.461   1.002
 5925SOL    HW118674   6.455   6.448   1.085
 5925SOL    HW218675   6.571   6.538   1.015
 5926SOL     OW18676   3.059   6.886   2.103
 5926SOL    HW118677   3.081   6.808   2.161
 5926SOL    HW218678   3.134   6.952   2.106
 5927SOL     OW18679   2.048   5.379   1.153
 5927SOL    HW118680   1.964   5.429   1.175
 5927SOL    HW218681   2.045   5.349   1.058
 5928SOL     OW18682   6.182   6.234   0.970
 5928SOL    HW118683   6.190   6.230   1.069
 5928SOL    HW218684   6.222   6.320   0.936
 5929SOL     OW18685   0.142   0.410   6.400
 5929SOL    HW118686   0.169   0.348   6.327
 5929SOL    HW218687   0.086   0.361   6.467
 5930SOL     OW18688   6.814   1.637   4.654
 5930SOL    HW118689   6.911   1.661   4.652
 5930SOL    HW218690   6.803   1.541   4.628
 5931SOL     OW18691   5.881   4.591   0.467
 5931SOL    HW118692   5.921   4.637   0.387
 5931SOL    HW218693   5.936   4.612   0.548
 5932SOL     OW18694   2.465   0.483   1.035
 5932SOL    HW118695   2.450   0.574   1.074
 5932SOL    HW218696   2.519   0.428   1.099
 5933SOL     OW18697   5.329   2.238   3.275
 5933SOL    HW118698   5.413   2.205   3.230
 5933SOL    HW218699   5.307   2.329   3.240
 5934SOL     OW18700   4.046   3.380   1.843
 5934SOL    HW118701   3.950   3.395   1.868
 5934SOL    HW218702   4.102   3.453   1.882
 5935SOL     OW18703   3.819   3.294   2.569
 5935SOL    HW118704   3.797   3.197   2.561
 5935SOL    HW218705   3.751   3.348   2.519
 5936SOL     OW18706   6.543   5.790   0.117
 5936SOL    HW118707   6.569   5.849   0.041
 5936SOL    HW218708   6.596   5.706   0.114
 5937SOL     OW18709   0.934   3.848   0.875
 5937SOL    HW118710   0.992   3.847   0.957
 5937SOL    HW218711   0.843   3.813   0.899
 5938SOL     OW18712   2.879   5.151   1.278
 5938SOL    HW118713   2.787   5.116   1.262
 5938SOL    HW218714   2.944   5.075   1.280
 5939SOL     OW18715   0.351   6.964   2.476
 5939SOL    HW118716   0.441   6.968   2.519
 5939SOL    HW218717   0.358   6.920   2.387
 5940SOL     OW18718   4.396   5.012   2.732
 5940SOL    HW118719   4.343   4.927   2.729
 5940SOL    HW218720   4.409   5.040   2.827
 5941SOL     OW18721   6.441   2.862   3.914
 5941SOL    HW118722   6.372   2.789   3.914
 5941SOL    HW218723   6.414   2.933   3.979
 5942SOL     OW18724   0.142   1.579   5.068
 5942SOL    HW118725   0.155   1.678   5.077
 5942SOL    HW218726   0.229   1.533   5.083
 5943SOL     OW18727   1.535   5.905   1.236
 5943SOL    HW118728   1.518   5.989   1.184
 5943SOL    HW218729   1.631   5.903   1.265
 5944SOL     OW18730   5.186   3.020   2.969
 5944SOL    HW118731   5.231   3.029   3.058
 5944SOL    HW218732   5.211   2.932   2.928
 5945SOL     OW18733   6.359   6.048   6.101
 5945SOL    HW118734   6.355   6.147   6.089
 5945SOL    HW218735   6.337   6.002   6.015
 5946SOL     OW18736   4.185   2.222   5.417
 5946SOL    HW118737   4.206   2.248   5.512
 5946SOL    HW218738   4.110   2.156   5.417
 5947SOL     OW18739   5.993   3.918   2.785
 5947SOL    HW118740   5.977   3.980   2.862
 5947SOL    HW218741   5.923   3.934   2.715
 5948SOL     OW18742   2.431   5.776   3.141
 5948SOL    HW118743   2.449   5.707   3.211
 5948SOL    HW218744   2.344   5.821   3.160
 5949SOL     OW18745   5.090   4.049   3.142
 5949SOL    HW118746   5.027   3.983   3.099
 5949SOL    HW218747   5.041   4.101   3.211
 5950SOL     OW18748   0.165   1.849   5.131
 5950SOL    HW118749   0.218   1.896   5.061
 5950SOL    HW218750   0.072   1.887   5.133
 5951SOL     OW18751   2.526   0.308   3.493
 5951SOL    HW118752   2.444   0.254   3.475
 5951SOL    HW218753   2.500   0.403   3.513
 5952SOL     OW18754   0.371   6.662   4.230
 5952SOL    HW118755   0.326   6.605   4.161
 5952SOL    HW218756   0.304   6.691   4.298
 5953SOL     OW18757   1.434   3.705   6.069
 5953SOL    HW118758   1.351   3.734   6.118
 5953SOL    HW218759   1.430   3.737   5.975
 5954SOL     OW18760   1.380   4.099   6.461
 5954SOL    HW118761   1.359   4.010   6.500
 5954SOL    HW218762   1.309   4.164   6.487
 5955SOL     OW18763   3.760   5.134   1.994
 5955SOL    HW118764   3.744   5.054   2.052
 5955SOL    HW218765   3.822   5.109   1.919
 5956SOL     OW18766   0.297   1.610   0.759
 5956SOL    HW118767   0.314   1.516   0.790
 5956SOL    HW218768   0.313   1.673   0.834
 5957SOL     OW18769   4.045   6.631   6.383
 5957SOL    HW118770   4.120   6.600   6.325
 5957SOL    HW218771   3.966   6.657   6.326
 5958SOL     OW18772   0.833   5.852   2.132
 5958SOL    HW118773   0.786   5.822   2.215
 5958SOL    HW218774   0.926   5.878   2.154
 5959SOL     OW18775   1.583   0.624   5.684
 5959SOL    HW118776   1.667   0.573   5.700
 5959SOL    HW218777   1.589   0.671   5.596
 5960SOL     OW18778   3.676   5.807   5.103
 5960SOL    HW118779   3.665   5.816   5.004
 5960SOL    HW218780   3.587   5.787   5.144
 5961SOL     OW18781   2.858   0.730   5.174
 5961SOL    HW118782   2.797   0.804   5.146
 5961SOL    HW218783   2.927   0.715   5.102
 5962SOL     OW18784   5.740   4.385   3.422
 5962SOL    HW118785   5.664   4.321   3.428
 5962SOL    HW218786   5.794   4.382   3.507
 5963SOL     OW18787   4.234   4.042   1.744
 5963SOL    HW118788   4.137   4.063   1.759
 5963SOL    HW218789   4.290   4.115   1.782
 5964SOL     OW18790   1.622   3.338   4.885
 5964SOL    HW118791   1.537   3.320   4.835
 5964SOL    HW218792   1.626   3.281   4.966
 5965SOL     OW18793   1.807   2.266   4.563
 5965SOL    HW118794   1.749   2.319   4.625
 5965SOL    HW218795   1.775   2.171   4.560
 5966SOL     OW18796   1.296   5.657   4.213
 5966SOL    HW118797   1.221   5.594   4.229
 5966SOL    HW218798   1.260   5.747   4.188
 5967SOL     OW18799   5.013   5.845   1.098
 5967SOL    HW118800   4.917   5.827   1.118
 5967SOL    HW218801   5.070   5.785   1.154
 5968SOL     OW18802   1.810   2.012   4.130
 5968SOL    HW118803   1.752   2.092   4.113
 5968SOL    HW218804   1.896   2.022   4.080
 5969SOL     OW18805   0.847   2.150   2.894
 5969SOL    HW118806   0.839   2.199   2.808
 5969SOL    HW218807   0.821   2.211   2.969
 5970SOL     OW18808   1.996   4.356   3.302
 5970SOL    HW118809   1.960   4.363   3.395
 5970SOL    HW218810   2.084   4.309   3.303
 5971SOL     OW18811   3.001   5.688   3.642
 5971SOL    HW118812   2.980   5.621   3.713
 5971SOL    HW218813   2.938   5.765   3.648
 5972SOL     OW18814   5.273   6.973   1.550
 5972SOL    HW118815   5.230   6.885   1.567
 5972SOL    HW218816   5.281   0.003   1.636
 5973SOL     OW18817   2.758   4.771   3.483
 5973SOL    HW118818   2.716   4.689   3.522
 5973SOL    HW218819   2.786   4.752   3.389
 5974SOL     OW18820   0.724   4.250   6.622
 5974SOL    HW118821   0.800   4.185   6.623
 5974SOL    HW218822   0.662   4.228   6.547
 5975SOL     OW18823   2.128   2.520   6.643
 5975SOL    HW118824   2.044   2.472   6.669
 5975SOL    HW218825   2.198   2.503   6.713
 5976SOL     OW18826   3.361   4.110   4.220
 5976SOL    HW118827   3.335   4.111   4.317
 5976SOL    HW218828   3.342   4.020   4.181
 5977SOL     OW18829   0.409   3.916   2.796
 5977SOL    HW118830   0.431   3.833   2.847
 5977SOL    HW218831   0.315   3.943   2.814
 5978SOL     OW18832   5.324   5.269   1.208
 5978SOL    HW118833   5.386   5.237   1.136
 5978SOL    HW218834   5.237   5.219   1.202
 5979SOL     OW18835   1.178   1.248   1.606
 5979SOL    HW118836   1.273   1.217   1.600
 5979SOL    HW218837   1.144   1.234   1.699
 5980SOL     OW18838   5.792   2.467   5.098
 5980SOL    HW118839   5.701   2.426   5.085
 5980SOL    HW218840   5.813   2.469   5.196
 5981SOL     OW18841   3.507   1.995   0.743
 5981SOL    HW118842   3.414   1.993   0.780
 5981SOL    HW218843   3.540   2.089   0.741
 5982SOL     OW18844   6.232   2.754   6.778
 5982SOL    HW118845   6.155   2.753   6.715
 5982SOL    HW218846   6.258   2.660   6.801
 5983SOL     OW18847   0.671   0.905   4.183
 5983SOL    HW118848   0.699   0.879   4.091
 5983SOL    HW218849   0.583   0.863   4.204
 5984SOL     OW18850   0.204   0.239   6.184
 5984SOL    HW118851   0.183   0.231   6.086
 5984SOL    HW218852   0.250   0.156   6.215
 5985SOL     OW18853   6.209   3.300   3.761
 5985SOL    HW118854   6.210   3.207   3.798
 5985SOL    HW218855   6.221   3.296   3.661
 5986SOL     OW18856   3.433   3.407   2.251
 5986SOL    HW118857   3.409   3.402   2.154
 5986SOL    HW218858   3.353   3.433   2.305
 5987SOL     OW18859   3.843   0.020   5.082
 5987SOL    HW118860   3.748   7.017   5.097
 5987SOL    HW218861   3.849   0.102   5.025
 5988SOL     OW18862   3.212   6.703   5.902
 5988SOL    HW118863   3.292   6.712   5.962
 5988SOL    HW218864   3.148   6.777   5.921
 5989SOL     OW18865   3.102   1.386   6.531
 5989SOL    HW118866   3.016   1.363   6.484
 5989SOL    HW218867   3.081   1.444   6.610
 5990SOL     OW18868   2.487   6.087   3.170
 5990SOL    HW118869   2.498   6.178   3.130
 5990SOL    HW218870   2.557   6.072   3.239
 5991SOL     OW18871   3.938   4.813   2.931
 5991SOL    HW118872   3.859   4.852   2.883
 5991SOL    HW218873   4.015   4.806   2.868
 5992SOL     OW18874   3.888   1.718   3.891
 5992SOL    HW118875   3.828   1.692   3.816
 5992SOL    HW218876   3.836   1.774   3.957
 5993SOL     OW18877   2.642   5.707   4.204
 5993SOL    HW118878   2.623   5.615   4.238
 5993SOL    HW218879   2.587   5.773   4.254
 5994SOL     OW18880   6.256   2.580   0.332
 5994SOL    HW118881   6.175   2.526   0.310
 5994SOL    HW218882   6.248   2.671   0.290
 5995SOL     OW18883   0.308   3.816   1.609
 5995SOL    HW118884   0.244   3.841   1.682
 5995SOL    HW218885   0.368   3.893   1.589
 5996SOL     OW18886   1.432   5.828   6.147
 5996SOL    HW118887   1.355   5.777   6.185
 5996SOL    HW218888   1.404   5.874   6.063
 5997SOL     OW18889   0.492   0.179   1.424
 5997SOL    HW118890   0.458   0.273   1.427
 5997SOL    HW218891   0.591   0.180   1.439
 5998SOL     OW18892   5.289   3.607   3.362
 5998SOL    HW118893   5.220   3.535   3.368
 5998SOL    HW218894   5.293   3.642   3.269
 5999SOL     OW18895   2.205   3.129   2.797
 5999SOL    HW118896   2.153   3.211   2.817
 5999SOL    HW218897   2.299   3.140   2.831
 6000SOL     OW18898   5.163   1.058   3.773
 6000SOL    HW118899   5.150   1.137   3.833
 6000SOL    HW218900   5.215   1.085   3.692
 6001SOL     OW18901   5.258   1.455   0.188
 6001SOL    HW118902   5.186   1.498   0.134
 6001SOL    HW218903   5.345   1.459   0.139
 6002SOL     OW18904   2.253   0.053   2.065
 6002SOL    HW118905   2.351   0.046   2.081
 6002SOL    HW218906   2.228   0.000   1.984
 6003SOL     OW18907   5.151   4.675   3.736
 6003SOL    HW118908   5.233   4.628   3.702
 6003SOL    HW218909   5.102   4.615   3.799
 6004SOL     OW18910   0.647   3.584   2.044
 6004SOL    HW118911   0.697   3.560   2.127
 6004SOL    HW218912   0.648   3.683   2.031
 6005SOL     OW18913   2.500   6.580   2.324
 6005SOL    HW118914   2.523   6.660   2.269
 6005SOL    HW218915   2.580   6.554   2.379
 6006SOL     OW18916   2.277   6.091   6.393
 6006SOL    HW118917   2.342   6.030   6.438
 6006SOL    HW218918   2.198   6.039   6.361
 6007SOL     OW18919   5.599   3.840   4.466
 6007SOL    HW118920   5.503   3.852   4.491
 6007SOL    HW218921   5.615   3.877   4.375
 6008SOL     OW18922   5.027   4.006   2.042
 6008SOL    HW118923   5.071   3.916   2.043
 6008SOL    HW218924   4.945   4.003   2.098
 6009SOL     OW18925   3.510   1.579   4.688
 6009SOL    HW118926   3.421   1.535   4.697
 6009SOL    HW218927   3.509   1.668   4.733
 6010SOL     OW18928   1.737   5.185   3.519
 6010SOL    HW118929   1.736   5.284   3.526
 6010SOL    HW218930   1.694   5.145   3.600
 6011SOL     OW18931   6.557   2.325   1.470
 6011SOL    HW118932   6.468   2.362   1.497
 6011SOL    HW218933   6.629   2.366   1.526
 6012SOL     OW18934   0.931   2.336   0.996
 6012SOL    HW118935   0.988   2.338   1.077
 6012SOL    HW218936   0.843   2.379   1.016
 6013SOL     OW18937   5.146   1.018   2.272
 6013SOL    HW118938   5.140   1.046   2.368
 6013SOL    HW218939   5.069   0.959   2.249
 6014SOL     OW18940   6.325   1.698   0.428
 6014SOL    HW118941   6.398   1.645   0.470
 6014SOL    HW218942   6.329   1.793   0.461
 6015SOL     OW18943   6.037   6.888   4.485
 6015SOL    HW118944   5.998   6.803   4.449
 6015SOL    HW218945   6.065   6.946   4.409
 6016SOL     OW18946   1.005   6.852   5.524
 6016SOL    HW118947   0.933   6.879   5.588
 6016SOL    HW218948   0.973   6.866   5.431
 6017SOL     OW18949   0.325   3.523   2.378
 6017SOL    HW118950   0.248   3.533   2.315
 6017SOL    HW218951   0.292   3.526   2.472
 6018SOL     OW18952   3.474   4.892   1.740
 6018SOL    HW118953   3.392   4.844   1.710
 6018SOL    HW218954   3.541   4.825   1.774
 6019SOL     OW18955   6.738   0.007   3.693
 6019SOL    HW118956   6.692   6.939   3.685
 6019SOL    HW218957   6.828   7.015   3.734
 6020SOL     OW18958   2.513   6.489   3.073
 6020SOL    HW118959   2.570   6.418   3.032
 6020SOL    HW218960   2.475   6.456   3.159
 6021SOL     OW18961   2.890   0.728   3.379
 6021SOL    HW118962   2.927   0.738   3.287
 6021SOL    HW218963   2.792   0.748   3.378
 6022SOL     OW18964   3.405   2.076   5.763
 6022SOL    HW118965   3.455   2.014   5.823
 6022SOL    HW218966   3.332   2.026   5.717
 6023SOL     OW18967   0.589   2.050   1.727
 6023SOL    HW118968   0.511   2.070   1.787
 6023SOL    HW218969   0.586   1.953   1.702
 6024SOL     OW18970   6.175   4.854   2.295
 6024SOL    HW118971   6.274   4.870   2.301
 6024SOL    HW218972   6.155   4.760   2.322
 6025SOL     OW18973   4.469   2.386   2.410
 6025SOL    HW118974   4.552   2.337   2.385
 6025SOL    HW218975   4.431   2.430   2.328
 6026SOL     OW18976   0.909   3.993   5.552
 6026SOL    HW118977   0.910   3.949   5.462
 6026SOL    HW218978   0.936   4.089   5.542
 6027SOL     OW18979   3.867   4.273   0.202
 6027SOL    HW118980   3.890   4.312   0.292
 6027SOL    HW218981   3.790   4.210   0.213
 6028SOL     OW18982   0.975   3.959   5.901
 6028SOL    HW118983   1.053   3.954   5.838
 6028SOL    HW218984   1.008   3.987   5.991
 6029SOL     OW18985   1.077   5.200   1.282
 6029SOL    HW118986   1.164   5.187   1.329
 6029SOL    HW218987   1.069   5.296   1.253
 6030SOL     OW18988   1.945   6.554   1.833
 6030SOL    HW118989   1.981   6.620   1.766
 6030SOL    HW218990   2.021   6.501   1.872
 6031SOL     OW18991   4.168   0.753   4.464
 6031SOL    HW118992   4.107   0.768   4.386
 6031SOL    HW218993   4.214   0.665   4.454
 6032SOL     OW18994   1.396   2.463   2.210
 6032SOL    HW118995   1.493   2.444   2.197
 6032SOL    HW218996   1.342   2.384   2.180
 6033SOL     OW18997   6.981   6.684   4.368
 6033SOL    HW118998   6.889   6.721   4.379
 6033SOL    HW218999   6.976   6.587   4.346
 6034SOL     OW19000   2.535   4.592   4.481
 6034SOL    HW119001   2.527   4.686   4.513
 6034SOL    HW219002   2.516   4.530   4.557
 6035SOL     OW19003   4.849   0.226   4.070
 6035SOL    HW119004   4.902   0.311   4.058
 6035SOL    HW219005   4.754   0.249   4.089
 6036SOL     OW19006   5.345   1.014   5.390
 6036SOL    HW119007   5.307   0.928   5.355
 6036SOL    HW219008   5.271   1.073   5.421
 6037SOL     OW19009   0.158   5.381   4.933
 6037SOL    HW119010   0.219   5.460   4.926
 6037SOL    HW219011   0.135   5.366   5.029
 6038SOL     OW19012   0.296   3.653   6.496
 6038SOL    HW119013   0.237   3.622   6.421
 6038SOL    HW219014   0.389   3.617   6.482
 6039SOL     OW19015   3.312   3.599   3.877
 6039SOL    HW119016   3.296   3.548   3.793
 6039SOL    HW219017   3.360   3.684   3.857
 6040SOL     OW19018   1.482   0.855   0.952
 6040SOL    HW119019   1.451   0.810   0.869
 6040SOL    HW219020   1.577   0.883   0.943
 6041SOL     OW19021   0.439   3.031   6.698
 6041SOL    HW119022   0.485   3.041   6.787
 6041SOL    HW219023   0.493   3.077   6.628
 6042SOL     OW19024   5.882   5.673   5.001
 6042SOL    HW119025   5.916   5.673   4.907
 6042SOL    HW219026   5.783   5.687   5.000
 6043SOL     OW19027   6.943   4.866   3.371
 6043SOL    HW119028   6.970   4.834   3.280
 6043SOL    HW219029   6.872   4.936   3.362
 6044SOL     OW19030   1.445   0.784   0.656
 6044SOL    HW119031   1.539   0.813   0.638
 6044SOL    HW219032   1.384   0.829   0.590
 6045SOL     OW19033   6.028   3.616   6.552
 6045SOL    HW119034   6.016   3.687   6.622
 6045SOL    HW219035   6.026   3.526   6.595
 6046SOL     OW19036   1.046   3.811   6.838
 6046SOL    HW119037   0.979   3.847   6.773
 6046SOL    HW219038   1.112   3.754   6.789
 6047SOL     OW19039   1.079   6.182   5.048
 6047SOL    HW119040   1.175   6.208   5.055
 6047SOL    HW219041   1.063   6.100   5.104
 6048SOL     OW19042   5.083   6.145   4.224
 6048SOL    HW119043   5.168   6.159   4.174
 6048SOL    HW219044   5.005   6.156   4.162
 6049SOL     OW19045   6.958   5.681   0.235
 6049SOL    HW119046   0.002   5.640   0.171
 6049SOL    HW219047   6.974   5.645   0.327
 6050SOL     OW19048   5.469   4.274   5.249
 6050SOL    HW119049   5.413   4.202   5.208
 6050SOL    HW219050   5.412   4.333   5.306
 6051SOL     OW19051   2.831   1.897   3.225
 6051SOL    HW119052   2.756   1.916   3.289
 6051SOL    HW219053   2.918   1.926   3.266
 6052SOL     OW19054   0.435   2.053   6.727
 6052SOL    HW119055   0.342   2.037   6.760
 6052SOL    HW219056   0.486   1.967   6.726
 6053SOL     OW19057   0.932   0.496   6.523
 6053SOL    HW119058   0.961   0.487   6.618
 6053SOL    HW219059   0.923   0.405   6.482
 6054SOL     OW19060   0.388   4.001   6.223
 6054SOL    HW119061   0.378   4.032   6.128
 6054SOL    HW219062   0.441   3.916   6.225
 6055SOL     OW19063   5.916   6.874   2.938
 6055SOL    HW119064   5.926   6.971   2.958
 6055SOL    HW219065   5.894   6.861   2.842
 6056SOL     OW19066   5.125   2.971   6.517
 6056SOL    HW119067   5.110   3.028   6.437
 6056SOL    HW219068   5.191   2.900   6.496
 6057SOL     OW19069   4.871   0.779   6.552
 6057SOL    HW119070   4.960   0.821   6.535
 6057SOL    HW219071   4.853   0.709   6.483
 6058SOL     OW19072   5.375   2.631   5.792
 6058SOL    HW119073   5.348   2.652   5.699
 6058SOL    HW219074   5.294   2.628   5.851
 6059SOL     OW19075   0.155   6.315   6.391
 6059SOL    HW119076   0.187   6.396   6.342
 6059SOL    HW219077   0.233   6.269   6.435
 6060SOL     OW19078   3.188   5.768   6.539
 6060SOL    HW119079   3.198   5.806   6.447
 6060SOL    HW219080   3.222   5.674   6.540
 6061SOL     OW19081   2.117   1.323   6.955
 6061SOL    HW119082   2.209   1.341   6.922
 6061SOL    HW219083   2.051   1.373   6.899
 6062SOL     OW19084   1.202   0.008   3.319
 6062SOL    HW119085   1.110   0.024   3.284
 6062SOL    HW219086   1.223   6.931   3.311
 6063SOL     OW19087   5.843   6.189   0.095
 6063SOL    HW119088   5.869   6.228   0.183
 6063SOL    HW219089   5.871   6.250   0.021
 6064SOL     OW19090   0.789   5.560   2.092
 6064SOL    HW119091   0.808   5.653   2.063
 6064SOL    HW219092   0.705   5.558   2.145
 6065SOL     OW19093   5.057   6.753   1.181
 6065SOL    HW119094   5.126   6.819   1.150
 6065SOL    HW219095   4.981   6.802   1.223
 6066SOL     OW19096   4.893   1.989   5.830
 6066SOL    HW119097   4.958   1.943   5.890
 6066SOL    HW219098   4.808   1.937   5.826
 6067SOL     OW19099   5.399   1.499   6.847
 6067SOL    HW119100   5.368   1.407   6.872
 6067SOL    HW219101   5.466   1.493   6.773
 6068SOL     OW19102   4.975   0.951   5.252
 6068SOL    HW119103   4.921   0.879   5.297
 6068SOL    HW219104   5.052   0.910   5.203
 6069SOL     OW19105   7.011   5.329   3.444
 6069SOL    HW119106   6.997   5.382   3.527
 6069SOL    HW219107   6.987   5.385   3.364
 6070SOL     OW19108   4.915   3.505   1.385
 6070SOL    HW119109   4.959   3.502   1.474
 6070SOL    HW219110   4.819   3.479   1.393
 6071SOL     OW19111   5.478   0.816   5.111
 6071SOL    HW119112   5.470   0.762   5.194
 6071SOL    HW219113   5.528   0.901   5.131
 6072SOL     OW19114   6.091   0.976   1.815
 6072SOL    HW119115   5.992   0.984   1.808
 6072SOL    HW219116   6.134   1.051   1.765
 6073SOL     OW19117   5.950   0.955   0.773
 6073SOL    HW119118   6.010   0.941   0.852
 6073SOL    HW219119   5.909   0.868   0.746
 6074SOL     OW19120   0.150   1.033   5.839
 6074SOL    HW119121   0.177   1.115   5.789
 6074SOL    HW219122   0.136   0.958   5.775
 6075SOL     OW19123   5.224   3.181   5.792
 6075SOL    HW119124   5.202   3.083   5.794
 6075SOL    HW219125   5.209   3.217   5.699
 6076SOL     OW19126   3.063   0.539   3.863
 6076SOL    HW119127   3.128   0.614   3.846
 6076SOL    HW219128   2.981   0.554   3.808
 6077SOL     OW19129   5.009   5.234   3.174
 6077SOL    HW119130   5.047   5.263   3.261
 6077SOL    HW219131   4.910   5.242   3.176
 6078SOL     OW19132   2.509   4.835   4.630
 6078SOL    HW119133   2.565   4.769   4.679
 6078SOL    HW219134   2.424   4.851   4.680
 6079SOL     OW19135   3.211   2.051   0.641
 6079SOL    HW119136   3.194   2.030   0.545
 6079SOL    HW219137   3.194   2.148   0.657
 6080SOL     OW19138   6.458   3.332   3.597
 6080SOL    HW119139   6.471   3.250   3.652
 6080SOL    HW219140   6.391   3.313   3.525
 6081SOL     OW19141   1.002   4.468   1.711
 6081SOL    HW119142   1.090   4.516   1.709
 6081SOL    HW219143   0.996   4.406   1.632
 6082SOL     OW19144   4.816   1.825   5.501
 6082SOL    HW119145   4.875   1.894   5.459
 6082SOL    HW219146   4.834   1.736   5.458
 6083SOL     OW19147   1.702   6.476   6.939
 6083SOL    HW119148   1.640   6.548   6.906
 6083SOL    HW219149   1.794   6.514   6.947
 6084SOL     OW19150   0.222   5.978   5.979
 6084SOL    HW119151   0.128   5.966   6.013
 6084SOL    HW219152   0.279   6.017   6.051
 6085SOL     OW19153   5.346   4.874   1.771
 6085SOL    HW119154   5.282   4.839   1.703
 6085SOL    HW219155   5.348   4.813   1.850
 6086SOL     OW19156   3.180   2.011   1.961
 6086SOL    HW119157   3.227   1.923   1.961
 6086SOL    HW219158   3.246   2.084   1.941
 6087SOL     OW19159   3.511   0.792   0.376
 6087SOL    HW119160   3.423   0.820   0.336
 6087SOL    HW219161   3.585   0.847   0.336
 6088SOL     OW19162   0.783   0.912   4.644
 6088SOL    HW119163   0.813   1.001   4.681
 6088SOL    HW219164   0.786   0.844   4.717
 6089SOL     OW19165   0.022   3.538   1.361
 6089SOL    HW119166   0.062   3.499   1.278
 6089SOL    HW219167   6.943   3.540   1.352
 6090SOL     OW19168   6.335   6.819   4.299
 6090SOL    HW119169   6.424   6.784   4.327
 6090SOL    HW219170   6.346   6.884   4.224
 6091SOL     OW19171   6.772   1.800   2.404
 6091SOL    HW119172   6.702   1.799   2.332
 6091SOL    HW219173   6.761   1.883   2.459
 6092SOL     OW19174   0.475   3.252   1.219
 6092SOL    HW119175   0.386   3.234   1.176
 6092SOL    HW219176   0.493   3.182   1.288
 6093SOL     OW19177   0.850   4.276   0.690
 6093SOL    HW119178   0.807   4.355   0.732
 6093SOL    HW219179   0.886   4.215   0.761
 6094SOL     OW19180   0.550   1.465   1.073
 6094SOL    HW119181   0.511   1.548   1.034
 6094SOL    HW219182   0.578   1.403   1.000
 6095SOL     OW19183   0.682   3.884   5.055
 6095SOL    HW119184   0.625   3.835   5.121
 6095SOL    HW219185   0.624   3.926   4.985
 6096SOL     OW19186   5.734   1.978   2.693
 6096SOL    HW119187   5.661   2.037   2.656
 6096SOL    HW219188   5.821   2.003   2.650
 6097SOL     OW19189   3.944   1.276   2.506
 6097SOL    HW119190   3.992   1.347   2.453
 6097SOL    HW219191   3.884   1.320   2.573
 6098SOL     OW19192   0.469   0.966   6.820
 6098SOL    HW119193   0.489   0.924   6.909
 6098SOL    HW219194   0.442   0.896   6.755
 6099SOL     OW19195   5.742   4.267   4.565
 6099SOL    HW119196   5.704   4.221   4.485
 6099SOL    HW219197   5.842   4.271   4.557
 6100SOL     OW19198   0.025   2.990   1.465
 6100SOL    HW119199   0.069   2.976   1.553
 6100SOL    HW219200   6.967   2.928   1.458
 6101SOL     OW19201   6.552   6.108   3.533
 6101SOL    HW119202   6.586   6.092   3.440
 6101SOL    HW219203   6.603   6.052   3.598
 6102SOL     OW19204   3.705   6.075   4.818
 6102SOL    HW119205   3.669   6.103   4.907
 6102SOL    HW219206   3.643   6.106   4.746
 6103SOL     OW19207   5.033   1.824   4.802
 6103SOL    HW119208   5.096   1.894   4.833
 6103SOL    HW219209   5.015   1.759   4.876
 6104SOL     OW19210   2.579   2.774   1.391
 6104SOL    HW119211   2.484   2.796   1.415
 6104SOL    HW219212   2.634   2.857   1.394
 6105SOL     OW19213   3.467   5.214   4.822
 6105SOL    HW119214   3.492   5.148   4.893
 6105SOL    HW219215   3.385   5.263   4.849
 6106SOL     OW19216   2.021   5.420   4.066
 6106SOL    HW119217   2.062   5.329   4.072
 6106SOL    HW219218   1.987   5.447   4.156
 6107SOL     OW19219   1.679   4.846   6.110
 6107SOL    HW119220   1.742   4.809   6.179
 6107SOL    HW219221   1.590   4.800   6.118
 6108SOL     OW19222   5.550   1.744   4.843
 6108SOL    HW119223   5.646   1.750   4.814
 6108SOL    HW219224   5.544   1.693   4.929
 6109SOL     OW19225   0.524   4.530   1.855
 6109SOL    HW119226   0.620   4.557   1.864
 6109SOL    HW219227   0.512   4.473   1.774
 6110SOL     OW19228   3.272   2.150   3.821
 6110SOL    HW119229   3.233   2.122   3.733
 6110SOL    HW219230   3.232   2.094   3.894
 6111SOL     OW19231   0.651   4.710   3.737
 6111SOL    HW119232   0.675   4.633   3.678
 6111SOL    HW219233   0.599   4.778   3.685
 6112SOL     OW19234   1.786   0.867   0.960
 6112SOL    HW119235   1.761   0.892   1.054
 6112SOL    HW219236   1.790   0.950   0.904
 6113SOL     OW19237   0.908   4.994   5.793
 6113SOL    HW119238   0.926   5.092   5.780
 6113SOL    HW219239   0.983   4.953   5.843
 6114SOL     OW19240   3.694   4.394   1.327
 6114SOL    HW119241   3.768   4.451   1.362
 6114SOL    HW219242   3.694   4.397   1.227
 6115SOL     OW19243   0.081   4.331   2.512
 6115SOL    HW119244   0.018   4.385   2.456
 6115SOL    HW219245   0.029   4.263   2.563
 6116SOL     OW19246   4.172   2.167   1.299
 6116SOL    HW119247   4.137   2.177   1.206
 6116SOL    HW219248   4.235   2.090   1.302
 6117SOL     OW19249   5.406   6.380   4.345
 6117SOL    HW119250   5.451   6.326   4.274
 6117SOL    HW219251   5.327   6.331   4.380
 6118SOL     OW19252   6.612   0.071   3.351
 6118SOL    HW119253   6.650   6.999   3.356
 6118SOL    HW219254   6.549   0.086   3.427
 6119SOL     OW19255   5.848   5.360   5.020
 6119SOL    HW119256   5.767   5.381   4.966
 6119SOL    HW219257   5.868   5.436   5.081
 6120SOL     OW19258   2.534   2.167   2.579
 6120SOL    HW119259   2.443   2.175   2.620
 6120SOL    HW219260   2.588   2.248   2.603
 6121SOL     OW19261   0.155   1.964   3.365
 6121SOL    HW119262   0.222   1.898   3.396
 6121SOL    HW219263   0.189   2.057   3.382
 6122SOL     OW19264   3.909   5.600   4.014
 6122SOL    HW119265   3.919   5.694   4.046
 6122SOL    HW219266   3.999   5.560   3.998
 6123SOL     OW19267   6.828   2.061   2.840
 6123SOL    HW119268   6.769   2.044   2.919
 6123SOL    HW219269   6.809   2.152   2.803
 6124SOL     OW19270   2.906   0.219   4.911
 6124SOL    HW119271   2.958   0.221   4.996
 6124SOL    HW219272   2.857   0.132   4.904
 6125SOL     OW19273   1.317   4.328   2.745
 6125SOL    HW119274   1.282   4.279   2.824
 6125SOL    HW219275   1.270   4.416   2.736
 6126SOL     OW19276   3.452   6.893   3.114
 6126SOL    HW119277   3.422   6.811   3.065
 6126SOL    HW219278   3.394   6.906   3.194
 6127SOL     OW19279   1.910   5.740   1.026
 6127SOL    HW119280   1.901   5.687   1.110
 6127SOL    HW219281   2.002   5.727   0.988
 6128SOL     OW19282   5.365   4.012   2.027
 6128SOL    HW119283   5.302   4.071   2.076
 6128SOL    HW219284   5.455   4.012   2.072
 6129SOL     OW19285   6.670   3.756   3.545
 6129SOL    HW119286   6.625   3.798   3.624
 6129SOL    HW219287   6.669   3.820   3.469
 6130SOL     OW19288   5.774   3.258   2.798
 6130SOL    HW119289   5.772   3.287   2.894
 6130SOL    HW219290   5.858   3.289   2.755
 6131SOL     OW19291   0.017   1.534   5.367
 6131SOL    HW119292   0.006   1.562   5.272
 6131SOL    HW219293   6.950   1.541   5.415
 6132SOL     OW19294   0.033   2.783   0.515
 6132SOL    HW119295   0.064   2.696   0.476
 6132SOL    HW219296   0.113   2.839   0.538
 6133SOL     OW19297   1.365   4.642   0.680
 6133SOL    HW119298   1.359   4.548   0.711
 6133SOL    HW219299   1.293   4.696   0.725
 6134SOL     OW19300   4.532   4.322   6.270
 6134SOL    HW119301   4.462   4.392   6.280
 6134SOL    HW219302   4.524   4.256   6.344
 6135SOL     OW19303   5.657   6.499   2.067
 6135SOL    HW119304   5.732   6.553   2.028
 6135SOL    HW219305   5.640   6.529   2.161
 6136SOL     OW19306   1.485   2.083   2.270
 6136SOL    HW119307   1.543   2.034   2.204
 6136SOL    HW219308   1.510   2.179   2.272
 6137SOL     OW19309   3.113   0.381   6.157
 6137SOL    HW119310   3.082   0.475   6.146
 6137SOL    HW219311   3.168   0.373   6.241
 6138SOL     OW19312   4.735   0.467   3.579
 6138SOL    HW119313   4.753   0.489   3.675
 6138SOL    HW219314   4.811   0.498   3.522
 6139SOL     OW19315   2.554   6.242   3.824
 6139SOL    HW119316   2.469   6.216   3.869
 6139SOL    HW219317   2.535   6.268   3.729
 6140SOL     OW19318   2.327   5.737   1.495
 6140SOL    HW119319   2.275   5.722   1.579
 6140SOL    HW219320   2.264   5.740   1.417
 6141SOL     OW19321   0.711   6.249   4.399
 6141SOL    HW119322   0.715   6.190   4.480
 6141SOL    HW219323   0.649   6.326   4.417
 6142SOL     OW19324   0.188   2.879   4.143
 6142SOL    HW119325   0.198   2.899   4.045
 6142SOL    HW219326   0.141   2.954   4.188
 6143SOL     OW19327   6.641   5.789   6.608
 6143SOL    HW119328   6.673   5.871   6.656
 6143SOL    HW219329   6.566   5.747   6.659
 6144SOL     OW19330   0.377   5.553   4.874
 6144SOL    HW119331   0.348   5.643   4.908
 6144SOL    HW219332   0.475   5.541   4.893
 6145SOL     OW19333   5.783   5.273   3.529
 6145SOL    HW119334   5.727   5.205   3.577
 6145SOL    HW219335   5.880   5.256   3.549
 6146SOL     OW19336   5.824   1.843   3.708
 6146SOL    HW119337   5.835   1.940   3.731
 6146SOL    HW219338   5.727   1.818   3.718
 6147SOL     OW19339   1.429   3.973   3.678
 6147SOL    HW119340   1.363   3.997   3.749
 6147SOL    HW219341   1.458   3.878   3.690
 6148SOL     OW19342   5.860   6.668   3.612
 6148SOL    HW119343   5.952   6.631   3.594
 6148SOL    HW219344   5.847   6.751   3.558
 6149SOL     OW19345   1.029   5.743   4.367
 6149SOL    HW119346   0.953   5.796   4.328
 6149SOL    HW219347   0.995   5.690   4.445
 6150SOL     OW19348   4.568   6.856   6.546
 6150SOL    HW119349   4.662   6.824   6.559
 6150SOL    HW219350   4.536   6.900   6.630
 6151SOL     OW19351   3.750   0.269   4.978
 6151SOL    HW119352   3.652   0.278   4.961
 6151SOL    HW219353   3.801   0.328   4.916
 6152SOL     OW19354   6.386   3.773   6.312
 6152SOL    HW119355   6.414   3.685   6.273
 6152SOL    HW219356   6.466   3.819   6.351
 6153SOL     OW19357   3.820   5.765   5.672
 6153SOL    HW119358   3.909   5.803   5.647
 6153SOL    HW219359   3.748   5.828   5.641
 6154SOL     OW19360   5.182   2.748   3.480
 6154SOL    HW119361   5.149   2.668   3.529
 6154SOL    HW219362   5.171   2.829   3.538
 6155SOL     OW19363   3.028   4.998   4.700
 6155SOL    HW119364   2.962   4.949   4.643
 6155SOL    HW219365   3.065   4.935   4.769
 6156SOL     OW19366   5.714   0.547   4.378
 6156SOL    HW119367   5.802   0.540   4.426
 6156SOL    HW219368   5.730   0.544   4.280
 6157SOL     OW19369   1.253   0.207   4.613
 6157SOL    HW119370   1.178   0.262   4.577
 6157SOL    HW219371   1.219   0.116   4.637
 6158SOL     OW19372   4.917   6.300   0.176
 6158SOL    HW119373   4.822   6.315   0.149
 6158SOL    HW219374   4.950   6.216   0.133
 6159SOL     OW19375   4.460   3.375   6.459
 6159SOL    HW119376   4.362   3.367   6.474
 6159SOL    HW219377   4.509   3.346   6.542
 6160SOL     OW19378   6.205   4.983   0.521
 6160SOL    HW119379   6.107   4.967   0.512
 6160SOL    HW219380   6.222   5.079   0.540
 6161SOL     OW19381   5.158   0.641   6.212
 6161SOL    HW119382   5.151   0.664   6.114
 6161SOL    HW219383   5.185   0.546   6.222
 6162SOL     OW19384   5.537   5.919   3.591
 6162SOL    HW119385   5.500   5.865   3.667
 6162SOL    HW219386   5.469   5.927   3.519
 6163SOL     OW19387   0.144   3.972   2.935
 6163SOL    HW119388   0.160   4.066   2.903
 6163SOL    HW219389   0.109   3.975   3.029
 6164SOL     OW19390   4.647   3.422   1.378
 6164SOL    HW119391   4.605   3.440   1.467
 6164SOL    HW219392   4.619   3.331   1.346
 6165SOL     OW19393   3.316   0.273   1.195
 6165SOL    HW119394   3.356   0.302   1.108
 6165SOL    HW219395   3.304   0.352   1.254
 6166SOL     OW19396   3.337   0.756   0.573
 6166SOL    HW119397   3.353   0.816   0.652
 6166SOL    HW219398   3.394   0.786   0.497
 6167SOL     OW19399   0.190   5.260   3.705
 6167SOL    HW119400   0.258   5.292   3.771
 6167SOL    HW219401   0.110   5.320   3.709
 6168SOL     OW19402   0.272   2.448   1.845
 6168SOL    HW119403   0.257   2.539   1.806
 6168SOL    HW219404   0.367   2.441   1.877
 6169SOL     OW19405   1.716   4.044   1.044
 6169SOL    HW119406   1.808   4.025   1.011
 6169SOL    HW219407   1.658   4.072   0.967
 6170SOL     OW19408   5.539   2.274   3.708
 6170SOL    HW119409   5.440   2.278   3.691
 6170SOL    HW219410   5.559   2.198   3.768
 6171SOL     OW19411   5.931   2.444   6.289
 6171SOL    HW119412   5.859   2.402   6.343
 6171SOL    HW219413   5.891   2.496   6.213
 6172SOL     OW19414   0.151   4.588   3.261
 6172SOL    HW119415   0.078   4.637   3.212
 6172SOL    HW219416   0.198   4.651   3.323
 6173SOL     OW19417   5.535   6.441   2.653
 6173SOL    HW119418   5.543   6.352   2.699
 6173SOL    HW219419   5.618   6.494   2.667
 6174SOL     OW19420   0.536   2.122   3.365
 6174SOL    HW119421   0.517   2.139   3.268
 6174SOL    HW219422   0.449   2.113   3.414
 6175SOL     OW19423   4.626   2.340   6.669
 6175SOL    HW119424   4.547   2.390   6.703
 6175SOL    HW219425   4.611   2.317   6.573
 6176SOL     OW19426   2.370   5.224   6.032
 6176SOL    HW119427   2.436   5.215   6.106
 6176SOL    HW219428   2.372   5.142   5.975
 6177SOL     OW19429   5.951   5.268   1.465
 6177SOL    HW119430   5.994   5.253   1.375
 6177SOL    HW219431   5.898   5.187   1.490
 6178SOL     OW19432   4.266   4.658   1.826
 6178SOL    HW119433   4.323   4.600   1.768
 6178SOL    HW219434   4.172   4.625   1.825
 6179SOL     OW19435   4.892   5.227   4.400
 6179SOL    HW119436   4.942   5.305   4.437
 6179SOL    HW219437   4.807   5.214   4.451
 6180SOL     OW19438   1.505   3.339   6.510
 6180SOL    HW119439   1.444   3.295   6.444
 6180SOL    HW219440   1.459   3.347   6.599
 6181SOL     OW19441   6.985   6.369   0.101
 6181SOL    HW119442   6.956   6.324   0.186
 6181SOL    HW219443   6.967   6.467   0.107
 6182SOL     OW19444   2.546   2.526   5.975
 6182SOL    HW119445   2.607   2.581   5.918
 6182SOL    HW219446   2.601   2.474   6.041
 6183SOL     OW19447   0.156   0.761   0.546
 6183SOL    HW119448   0.174   0.815   0.464
 6183SOL    HW219449   0.096   0.684   0.523
 6184SOL     OW19450   3.721   6.630   5.084
 6184SOL    HW119451   3.672   6.563   5.141
 6184SOL    HW219452   3.778   6.581   5.017
 6185SOL     OW19453   3.357   3.301   3.396
 6185SOL    HW119454   3.361   3.344   3.486
 6185SOL    HW219455   3.448   3.269   3.371
 6186SOL     OW19456   0.989   1.167   1.880
 6186SOL    HW119457   1.084   1.198   1.874
 6186SOL    HW219458   0.938   1.226   1.943
 6187SOL     OW19459   3.668   2.387   5.637
 6187SOL    HW119460   3.591   2.337   5.598
 6187SOL    HW219461   3.638   2.432   5.722
 6188SOL     OW19462   0.606   1.414   5.817
 6188SOL    HW119463   0.647   1.326   5.837
 6188SOL    HW219464   0.563   1.451   5.900
 6189SOL     OW19465   6.816   5.401   1.109
 6189SOL    HW119466   6.765   5.472   1.159
 6189SOL    HW219467   6.784   5.399   1.014
 6190SOL     OW19468   1.109   3.078   3.620
 6190SOL    HW119469   1.051   3.115   3.548
 6190SOL    HW219470   1.052   3.049   3.697
 6191SOL     OW19471   2.630   4.820   0.058
 6191SOL    HW119472   2.699   4.879   0.017
 6191SOL    HW219473   2.596   4.861   0.143
 6192SOL     OW19474   2.647   1.689   0.915
 6192SOL    HW119475   2.696   1.743   0.846
 6192SOL    HW219476   2.577   1.634   0.870
 6193SOL     OW19477   4.647   5.222   6.679
 6193SOL    HW119478   4.674   5.269   6.596
 6193SOL    HW219479   4.702   5.255   6.756
 6194SOL     OW19480   5.354   7.016   6.191
 6194SOL    HW119481   5.255   7.020   6.175
 6194SOL    HW219482   5.386   0.085   6.221
 6195SOL     OW19483   5.000   5.340   5.653
 6195SOL    HW119484   4.974   5.418   5.597
 6195SOL    HW219485   5.055   5.277   5.598
 6196SOL     OW19486   6.781   4.047   2.881
 6196SOL    HW119487   6.738   3.958   2.891
 6196SOL    HW219488   6.778   4.095   2.969
 6197SOL     OW19489   0.301   5.465   1.289
 6197SOL    HW119490   0.351   5.548   1.312
 6197SOL    HW219491   0.364   5.387   1.286
 6198SOL     OW19492   6.415   2.132   5.911
 6198SOL    HW119493   6.349   2.189   5.862
 6198SOL    HW219494   6.449   2.182   5.991
 6199SOL     OW19495   2.242   6.947   6.247
 6199SOL    HW119496   2.231   6.862   6.194
 6199SOL    HW219497   2.153   6.982   6.274
 6200SOL     OW19498   1.746   6.765   6.936
 6200SOL    HW119499   1.772   6.860   6.918
 6200SOL    HW219500   1.809   6.725   7.003
 6201SOL     OW19501   1.007   4.807   3.631
 6201SOL    HW119502   1.011   4.869   3.709
 6201SOL    HW219503   1.011   4.861   3.546
 6202SOL     OW19504   4.899   1.685   1.629
 6202SOL    HW119505   4.904   1.609   1.563
 6202SOL    HW219506   4.892   1.648   1.721
 6203SOL     OW19507   0.531   1.111   2.535
 6203SOL    HW119508   0.477   1.179   2.485
 6203SOL    HW219509   0.571   1.046   2.470
 6204SOL     OW19510   0.962   6.024   4.567
 6204SOL    HW119511   0.909   6.013   4.482
 6204SOL    HW219512   0.991   5.935   4.600
 6205SOL     OW19513   0.341   4.373   3.246
 6205SOL    HW119514   0.272   4.433   3.287
 6205SOL    HW219515   0.313   4.278   3.256
 6206SOL     OW19516   5.471   2.240   4.056
 6206SOL    HW119517   5.394   2.292   4.021
 6206SOL    HW219518   5.484   2.157   4.002
 6207SOL     OW19519   1.510   5.846   3.252
 6207SOL    HW119520   1.533   5.884   3.162
 6207SOL    HW219521   1.465   5.757   3.240
 6208SOL     OW19522   3.948   4.473   6.379
 6208SOL    HW119523   4.012   4.549   6.374
 6208SOL    HW219524   3.857   4.503   6.350
 6209SOL     OW19525   3.286   1.142   2.817
 6209SOL    HW119526   3.205   1.191   2.849
 6209SOL    HW219527   3.331   1.195   2.745
 6210SOL     OW19528   5.224   0.286   4.397
 6210SOL    HW119529   5.126   0.302   4.388
 6210SOL    HW219530   5.245   0.192   4.369
 6211SOL     OW19531   5.139   2.750   5.349
 6211SOL    HW119532   5.167   2.837   5.307
 6211SOL    HW219533   5.185   2.675   5.303
 6212SOL     OW19534   4.792   4.027   4.994
 6212SOL    HW119535   4.766   4.072   4.909
 6212SOL    HW219536   4.743   4.069   5.070
 6213SOL     OW19537   5.144   5.769   0.864
 6213SOL    HW119538   5.162   5.671   0.874
 6213SOL    HW219539   5.089   5.801   0.941
 6214SOL     OW19540   6.802   6.340   6.152
 6214SOL    HW119541   6.767   6.278   6.083
 6214SOL    HW219542   6.815   6.290   6.238
 6215SOL     OW19543   5.348   2.609   5.103
 6215SOL    HW119544   5.431   2.600   5.158
 6215SOL    HW219545   5.275   2.554   5.144
 6216SOL     OW19546   5.310   2.769   6.468
 6216SOL    HW119547   5.396   2.819   6.484
 6216SOL    HW219548   5.320   2.675   6.498
 6217SOL     OW19549   0.404   4.204   2.146
 6217SOL    HW119550   0.327   4.174   2.091
 6217SOL    HW219551   0.375   4.219   2.241
 6218SOL     OW19552   5.215   6.642   1.700
 6218SOL    HW119553   5.180   6.568   1.758
 6218SOL    HW219554   5.138   6.694   1.662
 6219SOL     OW19555   2.571   0.644   0.313
 6219SOL    HW119556   2.638   0.574   0.289
 6219SOL    HW219557   2.481   0.618   0.277
 6220SOL     OW19558   2.633   0.903   2.826
 6220SOL    HW119559   2.651   0.978   2.761
 6220SOL    HW219560   2.654   0.933   2.918
 6221SOL     OW19561   4.597   5.274   5.303
 6221SOL    HW119562   4.568   5.333   5.379
 6221SOL    HW219563   4.532   5.284   5.227
 6222SOL     OW19564   0.303   1.011   1.801
 6222SOL    HW119565   0.267   1.083   1.861
 6222SOL    HW219566   0.247   0.929   1.812
 6223SOL     OW19567   6.543   4.978   3.513
 6223SOL    HW119568   6.609   5.011   3.446
 6223SOL    HW219569   6.588   4.915   3.576
 6224SOL     OW19570   4.051   6.865   0.151
 6224SOL    HW119571   4.035   6.824   0.061
 6224SOL    HW219572   4.028   6.799   0.223
 6225SOL     OW19573   5.881   4.981   6.336
 6225SOL    HW119574   5.891   5.069   6.289
 6225SOL    HW219575   5.928   4.984   6.424
 6226SOL     OW19576   1.409   0.834   3.944
 6226SOL    HW119577   1.507   0.817   3.938
 6226SOL    HW219578   1.387   0.922   3.903
 6227SOL     OW19579   2.305   4.130   5.803
 6227SOL    HW119580   2.271   4.166   5.716
 6227SOL    HW219581   2.322   4.032   5.794
 6228SOL     OW19582   1.346   3.076   4.126
 6228SOL    HW119583   1.441   3.098   4.149
 6228SOL    HW219584   1.317   2.994   4.175
 6229SOL     OW19585   0.342   5.147   4.575
 6229SOL    HW119586   0.268   5.102   4.524
 6229SOL    HW219587   0.430   5.119   4.537
 6230SOL     OW19588   0.963   0.873   1.084
 6230SOL    HW119589   0.912   0.887   1.169
 6230SOL    HW219590   1.059   0.897   1.099
 6231SOL     OW19591   1.444   5.748   5.423
 6231SOL    HW119592   1.512   5.677   5.407
 6231SOL    HW219593   1.353   5.707   5.429
 6232SOL     OW19594   3.918   1.061   6.396
 6232SOL    HW119595   3.886   1.028   6.307
 6232SOL    HW219596   3.950   0.983   6.450
 6233SOL     OW19597   6.991   4.251   1.205
 6233SOL    HW119598   6.986   4.177   1.139
 6233SOL    HW219599   0.002   4.335   1.160
 6234SOL     OW19600   4.597   4.672   2.592
 6234SOL    HW119601   4.554   4.628   2.670
 6234SOL    HW219602   4.527   4.720   2.538
 6235SOL     OW19603   0.907   1.316   1.199
 6235SOL    HW119604   0.915   1.334   1.101
 6235SOL    HW219605   0.838   1.376   1.239
 6236SOL     OW19606   6.072   6.462   1.754
 6236SOL    HW119607   6.120   6.520   1.819
 6236SOL    HW219608   6.022   6.391   1.803
 6237SOL     OW19609   4.450   0.957   3.136
 6237SOL    HW119610   4.382   0.928   3.203
 6237SOL    HW219611   4.422   0.928   3.045
 6238SOL     OW19612   2.223   6.673   3.536
 6238SOL    HW119613   2.314   6.699   3.568
 6238SOL    HW219614   2.219   6.677   3.436
 6239SOL     OW19615   4.408   1.628   3.993
 6239SOL    HW119616   4.413   1.565   4.070
 6239SOL    HW219617   4.500   1.647   3.958
 6240SOL     OW19618   4.098   3.278   4.075
 6240SOL    HW119619   4.054   3.323   4.153
 6240SOL    HW219620   4.169   3.216   4.109
 6241SOL     OW19621   3.950   0.345   3.042
 6241SOL    HW119622   3.990   0.305   2.960
 6241SOL    HW219623   3.933   0.273   3.109
 6242SOL     OW19624   3.261   2.094   4.621
 6242SOL    HW119625   3.212   2.142   4.549
 6242SOL    HW219626   3.209   2.013   4.648
 6243SOL     OW19627   3.523   0.392   0.144
 6243SOL    HW119628   3.501   0.442   0.228
 6243SOL    HW219629   3.533   0.295   0.165
 6244SOL     OW19630   5.364   2.394   1.474
 6244SOL    HW119631   5.455   2.367   1.444
 6244SOL    HW219632   5.311   2.313   1.499
 6245SOL     OW19633   6.830   4.862   1.504
 6245SOL    HW119634   6.872   4.853   1.594
 6245SOL    HW219635   6.901   4.858   1.433
 6246SOL     OW19636   0.867   6.282   5.196
 6246SOL    HW119637   0.958   6.273   5.156
 6246SOL    HW219638   0.798   6.276   5.124
 6247SOL     OW19639   5.870   4.901   2.057
 6247SOL    HW119640   5.854   4.890   2.155
 6247SOL    HW219641   5.783   4.895   2.008
 6248SOL     OW19642   4.627   2.656   5.821
 6248SOL    HW119643   4.619   2.721   5.746
 6248SOL    HW219644   4.599   2.699   5.906
 6249SOL     OW19645   5.572   2.651   3.223
 6249SOL    HW119646   5.513   2.715   3.173
 6249SOL    HW219647   5.581   2.567   3.170
 6250SOL     OW19648   5.210   6.830   4.913
 6250SOL    HW119649   5.161   6.767   4.852
 6250SOL    HW219650   5.172   6.824   5.005
 6251SOL     OW19651   2.792   1.057   4.171
 6251SOL    HW119652   2.812   0.980   4.110
 6251SOL    HW219653   2.820   1.142   4.128
 6252SOL     OW19654   2.524   4.863   0.305
 6252SOL    HW119655   2.575   4.948   0.318
 6252SOL    HW219656   2.469   4.844   0.387
 6253SOL     OW19657   4.583   6.162   4.043
 6253SOL    HW119658   4.585   6.116   3.954
 6253SOL    HW219659   4.544   6.100   4.111
 6254SOL     OW19660   6.750   6.614   1.872
 6254SOL    HW119661   6.664   6.665   1.860
 6254SOL    HW219662   6.729   6.518   1.891
 6255SOL     OW19663   3.027   0.331   1.193
 6255SOL    HW119664   2.990   0.267   1.260
 6255SOL    HW219665   3.122   0.307   1.172
 6256SOL     OW19666   0.235   4.618   1.842
 6256SOL    HW119667   0.178   4.637   1.922
 6256SOL    HW219668   0.331   4.621   1.869
 6257SOL     OW19669   3.913   4.268   0.468
 6257SOL    HW119670   3.970   4.188   0.487
 6257SOL    HW219671   3.933   4.340   0.534
 6258SOL     OW19672   4.370   5.146   3.802
 6258SOL    HW119673   4.430   5.225   3.788
 6258SOL    HW219674   4.342   5.111   3.712
 6259SOL     OW19675   4.951   6.968   4.670
 6259SOL    HW119676   5.047   6.960   4.697
 6259SOL    HW219677   4.945   7.011   4.580
 6260SOL     OW19678   3.647   2.034   6.843
 6260SOL    HW119679   3.674   2.029   6.939
 6260SOL    HW219680   3.688   2.115   6.801
 6261SOL     OW19681   4.579   6.269   1.582
 6261SOL    HW119682   4.654   6.208   1.606
 6261SOL    HW219683   4.615   6.350   1.535
 6262SOL     OW19684   6.025   1.903   3.543
 6262SOL    HW119685   6.094   1.916   3.613
 6262SOL    HW219686   5.937   1.882   3.586
 6263SOL     OW19687   6.392   6.343   6.118
 6263SOL    HW119688   6.458   6.399   6.068
 6263SOL    HW219689   6.392   6.370   6.214
 6264SOL     OW19690   1.072   6.394   0.787
 6264SOL    HW119691   1.008   6.446   0.731
 6264SOL    HW219692   1.023   6.323   0.836
 6265SOL     OW19693   3.896   6.237   6.658
 6265SOL    HW119694   3.947   6.315   6.620
 6265SOL    HW219695   3.926   6.221   6.752
 6266SOL     OW19696   2.857   5.292   3.513
 6266SOL    HW119697   2.806   5.206   3.507
 6266SOL    HW219698   2.916   5.301   3.432
 6267SOL     OW19699   0.398   6.474   3.845
 6267SOL    HW119700   0.435   6.563   3.819
 6267SOL    HW219701   0.460   6.429   3.910
 6268SOL     OW19702   3.362   2.120   1.049
 6268SOL    HW119703   3.415   2.180   0.989
 6268SOL    HW219704   3.288   2.076   0.998
 6269SOL     OW19705   0.275   5.413   0.532
 6269SOL    HW119706   0.318   5.414   0.622
 6269SOL    HW219707   0.340   5.379   0.464
 6270SOL     OW19708   1.358   5.746   1.030
 6270SOL    HW119709   1.456   5.762   1.037
 6270SOL    HW219710   1.308   5.828   1.059
 6271SOL     OW19711   6.709   3.398   5.623
 6271SOL    HW119712   6.797   3.417   5.580
 6271SOL    HW219713   6.670   3.483   5.657
 6272SOL     OW19714   6.740   0.817   0.874
 6272SOL    HW119715   6.692   0.893   0.918
 6272SOL    HW219716   6.722   0.818   0.776
 6273SOL     OW19717   0.552   6.769   2.399
 6273SOL    HW119718   0.565   6.679   2.359
 6273SOL    HW219719   0.573   6.766   2.497
 6274SOL     OW19720   3.254   6.152   4.189
 6274SOL    HW119721   3.225   6.236   4.235
 6274SOL    HW219722   3.352   6.156   4.171
 6275SOL     OW19723   3.427   5.415   1.389
 6275SOL    HW119724   3.453   5.319   1.376
 6275SOL    HW219725   3.410   5.432   1.486
 6276SOL     OW19726   2.094   4.588   2.670
 6276SOL    HW119727   2.137   4.558   2.756
 6276SOL    HW219728   2.007   4.540   2.658
 6277SOL     OW19729   5.365   1.892   1.356
 6277SOL    HW119730   5.419   1.808   1.357
 6277SOL    HW219731   5.273   1.874   1.389
 6278SOL     OW19732   3.962   3.181   0.068
 6278SOL    HW119733   3.927   3.273   0.049
 6278SOL    HW219734   3.892   3.129   0.117
 6279SOL     OW19735   0.872   6.347   1.858
 6279SOL    HW119736   0.917   6.410   1.793
 6279SOL    HW219737   0.933   6.270   1.876
 6280SOL     OW19738   5.038   1.036   0.008
 6280SOL    HW119739   5.109   0.977   6.991
 6280SOL    HW219740   5.072   1.081   0.090
 6281SOL     OW19741   5.809   3.808   6.156
 6281SOL    HW119742   5.848   3.759   6.079
 6281SOL    HW219743   5.801   3.746   6.234
 6282SOL     OW19744   0.145   4.609   5.940
 6282SOL    HW119745   0.050   4.594   5.967
 6282SOL    HW219746   0.203   4.539   5.982
 6283SOL     OW19747   3.028   6.362   4.308
 6283SOL    HW119748   3.101   6.422   4.340
 6283SOL    HW219749   2.985   6.317   4.386
 6284SOL     OW19750   2.259   4.402   6.211
 6284SOL    HW119751   2.250   4.438   6.118
 6284SOL    HW219752   2.320   4.323   6.210
 6285SOL     OW19753   1.683   4.517   4.279
 6285SOL    HW119754   1.745   4.584   4.238
 6285SOL    HW219755   1.697   4.428   4.236
 6286SOL     OW19756   1.095   3.551   6.718
 6286SOL    HW119757   1.054   3.540   6.809
 6286SOL    HW219758   1.024   3.579   6.653
 6287SOL     OW19759   3.740   4.973   4.539
 6287SOL    HW119760   3.674   5.039   4.574
 6287SOL    HW219761   3.723   4.957   4.442
 6288SOL     OW19762   3.339   4.292   5.975
 6288SOL    HW119763   3.343   4.239   6.059
 6288SOL    HW219764   3.265   4.359   5.981
 6289SOL     OW19765   2.986   5.447   5.903
 6289SOL    HW119766   3.044   5.404   5.833
 6289SOL    HW219767   3.034   5.445   5.991
 6290SOL     OW19768   6.745   0.708   3.116
 6290SOL    HW119769   6.837   0.685   3.083
 6290SOL    HW219770   6.751   0.744   3.209
 6291SOL     OW19771   3.176   3.307   1.761
 6291SOL    HW119772   3.206   3.242   1.691
 6291SOL    HW219773   3.162   3.397   1.719
 6292SOL     OW19774   1.003   3.969   4.850
 6292SOL    HW119775   1.030   3.908   4.924
 6292SOL    HW219776   1.071   4.042   4.840
 6293SOL     OW19777   3.131   1.717   0.487
 6293SOL    HW119778   3.100   1.714   0.392
 6293SOL    HW219779   3.220   1.762   0.492
 6294SOL     OW19780   1.176   0.040   2.066
 6294SOL    HW119781   1.273   0.020   2.052
 6294SOL    HW219782   1.166   0.113   2.133
 6295SOL     OW19783   4.652   3.041   5.488
 6295SOL    HW119784   4.739   3.003   5.459
 6295SOL    HW219785   4.665   3.098   5.569
 6296SOL     OW19786   6.670   2.321   0.099
 6296SOL    HW119787   6.589   2.366   0.061
 6296SOL    HW219788   6.746   2.386   0.101
 6297SOL     OW19789   0.579   1.485   4.715
 6297SOL    HW119790   0.491   1.531   4.729
 6297SOL    HW219791   0.603   1.433   4.798
 6298SOL     OW19792   0.034   0.970   6.546
 6298SOL    HW119793   0.061   1.066   6.536
 6298SOL    HW219794   0.112   0.916   6.578
 6299SOL     OW19795   3.246   1.852   3.726
 6299SOL    HW119796   3.288   1.798   3.652
 6299SOL    HW219797   3.281   1.821   3.814
 6300SOL     OW19798   2.858   2.395   0.852
 6300SOL    HW119799   2.892   2.456   0.781
 6300SOL    HW219800   2.782   2.340   0.816
 6301SOL     OW19801   4.457   6.078   0.663
 6301SOL    HW119802   4.544   6.030   0.673
 6301SOL    HW219803   4.409   6.045   0.582
 6302SOL     OW19804   1.715   3.671   0.720
 6302SOL    HW119805   1.740   3.767   0.706
 6302SOL    HW219806   1.745   3.642   0.810
 6303SOL     OW19807   6.712   4.542   5.107
 6303SOL    HW119808   6.657   4.537   5.190
 6303SOL    HW219809   6.772   4.623   5.111
 6304SOL     OW19810   2.000   2.702   4.963
 6304SOL    HW119811   1.955   2.790   4.974
 6304SOL    HW219812   2.098   2.711   4.984
 6305SOL     OW19813   1.040   5.940   5.192
 6305SOL    HW119814   1.035   5.957   5.290
 6305SOL    HW219815   1.102   5.864   5.173
 6306SOL     OW19816   1.395   4.450   4.212
 6306SOL    HW119817   1.487   4.487   4.195
 6306SOL    HW219818   1.333   4.482   4.140
 6307SOL     OW19819   3.697   3.028   2.559
 6307SOL    HW119820   3.766   3.041   2.487
 6307SOL    HW219821   3.611   3.068   2.529
 6308SOL     OW19822   1.651   0.838   1.241
 6308SOL    HW119823   1.590   0.763   1.265
 6308SOL    HW219824   1.596   0.918   1.216
 6309SOL     OW19825   1.951   6.103   5.087
 6309SOL    HW119826   1.973   6.171   5.157
 6309SOL    HW219827   1.948   6.012   5.129
 6310SOL     OW19828   0.772   6.915   2.292
 6310SOL    HW119829   0.743   6.886   2.201
 6310SOL    HW219830   0.738   6.850   2.360
 6311SOL     OW19831   5.557   1.279   5.873
 6311SOL    HW119832   5.505   1.197   5.899
 6311SOL    HW219833   5.582   1.272   5.776
 6312SOL     OW19834   4.369   4.844   1.495
 6312SOL    HW119835   4.364   4.744   1.488
 6312SOL    HW219836   4.358   4.884   1.404
 6313SOL     OW19837   5.130   5.442   3.340
 6313SOL    HW119838   5.203   5.379   3.315
 6313SOL    HW219839   5.088   5.480   3.258
 6314SOL     OW19840   1.680   5.627   2.853
 6314SOL    HW119841   1.762   5.582   2.886
 6314SOL    HW219842   1.700   5.680   2.771
 6315SOL     OW19843   1.921   2.414   3.257
 6315SOL    HW119844   1.853   2.450   3.193
 6315SOL    HW219845   1.967   2.336   3.216
 6316SOL     OW19846   5.028   0.668   5.249
 6316SOL    HW119847   5.001   0.595   5.312
 6316SOL    HW219848   4.964   0.670   5.172
 6317SOL     OW19849   4.801   3.883   3.274
 6317SOL    HW119850   4.816   3.833   3.359
 6317SOL    HW219851   4.829   3.978   3.285
 6318SOL     OW19852   5.524   6.539   0.129
 6318SOL    HW119853   5.565   6.449   0.119
 6318SOL    HW219854   5.425   6.532   0.121
 6319SOL     OW19855   4.887   2.325   3.961
 6319SOL    HW119856   4.908   2.385   3.883
 6319SOL    HW219857   4.909   2.231   3.937
 6320SOL     OW19858   5.768   2.364   6.501
 6320SOL    HW119859   5.750   2.462   6.505
 6320SOL    HW219860   5.745   2.323   6.589
 6321SOL     OW19861   0.582   3.269   6.965
 6321SOL    HW119862   0.650   3.337   6.937
 6321SOL    HW219863   0.596   3.244   0.040
 6322SOL     OW19864   1.891   0.843   2.603
 6322SOL    HW119865   1.959   0.916   2.614
 6322SOL    HW219866   1.800   0.883   2.595
 6323SOL     OW19867   1.802   6.004   1.069
 6323SOL    HW119868   1.767   6.017   0.977
 6323SOL    HW219869   1.858   5.922   1.073
 6324SOL     OW19870   5.187   4.159   2.206
 6324SOL    HW119871   5.182   4.127   2.301
 6324SOL    HW219872   5.119   4.110   2.152
 6325SOL     OW19873   0.919   3.115   3.436
 6325SOL    HW119874   0.897   3.162   3.350
 6325SOL    HW219875   0.968   3.031   3.416
 6326SOL     OW19876   5.470   5.708   4.733
 6326SOL    HW119877   5.545   5.764   4.699
 6326SOL    HW219878   5.452   5.634   4.669
 6327SOL     OW19879   0.812   0.861   2.597
 6327SOL    HW119880   0.870   0.784   2.626
 6327SOL    HW219881   0.733   0.867   2.658
 6328SOL     OW19882   4.095   3.546   4.544
 6328SOL    HW119883   4.096   3.545   4.444
 6328SOL    HW219884   4.083   3.640   4.576
 6329SOL     OW19885   0.141   3.139   4.457
 6329SOL    HW119886   0.123   3.232   4.488
 6329SOL    HW219887   0.074   3.113   4.387
 6330SOL     OW19888   4.351   1.759   3.364
 6330SOL    HW119889   4.408   1.708   3.427
 6330SOL    HW219890   4.256   1.759   3.397
 6331SOL     OW19891   1.564   2.966   3.428
 6331SOL    HW119892   1.609   3.006   3.349
 6331SOL    HW219893   1.475   2.930   3.401
 6332SOL     OW19894   4.310   1.971   0.184
 6332SOL    HW119895   4.301   1.940   0.090
 6332SOL    HW219896   4.368   1.906   0.235
 6333SOL     OW19897   6.044   1.656   0.343
 6333SOL    HW119898   6.037   1.721   0.268
 6333SOL    HW219899   6.138   1.654   0.378
 6334SOL     OW19900   2.811   1.363   1.887
 6334SOL    HW119901   2.910   1.353   1.876
 6334SOL    HW219902   2.792   1.446   1.940
 6335SOL     OW19903   5.969   2.310   5.560
 6335SOL    HW119904   5.996   2.248   5.487
 6335SOL    HW219905   5.869   2.308   5.569
 6336SOL     OW19906   0.991   5.761   6.028
 6336SOL    HW119907   1.050   5.771   6.108
 6336SOL    HW219908   0.896   5.778   6.055
 6337SOL     OW19909   6.265   0.512   6.102
 6337SOL    HW119910   6.347   0.460   6.125
 6337SOL    HW219911   6.292   0.594   6.050
 6338SOL     OW19912   1.308   1.046   2.287
 6338SOL    HW119913   1.230   0.985   2.296
 6338SOL    HW219914   1.376   1.007   2.225
 6339SOL     OW19915   0.673   4.106   3.678
 6339SOL    HW119916   0.687   4.140   3.771
 6339SOL    HW219917   0.606   4.164   3.631
 6340SOL     OW19918   2.498   5.554   7.000
 6340SOL    HW119919   2.514   5.650   0.002
 6340SOL    HW219920   2.580   5.515   6.957
 6341SOL     OW19921   1.179   4.582   3.011
 6341SOL    HW119922   1.248   4.552   3.078
 6341SOL    HW219923   1.114   4.508   2.994
 6342SOL     OW19924   2.696   6.779   1.136
 6342SOL    HW119925   2.794   6.778   1.154
 6342SOL    HW219926   2.662   6.685   1.130
 6343SOL     OW19927   1.756   3.866   0.024
 6343SOL    HW119928   1.782   3.861   6.948
 6343SOL    HW219929   1.755   3.962   0.053
 6344SOL     OW19930   1.771   0.951   4.131
 6344SOL    HW119931   1.779   1.050   4.117
 6344SOL    HW219932   1.713   0.933   4.210
 6345SOL     OW19933   0.014   3.570   3.743
 6345SOL    HW119934   0.056   3.638   3.802
 6345SOL    HW219935   0.049   3.479   3.766
 6346SOL     OW19936   0.845   4.709   3.955
 6346SOL    HW119937   0.767   4.710   3.893
 6346SOL    HW219938   0.834   4.780   4.024
 6347SOL     OW19939   1.959   1.741   2.467
 6347SOL    HW119940   2.033   1.717   2.405
 6347SOL    HW219941   1.910   1.658   2.496
 6348SOL     OW19942   0.732   2.539   0.100
 6348SOL    HW119943   0.782   2.615   0.057
 6348SOL    HW219944   0.777   2.453   0.079
 6349SOL     OW19945   6.255   1.147   1.044
 6349SOL    HW119946   6.304   1.177   0.962
 6349SOL    HW219947   6.210   1.226   1.086
 6350SOL     OW19948   0.304   6.992   1.445
 6350SOL    HW119949   0.221   0.003   1.491
 6350SOL    HW219950   0.360   0.050   1.420
 6351SOL     OW19951   6.312   2.344   2.428
 6351SOL    HW119952   6.381   2.354   2.499
 6351SOL    HW219953   6.317   2.251   2.390
 6352SOL     OW19954   3.448   0.768   5.156
 6352SOL    HW119955   3.528   0.724   5.115
 6352SOL    HW219956   3.403   0.703   5.218
 6353SOL     OW19957   3.990   6.014   5.772
 6353SOL    HW119958   4.039   5.943   5.722
 6353SOL    HW219959   4.001   6.102   5.725
 6354SOL     OW19960   6.391   4.719   3.508
 6354SOL    HW119961   6.448   4.802   3.502
 6354SOL    HW219962   6.333   4.725   3.589
 6355SOL     OW19963   4.584   6.574   6.942
 6355SOL    HW119964   4.557   6.525   6.859
 6355SOL    HW219965   4.568   6.516   0.001
 6356SOL     OW19966   6.933   6.822   6.848
 6356SOL    HW119967   6.890   6.910   6.830
 6356SOL    HW219968   6.863   6.757   6.877
 6357SOL     OW19969   4.886   2.135   3.060
 6357SOL    HW119970   4.955   2.063   3.067
 6357SOL    HW219971   4.869   2.155   2.963
 6358SOL     OW19972   1.330   0.747   5.095
 6358SOL    HW119973   1.381   0.753   5.010
 6358SOL    HW219974   1.288   0.836   5.115
 6359SOL     OW19975   6.775   4.340   1.369
 6359SOL    HW119976   6.845   4.298   1.311
 6359SOL    HW219977   6.810   4.424   1.408
 6360SOL     OW19978   3.235   2.502   0.618
 6360SOL    HW119979   3.212   2.411   0.585
 6360SOL    HW219980   3.221   2.569   0.544
 6361SOL     OW19981   0.325   1.727   3.451
 6361SOL    HW119982   0.318   1.657   3.521
 6361SOL    HW219983   0.353   1.686   3.364
 6362SOL     OW19984   1.790   5.241   0.435
 6362SOL    HW119985   1.775   5.264   0.339
 6362SOL    HW219986   1.703   5.213   0.476
 6363SOL     OW19987   0.556   1.910   1.306
 6363SOL    HW119988   0.494   1.914   1.228
 6363SOL    HW219989   0.602   1.821   1.307
 6364SOL     OW19990   2.810   2.293   3.489
 6364SOL    HW119991   2.757   2.367   3.449
 6364SOL    HW219992   2.906   2.301   3.460
 6365SOL     OW19993   5.974   6.888   2.018
 6365SOL    HW119994   5.959   6.987   2.009
 6365SOL    HW219995   5.934   6.856   2.103
 6366SOL     OW19996   6.799   1.871   5.189
 6366SOL    HW119997   6.838   1.800   5.131
 6366SOL    HW219998   6.798   1.841   5.284
 6367SOL     OW19999   1.816   3.425   4.525
 6367SOL    HW120000   1.914   3.413   4.508
 6367SOL    HW220001   1.789   3.367   4.602
 6368SOL     OW20002   5.440   3.644   5.041
 6368SOL    HW120003   5.409   3.616   4.950
 6368SOL    HW220004   5.474   3.565   5.091
 6369SOL     OW20005   3.064   4.151   0.697
 6369SOL    HW120006   3.163   4.136   0.696
 6369SOL    HW220007   3.042   4.231   0.642
 6370SOL     OW20008   6.224   3.404   4.568
 6370SOL    HW120009   6.312   3.444   4.595
 6370SOL    HW220010   6.173   3.377   4.650
 6371SOL     OW20011   5.856   4.331   1.066
 6371SOL    HW120012   5.878   4.415   1.017
 6371SOL    HW220013   5.913   4.325   1.148
 6372SOL     OW20014   5.703   1.376   1.985
 6372SOL    HW120015   5.760   1.437   1.930
 6372SOL    HW220016   5.642   1.431   2.043
 6373SOL     OW20017   5.677   1.711   1.594
 6373SOL    HW120018   5.734   1.689   1.515
 6373SOL    HW220019   5.618   1.633   1.616
 6374SOL     OW20020   3.642   3.368   6.249
 6374SOL    HW120021   3.722   3.408   6.293
 6374SOL    HW220022   3.597   3.438   6.194
 6375SOL     OW20023   5.020   1.312   1.891
 6375SOL    HW120024   4.975   1.266   1.968
 6375SOL    HW220025   4.971   1.396   1.869
 6376SOL     OW20026   3.410   6.500   6.875
 6376SOL    HW120027   3.399   6.425   6.809
 6376SOL    HW220028   3.324   6.513   6.924
 6377SOL     OW20029   0.281   1.896   0.376
 6377SOL    HW120030   0.377   1.924   0.379
 6377SOL    HW220031   0.272   1.805   0.416
 6378SOL     OW20032   6.158   3.682   2.831
 6378SOL    HW120033   6.213   3.687   2.914
 6378SOL    HW220034   6.112   3.770   2.816
 6379SOL     OW20035   2.259   4.245   6.833
 6379SOL    HW120036   2.359   4.255   6.835
 6379SOL    HW220037   2.229   4.186   6.907
 6380SOL     OW20038   2.010   2.476   4.472
 6380SOL    HW120039   2.016   2.557   4.529
 6380SOL    HW220040   1.942   2.413   4.510
 6381SOL     OW20041   3.613   4.613   0.842
 6381SOL    HW120042   3.696   4.648   0.798
 6381SOL    HW220043   3.538   4.678   0.827
 6382SOL     OW20044   2.009   1.381   1.172
 6382SOL    HW120045   2.063   1.427   1.243
 6382SOL    HW220046   2.041   1.409   1.082
 6383SOL     OW20047   2.862   2.127   1.910
 6383SOL    HW120048   2.916   2.115   1.827
 6383SOL    HW220049   2.892   2.210   1.958
 6384SOL     OW20050   0.818   1.324   2.027
 6384SOL    HW120051   0.731   1.290   1.992
 6384SOL    HW220052   0.815   1.327   2.127
 6385SOL     OW20053   0.272   3.486   1.775
 6385SOL    HW120054   0.207   3.539   1.720
 6385SOL    HW220055   0.345   3.452   1.715
 6386SOL     OW20056   3.225   4.596   1.115
 6386SOL    HW120057   3.239   4.664   1.043
 6386SOL    HW220058   3.292   4.612   1.188
 6387SOL     OW20059   6.286   1.891   5.672
 6387SOL    HW120060   6.287   1.979   5.718
 6387SOL    HW220061   6.365   1.884   5.610
 6388SOL     OW20062   6.751   5.125   2.245
 6388SOL    HW120063   6.710   5.085   2.327
 6388SOL    HW220064   6.711   5.216   2.229
 6389SOL     OW20065   6.535   0.505   0.402
 6389SOL    HW120066   6.538   0.535   0.306
 6389SOL    HW220067   6.593   0.423   0.412
 6390SOL     OW20068   4.347   6.343   0.265
 6390SOL    HW120069   4.421   6.335   0.331
 6390SOL    HW220070   4.320   6.253   0.233
 6391SOL     OW20071   0.854   1.832   4.984
 6391SOL    HW120072   0.850   1.741   5.026
 6391SOL    HW220073   0.770   1.849   4.933
 6392SOL     OW20074   4.407   6.336   2.947
 6392SOL    HW120075   4.478   6.350   3.016
 6392SOL    HW220076   4.336   6.406   2.958
 6393SOL     OW20077   2.221   4.155   0.462
 6393SOL    HW120078   2.273   4.070   0.458
 6393SOL    HW220079   2.181   4.166   0.552
 6394SOL     OW20080   1.535   5.284   1.817
 6394SOL    HW120081   1.526   5.339   1.900
 6394SOL    HW220082   1.456   5.222   1.810
 6395SOL     OW20083   1.444   3.639   4.957
 6395SOL    HW120084   1.544   3.640   4.948
 6395SOL    HW220085   1.405   3.708   4.895
 6396SOL     OW20086   1.078   3.809   4.096
 6396SOL    HW120087   1.006   3.783   4.031
 6396SOL    HW220088   1.163   3.762   4.072
 6397SOL     OW20089   0.989   3.596   4.284
 6397SOL    HW120090   0.985   3.681   4.231
 6397SOL    HW220091   0.896   3.564   4.302
 6398SOL     OW20092   0.298   0.195   2.368
 6398SOL    HW120093   0.326   0.105   2.402
 6398SOL    HW220094   0.341   0.211   2.279
 6399SOL     OW20095   2.409   6.911   6.441
 6399SOL    HW120096   2.341   6.863   6.497
 6399SOL    HW220097   2.364   6.954   6.363
 6400SOL     OW20098   1.489   6.667   2.914
 6400SOL    HW120099   1.545   6.587   2.895
 6400SOL    HW220100   1.419   6.643   2.981
 6401SOL     OW20101   4.056   4.868   1.196
 6401SOL    HW120102   4.054   4.951   1.253
 6401SOL    HW220103   3.963   4.833   1.184
 6402SOL     OW20104   3.198   3.270   6.338
 6402SOL    HW120105   3.169   3.365   6.352
 6402SOL    HW220106   3.295   3.262   6.360
 6403SOL     OW20107   4.000   5.169   6.098
 6403SOL    HW120108   3.949   5.251   6.074
 6403SOL    HW220109   4.028   5.174   6.194
 6404SOL     OW20110   4.926   6.308   6.491
 6404SOL    HW120111   4.933   6.293   6.392
 6404SOL    HW220112   4.938   6.220   6.538
 6405SOL     OW20113   4.305   1.115   3.497
 6405SOL    HW120114   4.301   1.201   3.446
 6405SOL    HW220115   4.400   1.084   3.503
 6406SOL     OW20116   0.240   3.026   2.407
 6406SOL    HW120117   0.326   3.055   2.448
 6406SOL    HW220118   0.192   3.106   2.368
 6407SOL     OW20119   0.639   6.944   2.648
 6407SOL    HW120120   0.580   6.943   2.729
 6407SOL    HW220121   0.725   6.897   2.669
 6408SOL     OW20122   0.131   0.896   2.286
 6408SOL    HW120123   0.196   0.897   2.362
 6408SOL    HW220124   0.156   0.824   2.222
 6409SOL     OW20125   6.453   4.358   4.160
 6409SOL    HW120126   6.400   4.417   4.221
 6409SOL    HW220127   6.441   4.389   4.066
 6410SOL     OW20128   2.282   0.689   7.007
 6410SOL    HW120129   2.238   0.609   6.964
 6410SOL    HW220130   2.233   0.772   6.979
 6411SOL     OW20131   1.419   2.217   4.315
 6411SOL    HW120132   1.322   2.232   4.332
 6411SOL    HW220133   1.446   2.127   4.347
 6412SOL     OW20134   4.758   0.132   0.127
 6412SOL    HW120135   4.721   0.194   0.196
 6412SOL    HW220136   4.857   0.125   0.138
 6413SOL     OW20137   4.601   6.185   3.391
 6413SOL    HW120138   4.613   6.100   3.339
 6413SOL    HW220139   4.620   6.263   3.332
 6414SOL     OW20140   3.665   0.348   6.883
 6414SOL    HW120141   3.733   0.277   6.901
 6414SOL    HW220142   3.618   0.372   6.968
 6415SOL     OW20143   6.830   1.729   3.636
 6415SOL    HW120144   6.909   1.672   3.612
 6415SOL    HW220145   6.779   1.686   3.710
 6416SOL     OW20146   2.839   4.115   0.895
 6416SOL    HW120147   2.754   4.135   0.847
 6416SOL    HW220148   2.913   4.106   0.828
 6417SOL     OW20149   5.029   3.137   5.547
 6417SOL    HW120150   4.975   3.169   5.469
 6417SOL    HW220151   5.110   3.195   5.557
 6418SOL     OW20152   4.695   5.812   6.954
 6418SOL    HW120153   4.743   5.735   6.994
 6418SOL    HW220154   4.606   5.782   6.918
 6419SOL     OW20155   1.605   6.765   6.565
 6419SOL    HW120156   1.610   6.771   6.665
 6419SOL    HW220157   1.516   6.726   6.539
 6420SOL     OW20158   2.329   4.710   3.620
 6420SOL    HW120159   2.403   4.677   3.679
 6420SOL    HW220160   2.367   4.738   3.531
 6421SOL     OW20161   4.645   6.507   1.870
 6421SOL    HW120162   4.572   6.482   1.806
 6421SOL    HW220163   4.693   6.424   1.899
 6422SOL     OW20164   1.078   0.989   5.563
 6422SOL    HW120165   1.146   1.049   5.520
 6422SOL    HW220166   0.987   1.027   5.547
 6423SOL     OW20167   1.203   3.452   4.072
 6423SOL    HW120168   1.145   3.397   4.012
 6423SOL    HW220169   1.200   3.415   4.165
 6424SOL     OW20170   5.819   4.247   5.757
 6424SOL    HW120171   5.774   4.193   5.827
 6424SOL    HW220172   5.882   4.189   5.705
 6425SOL     OW20173   0.911   0.285   4.079
 6425SOL    HW120174   0.896   0.347   4.156
 6425SOL    HW220175   0.892   0.334   3.994
 6426SOL     OW20176   2.935   5.249   4.078
 6426SOL    HW120177   2.942   5.189   4.157
 6426SOL    HW220178   3.026   5.266   4.041
 6427SOL     OW20179   3.289   3.278   2.728
 6427SOL    HW120180   3.315   3.197   2.675
 6427SOL    HW220181   3.371   3.324   2.761
 6428SOL     OW20182   6.708   3.411   6.854
 6428SOL    HW120183   6.781   3.465   6.896
 6428SOL    HW220184   6.747   3.341   6.794
 6429SOL     OW20185   3.148   1.444   4.467
 6429SOL    HW120186   3.125   1.389   4.386
 6429SOL    HW220187   3.153   1.540   4.441
 6430SOL     OW20188   6.338   1.356   3.737
 6430SOL    HW120189   6.298   1.297   3.667
 6430SOL    HW220190   6.374   1.299   3.811
 6431SOL     OW20191   3.625   5.373   3.223
 6431SOL    HW120192   3.690   5.379   3.298
 6431SOL    HW220193   3.537   5.341   3.258
 6432SOL     OW20194   3.692   3.354   0.322
 6432SOL    HW120195   3.686   3.365   0.421
 6432SOL    HW220196   3.779   3.390   0.289
 6433SOL     OW20197   4.253   5.451   6.055
 6433SOL    HW120198   4.160   5.421   6.074
 6433SOL    HW220199   4.268   5.455   5.957
 6434SOL     OW20200   6.276   4.512   6.799
 6434SOL    HW120201   6.215   4.532   6.876
 6434SOL    HW220202   6.305   4.598   6.757
 6435SOL     OW20203   4.532   0.779   0.502
 6435SOL    HW120204   4.615   0.831   0.522
 6435SOL    HW220205   4.554   0.703   0.442
 6436SOL     OW20206   1.035   1.483   3.690
 6436SOL    HW120207   1.069   1.566   3.646
 6436SOL    HW220208   1.102   1.451   3.757
 6437SOL     OW20209   1.028   2.713   6.448
 6437SOL    HW120210   1.092   2.636   6.440
 6437SOL    HW220211   0.985   2.731   6.360
 6438SOL     OW20212   0.957   5.610   1.538
 6438SOL    HW120213   0.885   5.571   1.595
 6438SOL    HW220214   0.925   5.620   1.444
 6439SOL     OW20215   4.026   5.712   3.131
 6439SOL    HW120216   4.045   5.713   3.033
 6439SOL    HW220217   4.054   5.799   3.172
 6440SOL     OW20218   2.195   2.350   5.107
 6440SOL    HW120219   2.247   2.374   5.025
 6440SOL    HW220220   2.231   2.266   5.146
 6441SOL     OW20221   1.530   1.377   1.875
 6441SOL    HW120222   1.544   1.279   1.890
 6441SOL    HW220223   1.590   1.428   1.936
 6442SOL     OW20224   2.989   2.237   4.147
 6442SOL    HW120225   2.948   2.298   4.079
 6442SOL    HW220226   3.088   2.236   4.136
 6443SOL     OW20227   2.579   1.701   6.082
 6443SOL    HW120228   2.496   1.656   6.051
 6443SOL    HW220229   2.604   1.774   6.017
 6444SOL     OW20230   6.704   4.245   5.352
 6444SOL    HW120231   6.776   4.289   5.406
 6444SOL    HW220232   6.726   4.149   5.338
 6445SOL     OW20233   3.059   3.171   3.425
 6445SOL    HW120234   3.053   3.165   3.525
 6445SOL    HW220235   3.151   3.144   3.396
 6446SOL     OW20236   0.627   0.054   1.796
 6446SOL    HW120237   0.687   7.006   1.755
 6446SOL    HW220238   0.633   0.139   1.744
 6447SOL     OW20239   0.434   3.947   1.897
 6447SOL    HW120240   0.383   3.992   1.970
 6447SOL    HW220241   0.406   3.851   1.891
 6448SOL     OW20242   3.973   4.339   1.511
 6448SOL    HW120243   3.941   4.402   1.439
 6448SOL    HW220244   3.898   4.279   1.538
 6449SOL     OW20245   4.540   6.430   6.707
 6449SOL    HW120246   4.520   6.495   6.634
 6449SOL    HW220247   4.581   6.348   6.669
 6450SOL     OW20248   4.460   3.771   0.787
 6450SOL    HW120249   4.465   3.684   0.837
 6450SOL    HW220250   4.512   3.841   0.836
 6451SOL     OW20251   4.333   3.541   1.629
 6451SOL    HW120252   4.264   3.479   1.591
 6451SOL    HW220253   4.293   3.632   1.638
 6452SOL     OW20254   4.824   1.684   4.122
 6452SOL    HW120255   4.855   1.637   4.205
 6452SOL    HW220256   4.837   1.625   4.043
 6453SOL     OW20257   3.189   0.631   3.185
 6453SOL    HW120258   3.128   0.711   3.185
 6453SOL    HW220259   3.230   0.620   3.095
 6454SOL     OW20260   5.181   3.569   5.816
 6454SOL    HW120261   5.132   3.644   5.770
 6454SOL    HW220262   5.277   3.572   5.789
 6455SOL     OW20263   0.209   3.524   5.374
 6455SOL    HW120264   0.150   3.479   5.307
 6455SOL    HW220265   0.180   3.619   5.384
 6456SOL     OW20266   6.003   2.205   2.987
 6456SOL    HW120267   6.086   2.183   2.935
 6456SOL    HW220268   6.028   2.254   3.070
 6457SOL     OW20269   1.665   6.160   3.538
 6457SOL    HW120270   1.764   6.177   3.533
 6457SOL    HW220271   1.616   6.247   3.543
 6458SOL     OW20272   1.312   6.891   4.665
 6458SOL    HW120273   1.379   6.924   4.599
 6458SOL    HW220274   1.354   6.822   4.724
 6459SOL     OW20275   0.098   3.117   3.451
 6459SOL    HW120276   0.070   3.140   3.357
 6459SOL    HW220277   0.185   3.067   3.448
 6460SOL     OW20278   1.486   5.296   5.520
 6460SOL    HW120279   1.412   5.229   5.531
 6460SOL    HW220280   1.487   5.357   5.599
 6461SOL     OW20281   6.405   0.446   2.172
 6461SOL    HW120282   6.446   0.435   2.262
 6461SOL    HW220283   6.311   0.414   2.173
 6462SOL     OW20284   2.697   4.233   5.699
 6462SOL    HW120285   2.656   4.156   5.649
 6462SOL    HW220286   2.770   4.273   5.644
 6463SOL     OW20287   4.808   3.465   1.793
 6463SOL    HW120288   4.837   3.378   1.832
 6463SOL    HW220289   4.719   3.453   1.748
 6464SOL     OW20290   0.844   3.368   3.298
 6464SOL    HW120291   0.929   3.345   3.250
 6464SOL    HW220292   0.778   3.294   3.285
 6465SOL     OW20293   2.686   1.112   2.669
 6465SOL    HW120294   2.690   1.050   2.590
 6465SOL    HW220295   2.665   1.204   2.638
 6466SOL     OW20296   6.196   5.299   0.101
 6466SOL    HW120297   6.122   5.265   0.159
 6466SOL    HW220298   6.253   5.362   0.153
 6467SOL     OW20299   2.877   3.717   6.076
 6467SOL    HW120300   2.884   3.755   5.983
 6467SOL    HW220301   2.952   3.652   6.090
 6468SOL     OW20302   0.950   0.856   6.674
 6468SOL    HW120303   0.874   0.882   6.614
 6468SOL    HW220304   1.012   0.796   6.625
 6469SOL     OW20305   3.049   0.990   0.949
 6469SOL    HW120306   3.117   0.925   0.913
 6469SOL    HW220307   2.989   1.020   0.874
 6470SOL     OW20308   6.260   0.997   6.615
 6470SOL    HW120309   6.216   0.908   6.598
 6470SOL    HW220310   6.202   1.052   6.675
 6471SOL     OW20311   0.284   6.717   5.362
 6471SOL    HW120312   0.317   6.649   5.428
 6471SOL    HW220313   0.197   6.686   5.324
 6472SOL     OW20314   1.149   5.963   0.837
 6472SOL    HW120315   1.150   6.009   0.926
 6472SOL    HW220316   1.081   6.006   0.777
 6473SOL     OW20317   3.314   1.418   3.376
 6473SOL    HW120318   3.293   1.328   3.338
 6473SOL    HW220319   3.367   1.471   3.309
 6474SOL     OW20320   4.205   0.518   4.674
 6474SOL    HW120321   4.176   0.463   4.751
 6474SOL    HW220322   4.252   0.600   4.707
 6475SOL     OW20323   5.762   5.970   4.328
 6475SOL    HW120324   5.859   5.991   4.341
 6475SOL    HW220325   5.709   6.054   4.334
 6476SOL     OW20326   5.239   4.314   4.236
 6476SOL    HW120327   5.299   4.359   4.170
 6476SOL    HW220328   5.277   4.324   4.328
 6477SOL     OW20329   1.120   7.005   1.008
 6477SOL    HW120330   1.177   6.923   1.004
 6477SOL    HW220331   1.054   7.004   0.933
 6478SOL     OW20332   1.975   6.581   0.221
 6478SOL    HW120333   2.058   6.534   0.252
 6478SOL    HW220334   1.996   6.678   0.207
 6479SOL     OW20335   4.628   5.161   4.513
 6479SOL    HW120336   4.605   5.070   4.480
 6479SOL    HW220337   4.558   5.226   4.485
 6480SOL     OW20338   2.724   0.432   4.858
 6480SOL    HW120339   2.813   0.388   4.860
 6480SOL    HW220340   2.694   0.453   4.951
 6481SOL     OW20341   4.046   3.624   1.209
 6481SOL    HW120342   3.988   3.577   1.275
 6481SOL    HW220343   4.129   3.656   1.254
 6482SOL     OW20344   5.342   3.405   3.928
 6482SOL    HW120345   5.364   3.453   3.843
 6482SOL    HW220346   5.247   3.374   3.925
 6483SOL     OW20347   2.048   6.602   5.557
 6483SOL    HW120348   1.967   6.543   5.557
 6483SOL    HW220349   2.054   6.651   5.643
 6484SOL     OW20350   3.606   0.807   3.545
 6484SOL    HW120351   3.613   0.720   3.496
 6484SOL    HW220352   3.511   0.840   3.541
 6485SOL     OW20353   2.424   4.757   5.419
 6485SOL    HW120354   2.408   4.819   5.495
 6485SOL    HW220355   2.416   4.806   5.332
 6486SOL     OW20356   6.680   3.784   2.502
 6486SOL    HW120357   6.600   3.724   2.505
 6486SOL    HW220358   6.761   3.732   2.529
 6487SOL     OW20359   6.314   5.445   4.742
 6487SOL    HW120360   6.290   5.482   4.652
 6487SOL    HW220361   6.380   5.505   4.786
 6488SOL     OW20362   3.876   5.195   3.003
 6488SOL    HW120363   3.884   5.291   2.975
 6488SOL    HW220364   3.940   5.176   3.077
 6489SOL     OW20365   6.867   3.900   5.069
 6489SOL    HW120366   6.772   3.929   5.055
 6489SOL    HW220367   6.887   3.823   5.008
 6490SOL     OW20368   1.393   3.220   6.254
 6490SOL    HW120369   1.366   3.161   6.330
 6490SOL    HW220370   1.484   3.195   6.222
 6491SOL     OW20371   0.705   0.141   2.227
 6491SOL    HW120372   0.720   0.046   2.199
 6491SOL    HW220373   0.701   0.145   2.327
 6492SOL     OW20374   4.053   3.661   3.099
 6492SOL    HW120375   4.078   3.575   3.143
 6492SOL    HW220376   4.038   3.731   3.170
 6493SOL     OW20377   2.013   5.005   3.746
 6493SOL    HW120378   1.946   4.943   3.705
 6493SOL    HW220379   2.100   4.998   3.697
 6494SOL     OW20380   7.008   0.886   1.830
 6494SOL    HW120381   6.942   0.813   1.850
 6494SOL    HW220382   0.035   0.911   1.914
 6495SOL     OW20383   6.060   6.001   2.585
 6495SOL    HW120384   6.066   5.954   2.497
 6495SOL    HW220385   6.060   5.933   2.659
 6496SOL     OW20386   2.840   2.886   1.074
 6496SOL    HW120387   2.874   2.909   1.165
 6496SOL    HW220388   2.825   2.787   1.068
 6497SOL     OW20389   6.922   2.914   0.907
 6497SOL    HW120390   6.826   2.922   0.936
 6497SOL    HW220391   6.932   2.837   0.845
 6498SOL     OW20392   2.777   5.040   4.874
 6498SOL    HW120393   2.799   4.984   4.794
 6498SOL    HW220394   2.685   5.077   4.865
 6499SOL     OW20395   5.405   2.167   2.855
 6499SOL    HW120396   5.399   2.122   2.766
 6499SOL    HW220397   5.425   2.264   2.841
 6500SOL     OW20398   1.830   3.570   3.040
 6500SOL    HW120399   1.824   3.470   3.030
 6500SOL    HW220400   1.879   3.608   2.962
 6501SOL     OW20401   6.735   1.291   2.884
 6501SOL    HW120402   6.643   1.330   2.887
 6501SOL    HW220403   6.801   1.364   2.872
 6502SOL     OW20404   0.834   3.378   2.647
 6502SOL    HW120405   0.860   3.321   2.569
 6502SOL    HW220406   0.734   3.382   2.652
 6503SOL     OW20407   0.867   3.065   5.747
 6503SOL    HW120408   0.854   3.163   5.765
 6503SOL    HW220409   0.780   3.018   5.759
 6504SOL     OW20410   4.136   6.446   5.454
 6504SOL    HW120411   4.078   6.403   5.523
 6504SOL    HW220412   4.110   6.414   5.363
 6505SOL     OW20413   0.707   6.938   6.568
 6505SOL    HW120414   0.807   6.934   6.579
 6505SOL    HW220415   0.681   0.006   6.531
 6506SOL     OW20416   1.062   4.935   2.003
 6506SOL    HW120417   0.991   4.910   2.069
 6506SOL    HW220418   1.144   4.881   2.021
 6507SOL     OW20419   5.241   5.388   0.259
 6507SOL    HW120420   5.208   5.482   0.256
 6507SOL    HW220421   5.169   5.328   0.295
 6508SOL     OW20422   0.010   1.275   4.539
 6508SOL    HW120423   6.994   1.186   4.513
 6508SOL    HW220424   0.021   1.280   4.638
 6509SOL     OW20425   2.770   1.790   6.570
 6509SOL    HW120426   2.742   1.731   6.494
 6509SOL    HW220427   2.857   1.835   6.548
 6510SOL     OW20428   4.070   5.041   4.200
 6510SOL    HW120429   4.026   5.123   4.237
 6510SOL    HW220430   4.105   5.061   4.108
 6511SOL     OW20431   3.725   3.083   0.182
 6511SOL    HW120432   3.694   3.176   0.203
 6511SOL    HW220433   3.648   3.029   0.148
 6512SOL     OW20434   5.363   1.569   2.330
 6512SOL    HW120435   5.271   1.532   2.330
 6512SOL    HW220436   5.404   1.558   2.421
 6513SOL     OW20437   3.289   4.691   1.729
 6513SOL    HW120438   3.274   4.630   1.651
 6513SOL    HW220439   3.355   4.649   1.792
 6514SOL     OW20440   5.496   5.531   5.455
 6514SOL    HW120441   5.403   5.533   5.419
 6514SOL    HW220442   5.506   5.602   5.525
 6515SOL     OW20443   0.530   4.937   2.327
 6515SOL    HW120444   0.565   4.989   2.249
 6515SOL    HW220445   0.430   4.940   2.327
 6516SOL     OW20446   5.653   1.502   3.722
 6516SOL    HW120447   5.749   1.477   3.713
 6516SOL    HW220448   5.644   1.601   3.710
 6517SOL     OW20449   6.953   3.967   1.119
 6517SOL    HW120450   6.870   3.916   1.143
 6517SOL    HW220451   0.012   3.915   1.149
 6518SOL     OW20452   1.036   1.942   2.180
 6518SOL    HW120453   1.078   1.859   2.144
 6518SOL    HW220454   0.977   1.919   2.258
 6519SOL     OW20455   2.288   1.945   3.321
 6519SOL    HW120456   2.226   1.881   3.276
 6519SOL    HW220457   2.355   1.978   3.254
 6520SOL     OW20458   6.070   6.629   6.762
 6520SOL    HW120459   6.039   6.550   6.710
 6520SOL    HW220460   6.056   6.712   6.708
 6521SOL     OW20461   1.658   4.677   4.922
 6521SOL    HW120462   1.704   4.766   4.925
 6521SOL    HW220463   1.641   4.651   4.827
 6522SOL     OW20464   2.292   3.272   5.270
 6522SOL    HW120465   2.281   3.350   5.209
 6522SOL    HW220466   2.346   3.201   5.224
 6523SOL     OW20467   4.599   6.336   0.792
 6523SOL    HW120468   4.540   6.374   0.720
 6523SOL    HW220469   4.694   6.344   0.763
 6524SOL     OW20470   3.679   2.075   1.452
 6524SOL    HW120471   3.650   1.994   1.402
 6524SOL    HW220472   3.732   2.135   1.392
 6525SOL     OW20473   3.190   4.976   3.665
 6525SOL    HW120474   3.101   4.932   3.674
 6525SOL    HW220475   3.220   4.971   3.570
 6526SOL     OW20476   6.213   6.553   0.852
 6526SOL    HW120477   6.241   6.573   0.946
 6526SOL    HW220478   6.115   6.574   0.841
 6527SOL     OW20479   5.650   1.916   0.879
 6527SOL    HW120480   5.656   1.983   0.953
 6527SOL    HW220481   5.738   1.870   0.869
 6528SOL     OW20482   4.699   0.021   0.619
 6528SOL    HW120483   4.615   0.044   0.569
 6528SOL    HW220484   4.674   7.001   0.707
 6529SOL     OW20485   3.404   6.193   1.374
 6529SOL    HW120486   3.431   6.250   1.296
 6529SOL    HW220487   3.464   6.114   1.381
 6530SOL     OW20488   0.755   2.831   4.270
 6530SOL    HW120489   0.720   2.881   4.350
 6530SOL    HW220490   0.766   2.895   4.194
 6531SOL     OW20491   2.917   3.682   4.656
 6531SOL    HW120492   2.895   3.760   4.715
 6531SOL    HW220493   2.910   3.597   4.708
 6532SOL     OW20494   0.323   6.179   6.677
 6532SOL    HW120495   0.324   6.265   6.728
 6532SOL    HW220496   0.390   6.116   6.716
 6533SOL     OW20497   5.833   5.084   1.042
 6533SOL    HW120498   5.926   5.119   1.031
 6533SOL    HW220499   5.821   5.050   1.135
 6534SOL     OW20500   5.960   3.351   4.172
 6534SOL    HW120501   6.005   3.264   4.152
 6534SOL    HW220502   5.972   3.374   4.268
 6535SOL     OW20503   5.558   3.171   6.676
 6535SOL    HW120504   5.530   3.096   6.617
 6535SOL    HW220505   5.638   3.143   6.729
 6536SOL     OW20506   6.915   6.034   5.262
 6536SOL    HW120507   6.908   6.131   5.284
 6536SOL    HW220508   6.918   5.981   5.347
 6537SOL     OW20509   6.294   5.408   4.109
 6537SOL    HW120510   6.288   5.343   4.184
 6537SOL    HW220511   6.390   5.434   4.095
 6538SOL     OW20512   1.613   4.059   3.463
 6538SOL    HW120513   1.698   4.007   3.466
 6538SOL    HW220514   1.548   4.021   3.529
 6539SOL     OW20515   5.876   6.615   5.659
 6539SOL    HW120516   5.939   6.690   5.638
 6539SOL    HW220517   5.825   6.638   5.743
 6540SOL     OW20518   0.785   2.660   5.207
 6540SOL    HW120519   0.830   2.656   5.118
 6540SOL    HW220520   0.816   2.741   5.257
 6541SOL     OW20521   3.167   1.921   5.639
 6541SOL    HW120522   3.196   1.930   5.544
 6541SOL    HW220523   3.077   1.876   5.641
 6542SOL     OW20524   1.818   5.068   1.616
 6542SOL    HW120525   1.814   5.029   1.708
 6542SOL    HW220526   1.895   5.028   1.566
 6543SOL     OW20527   4.098   1.845   3.754
 6543SOL    HW120528   4.036   1.803   3.821
 6543SOL    HW220529   4.087   1.944   3.756
 6544SOL     OW20530   1.382   1.047   1.326
 6544SOL    HW120531   1.302   0.988   1.331
 6544SOL    HW220532   1.396   1.091   1.415
 6545SOL     OW20533   6.469   4.162   0.681
 6545SOL    HW120534   6.398   4.215   0.728
 6545SOL    HW220535   6.558   4.204   0.697
 6546SOL     OW20536   4.516   5.434   4.150
 6546SOL    HW120537   4.488   5.345   4.185
 6546SOL    HW220538   4.451   5.504   4.177
 6547SOL     OW20539   0.341   6.457   5.017
 6547SOL    HW120540   0.292   6.544   5.006
 6547SOL    HW220541   0.392   6.437   4.933
 6548SOL     OW20542   1.768   0.967   5.110
 6548SOL    HW120543   1.700   1.002   5.046
 6548SOL    HW220544   1.762   0.867   5.114
 6549SOL     OW20545   2.328   1.683   2.291
 6549SOL    HW120546   2.352   1.771   2.333
 6549SOL    HW220547   2.233   1.687   2.258
 6550SOL     OW20548   5.284   0.591   1.779
 6550SOL    HW120549   5.372   0.561   1.744
 6550SOL    HW220550   5.236   0.643   1.708
 6551SOL     OW20551   2.142   5.941   1.177
 6551SOL    HW120552   2.150   5.884   1.095
 6551SOL    HW220553   2.099   5.888   1.251
 6552SOL     OW20554   2.405   3.661   6.777
 6552SOL    HW120555   2.338   3.611   6.831
 6552SOL    HW220556   2.403   3.758   6.803
 6553SOL     OW20557   0.427   1.592   3.228
 6553SOL    HW120558   0.355   1.525   3.212
 6553SOL    HW220559   0.475   1.610   3.142
 6554SOL     OW20560   2.128   1.796   4.015
 6554SOL    HW120561   2.079   1.778   3.929
 6554SOL    HW220562   2.219   1.755   4.010
 6555SOL     OW20563   2.100   3.418   1.724
 6555SOL    HW120564   2.084   3.508   1.684
 6555SOL    HW220565   2.158   3.427   1.805
 6556SOL     OW20566   4.802   2.971   3.628
 6556SOL    HW120567   4.801   3.012   3.537
 6556SOL    HW220568   4.823   3.041   3.696
 6557SOL     OW20569   1.868   6.554   2.316
 6557SOL    HW120570   1.836   6.589   2.228
 6557SOL    HW220571   1.790   6.522   2.369
 6558SOL     OW20572   4.753   5.995   0.255
 6558SOL    HW120573   4.669   6.022   0.207
 6558SOL    HW220574   4.832   6.013   0.197
 6559SOL     OW20575   0.059   1.920   5.898
 6559SOL    HW120576   0.108   1.997   5.859
 6559SOL    HW220577   7.005   1.954   5.955
 6560SOL     OW20578   6.813   4.307   6.220
 6560SOL    HW120579   6.793   4.381   6.284
 6560SOL    HW220580   6.728   4.280   6.174
 6561SOL     OW20581   2.273   5.052   6.866
 6561SOL    HW120582   2.193   4.992   6.852
 6561SOL    HW220583   2.298   5.053   6.962
 6562SOL     OW20584   4.772   2.693   1.209
 6562SOL    HW120585   4.756   2.698   1.307
 6562SOL    HW220586   4.791   2.784   1.173
 6563SOL     OW20587   5.797   4.054   6.077
 6563SOL    HW120588   5.827   3.973   6.128
 6563SOL    HW220589   5.861   4.129   6.092
 6564SOL     OW20590   6.020   4.054   2.256
 6564SOL    HW120591   6.050   4.071   2.162
 6564SOL    HW220592   6.096   4.070   2.319
 6565SOL     OW20593   5.665   5.165   1.322
 6565SOL    HW120594   5.661   5.143   1.419
 6565SOL    HW220595   5.724   5.100   1.275
 6566SOL     OW20596   5.293   6.174   4.592
 6566SOL    HW120597   5.327   6.080   4.581
 6566SOL    HW220598   5.336   6.216   4.672
 6567SOL     OW20599   2.747   0.623   2.549
 6567SOL    HW120600   2.719   0.607   2.643
 6567SOL    HW220601   2.683   0.579   2.486
 6568SOL     OW20602   5.330   1.617   0.719
 6568SOL    HW120603   5.346   1.700   0.772
 6568SOL    HW220604   5.393   1.613   0.641
 6569SOL     OW20605   1.445   3.777   3.410
 6569SOL    HW120606   1.453   3.686   3.370
 6569SOL    HW220607   1.349   3.799   3.426
 6570SOL     OW20608   4.284   0.162   2.552
 6570SOL    HW120609   4.247   0.223   2.481
 6570SOL    HW220610   4.382   0.180   2.564
 6571SOL     OW20611   2.435   6.991   3.093
 6571SOL    HW120612   2.474   7.010   3.183
 6571SOL    HW220613   2.450   6.895   3.069
 6572SOL     OW20614   0.929   7.016   4.097
 6572SOL    HW120615   0.838   7.005   4.058
 6572SOL    HW220616   0.952   0.092   4.102
 6573SOL     OW20617   1.379   2.567   3.843
 6573SOL    HW120618   1.331   2.654   3.832
 6573SOL    HW220619   1.441   2.553   3.766
 6574SOL     OW20620   1.563   5.061   1.508
 6574SOL    HW120621   1.570   5.144   1.564
 6574SOL    HW220622   1.654   5.030   1.483
 6575SOL     OW20623   0.040   0.774   3.896
 6575SOL    HW120624   7.001   0.760   3.975
 6575SOL    HW220625   0.127   0.814   3.927
 6576SOL     OW20626   4.437   0.891   2.863
 6576SOL    HW120627   4.386   0.819   2.815
 6576SOL    HW220628   4.410   0.980   2.829
 6577SOL     OW20629   2.497   0.531   5.490
 6577SOL    HW120630   2.594   0.522   5.467
 6577SOL    HW220631   2.471   0.627   5.488
 6578SOL     OW20632   0.745   6.277   0.191
 6578SOL    HW120633   0.795   6.334   0.125
 6578SOL    HW220634   0.741   6.325   0.279
 6579SOL     OW20635   2.390   1.972   2.842
 6579SOL    HW120636   2.387   2.069   2.863
 6579SOL    HW220637   2.345   1.955   2.754
 6580SOL     OW20638   3.432   2.416   0.267
 6580SOL    HW120639   3.529   2.418   0.293
 6580SOL    HW220640   3.413   2.333   0.215
 6581SOL     OW20641   0.921   2.381   1.878
 6581SOL    HW120642   0.872   2.341   1.800
 6581SOL    HW220643   0.918   2.317   1.955
 6582SOL     OW20644   3.675   6.243   3.202
 6582SOL    HW120645   3.719   6.313   3.259
 6582SOL    HW220646   3.672   6.274   3.107
 6583SOL     OW20647   2.414   4.756   0.580
 6583SOL    HW120648   2.427   4.754   0.680
 6583SOL    HW220649   2.433   4.665   0.543
 6584SOL     OW20650   4.651   3.744   5.427
 6584SOL    HW120651   4.728   3.735   5.489
 6584SOL    HW220652   4.626   3.654   5.392
 6585SOL     OW20653   5.218   6.596   1.999
 6585SOL    HW120654   5.311   6.573   1.972
 6585SOL    HW220655   5.208   6.696   2.000
 6586SOL     OW20656   6.592   1.812   6.741
 6586SOL    HW120657   6.523   1.762   6.795
 6586SOL    HW220658   6.601   1.905   6.777
 6587SOL     OW20659   2.753   4.766   5.257
 6587SOL    HW120660   2.776   4.713   5.176
 6587SOL    HW220661   2.733   4.704   5.333
 6588SOL     OW20662   1.620   2.441   0.367
 6588SOL    HW120663   1.550   2.393   0.314
 6588SOL    HW220664   1.611   2.540   0.353
 6589SOL     OW20665   5.904   0.706   0.607
 6589SOL    HW120666   5.945   0.623   0.644
 6589SOL    HW220667   5.825   0.681   0.550
 6590SOL     OW20668   0.838   5.979   4.310
 6590SOL    HW120669   0.773   5.904   4.298
 6590SOL    HW220670   0.831   6.042   4.232
 6591SOL     OW20671   6.413   3.554   3.404
 6591SOL    HW120672   6.442   3.591   3.316
 6591SOL    HW220673   6.313   3.551   3.407
 6592SOL     OW20674   0.456   0.454   4.597
 6592SOL    HW120675   0.366   0.442   4.555
 6592SOL    HW220676   0.504   0.366   4.598
 6593SOL     OW20677   0.887   6.844   3.701
 6593SOL    HW120678   0.889   6.759   3.648
 6593SOL    HW220679   0.980   6.879   3.712
 6594SOL     OW20680   5.319   6.969   6.523
 6594SOL    HW120681   5.294   0.043   6.506
 6594SOL    HW220682   5.274   6.909   6.457
 6595SOL     OW20683   0.633   6.669   4.599
 6595SOL    HW120684   0.727   6.667   4.632
 6595SOL    HW220685   0.611   6.761   4.568
 6596SOL     OW20686   4.902   0.633   3.438
 6596SOL    HW120687   4.890   0.721   3.393
 6596SOL    HW220688   4.960   0.574   3.382
 6597SOL     OW20689   0.762   5.480   1.707
 6597SOL    HW120690   0.779   5.408   1.774
 6597SOL    HW220691   0.668   5.473   1.674
 6598SOL     OW20692   1.318   5.118   1.360
 6598SOL    HW120693   1.330   5.204   1.410
 6598SOL    HW220694   1.397   5.059   1.376
 6599SOL     OW20695   0.064   5.736   0.687
 6599SOL    HW120696   0.074   5.676   0.608
 6599SOL    HW220697   0.106   5.825   0.668
 6600SOL     OW20698   5.300   0.201   4.743
 6600SOL    HW120699   5.316   0.298   4.726
 6600SOL    HW220700   5.349   0.173   4.826
 6601SOL     OW20701   1.061   2.211   3.849
 6601SOL    HW120702   1.103   2.299   3.833
 6601SOL    HW220703   0.961   2.221   3.849
 6602SOL     OW20704   6.111   6.089   0.739
 6602SOL    HW120705   6.145   6.144   0.815
 6602SOL    HW220706   6.175   6.096   0.662
 6603SOL     OW20707   0.028   5.137   2.385
 6603SOL    HW120708   6.984   5.212   2.397
 6603SOL    HW220709   0.054   5.130   2.289
 6604SOL     OW20710   2.560   4.829   2.310
 6604SOL    HW120711   2.519   4.754   2.258
 6604SOL    HW220712   2.660   4.821   2.306
 6605SOL     OW20713   0.042   5.520   1.152
 6605SOL    HW120714   7.014   5.444   1.110
 6605SOL    HW220715   0.114   5.485   1.211
 6606SOL     OW20716   0.910   5.226   3.416
 6606SOL    HW120717   0.926   5.128   3.419
 6606SOL    HW220718   0.946   5.264   3.331
 6607SOL     OW20719   0.608   2.585   4.264
 6607SOL    HW120720   0.675   2.658   4.279
 6607SOL    HW220721   0.615   2.552   4.170
 6608SOL     OW20722   1.599   0.118   5.344
 6608SOL    HW120723   1.516   0.075   5.309
 6608SOL    HW220724   1.576   0.204   5.390
 6609SOL     OW20725   2.588   1.852   6.991
 6609SOL    HW120726   2.585   1.952   6.994
 6609SOL    HW220727   2.658   1.822   6.926
 6610SOL     OW20728   3.283   5.392   0.628
 6610SOL    HW120729   3.239   5.472   0.588
 6610SOL    HW220730   3.272   5.313   0.567
 6611SOL     OW20731   2.758   1.028   5.102
 6611SOL    HW120732   2.661   1.051   5.106
 6611SOL    HW220733   2.793   1.013   5.194
 6612SOL     OW20734   6.063   6.911   6.706
 6612SOL    HW120735   6.036   6.973   6.633
 6612SOL    HW220736   6.033   6.947   6.794
 6613SOL     OW20737   5.060   6.557   0.979
 6613SOL    HW120738   5.128   6.486   0.996
 6613SOL    HW220739   5.055   6.618   1.057
 6614SOL     OW20740   4.350   5.877   0.449
 6614SOL    HW120741   4.354   5.800   0.512
 6614SOL    HW220742   4.286   5.945   0.484
 6615SOL     OW20743   3.854   5.684   5.949
 6615SOL    HW120744   3.820   5.729   5.866
 6615SOL    HW220745   3.933   5.734   5.984
 6616SOL     OW20746   4.316   1.852   6.581
 6616SOL    HW120747   4.414   1.869   6.570
 6616SOL    HW220748   4.271   1.937   6.609
 6617SOL     OW20749   3.915   1.932   4.163
 6617SOL    HW120750   3.844   1.921   4.093
 6617SOL    HW220751   3.872   1.959   4.249
 6618SOL     OW20752   6.335   2.601   3.500
 6618SOL    HW120753   6.254   2.606   3.442
 6618SOL    HW220754   6.360   2.692   3.532
 6619SOL     OW20755   4.564   4.940   3.318
 6619SOL    HW120756   4.580   5.030   3.360
 6619SOL    HW220757   4.650   4.906   3.281
 6620SOL     OW20758   1.420   2.954   3.734
 6620SOL    HW120759   1.485   2.960   3.810
 6620SOL    HW220760   1.470   2.949   3.647
 6621SOL     OW20761   3.527   3.530   3.254
 6621SOL    HW120762   3.469   3.556   3.331
 6621SOL    HW220763   3.554   3.434   3.263
 6622SOL     OW20764   6.835   5.184   1.488
 6622SOL    HW120765   6.878   5.110   1.540
 6622SOL    HW220766   6.797   5.251   1.551
 6623SOL     OW20767   3.451   3.570   4.467
 6623SOL    HW120768   3.503   3.596   4.386
 6623SOL    HW220769   3.356   3.554   4.441
 6624SOL     OW20770   2.325   2.344   2.641
 6624SOL    HW120771   2.364   2.407   2.573
 6624SOL    HW220772   2.241   2.303   2.605
 6625SOL     OW20773   0.778   5.390   6.382
 6625SOL    HW120774   0.834   5.325   6.434
 6625SOL    HW220775   0.837   5.463   6.346
 6626SOL     OW20776   3.678   5.949   5.518
 6626SOL    HW120777   3.587   5.972   5.552
 6626SOL    HW220778   3.724   6.032   5.487
 6627SOL     OW20779   2.430   0.235   4.461
 6627SOL    HW120780   2.484   0.293   4.521
 6627SOL    HW220781   2.482   0.152   4.440
 6628SOL     OW20782   3.562   6.163   4.070
 6628SOL    HW120783   3.582   6.116   3.984
 6628SOL    HW220784   3.528   6.255   4.051
 6629SOL     OW20785   5.218   5.507   5.353
 6629SOL    HW120786   5.279   5.463   5.287
 6629SOL    HW220787   5.153   5.566   5.304
 6630SOL     OW20788   1.709   6.859   0.737
 6630SOL    HW120789   1.741   6.783   0.681
 6630SOL    HW220790   1.630   6.901   0.694
 6631SOL     OW20791   1.469   1.458   5.661
 6631SOL    HW120792   1.487   1.370   5.617
 6631SOL    HW220793   1.375   1.459   5.696
 6632SOL     OW20794   1.184   0.660   5.969
 6632SOL    HW120795   1.158   0.696   5.880
 6632SOL    HW220796   1.250   0.721   6.012
 6633SOL     OW20797   5.165   0.522   5.581
 6633SOL    HW120798   5.226   0.456   5.537
 6633SOL    HW220799   5.078   0.526   5.531
 6634SOL     OW20800   2.813   2.334   3.945
 6634SOL    HW120801   2.739   2.399   3.927
 6634SOL    HW220802   2.847   2.299   3.858
 6635SOL     OW20803   4.539   5.662   6.132
 6635SOL    HW120804   4.540   5.563   6.120
 6635SOL    HW220805   4.463   5.688   6.191
 6636SOL     OW20806   4.851   1.430   1.172
 6636SOL    HW120807   4.803   1.515   1.195
 6636SOL    HW220808   4.814   1.392   1.087
 6637SOL     OW20809   0.307   3.792   0.019
 6637SOL    HW120810   0.292   3.837   0.107
 6637SOL    HW220811   0.225   3.801   6.983
 6638SOL     OW20812   3.206   3.535   4.413
 6638SOL    HW120813   3.175   3.597   4.341
 6638SOL    HW220814   3.146   3.455   4.415
 6639SOL     OW20815   6.040   2.464   2.482
 6639SOL    HW120816   6.001   2.439   2.571
 6639SOL    HW220817   6.132   2.425   2.474
 6640SOL     OW20818   0.266   3.334   4.131
 6640SOL    HW120819   0.175   3.340   4.090
 6640SOL    HW220820   0.261   3.366   4.226
 6641SOL     OW20821   5.353   2.371   0.561
 6641SOL    HW120822   5.429   2.430   0.532
 6641SOL    HW220823   5.389   2.283   0.592
 6642SOL     OW20824   0.531   4.490   6.393
 6642SOL    HW120825   0.509   4.505   6.489
 6642SOL    HW220826   0.447   4.469   6.342
 6643SOL     OW20827   6.025   5.695   5.840
 6643SOL    HW120828   5.974   5.660   5.919
 6643SOL    HW220829   5.961   5.726   5.769
 6644SOL     OW20830   2.064   6.452   3.543
 6644SOL    HW120831   2.113   6.539   3.537
 6644SOL    HW220832   1.968   6.467   3.517
 6645SOL     OW20833   4.746   2.625   5.380
 6645SOL    HW120834   4.813   2.696   5.360
 6645SOL    HW220835   4.664   2.668   5.420
 6646SOL     OW20836   4.344   6.974   6.034
 6646SOL    HW120837   4.436   6.934   6.041
 6646SOL    HW220838   4.276   6.902   6.041
 6647SOL     OW20839   3.142   4.716   0.638
 6647SOL    HW120840   3.165   4.621   0.657
 6647SOL    HW220841   3.087   4.720   0.554
 6648SOL     OW20842   3.198   5.843   5.017
 6648SOL    HW120843   3.182   5.763   5.075
 6648SOL    HW220844   3.152   5.923   5.056
 6649SOL     OW20845   5.459   2.461   5.451
 6649SOL    HW120846   5.506   2.538   5.407
 6649SOL    HW220847   5.369   2.491   5.484
 6650SOL     OW20848   2.663   0.268   4.635
 6650SOL    HW120849   2.666   0.170   4.655
 6650SOL    HW220850   2.688   0.320   4.717
 6651SOL     OW20851   5.923   1.484   3.665
 6651SOL    HW120852   5.992   1.536   3.615
 6651SOL    HW220853   5.963   1.448   3.750
 6652SOL     OW20854   6.819   4.983   0.075
 6652SOL    HW120855   6.740   4.980   0.013
 6652SOL    HW220856   6.807   4.915   0.148
 6653SOL     OW20857   5.539   3.444   6.596
 6653SOL    HW120858   5.611   3.494   6.644
 6653SOL    HW220859   5.542   3.347   6.623
 6654SOL     OW20860   6.689   1.920   3.065
 6654SOL    HW120861   6.662   1.863   2.987
 6654SOL    HW220862   6.744   1.865   3.128
 6655SOL     OW20863   6.611   5.422   1.681
 6655SOL    HW120864   6.655   5.503   1.642
 6655SOL    HW220865   6.628   5.419   1.779
 6656SOL     OW20866   5.773   1.679   2.392
 6656SOL    HW120867   5.738   1.709   2.480
 6656SOL    HW220868   5.739   1.587   2.372
 6657SOL     OW20869   4.921   1.994   4.162
 6657SOL    HW120870   4.946   2.050   4.242
 6657SOL    HW220871   4.825   1.969   4.169
 6658SOL     OW20872   6.241   5.036   3.963
 6658SOL    HW120873   6.268   4.953   4.013
 6658SOL    HW220874   6.214   5.106   4.029
 6659SOL     OW20875   0.867   6.517   0.674
 6659SOL    HW120876   0.824   6.489   0.760
 6659SOL    HW220877   0.808   6.582   0.627
 6660SOL     OW20878   1.818   1.057   3.475
 6660SOL    HW120879   1.745   1.032   3.539
 6660SOL    HW220880   1.904   1.063   3.525
 6661SOL     OW20881   3.784   6.327   3.724
 6661SOL    HW120882   3.688   6.354   3.721
 6661SOL    HW220883   3.829   6.374   3.800
 6662SOL     OW20884   3.947   5.897   1.457
 6662SOL    HW120885   4.000   5.883   1.541
 6662SOL    HW220886   3.925   5.809   1.415
 6663SOL     OW20887   1.648   4.265   5.662
 6663SOL    HW120888   1.553   4.237   5.671
 6663SOL    HW220889   1.706   4.208   5.720
 6664SOL     OW20890   3.283   0.162   1.649
 6664SOL    HW120891   3.185   0.163   1.668
 6664SOL    HW220892   3.334   0.169   1.735
 6665SOL     OW20893   2.983   0.160   6.656
 6665SOL    HW120894   2.944   0.192   6.742
 6665SOL    HW220895   2.991   0.236   6.592
 6666SOL     OW20896   2.860   7.001   6.291
 6666SOL    HW120897   2.805   7.005   6.208
 6666SOL    HW220898   2.800   6.989   6.370
 6667SOL     OW20899   1.152   5.671   0.054
 6667SOL    HW120900   1.202   5.653   0.139
 6667SOL    HW220901   1.134   5.769   0.046
 6668SOL     OW20902   6.883   3.387   5.911
 6668SOL    HW120903   6.960   3.449   5.897
 6668SOL    HW220904   6.882   3.319   5.838
 6669SOL     OW20905   0.720   3.593   3.376
 6669SOL    HW120906   0.653   3.577   3.449
 6669SOL    HW220907   0.772   3.509   3.360
 6670SOL     OW20908   2.295   3.829   0.766
 6670SOL    HW120909   2.369   3.848   0.702
 6670SOL    HW220910   2.304   3.736   0.802
 6671SOL     OW20911   5.500   5.378   0.111
 6671SOL    HW120912   5.408   5.376   0.150
 6671SOL    HW220913   5.494   5.372   0.011
 6672SOL     OW20914   1.561   2.396   0.901
 6672SOL    HW120915   1.594   2.319   0.955
 6672SOL    HW220916   1.636   2.433   0.846
 6673SOL     OW20917   5.739   4.210   4.286
 6673SOL    HW120918   5.831   4.229   4.253
 6673SOL    HW220919   5.732   4.115   4.314
 6674SOL     OW20920   6.592   1.532   0.027
 6674SOL    HW120921   6.578   1.488   6.959
 6674SOL    HW220922   6.542   1.482   0.098
 6675SOL     OW20923   5.402   1.187   0.887
 6675SOL    HW120924   5.394   1.179   0.987
 6675SOL    HW220925   5.312   1.174   0.845
 6676SOL     OW20926   0.858   3.349   5.252
 6676SOL    HW120927   0.932   3.363   5.186
 6676SOL    HW220928   0.860   3.423   5.319
 6677SOL     OW20929   0.534   2.062   0.107
 6677SOL    HW120930   0.516   2.153   0.142
 6677SOL    HW220931   0.613   2.064   0.046
 6678SOL     OW20932   2.991   4.312   0.135
 6678SOL    HW120933   3.091   4.309   0.129
 6678SOL    HW220934   2.954   4.350   0.050
 6679SOL     OW20935   1.476   0.230   3.671
 6679SOL    HW120936   1.540   0.240   3.595
 6679SOL    HW220937   1.476   0.313   3.726
 6680SOL     OW20938   6.157   5.422   1.594
 6680SOL    HW120939   6.079   5.386   1.542
 6680SOL    HW220940   6.137   5.515   1.623
 6681SOL     OW20941   3.064   6.504   1.004
 6681SOL    HW120942   3.084   6.532   0.910
 6681SOL    HW220943   2.981   6.447   1.004
 6682SOL     OW20944   2.030   5.022   6.611
 6682SOL    HW120945   2.107   4.987   6.558
 6682SOL    HW220946   1.994   5.104   6.566
 6683SOL     OW20947   6.642   6.572   6.240
 6683SOL    HW120948   6.628   6.529   6.151
 6683SOL    HW220949   6.555   6.580   6.288
 6684SOL     OW20950   2.929   0.106   5.749
 6684SOL    HW120951   2.839   0.089   5.790
 6684SOL    HW220952   2.979   0.172   5.805
 6685SOL     OW20953   3.915   3.094   0.620
 6685SOL    HW120954   3.866   3.048   0.546
 6685SOL    HW220955   3.888   3.055   0.708
 6686SOL     OW20956   4.216   4.740   5.763
 6686SOL    HW120957   4.176   4.829   5.740
 6686SOL    HW220958   4.304   4.730   5.716
 6687SOL     OW20959   0.267   2.823   1.265
 6687SOL    HW120960   0.218   2.742   1.297
 6687SOL    HW220961   0.218   2.864   1.188
 6688SOL     OW20962   5.783   5.945   0.010
 6688SOL    HW120963   5.693   5.917   0.041
 6688SOL    HW220964   5.802   6.038   0.042
 6689SOL     OW20965   3.992   4.609   5.650
 6689SOL    HW120966   4.078   4.638   5.692
 6689SOL    HW220967   3.989   4.509   5.645
 6690SOL     OW20968   0.983   0.585   0.137
 6690SOL    HW120969   1.030   0.592   0.225
 6690SOL    HW220970   0.947   0.493   0.125
 6691SOL     OW20971   1.976   2.181   2.305
 6691SOL    HW120972   1.960   2.215   2.212
 6691SOL    HW220973   1.889   2.171   2.352
 6692SOL     OW20974   4.248   6.002   2.442
 6692SOL    HW120975   4.262   6.079   2.379
 6692SOL    HW220976   4.190   6.031   2.518
 6693SOL     OW20977   3.012   1.029   6.272
 6693SOL    HW120978   2.912   1.019   6.268
 6693SOL    HW220979   3.035   1.107   6.330
 6694SOL     OW20980   4.636   4.126   1.682
 6694SOL    HW120981   4.554   4.154   1.732
 6694SOL    HW220982   4.712   4.184   1.708
 6695SOL     OW20983   3.292   2.168   7.008
 6695SOL    HW120984   3.329   2.152   6.916
 6695SOL    HW220985   3.329   2.100   0.050
 6696SOL     OW20986   3.511   3.169   5.268
 6696SOL    HW120987   3.481   3.227   5.343
 6696SOL    HW220988   3.449   3.091   5.259
 6697SOL     OW20989   4.873   1.096   2.891
 6697SOL    HW120990   4.801   1.141   2.944
 6697SOL    HW220991   4.961   1.108   2.936
 6698SOL     OW20992   2.543   3.545   1.346
 6698SOL    HW120993   2.598   3.468   1.380
 6698SOL    HW220994   2.486   3.580   1.420
 6699SOL     OW20995   1.555   3.599   5.807
 6699SOL    HW120996   1.626   3.578   5.873
 6699SOL    HW220997   1.470   3.552   5.833
 6700SOL     OW20998   5.021   6.807   1.586
 6700SOL    HW120999   5.067   6.750   1.517
 6700SOL    HW221000   4.929   6.772   1.602
 6701SOL     OW21001   6.645   0.152   1.209
 6701SOL    HW121002   6.738   0.128   1.236
 6701SOL    HW221003   6.582   0.079   1.236
 6702SOL     OW21004   5.286   2.792   1.448
 6702SOL    HW121005   5.201   2.763   1.492
 6702SOL    HW221006   5.268   2.875   1.395
 6703SOL     OW21007   0.232   1.038   0.753
 6703SOL    HW121008   0.225   0.943   0.782
 6703SOL    HW221009   0.183   1.096   0.819
 6704SOL     OW21010   2.059   5.616   6.550
 6704SOL    HW121011   2.127   5.573   6.608
 6704SOL    HW221012   2.079   5.595   6.454
 6705SOL     OW21013   1.612   4.244   3.026
 6705SOL    HW121014   1.528   4.236   3.080
 6705SOL    HW221015   1.609   4.179   2.950
 6706SOL     OW21016   0.355   5.888   1.800
 6706SOL    HW121017   0.402   5.811   1.844
 6706SOL    HW221018   0.399   5.973   1.826
 6707SOL     OW21019   5.677   1.036   2.686
 6707SOL    HW121020   5.731   1.099   2.742
 6707SOL    HW221021   5.580   1.057   2.698
 6708SOL     OW21022   7.018   3.126   1.181
 6708SOL    HW121023   6.920   3.142   1.167
 6708SOL    HW221024   0.009   3.066   1.260
 6709SOL     OW21025   2.311   4.180   2.161
 6709SOL    HW121026   2.248   4.224   2.097
 6709SOL    HW221027   2.389   4.142   2.111
 6710SOL     OW21028   4.891   2.350   1.865
 6710SOL    HW121029   4.973   2.348   1.808
 6710SOL    HW221030   4.822   2.290   1.825
 6711SOL     OW21031   4.235   5.433   6.343
 6711SOL    HW121032   4.231   5.513   6.402
 6711SOL    HW221033   4.205   5.457   6.251
 6712SOL     OW21034   5.739   3.383   1.024
 6712SOL    HW121035   5.696   3.356   0.938
 6712SOL    HW221036   5.693   3.338   1.101
 6713SOL     OW21037   2.185   4.995   4.388
 6713SOL    HW121038   2.247   5.071   4.366
 6713SOL    HW221039   2.228   4.908   4.361
 6714SOL     OW21040   6.326   1.113   2.998
 6714SOL    HW121041   6.327   1.110   2.898
 6714SOL    HW221042   6.281   1.031   3.033
 6715SOL     OW21043   0.556   6.917   5.148
 6715SOL    HW121044   0.513   6.974   5.218
 6715SOL    HW221045   0.583   6.830   5.188
 6716SOL     OW21046   1.660   4.422   1.650
 6716SOL    HW121047   1.585   4.384   1.597
 6716SOL    HW221048   1.721   4.348   1.680
 6717SOL     OW21049   6.309   2.762   5.369
 6717SOL    HW121050   6.260   2.725   5.449
 6717SOL    HW221051   6.366   2.839   5.398
 6718SOL     OW21052   4.942   2.028   0.954
 6718SOL    HW121053   4.918   2.098   0.887
 6718SOL    HW221054   4.871   1.958   0.957
 6719SOL     OW21055   1.405   0.165   0.292
 6719SOL    HW121056   1.469   0.134   0.222
 6719SOL    HW221057   1.329   0.214   0.249
 6720SOL     OW21058   1.708   1.845   4.779
 6720SOL    HW121059   1.792   1.883   4.739
 6720SOL    HW221060   1.708   1.860   4.878
 6721SOL     OW21061   6.390   6.440   0.668
 6721SOL    HW121062   6.327   6.477   0.737
 6721SOL    HW221063   6.343   6.369   0.615
 6722SOL     OW21064   0.087   3.600   1.631
 6722SOL    HW121065   0.096   3.700   1.631
 6722SOL    HW221066   0.067   3.569   1.538
 6723SOL     OW21067   2.110   3.613   3.926
 6723SOL    HW121068   2.022   3.659   3.917
 6723SOL    HW221069   2.125   3.553   3.847
 6724SOL     OW21070   2.169   3.479   5.111
 6724SOL    HW121071   2.145   3.565   5.155
 6724SOL    HW221072   2.175   3.492   5.012
 6725SOL     OW21073   4.566   2.651   3.225
 6725SOL    HW121074   4.534   2.565   3.185
 6725SOL    HW221075   4.577   2.639   3.324
 6726SOL     OW21076   0.293   1.654   0.493
 6726SOL    HW121077   0.289   1.643   0.593
 6726SOL    HW221078   0.367   1.598   0.457
 6727SOL     OW21079   0.882   5.583   5.511
 6727SOL    HW121080   0.840   5.495   5.531
 6727SOL    HW221081   0.822   5.638   5.454
 6728SOL     OW21082   3.378   1.690   5.488
 6728SOL    HW121083   3.335   1.758   5.428
 6728SOL    HW221084   3.361   1.715   5.583
 6729SOL     OW21085   4.571   1.130   2.613
 6729SOL    HW121086   4.608   1.140   2.520
 6729SOL    HW221087   4.515   1.047   2.618
 6730SOL     OW21088   0.043   2.152   1.298
 6730SOL    HW121089   7.019   2.209   1.367
 6730SOL    HW221090   0.029   2.055   1.321
 6731SOL     OW21091   3.836   0.572   5.702
 6731SOL    HW121092   3.854   0.663   5.666
 6731SOL    HW221093   3.738   0.558   5.710
 6732SOL     OW21094   6.525   4.272   6.136
 6732SOL    HW121095   6.519   4.232   6.228
 6732SOL    HW221096   6.433   4.292   6.103
 6733SOL     OW21097   5.525   4.573   5.796
 6733SOL    HW121098   5.518   4.632   5.715
 6733SOL    HW221099   5.620   4.573   5.829
 6734SOL     OW21100   5.666   2.100   5.014
 6734SOL    HW121101   5.583   2.063   4.970
 6734SOL    HW221102   5.652   2.196   5.035
 6735SOL     OW21103   5.677   2.527   4.557
 6735SOL    HW121104   5.592   2.522   4.504
 6735SOL    HW221105   5.657   2.555   4.651
 6736SOL     OW21106   4.087   3.437   0.688
 6736SOL    HW121107   4.026   3.379   0.743
 6736SOL    HW221108   4.095   3.527   0.731
 6737SOL     OW21109   5.966   2.755   1.348
 6737SOL    HW121110   5.934   2.757   1.253
 6737SOL    HW221111   6.045   2.694   1.354
 6738SOL     OW21112   1.860   6.919   3.441
 6738SOL    HW121113   1.891   6.871   3.523
 6738SOL    HW221114   1.905   7.008   3.435
 6739SOL     OW21115   0.496   0.606   5.767
 6739SOL    HW121116   0.447   0.526   5.802
 6739SOL    HW221117   0.587   0.609   5.808
 6740SOL     OW21118   0.636   6.757   1.341
 6740SOL    HW121119   0.583   6.770   1.425
 6740SOL    HW221120   0.573   6.752   1.263
 6741SOL     OW21121   2.951   1.952   0.306
 6741SOL    HW121122   2.909   1.988   0.222
 6741SOL    HW221123   2.951   1.852   0.303
 6742SOL     OW21124   6.767   5.119   2.671
 6742SOL    HW121125   6.770   5.219   2.669
 6742SOL    HW221126   6.740   5.089   2.763
 6743SOL     OW21127   3.860   4.542   0.067
 6743SOL    HW121128   3.796   4.467   0.048
 6743SOL    HW221129   3.935   4.508   0.124
 6744SOL     OW21130   6.563   6.962   5.489
 6744SOL    HW121131   6.585   0.031   5.529
 6744SOL    HW221132   6.486   6.972   5.427
 6745SOL     OW21133   5.653   3.313   4.868
 6745SOL    HW121134   5.707   3.385   4.913
 6745SOL    HW221135   5.581   3.282   4.930
 6746SOL     OW21136   1.602   2.407   2.845
 6746SOL    HW121137   1.608   2.451   2.934
 6746SOL    HW221138   1.625   2.473   2.773
 6747SOL     OW21139   0.635   6.419   4.881
 6747SOL    HW121140   0.721   6.405   4.833
 6747SOL    HW221141   0.608   6.335   4.928
 6748SOL     OW21142   1.529   2.126   4.055
 6748SOL    HW121143   1.489   2.162   4.140
 6748SOL    HW221144   1.469   2.147   3.979
 6749SOL     OW21145   3.106   5.137   1.881
 6749SOL    HW121146   3.202   5.123   1.905
 6749SOL    HW221147   3.096   5.132   1.781
 6750SOL     OW21148   3.558   0.276   5.380
 6750SOL    HW121149   3.548   0.198   5.318
 6750SOL    HW221150   3.609   0.247   5.461
 6751SOL     OW21151   4.450   1.608   4.356
 6751SOL    HW121152   4.516   1.668   4.401
 6751SOL    HW221153   4.362   1.612   4.404
 6752SOL     OW21154   2.188   5.168   2.729
 6752SOL    HW121155   2.206   5.180   2.631
 6752SOL    HW221156   2.199   5.256   2.775
 6753SOL     OW21157   3.440   4.269   6.763
 6753SOL    HW121158   3.377   4.323   6.819
 6753SOL    HW221159   3.436   4.174   6.792
 6754SOL     OW21160   5.659   0.285   0.345
 6754SOL    HW121161   5.574   0.334   0.323
 6754SOL    HW221162   5.721   0.289   0.267
 6755SOL     OW21163   3.678   5.697   5.411
 6755SOL    HW121164   3.745   5.640   5.459
 6755SOL    HW221165   3.675   5.787   5.454
 6756SOL     OW21166   4.232   3.380   5.308
 6756SOL    HW121167   4.292   3.452   5.273
 6756SOL    HW221168   4.288   3.305   5.343
 6757SOL     OW21169   3.848   6.977   1.782
 6757SOL    HW121170   3.934   7.012   1.820
 6757SOL    HW221171   3.851   6.984   1.682
 6758SOL     OW21172   4.957   2.584   3.323
 6758SOL    HW121173   4.942   2.627   3.234
 6758SOL    HW221174   4.913   2.639   3.394
 6759SOL     OW21175   1.545   2.290   1.762
 6759SOL    HW121176   1.467   2.292   1.825
 6759SOL    HW221177   1.546   2.203   1.713
 6760SOL     OW21178   5.232   1.755   5.755
 6760SOL    HW121179   5.239   1.681   5.822
 6760SOL    HW221180   5.301   1.742   5.684
 6761SOL     OW21181   2.791   6.965   4.905
 6761SOL    HW121182   2.719   6.948   4.973
 6761SOL    HW221183   2.869   6.905   4.923
 6762SOL     OW21184   5.392   4.640   4.552
 6762SOL    HW121185   5.415   4.725   4.598
 6762SOL    HW221186   5.295   4.640   4.528
 6763SOL     OW21187   5.308   5.816   3.798
 6763SOL    HW121188   5.319   5.754   3.876
 6763SOL    HW221189   5.281   5.764   3.717
 6764SOL     OW21190   1.283   4.705   2.252
 6764SOL    HW121191   1.224   4.626   2.237
 6764SOL    HW221192   1.285   4.761   2.169
 6765SOL     OW21193   0.274   4.684   2.488
 6765SOL    HW121194   0.258   4.617   2.416
 6765SOL    HW221195   0.236   4.649   2.574
 6766SOL     OW21196   5.753   0.162   1.513
 6766SOL    HW121197   5.836   0.142   1.564
 6766SOL    HW221198   5.700   0.077   1.502
 6767SOL     OW21199   2.789   0.270   1.422
 6767SOL    HW121200   2.885   0.284   1.446
 6767SOL    HW221201   2.734   0.345   1.460
 6768SOL     OW21202   2.038   0.257   6.337
 6768SOL    HW121203   2.133   0.287   6.326
 6768SOL    HW221204   1.977   0.336   6.334
 6769SOL     OW21205   5.517   2.669   1.382
 6769SOL    HW121206   5.577   2.710   1.451
 6769SOL    HW221207   5.425   2.707   1.391
 6770SOL     OW21208   7.018   1.722   1.546
 6770SOL    HW121209   0.025   1.816   1.563
 6770SOL    HW221210   6.925   1.720   1.510
 6771SOL     OW21211   4.675   1.115   3.888
 6771SOL    HW121212   4.597   1.177   3.898
 6771SOL    HW221213   4.642   1.025   3.860
 6772SOL     OW21214   3.188   1.314   5.213
 6772SOL    HW121215   3.173   1.227   5.261
 6772SOL    HW221216   3.286   1.331   5.205
 6773SOL     OW21217   6.963   3.388   2.450
 6773SOL    HW121218   6.896   3.322   2.416
 6773SOL    HW221219   6.915   3.465   2.492
 6774SOL     OW21220   1.027   1.531   5.967
 6774SOL    HW121221   1.104   1.507   6.027
 6774SOL    HW221222   0.944   1.542   6.022
 6775SOL     OW21223   0.385   3.217   0.440
 6775SOL    HW121224   0.386   3.285   0.367
 6775SOL    HW221225   0.471   3.168   0.442
 6776SOL     OW21226   5.999   6.338   6.331
 6776SOL    HW121227   6.082   6.312   6.282
 6776SOL    HW221228   5.936   6.383   6.267
 6777SOL     OW21229   4.365   4.722   0.142
 6777SOL    HW121230   4.376   4.657   0.067
 6777SOL    HW221231   4.372   4.674   0.230
 6778SOL     OW21232   6.654   5.300   3.248
 6778SOL    HW121233   6.582   5.331   3.311
 6778SOL    HW221234   6.736   5.354   3.262
 6779SOL     OW21235   5.582   3.419   6.331
 6779SOL    HW121236   5.538   3.339   6.290
 6779SOL    HW221237   5.572   3.415   6.431
 6780SOL     OW21238   1.181   2.509   1.604
 6780SOL    HW121239   1.229   2.550   1.682
 6780SOL    HW221240   1.246   2.458   1.548
 6781SOL     OW21241   5.700   4.544   5.180
 6781SOL    HW121242   5.697   4.529   5.279
 6781SOL    HW221243   5.705   4.455   5.133
 6782SOL     OW21244   6.220   1.936   3.729
 6782SOL    HW121245   6.188   1.866   3.792
 6782SOL    HW221246   6.319   1.928   3.717
 6783SOL     OW21247   0.995   5.303   6.953
 6783SOL    HW121248   0.965   5.398   6.938
 6783SOL    HW221249   0.915   5.243   6.955
 6784SOL     OW21250   3.917   3.490   0.264
 6784SOL    HW121251   3.965   3.418   0.315
 6784SOL    HW221252   3.938   3.579   0.304
 6785SOL     OW21253   5.458   6.330   1.699
 6785SOL    HW121254   5.471   6.412   1.756
 6785SOL    HW221255   5.382   6.345   1.636
 6786SOL     OW21256   1.767   3.372   5.266
 6786SOL    HW121257   1.848   3.370   5.207
 6786SOL    HW221258   1.782   3.437   5.340
 6787SOL     OW21259   0.850   4.297   2.511
 6787SOL    HW121260   0.875   4.242   2.432
 6787SOL    HW221261   0.887   4.256   2.594
 6788SOL     OW21262   2.763   3.701   1.244
 6788SOL    HW121263   2.689   3.640   1.271
 6788SOL    HW221264   2.725   3.784   1.202
 6789SOL     OW21265   1.908   4.755   3.211
 6789SOL    HW121266   1.847   4.832   3.226
 6789SOL    HW221267   1.962   4.738   3.294
 6790SOL     OW21268   1.092   3.246   1.066
 6790SOL    HW121269   1.014   3.290   1.022
 6790SOL    HW221270   1.096   3.273   1.162
 6791SOL     OW21271   3.683   3.814   5.721
 6791SOL    HW121272   3.604   3.855   5.674
 6791SOL    HW221273   3.714   3.876   5.793
 6792SOL     OW21274   0.648   5.280   0.660
 6792SOL    HW121275   0.563   5.227   0.664
 6792SOL    HW221276   0.704   5.259   0.740
 6793SOL     OW21277   6.101   1.106   0.621
 6793SOL    HW121278   6.155   1.051   0.557
 6793SOL    HW221279   6.050   1.045   0.682
 6794SOL     OW21280   2.934   1.612   5.095
 6794SOL    HW121281   2.921   1.586   5.190
 6794SOL    HW221282   2.845   1.635   5.055
 6795SOL     OW21283   4.170   5.919   6.923
 6795SOL    HW121284   4.267   5.902   6.905
 6795SOL    HW221285   4.122   5.927   6.836
 6796SOL     OW21286   3.981   2.093   2.224
 6796SOL    HW121287   4.055   2.109   2.290
 6796SOL    HW221288   4.017   2.102   2.131
 6797SOL     OW21289   6.671   2.452   2.872
 6797SOL    HW121290   6.707   2.540   2.902
 6797SOL    HW221291   6.733   2.410   2.806
 6798SOL     OW21292   6.294   0.103   2.050
 6798SOL    HW121293   6.379   0.106   2.101
 6798SOL    HW221294   6.236   0.029   2.085
 6799SOL     OW21295   4.824   5.802   2.301
 6799SOL    HW121296   4.735   5.757   2.290
 6799SOL    HW221297   4.850   5.802   2.397
 6800SOL     OW21298   3.592   3.757   6.298
 6800SOL    HW121299   3.559   3.699   6.223
 6800SOL    HW221300   3.526   3.755   6.373
 6801SOL     OW21301   0.230   2.842   3.190
 6801SOL    HW121302   0.162   2.916   3.192
 6801SOL    HW221303   0.254   2.816   3.284
 6802SOL     OW21304   3.210   4.922   2.392
 6802SOL    HW121305   3.204   5.018   2.419
 6802SOL    HW221306   3.137   4.901   2.327
 6803SOL     OW21307   4.404   2.319   6.977
 6803SOL    HW121308   4.448   2.232   6.957
 6803SOL    HW221309   4.400   2.333   0.056
 6804SOL     OW21310   1.431   6.029   3.441
 6804SOL    HW121311   1.510   6.067   3.489
 6804SOL    HW221312   1.462   5.969   3.368
 6805SOL     OW21313   6.460   1.886   5.436
 6805SOL    HW121314   6.403   1.895   5.354
 6805SOL    HW221315   6.474   1.977   5.476
 6806SOL     OW21316   5.062   5.718   5.198
 6806SOL    HW121317   4.983   5.690   5.143
 6806SOL    HW221318   5.047   5.810   5.233
 6807SOL     OW21319   4.307   3.410   6.838
 6807SOL    HW121320   4.376   3.343   6.867
 6807SOL    HW221321   4.303   3.484   6.905
 6808SOL     OW21322   2.444   4.777   4.076
 6808SOL    HW121323   2.348   4.784   4.102
 6808SOL    HW221324   2.468   4.853   4.015
 6809SOL     OW21325   1.347   3.419   6.719
 6809SOL    HW121326   1.317   3.364   6.797
 6809SOL    HW221327   1.285   3.496   6.707
 6810SOL     OW21328   5.849   1.797   3.349
 6810SOL    HW121329   5.881   1.801   3.254
 6810SOL    HW221330   5.925   1.817   3.410
 6811SOL     OW21331   5.282   6.319   2.564
 6811SOL    HW121332   5.293   6.327   2.465
 6811SOL    HW221333   5.371   6.320   2.608
 6812SOL     OW21334   3.947   3.068   2.991
 6812SOL    HW121335   3.911   3.019   2.912
 6812SOL    HW221336   4.041   3.097   2.972
 6813SOL     OW21337   5.437   3.632   0.972
 6813SOL    HW121338   5.448   3.600   0.878
 6813SOL    HW221339   5.357   3.589   1.013
 6814SOL     OW21340   2.497   2.690   0.416
 6814SOL    HW121341   2.449   2.778   0.419
 6814SOL    HW221342   2.432   2.617   0.438
 6815SOL     OW21343   1.589   6.788   0.222
 6815SOL    HW121344   1.498   6.797   0.263
 6815SOL    HW221345   1.618   6.876   0.185
 6816SOL     OW21346   5.075   4.403   1.243
 6816SOL    HW121347   5.172   4.415   1.267
 6816SOL    HW221348   5.063   4.317   1.193
 6817SOL     OW21349   1.823   2.114   5.937
 6817SOL    HW121350   1.835   2.210   5.961
 6817SOL    HW221351   1.912   2.072   5.921
 6818SOL     OW21352   4.403   5.352   0.881
 6818SOL    HW121353   4.308   5.362   0.850
 6818SOL    HW221354   4.458   5.314   0.808
 6819SOL     OW21355   2.937   1.377   4.050
 6819SOL    HW121356   2.840   1.386   4.069
 6819SOL    HW221357   2.952   1.369   3.952
 6820SOL     OW21358   1.800   5.003   4.626
 6820SOL    HW121359   1.815   4.908   4.652
 6820SOL    HW221360   1.721   5.039   4.677
 6821SOL     OW21361   2.267   2.341   4.249
 6821SOL    HW121362   2.271   2.394   4.334
 6821SOL    HW221363   2.223   2.253   4.267
 6822SOL     OW21364   5.587   1.236   5.612
 6822SOL    HW121365   5.600   1.272   5.520
 6822SOL    HW221366   5.501   1.185   5.617
 6823SOL     OW21367   4.136   3.548   2.206
 6823SOL    HW121368   4.129   3.449   2.201
 6823SOL    HW221369   4.180   3.575   2.292
 6824SOL     OW21370   0.614   5.463   4.898
 6824SOL    HW121371   0.596   5.383   4.841
 6824SOL    HW221372   0.582   5.446   4.991
 6825SOL     OW21373   5.960   0.592   4.431
 6825SOL    HW121374   5.969   0.616   4.527
 6825SOL    HW221375   5.992   0.669   4.374
 6826SOL     OW21376   1.071   2.910   3.330
 6826SOL    HW121377   1.029   2.848   3.396
 6826SOL    HW221378   1.161   2.875   3.304
 6827SOL     OW21379   4.099   5.437   5.162
 6827SOL    HW121380   4.083   5.356   5.219
 6827SOL    HW221381   4.085   5.412   5.066
 6828SOL     OW21382   2.287   2.427   0.829
 6828SOL    HW121383   2.217   2.497   0.818
 6828SOL    HW221384   2.373   2.470   0.857
 6829SOL     OW21385   5.794   4.912   3.887
 6829SOL    HW121386   5.723   4.927   3.819
 6829SOL    HW221387   5.754   4.867   3.967
 6830SOL     OW21388   4.853   1.563   3.582
 6830SOL    HW121389   4.945   1.524   3.572
 6830SOL    HW221390   4.831   1.572   3.679
 6831SOL     OW21391   0.451   1.987   6.218
 6831SOL    HW121392   0.533   2.025   6.262
 6831SOL    HW221393   0.400   1.933   6.285
 6832SOL     OW21394   2.411   5.082   1.628
 6832SOL    HW121395   2.503   5.053   1.600
 6832SOL    HW221396   2.365   5.006   1.674
 6833SOL     OW21397   4.547   6.183   6.526
 6833SOL    HW121398   4.586   6.245   6.458
 6833SOL    HW221399   4.570   6.088   6.501
 6834SOL     OW21400   2.801   4.716   2.561
 6834SOL    HW121401   2.835   4.629   2.598
 6834SOL    HW221402   2.807   4.713   2.461
 6835SOL     OW21403   3.731   6.537   4.156
 6835SOL    HW121404   3.706   6.630   4.185
 6835SOL    HW221405   3.785   6.542   4.073
 6836SOL     OW21406   3.841   5.585   0.180
 6836SOL    HW121407   3.876   5.676   0.156
 6836SOL    HW221408   3.811   5.585   0.275
 6837SOL     OW21409   0.525   3.422   2.970
 6837SOL    HW121410   0.491   3.411   3.063
 6837SOL    HW221411   0.605   3.364   2.956
 6838SOL     OW21412   2.759   2.385   0.471
 6838SOL    HW121413   2.743   2.407   0.374
 6838SOL    HW221414   2.710   2.450   0.528
 6839SOL     OW21415   3.442   1.122   1.873
 6839SOL    HW121416   3.502   1.091   1.799
 6839SOL    HW221417   3.494   1.177   1.938
 6840SOL     OW21418   0.781   0.798   5.697
 6840SOL    HW121419   0.807   0.877   5.752
 6840SOL    HW221420   0.735   0.731   5.755
 6841SOL     OW21421   6.896   3.084   5.865
 6841SOL    HW121422   6.963   3.106   5.936
 6841SOL    HW221423   6.857   2.994   5.883
 6842SOL     OW21424   2.579   4.746   2.895
 6842SOL    HW121425   2.570   4.775   2.799
 6842SOL    HW221426   2.557   4.648   2.901
 6843SOL     OW21427   4.136   6.577   1.334
 6843SOL    HW121428   4.038   6.560   1.323
 6843SOL    HW221429   4.158   6.666   1.295
 6844SOL     OW21430   5.586   0.315   5.499
 6844SOL    HW121431   5.622   0.314   5.405
 6844SOL    HW221432   5.630   0.389   5.550
 6845SOL     OW21433   5.475   2.415   2.850
 6845SOL    HW121434   5.424   2.498   2.826
 6845SOL    HW221435   5.542   2.396   2.778
 6846SOL     OW21436   1.661   3.295   0.255
 6846SOL    HW121437   1.760   3.293   0.266
 6846SOL    HW221438   1.638   3.317   0.160
 6847SOL     OW21439   6.899   2.372   3.747
 6847SOL    HW121440   6.835   2.295   3.749
 6847SOL    HW221441   6.913   2.401   3.652
 6848SOL     OW21442   6.761   4.610   4.354
 6848SOL    HW121443   6.690   4.680   4.348
 6848SOL    HW221444   6.720   4.523   4.382
 6849SOL     OW21445   2.883   4.263   5.499
 6849SOL    HW121446   2.879   4.164   5.509
 6849SOL    HW221447   2.938   4.286   5.418
 6850SOL     OW21448   5.555   0.714   4.520
 6850SOL    HW121449   5.584   0.724   4.615
 6850SOL    HW221450   5.631   0.676   4.466
 6851SOL     OW21451   1.991   4.210   3.623
 6851SOL    HW121452   1.966   4.130   3.568
 6851SOL    HW221453   2.017   4.180   3.715
 6852SOL     OW21454   4.756   2.964   0.765
 6852SOL    HW121455   4.742   2.933   0.671
 6852SOL    HW221456   4.739   3.063   0.770
 6853SOL     OW21457   4.475   5.395   5.648
 6853SOL    HW121458   4.535   5.456   5.701
 6853SOL    HW221459   4.497   5.300   5.668
 6854SOL     OW21460   5.309   6.087   5.377
 6854SOL    HW121461   5.340   6.068   5.470
 6854SOL    HW221462   5.316   6.185   5.359
 6855SOL     OW21463   3.894   5.640   2.669
 6855SOL    HW121464   3.931   5.625   2.577
 6855SOL    HW221465   3.955   5.702   2.719
 6856SOL     OW21466   6.522   2.795   0.878
 6856SOL    HW121467   6.503   2.699   0.897
 6856SOL    HW221468   6.573   2.835   0.954
 6857SOL     OW21469   1.450   4.662   6.126
 6857SOL    HW121470   1.375   4.652   6.190
 6857SOL    HW221471   1.525   4.602   6.152
 6858SOL     OW21472   1.110   3.301   1.613
 6858SOL    HW121473   1.043   3.318   1.686
 6858SOL    HW221474   1.197   3.342   1.638
 6859SOL     OW21475   2.933   2.585   0.656
 6859SOL    HW121476   3.007   2.594   0.590
 6859SOL    HW221477   2.845   2.595   0.609
 6860SOL     OW21478   0.632   0.338   6.729
 6860SOL    HW121479   0.628   0.264   6.796
 6860SOL    HW221480   0.635   0.298   6.637
 6861SOL     OW21481   5.942   3.333   6.966
 6861SOL    HW121482   5.903   3.279   0.019
 6861SOL    HW221483   5.920   3.430   6.980
 6862SOL     OW21484   0.720   5.277   3.033
 6862SOL    HW121485   0.772   5.192   3.026
 6862SOL    HW221486   0.649   5.278   2.963
 6863SOL     OW21487   5.113   1.096   5.532
 6863SOL    HW121488   5.080   1.152   5.608
 6863SOL    HW221489   5.058   1.114   5.451
 6864SOL     OW21490   2.097   3.447   6.499
 6864SOL    HW121491   2.041   3.404   6.570
 6864SOL    HW221492   2.045   3.522   6.457
 6865SOL     OW21493   1.595   0.813   2.993
 6865SOL    HW121494   1.613   0.715   2.994
 6865SOL    HW221495   1.508   0.831   3.039
 6866SOL     OW21496   2.056   4.714   6.491
 6866SOL    HW121497   2.138   4.754   6.532
 6866SOL    HW221498   2.030   4.632   6.543
 6867SOL     OW21499   1.693   2.155   6.533
 6867SOL    HW121500   1.593   2.158   6.531
 6867SOL    HW221501   1.724   2.159   6.628
 6868SOL     OW21502   3.807   5.318   3.891
 6868SOL    HW121503   3.741   5.285   3.823
 6868SOL    HW221504   3.800   5.417   3.900
 6869SOL     OW21505   1.362   0.242   5.611
 6869SOL    HW121506   1.294   0.239   5.537
 6869SOL    HW221507   1.433   0.310   5.587
 6870SOL     OW21508   6.286   2.985   6.664
 6870SOL    HW121509   6.382   3.009   6.651
 6870SOL    HW221510   6.279   2.889   6.693
 6871SOL     OW21511   6.015   2.410   3.160
 6871SOL    HW121512   5.980   2.373   3.246
 6871SOL    HW221513   5.941   2.454   3.110
 6872SOL     OW21514   1.809   5.319   0.933
 6872SOL    HW121515   1.770   5.249   0.874
 6872SOL    HW221516   1.907   5.328   0.914
 6873SOL     OW21517   0.596   3.832   2.499
 6873SOL    HW121518   0.660   3.840   2.421
 6873SOL    HW221519   0.581   3.923   2.538
 6874SOL     OW21520   3.989   6.371   1.552
 6874SOL    HW121521   4.021   6.285   1.512
 6874SOL    HW221522   3.965   6.434   1.478
 6875SOL     OW21523   2.722   0.542   6.248
 6875SOL    HW121524   2.717   0.641   6.263
 6875SOL    HW221525   2.713   0.495   6.336
 6876SOL     OW21526   5.751   5.633   3.073
 6876SOL    HW121527   5.836   5.654   3.122
 6876SOL    HW221528   5.772   5.580   2.991
 6877SOL     OW21529   1.487   4.379   1.261
 6877SOL    HW121530   1.399   4.393   1.306
 6877SOL    HW221531   1.546   4.323   1.319
 6878SOL     OW21532   1.885   0.432   3.915
 6878SOL    HW121533   1.849   0.500   3.851
 6878SOL    HW221534   1.928   0.358   3.863
 6879SOL     OW21535   1.443   1.294   1.196
 6879SOL    HW121536   1.441   1.196   1.213
 6879SOL    HW221537   1.494   1.313   1.112
 6880SOL     OW21538   1.947   6.864   0.189
 6880SOL    HW121539   1.874   6.909   0.240
 6880SOL    HW221540   2.012   6.933   0.156
 6881SOL     OW21541   6.762   3.550   1.332
 6881SOL    HW121542   6.676   3.517   1.371
 6881SOL    HW221543   6.744   3.603   1.250
 6882SOL     OW21544   2.539   6.567   6.851
 6882SOL    HW121545   2.551   6.632   6.776
 6882SOL    HW221546   2.503   6.481   6.815
 6883SOL     OW21547   4.557   0.026   1.107
 6883SOL    HW121548   4.600   0.099   1.054
 6883SOL    HW221549   4.620   7.014   1.177
 6884SOL     OW21550   1.376   5.270   3.390
 6884SOL    HW121551   1.417   5.180   3.376
 6884SOL    HW221552   1.347   5.279   3.485
 6885SOL     OW21553   5.471   5.041   4.523
 6885SOL    HW121554   5.421   5.107   4.467
 6885SOL    HW221555   5.566   5.035   4.491
 6886SOL     OW21556   5.738   3.626   0.551
 6886SOL    HW121557   5.731   3.560   0.476
 6886SOL    HW221558   5.812   3.691   0.532
 6887SOL     OW21559   5.222   6.648   5.306
 6887SOL    HW121560   5.300   6.682   5.360
 6887SOL    HW221561   5.138   6.692   5.338
 6888SOL     OW21562   0.072   3.980   1.409
 6888SOL    HW121563   7.013   4.034   1.383
 6888SOL    HW221564   0.070   3.964   1.508
 6889SOL     OW21565   0.603   2.655   5.603
 6889SOL    HW121566   0.655   2.603   5.536
 6889SOL    HW221567   0.520   2.605   5.627
 6890SOL     OW21568   4.565   4.443   3.945
 6890SOL    HW121569   4.643   4.493   3.909
 6890SOL    HW221570   4.592   4.394   4.028
 6891SOL     OW21571   1.564   1.193   0.686
 6891SOL    HW121572   1.472   1.213   0.720
 6891SOL    HW221573   1.576   1.236   0.597
 6892SOL     OW21574   1.461   0.779   5.887
 6892SOL    HW121575   1.521   0.701   5.870
 6892SOL    HW221576   1.381   0.772   5.829
 6893SOL     OW21577   5.781   3.031   1.059
 6893SOL    HW121578   5.872   3.050   1.022
 6893SOL    HW221579   5.759   3.098   1.129
 6894SOL     OW21580   5.425   5.230   6.413
 6894SOL    HW121581   5.440   5.285   6.496
 6894SOL    HW221582   5.391   5.140   6.439
 6895SOL     OW21583   1.475   5.442   2.879
 6895SOL    HW121584   1.552   5.503   2.866
 6895SOL    HW221585   1.489   5.386   2.961
 6896SOL     OW21586   5.061   0.960   5.972
 6896SOL    HW121587   5.058   1.060   5.966
 6896SOL    HW221588   4.969   0.924   5.981
 6897SOL     OW21589   4.317   2.235   4.805
 6897SOL    HW121590   4.269   2.241   4.893
 6897SOL    HW221591   4.269   2.171   4.745
 6898SOL     OW21592   2.002   6.793   1.210
 6898SOL    HW121593   1.945   6.742   1.274
 6898SOL    HW221594   2.098   6.764   1.221
 6899SOL     OW21595   5.439   5.065   3.116
 6899SOL    HW121596   5.464   5.043   3.022
 6899SOL    HW221597   5.519   5.100   3.165
 6900SOL     OW21598   0.432   4.294   4.814
 6900SOL    HW121599   0.347   4.340   4.789
 6900SOL    HW221600   0.508   4.359   4.808
 6901SOL     OW21601   4.877   4.016   6.609
 6901SOL    HW121602   4.977   4.012   6.612
 6901SOL    HW221603   4.847   4.015   6.514
 6902SOL     OW21604   0.391   5.924   5.521
 6902SOL    HW121605   0.446   6.005   5.543
 6902SOL    HW221606   0.330   5.904   5.598
 6903SOL     OW21607   0.949   6.694   5.137
 6903SOL    HW121608   0.924   6.638   5.216
 6903SOL    HW221609   0.889   6.671   5.060
 6904SOL     OW21610   0.559   0.315   6.287
 6904SOL    HW121611   0.646   0.353   6.257
 6904SOL    HW221612   0.533   0.239   6.227
 6905SOL     OW21613   4.817   6.184   5.095
 6905SOL    HW121614   4.779   6.175   5.003
 6905SOL    HW221615   4.777   6.114   5.155
 6906SOL     OW21616   2.694   2.017   3.413
 6906SOL    HW121617   2.696   2.114   3.437
 6906SOL    HW221618   2.703   1.961   3.496
 6907SOL     OW21619   5.611   3.105   0.487
 6907SOL    HW121620   5.514   3.127   0.484
 6907SOL    HW221621   5.637   3.084   0.581
 6908SOL     OW21622   3.327   5.416   0.892
 6908SOL    HW121623   3.258   5.484   0.913
 6908SOL    HW221624   3.337   5.408   0.793
 6909SOL     OW21625   5.505   4.946   2.805
 6909SOL    HW121626   5.406   4.957   2.802
 6909SOL    HW221627   5.530   4.879   2.875
 6910SOL     OW21628   1.659   2.428   2.166
 6910SOL    HW121629   1.716   2.380   2.099
 6910SOL    HW221630   1.689   2.523   2.173
 6911SOL     OW21631   2.294   6.672   5.195
 6911SOL    HW121632   2.333   6.687   5.104
 6911SOL    HW221633   2.244   6.585   5.196
 6912SOL     OW21634   2.351   4.078   6.576
 6912SOL    HW121635   2.387   4.165   6.610
 6912SOL    HW221636   2.418   4.035   6.516
 6913SOL     OW21637   4.638   5.883   6.025
 6913SOL    HW121638   4.582   5.950   6.073
 6913SOL    HW221639   4.621   5.792   6.063
 6914SOL     OW21640   1.039   2.092   1.938
 6914SOL    HW121641   1.005   2.031   2.010
 6914SOL    HW221642   1.104   2.157   1.977
 6915SOL     OW21643   6.321   3.444   4.158
 6915SOL    HW121644   6.235   3.443   4.108
 6915SOL    HW221645   6.346   3.539   4.178
 6916SOL     OW21646   4.453   5.837   5.475
 6916SOL    HW121647   4.536   5.832   5.420
 6916SOL    HW221648   4.477   5.834   5.572
 6917SOL     OW21649   3.776   5.653   1.883
 6917SOL    HW121650   3.710   5.579   1.874
 6917SOL    HW221651   3.732   5.733   1.923
 6918SOL     OW21652   1.560   3.669   6.796
 6918SOL    HW121653   1.617   3.660   6.714
 6918SOL    HW221654   1.538   3.766   6.810
 6919SOL     OW21655   6.424   5.940   3.784
 6919SOL    HW121656   6.397   5.945   3.880
 6919SOL    HW221657   6.516   5.978   3.773
 6920SOL     OW21658   0.636   2.994   5.436
 6920SOL    HW121659   0.635   3.094   5.443
 6920SOL    HW221660   0.597   2.954   5.519
 6921SOL     OW21661   3.548   0.516   5.531
 6921SOL    HW121662   3.528   0.454   5.606
 6921SOL    HW221663   3.522   0.474   5.445
 6922SOL     OW21664   2.958   4.398   6.619
 6922SOL    HW121665   2.918   4.464   6.683
 6922SOL    HW221666   2.948   4.432   6.525
 6923SOL     OW21667   5.108   6.704   3.054
 6923SOL    HW121668   5.180   6.704   2.985
 6923SOL    HW221669   5.051   6.623   3.043
 6924SOL     OW21670   2.671   4.986   1.557
 6924SOL    HW121671   2.709   5.018   1.643
 6924SOL    HW221672   2.635   4.893   1.568
 6925SOL     OW21673   6.314   6.909   4.624
 6925SOL    HW121674   6.316   7.008   4.607
 6925SOL    HW221675   6.226   6.872   4.593
 6926SOL     OW21676   2.912   2.598   0.249
 6926SOL    HW121677   2.874   2.511   0.218
 6926SOL    HW221678   2.963   2.641   0.175
 6927SOL     OW21679   3.149   6.608   5.628
 6927SOL    HW121680   3.156   6.652   5.718
 6927SOL    HW221681   3.077   6.652   5.575
 6928SOL     OW21682   4.087   5.563   0.878
 6928SOL    HW121683   4.168   5.621   0.887
 6928SOL    HW221684   4.085   5.523   0.786
 6929SOL     OW21685   4.785   6.091   3.587
 6929SOL    HW121686   4.693   6.125   3.568
 6929SOL    HW221687   4.851   6.139   3.528
 6930SOL     OW21688   0.351   6.512   2.349
 6930SOL    HW121689   0.281   6.508   2.420
 6930SOL    HW221690   0.322   6.577   2.278
 6931SOL     OW21691   4.277   2.923   0.099
 6931SOL    HW121692   4.277   3.003   0.159
 6931SOL    HW221693   4.183   2.902   0.071
 6932SOL     OW21694   3.719   0.877   0.184
 6932SOL    HW121695   3.816   0.896   0.167
 6932SOL    HW221696   3.694   0.789   0.145
 6933SOL     OW21697   3.886   6.178   6.054
 6933SOL    HW121698   3.837   6.180   5.967
 6933SOL    HW221699   3.842   6.240   6.119
 6934SOL     OW21700   4.475   5.438   0.045
 6934SOL    HW121701   4.431   5.497   6.998
 6934SOL    HW221702   4.564   5.409   0.010
 6935SOL     OW21703   4.366   5.551   2.198
 6935SOL    HW121704   4.460   5.581   2.214
 6935SOL    HW221705   4.304   5.606   2.254
 6936SOL     OW21706   1.150   1.495   0.096
 6936SOL    HW121707   1.147   1.526   0.000
 6936SOL    HW221708   1.080   1.543   0.149
 6937SOL     OW21709   6.569   4.263   7.009
 6937SOL    HW121710   6.571   4.189   6.942
 6937SOL    HW221711   6.485   4.257   0.042
 6938SOL     OW21712   2.710   6.851   5.343
 6938SOL    HW121713   2.703   6.781   5.271
 6938SOL    HW221714   2.619   6.868   5.381
 6939SOL     OW21715   6.154   3.014   2.941
 6939SOL    HW121716   6.229   2.948   2.941
 6939SOL    HW221717   6.110   3.014   3.031
 6940SOL     OW21718   0.805   6.535   1.320
 6940SOL    HW121719   0.737   6.608   1.327
 6940SOL    HW221720   0.853   6.542   1.232
 6941SOL     OW21721   4.064   3.288   2.286
 6941SOL    HW121722   4.105   3.313   2.374
 6941SOL    HW221723   4.027   3.195   2.292
 6942SOL     OW21724   0.199   5.378   2.722
 6942SOL    HW121725   0.190   5.300   2.783
 6942SOL    HW221726   0.244   5.454   2.770
 6943SOL     OW21727   3.124   5.409   5.269
 6943SOL    HW121728   3.208   5.359   5.245
 6943SOL    HW221729   3.137   5.454   5.357
 6944SOL     OW21730   0.935   5.245   5.784
 6944SOL    HW121731   0.945   5.303   5.865
 6944SOL    HW221732   0.988   5.282   5.709
 6945SOL     OW21733   3.982   1.761   0.874
 6945SOL    HW121734   4.017   1.835   0.816
 6945SOL    HW221735   3.999   1.782   0.970
 6946SOL     OW21736   5.853   5.242   3.851
 6946SOL    HW121737   5.847   5.163   3.790
 6946SOL    HW221738   5.761   5.268   3.882
 6947SOL     OW21739   6.428   3.681   5.418
 6947SOL    HW121740   6.506   3.696   5.357
 6947SOL    HW221741   6.430   3.587   5.452
 6948SOL     OW21742   0.174   5.269   6.405
 6948SOL    HW121743   0.100   5.326   6.441
 6948SOL    HW221744   0.216   5.315   6.327
 6949SOL     OW21745   2.006   1.500   3.244
 6949SOL    HW121746   2.053   1.455   3.320
 6949SOL    HW221747   1.945   1.435   3.199
 6950SOL     OW21748   1.574   1.086   4.573
 6950SOL    HW121749   1.542   1.018   4.507
 6950SOL    HW221750   1.641   1.045   4.635
 6951SOL     OW21751   1.264   3.317   0.280
 6951SOL    HW121752   1.178   3.302   0.329
 6951SOL    HW221753   1.296   3.231   0.240
 6952SOL     OW21754   4.264   5.075   3.505
 6952SOL    HW121755   4.190   5.009   3.492
 6952SOL    HW221756   4.234   5.165   3.474
 6953SOL     OW21757   0.837   0.579   1.824
 6953SOL    HW121758   0.856   0.482   1.813
 6953SOL    HW221759   0.866   0.609   1.915
 6954SOL     OW21760   6.543   5.166   6.022
 6954SOL    HW121761   6.535   5.129   6.115
 6954SOL    HW221762   6.568   5.093   5.959
 6955SOL     OW21763   3.562   5.328   2.925
 6955SOL    HW121764   3.573   5.340   3.023
 6955SOL    HW221765   3.550   5.231   2.904
 6956SOL     OW21766   6.409   4.557   2.797
 6956SOL    HW121767   6.469   4.637   2.785
 6956SOL    HW221768   6.463   4.474   2.788
 6957SOL     OW21769   5.451   3.984   5.440
 6957SOL    HW121770   5.473   4.063   5.498
 6957SOL    HW221771   5.423   4.016   5.349
 6958SOL     OW21772   3.553   3.766   1.594
 6958SOL    HW121773   3.562   3.667   1.587
 6958SOL    HW221774   3.461   3.793   1.568
 6959SOL     OW21775   0.427   3.185   3.259
 6959SOL    HW121776   0.420   3.256   3.329
 6959SOL    HW221777   0.520   3.147   3.259
 6960SOL     OW21778   5.165   4.744   0.866
 6960SOL    HW121779   5.244   4.694   0.902
 6960SOL    HW221780   5.197   4.819   0.808
 6961SOL     OW21781   4.714   2.623   4.265
 6961SOL    HW121782   4.783   2.571   4.315
 6961SOL    HW221783   4.623   2.596   4.296
 6962SOL     OW21784   2.517   6.800   0.776
 6962SOL    HW121785   2.602   6.747   0.774
 6962SOL    HW221786   2.471   6.785   0.863
 6963SOL     OW21787   1.055   6.965   6.831
 6963SOL    HW121788   1.056   0.033   6.878
 6963SOL    HW221789   1.149   6.932   6.820
 6964SOL     OW21790   2.329   1.305   5.850
 6964SOL    HW121791   2.258   1.235   5.841
 6964SOL    HW221792   2.364   1.328   5.759
 6965SOL     OW21793   1.318   1.169   0.015
 6965SOL    HW121794   1.230   1.175   0.062
 6965SOL    HW221795   1.392   1.159   0.081
 6966SOL     OW21796   1.316   6.432   0.881
 6966SOL    HW121797   1.227   6.402   0.848
 6966SOL    HW221798   1.335   6.524   0.848
 6967SOL     OW21799   4.073   6.884   6.519
 6967SOL    HW121800   4.085   6.965   6.462
 6967SOL    HW221801   4.060   6.804   6.460
 6968SOL     OW21802   4.501   0.431   2.349
 6968SOL    HW121803   4.569   0.504   2.341
 6968SOL    HW221804   4.463   0.431   2.442
 6969SOL     OW21805   1.429   3.128   2.653
 6969SOL    HW121806   1.425   3.029   2.669
 6969SOL    HW221807   1.368   3.175   2.717
 6970SOL     OW21808   3.577   5.787   6.048
 6970SOL    HW121809   3.674   5.766   6.051
 6970SOL    HW221810   3.535   5.744   5.968
 6971SOL     OW21811   0.290   3.852   0.370
 6971SOL    HW121812   0.388   3.872   0.358
 6971SOL    HW221813   0.268   3.852   0.468
 6972SOL     OW21814   5.895   3.665   1.093
 6972SOL    HW121815   5.890   3.622   1.003
 6972SOL    HW221816   5.957   3.743   1.090
 6973SOL     OW21817   1.039   0.844   3.143
 6973SOL    HW121818   1.066   0.910   3.073
 6973SOL    HW221819   0.940   0.827   3.137
 6974SOL     OW21820   3.860   3.951   3.092
 6974SOL    HW121821   3.762   3.966   3.103
 6974SOL    HW221822   3.878   3.918   2.999
 6975SOL     OW21823   3.316   5.229   5.215
 6975SOL    HW121824   3.298   5.223   5.117
 6975SOL    HW221825   3.275   5.149   5.261
 6976SOL     OW21826   5.132   4.957   5.864
 6976SOL    HW121827   5.207   4.970   5.929
 6976SOL    HW221828   5.087   4.871   5.882
 6977SOL     OW21829   4.113   4.752   2.428
 6977SOL    HW121830   4.183   4.816   2.396
 6977SOL    HW221831   4.026   4.773   2.384
 6978SOL     OW21832   0.337   3.433   1.377
 6978SOL    HW121833   0.375   3.374   1.306
 6978SOL    HW221834   0.261   3.385   1.421
 6979SOL     OW21835   0.975   4.172   2.705
 6979SOL    HW121836   1.063   4.163   2.658
 6979SOL    HW221837   0.940   4.081   2.726
 6980SOL     OW21838   2.791   4.736   3.213
 6980SOL    HW121839   2.767   4.821   3.167
 6980SOL    HW221840   2.725   4.665   3.188
 6981SOL     OW21841   4.117   2.720   6.876
 6981SOL    HW121842   4.195   2.782   6.873
 6981SOL    HW221843   4.143   2.631   6.837
 6982SOL     OW21844   6.680   6.353   1.954
 6982SOL    HW121845   6.753   6.288   1.975
 6982SOL    HW221846   6.598   6.328   2.005
 6983SOL     OW21847   6.730   0.948   3.885
 6983SOL    HW121848   6.648   0.937   3.828
 6983SOL    HW221849   6.703   0.974   3.977
 6984SOL     OW21850   1.307   4.380   3.417
 6984SOL    HW121851   1.402   4.347   3.418
 6984SOL    HW221852   1.286   4.421   3.506
 6985SOL     OW21853   5.119   3.090   0.961
 6985SOL    HW121854   5.084   3.106   1.053
 6985SOL    HW221855   5.064   3.019   0.916
 6986SOL     OW21856   4.622   6.010   4.863
 6986SOL    HW121857   4.599   6.098   4.820
 6986SOL    HW221858   4.675   5.955   4.799
 6987SOL     OW21859   0.050   1.540   6.868
 6987SOL    HW121860   0.085   1.595   6.944
 6987SOL    HW221861   0.092   1.570   6.782
 6988SOL     OW21862   1.466   0.496   6.379
 6988SOL    HW121863   1.531   0.568   6.356
 6988SOL    HW221864   1.377   0.537   6.402
 6989SOL     OW21865   0.493   3.112   2.447
 6989SOL    HW121866   0.521   3.193   2.396
 6989SOL    HW221867   0.562   3.040   2.435
 6990SOL     OW21868   3.436   5.159   6.969
 6990SOL    HW121869   3.488   5.144   0.033
 6990SOL    HW221870   3.342   5.126   6.982
 6991SOL     OW21871   5.132   3.971   3.670
 6991SOL    HW121872   5.093   4.062   3.659
 6991SOL    HW221873   5.059   3.905   3.688
 6992SOL     OW21874   1.455   5.180   6.040
 6992SOL    HW121875   1.530   5.246   6.037
 6992SOL    HW221876   1.473   5.112   6.111
 6993SOL     OW21877   4.090   2.079   1.991
 6993SOL    HW121878   4.138   1.992   1.974
 6993SOL    HW221879   4.140   2.154   1.948
 6994SOL     OW21880   2.682   0.928   3.101
 6994SOL    HW121881   2.769   0.978   3.105
 6994SOL    HW221882   2.630   0.946   3.185
 6995SOL     OW21883   6.707   5.252   0.649
 6995SOL    HW121884   6.701   5.165   0.697
 6995SOL    HW221885   6.768   5.242   0.570
 6996SOL     OW21886   1.378   1.152   6.621
 6996SOL    HW121887   1.393   1.118   6.528
 6996SOL    HW221888   1.281   1.140   6.645
 6997SOL     OW21889   6.200   5.923   6.291
 6997SOL    HW121890   6.245   5.932   6.381
 6997SOL    HW221891   6.245   5.983   6.226
 6998SOL     OW21892   0.284   1.180   6.319
 6998SOL    HW121893   0.312   1.095   6.363
 6998SOL    HW221894   0.188   1.173   6.291
 6999SOL     OW21895   0.526   2.778   6.804
 6999SOL    HW121896   0.529   2.764   6.705
 6999SOL    HW221897   0.591   2.850   6.829
 7000SOL     OW21898   0.654   5.109   2.728
 7000SOL    HW121899   0.752   5.099   2.712
 7000SOL    HW221900   0.603   5.053   2.663
 7001SOL     OW21901   1.101   1.261   4.080
 7001SOL    HW121902   1.168   1.233   4.149
 7001SOL    HW221903   1.122   1.218   3.993
 7002SOL     OW21904   1.610   4.863   3.165
 7002SOL    HW121905   1.630   4.942   3.108
 7002SOL    HW221906   1.652   4.781   3.125
 7003SOL     OW21907   0.319   5.359   6.193
 7003SOL    HW121908   0.357   5.366   6.101
 7003SOL    HW221909   0.392   5.341   6.259
 7004SOL     OW21910   0.901   0.542   6.891
 7004SOL    HW121911   0.808   0.561   6.861
 7004SOL    HW221912   0.911   0.568   6.987
 7005SOL     OW21913   1.363   5.005   0.260
 7005SOL    HW121914   1.430   4.937   0.288
 7005SOL    HW221915   1.289   4.961   0.209
 7006SOL     OW21916   1.130   0.389   3.691
 7006SOL    HW121917   1.079   0.432   3.617
 7006SOL    HW221918   1.182   0.312   3.656
 7007SOL     OW21919   1.877   6.210   6.519
 7007SOL    HW121920   1.973   6.235   6.510
 7007SOL    HW221921   1.865   6.114   6.494
 7008SOL     OW21922   6.178   3.022   2.501
 7008SOL    HW121923   6.263   2.982   2.536
 7008SOL    HW221924   6.109   3.021   2.573
 7009SOL     OW21925   5.531   5.190   2.099
 7009SOL    HW121926   5.598   5.215   2.029
 7009SOL    HW221927   5.578   5.156   2.180
 7010SOL     OW21928   5.303   2.689   3.018
 7010SOL    HW121929   5.400   2.714   3.014
 7010SOL    HW221930   5.255   2.731   2.941
 7011SOL     OW21931   1.636   5.352   6.594
 7011SOL    HW121932   1.616   5.295   6.514
 7011SOL    HW221933   1.658   5.445   6.564
 7012SOL     OW21934   0.614   3.880   0.305
 7012SOL    HW121935   0.693   3.824   0.278
 7012SOL    HW221936   0.598   3.870   0.403
 7013SOL     OW21937   2.540   2.627   0.145
 7013SOL    HW121938   2.500   2.596   0.231
 7013SOL    HW221939   2.562   2.724   0.151
 7014SOL     OW21940   0.149   3.715   0.876
 7014SOL    HW121941   0.171   3.772   0.955
 7014SOL    HW221942   0.050   3.715   0.861
 7015SOL     OW21943   5.897   6.471   1.512
 7015SOL    HW121944   5.971   6.454   1.576
 7015SOL    HW221945   5.817   6.506   1.561
 7016SOL     OW21946   2.628   5.003   0.892
 7016SOL    HW121947   2.614   5.005   0.793
 7016SOL    HW221948   2.684   4.923   0.916
 7017SOL     OW21949   5.928   3.789   6.786
 7017SOL    HW121950   5.951   3.862   6.850
 7017SOL    HW221951   5.910   3.827   6.696
 7018SOL     OW21952   6.054   2.666   4.201
 7018SOL    HW121953   6.002   2.585   4.228
 7018SOL    HW221954   6.149   2.655   4.230
 7019SOL     OW21955   3.098   6.388   2.625
 7019SOL    HW121956   3.114   6.381   2.724
 7019SOL    HW221957   3.143   6.470   2.590
 7020SOL     OW21958   6.700   1.713   1.126
 7020SOL    HW121959   6.733   1.797   1.083
 7020SOL    HW221960   6.660   1.734   1.215
 7021SOL     OW21961   0.736   2.266   4.586
 7021SOL    HW121962   0.754   2.253   4.684
 7021SOL    HW221963   0.695   2.356   4.572
 7022SOL     OW21964   2.097   3.935   1.530
 7022SOL    HW121965   2.066   4.027   1.505
 7022SOL    HW221966   2.183   3.915   1.484
 7023SOL     OW21967   6.853   1.979   1.021
 7023SOL    HW121968   6.771   1.996   0.966
 7023SOL    HW221969   6.880   2.064   1.067
 7024SOL     OW21970   3.639   4.335   5.297
 7024SOL    HW121971   3.714   4.326   5.231
 7024SOL    HW221972   3.597   4.245   5.311
 7025SOL     OW21973   3.382   0.970   1.033
 7025SOL    HW121974   3.456   0.969   1.100
 7025SOL    HW221975   3.315   0.899   1.056
 7026SOL     OW21976   2.820   2.449   1.272
 7026SOL    HW121977   2.897   2.433   1.334
 7026SOL    HW221978   2.735   2.448   1.325
 7027SOL     OW21979   2.737   4.087   0.503
 7027SOL    HW121980   2.691   4.098   0.591
 7027SOL    HW221981   2.680   4.126   0.431
 7028SOL     OW21982   3.340   0.666   2.177
 7028SOL    HW121983   3.348   0.661   2.277
 7028SOL    HW221984   3.250   0.701   2.153
 7029SOL     OW21985   3.437   3.866   3.321
 7029SOL    HW121986   3.404   3.778   3.354
 7029SOL    HW221987   3.515   3.895   3.376
 7030SOL     OW21988   5.737   0.283   4.547
 7030SOL    HW121989   5.653   0.283   4.492
 7030SOL    HW221990   5.761   0.189   4.570
 7031SOL     OW21991   5.635   4.635   0.594
 7031SOL    HW121992   5.726   4.620   0.556
 7031SOL    HW221993   5.613   4.733   0.590
 7032SOL     OW21994   3.699   4.914   3.948
 7032SOL    HW121995   3.789   4.873   3.957
 7032SOL    HW221996   3.638   4.877   4.017
 7033SOL     OW21997   2.222   1.727   5.269
 7033SOL    HW121998   2.184   1.754   5.357
 7033SOL    HW221999   2.152   1.679   5.216
 7034SOL     OW22000   6.370   2.566   2.304
 7034SOL    HW122001   6.297   2.595   2.242
 7034SOL    HW222002   6.345   2.478   2.346
 7035SOL     OW22003   3.906   2.639   1.088
 7035SOL    HW122004   3.955   2.554   1.106
 7035SOL    HW222005   3.955   2.692   1.019
 7036SOL     OW22006   6.787   1.854   1.926
 7036SOL    HW122007   6.847   1.934   1.925
 7036SOL    HW222008   6.716   1.865   1.857
 7037SOL     OW22009   0.485   1.510   5.577
 7037SOL    HW122010   0.473   1.501   5.676
 7037SOL    HW222011   0.581   1.527   5.557
 7038SOL     OW22012   1.266   4.149   0.162
 7038SOL    HW122013   1.180   4.099   0.146
 7038SOL    HW222014   1.246   4.232   0.213
 7039SOL     OW22015   6.293   0.399   1.712
 7039SOL    HW122016   6.392   0.407   1.705
 7039SOL    HW222017   6.259   0.472   1.772
 7040SOL     OW22018   4.822   3.151   4.924
 7040SOL    HW122019   4.773   3.070   4.893
 7040SOL    HW222020   4.902   3.167   4.865
 7041SOL     OW22021   1.012   0.105   2.494
 7041SOL    HW122022   0.959   0.102   2.578
 7041SOL    HW222023   0.955   0.076   2.417
 7042SOL     OW22024   4.863   5.256   5.166
 7042SOL    HW122025   4.783   5.225   5.114
 7042SOL    HW222026   4.880   5.191   5.240
 7043SOL     OW22027   2.382   5.898   0.264
 7043SOL    HW122028   2.419   5.958   0.335
 7043SOL    HW222029   2.377   5.805   0.299
 7044SOL     OW22030   4.556   6.628   5.426
 7044SOL    HW122031   4.633   6.590   5.374
 7044SOL    HW222032   4.584   6.639   5.521
 7045SOL     OW22033   5.428   0.752   1.452
 7045SOL    HW122034   5.425   0.819   1.526
 7045SOL    HW222035   5.484   0.786   1.377
 7046SOL     OW22036   3.085   0.991   2.368
 7046SOL    HW122037   3.014   0.927   2.337
 7046SOL    HW222038   3.114   1.049   2.292
 7047SOL     OW22039   1.332   6.813   1.032
 7047SOL    HW122040   1.421   6.775   1.007
 7047SOL    HW222041   1.332   6.839   1.129
 7048SOL     OW22042   0.561   5.698   4.495
 7048SOL    HW122043   0.523   5.788   4.517
 7048SOL    HW222044   0.491   5.628   4.508
 7049SOL     OW22045   2.285   1.410   5.076
 7049SOL    HW122046   2.338   1.368   5.150
 7049SOL    HW222047   2.198   1.444   5.112
 7050SOL     OW22048   4.038   4.748   0.362
 7050SOL    HW122049   4.031   4.843   0.390
 7050SOL    HW222050   4.075   4.694   0.438
 7051SOL     OW22051   1.939   0.893   1.971
 7051SOL    HW122052   1.897   0.804   1.983
 7051SOL    HW222053   2.033   0.881   1.937
 7052SOL     OW22054   5.545   2.132   2.586
 7052SOL    HW122055   5.588   2.222   2.578
 7052SOL    HW222056   5.497   2.110   2.501
 7053SOL     OW22057   0.689   4.473   3.610
 7053SOL    HW122058   0.748   4.492   3.532
 7053SOL    HW222059   0.612   4.417   3.581
 7054SOL     OW22060   5.428   6.699   1.073
 7054SOL    HW122061   5.352   6.763   1.066
 7054SOL    HW222062   5.447   6.659   0.984
 7055SOL     OW22063   2.267   0.431   6.854
 7055SOL    HW122064   2.208   0.403   6.930
 7055SOL    HW222065   2.361   0.402   6.872
 7056SOL     OW22066   0.546   5.339   1.563
 7056SOL    HW122067   0.561   5.373   1.470
 7056SOL    HW222068   0.595   5.253   1.576
 7057SOL     OW22069   3.099   5.655   5.204
 7057SOL    HW122070   3.036   5.693   5.271
 7057SOL    HW222071   3.096   5.555   5.210
 7058SOL     OW22072   6.012   2.704   5.566
 7058SOL    HW122073   6.067   2.782   5.596
 7058SOL    HW222074   5.997   2.710   5.468
 7059SOL     OW22075   1.586   0.936   4.328
 7059SOL    HW122076   1.492   0.930   4.294
 7059SOL    HW222077   1.610   0.851   4.375
 7060SOL     OW22078   2.879   2.603   1.053
 7060SOL    HW122079   2.890   2.543   1.132
 7060SOL    HW222080   2.846   2.550   0.975
 7061SOL     OW22081   1.526   6.569   1.274
 7061SOL    HW122082   1.600   6.589   1.210
 7061SOL    HW222083   1.525   6.639   1.346
 7062SOL     OW22084   3.664   0.782   5.518
 7062SOL    HW122085   3.673   0.816   5.425
 7062SOL    HW222086   3.612   0.696   5.517
 7063SOL     OW22087   0.048   1.326   1.257
 7063SOL    HW122088   0.119   1.395   1.242
 7063SOL    HW222089   0.067   1.246   1.200
 7064SOL     OW22090   2.462   1.492   5.306
 7064SOL    HW122091   2.436   1.453   5.395
 7064SOL    HW222092   2.410   1.577   5.292
 7065SOL     OW22093   3.287   0.256   3.173
 7065SOL    HW122094   3.204   0.280   3.223
 7065SOL    HW222095   3.264   0.195   3.097
 7066SOL     OW22096   4.263   0.802   1.947
 7066SOL    HW122097   4.322   0.769   1.873
 7066SOL    HW222098   4.234   0.896   1.927
 7067SOL     OW22099   2.621   4.620   6.270
 7067SOL    HW122100   2.543   4.675   6.241
 7067SOL    HW222101   2.618   4.532   6.223
 7068SOL     OW22102   4.332   4.609   2.473
 7068SOL    HW122103   4.244   4.645   2.439
 7068SOL    HW222104   4.319   4.566   2.562
 7069SOL     OW22105   3.546   1.475   5.474
 7069SOL    HW122106   3.488   1.556   5.482
 7069SOL    HW222107   3.532   1.433   5.385
 7070SOL     OW22108   0.383   1.713   5.286
 7070SOL    HW122109   0.409   1.681   5.378
 7070SOL    HW222110   0.297   1.763   5.291
 7071SOL     OW22111   4.683   5.274   6.974
 7071SOL    HW122112   4.693   5.183   7.015
 7071SOL    HW222113   4.766   5.297   6.923
 7072SOL     OW22114   1.443   3.942   5.501
 7072SOL    HW122115   1.489   4.028   5.475
 7072SOL    HW222116   1.428   3.887   5.419
 7073SOL     OW22117   4.076   0.996   4.597
 7073SOL    HW122118   4.134   1.018   4.675
 7073SOL    HW222119   4.103   0.908   4.558
 7074SOL     OW22120   5.523   3.023   2.142
 7074SOL    HW122121   5.500   3.086   2.068
 7074SOL    HW222122   5.571   3.073   2.214
 7075SOL     OW22123   1.951   4.965   2.548
 7075SOL    HW122124   1.975   4.966   2.646
 7075SOL    HW222125   1.915   4.875   2.524
 7076SOL     OW22126   6.132   2.124   0.827
 7076SOL    HW122127   6.149   2.031   0.795
 7076SOL    HW222128   6.131   2.187   0.749
 7077SOL     OW22129   3.428   6.008   2.282
 7077SOL    HW122130   3.372   6.089   2.263
 7077SOL    HW222131   3.511   6.011   2.225
 7078SOL     OW22132   0.011   1.884   0.298
 7078SOL    HW122133   0.003   1.931   0.210
 7078SOL    HW222134   0.106   1.890   0.329
 7079SOL     OW22135   3.111   5.492   5.536
 7079SOL    HW122136   3.037   5.546   5.577
 7079SOL    HW222137   3.145   5.427   5.603
 7080SOL     OW22138   3.910   1.930   6.658
 7080SOL    HW122139   3.897   2.028   6.638
 7080SOL    HW222140   3.882   1.911   6.752
 7081SOL     OW22141   2.980   6.253   6.564
 7081SOL    HW122142   2.948   6.291   6.650
 7081SOL    HW222143   3.047   6.315   6.523
 7082SOL     OW22144   1.565   4.975   2.220
 7082SOL    HW122145   1.527   5.041   2.285
 7082SOL    HW222146   1.588   5.022   2.135
 7083SOL     OW22147   5.746   2.969   3.015
 7083SOL    HW122148   5.681   3.043   2.997
 7083SOL    HW222149   5.776   2.972   3.110
 7084SOL     OW22150   1.027   5.060   0.347
 7084SOL    HW122151   1.124   5.065   0.323
 7084SOL    HW222152   0.976   5.020   0.271
 7085SOL     OW22153   0.114   3.226   2.275
 7085SOL    HW122154   0.171   3.297   2.233
 7085SOL    HW222155   0.053   3.268   2.342
 7086SOL     OW22156   4.085   1.031   3.673
 7086SOL    HW122157   4.158   1.042   3.605
 7086SOL    HW222158   3.997   1.058   3.632
 7087SOL     OW22159   6.104   2.942   3.890
 7087SOL    HW122160   6.121   2.990   3.976
 7087SOL    HW222161   6.084   2.846   3.909
 7088SOL     OW22162   6.286   1.988   5.265
 7088SOL    HW122163   6.240   1.964   5.179
 7088SOL    HW222164   6.291   2.087   5.274
 7089SOL     OW22165   3.680   6.408   1.643
 7089SOL    HW122166   3.585   6.385   1.622
 7089SOL    HW222167   3.740   6.333   1.613
 7090SOL     OW22168   5.718   3.258   1.780
 7090SOL    HW122169   5.704   3.348   1.739
 7090SOL    HW222170   5.710   3.265   1.880
 7091SOL     OW22171   5.642   0.450   6.305
 7091SOL    HW122172   5.664   0.535   6.354
 7091SOL    HW222173   5.726   0.409   6.270
 7092SOL     OW22174   3.916   0.209   6.241
 7092SOL    HW122175   4.014   0.220   6.226
 7092SOL    HW222176   3.890   0.114   6.228
 7093SOL     OW22177   4.199   3.180   0.248
 7093SOL    HW122178   4.115   3.153   0.200
 7093SOL    HW222179   4.177   3.202   0.343
 7094SOL     OW22180   4.199   0.929   4.955
 7094SOL    HW122181   4.228   1.008   4.900
 7094SOL    HW222182   4.208   0.951   5.052
 7095SOL     OW22183   2.496   5.125   3.748
 7095SOL    HW122184   2.489   5.126   3.649
 7095SOL    HW222185   2.520   5.217   3.781
 7096SOL     OW22186   0.168   5.324   0.303
 7096SOL    HW122187   0.187   5.293   0.396
 7096SOL    HW222188   0.223   5.272   0.239
 7097SOL     OW22189   4.815   2.144   2.781
 7097SOL    HW122190   4.750   2.074   2.751
 7097SOL    HW222191   4.770   2.233   2.784
 7098SOL     OW22192   1.227   1.274   2.169
 7098SOL    HW122193   1.257   1.189   2.214
 7098SOL    HW222194   1.162   1.321   2.228
 7099SOL     OW22195   2.723   1.421   4.888
 7099SOL    HW122196   2.808   1.372   4.871
 7099SOL    HW222197   2.743   1.507   4.936
 7100SOL     OW22198   0.674   4.375   1.441
 7100SOL    HW122199   0.640   4.453   1.494
 7100SOL    HW222200   0.680   4.295   1.501
 7101SOL     OW22201   2.939   6.496   4.604
 7101SOL    HW122202   2.976   6.518   4.694
 7101SOL    HW222203   2.989   6.547   4.534
 7102SOL     OW22204   5.432   2.032   2.350
 7102SOL    HW122205   5.351   1.974   2.337
 7102SOL    HW222206   5.513   1.984   2.313
 7103SOL     OW22207   6.681   3.691   4.915
 7103SOL    HW122208   6.616   3.766   4.900
 7103SOL    HW222209   6.767   3.712   4.869
 7104SOL     OW22210   4.387   2.379   4.170
 7104SOL    HW122211   4.460   2.312   4.152
 7104SOL    HW222212   4.360   2.422   4.084
 7105SOL     OW22213   3.135   3.549   1.639
 7105SOL    HW122214   3.164   3.608   1.714
 7105SOL    HW222215   3.166   3.588   1.552
 7106SOL     OW22216   2.417   2.230   2.851
 7106SOL    HW122217   2.487   2.287   2.894
 7106SOL    HW222218   2.390   2.272   2.764
 7107SOL     OW22219   3.809   0.367   0.642
 7107SOL    HW122220   3.828   0.326   0.731
 7107SOL    HW222221   3.730   0.428   0.650
 7108SOL     OW22222   2.896   6.842   1.633
 7108SOL    HW122223   2.810   6.859   1.585
 7108SOL    HW222224   2.928   6.750   1.611
 7109SOL     OW22225   2.174   5.163   6.218
 7109SOL    HW122226   2.225   5.193   6.137
 7109SOL    HW222227   2.205   5.071   6.243
 7110SOL     OW22228   2.700   5.234   5.757
 7110SOL    HW122229   2.632   5.307   5.756
 7110SOL    HW222230   2.782   5.264   5.707
 7111SOL     OW22231   6.301   2.042   4.227
 7111SOL    HW122232   6.329   2.137   4.220
 7111SOL    HW222233   6.364   1.985   4.174
 7112SOL     OW22234   6.812   4.920   4.341
 7112SOL    HW122235   6.857   4.867   4.269
 7112SOL    HW222236   6.809   4.867   4.425
 7113SOL     OW22237   3.257   6.689   5.232
 7113SOL    HW122238   3.164   6.667   5.260
 7113SOL    HW222239   3.275   6.648   5.143
 7114SOL     OW22240   6.103   3.797   0.413
 7114SOL    HW122241   6.106   3.867   0.485
 7114SOL    HW222242   6.167   3.821   0.340
 7115SOL     OW22243   5.052   2.996   6.075
 7115SOL    HW122244   4.960   2.969   6.044
 7115SOL    HW222245   5.115   2.992   5.997
 7116SOL     OW22246   6.239   5.208   4.412
 7116SOL    HW122247   6.290   5.157   4.343
 7116SOL    HW222248   6.244   5.160   4.500
 7117SOL     OW22249   2.942   0.904   2.660
 7117SOL    HW122250   2.971   0.887   2.565
 7117SOL    HW222251   2.845   0.927   2.661
 7118SOL     OW22252   5.204   4.492   5.704
 7118SOL    HW122253   5.247   4.442   5.779
 7118SOL    HW222254   5.227   4.589   5.711
 7119SOL     OW22255   2.580   6.442   4.040
 7119SOL    HW122256   2.623   6.408   3.957
 7119SOL    HW222257   2.482   6.457   4.023
 7120SOL     OW22258   4.667   2.090   2.297
 7120SOL    HW122259   4.718   2.176   2.301
 7120SOL    HW222260   4.569   2.109   2.295
 7121SOL     OW22261   2.289   5.961   1.932
 7121SOL    HW122262   2.298   5.862   1.922
 7121SOL    HW222263   2.346   6.007   1.864
 7122SOL     OW22264   2.941   2.254   6.688
 7122SOL    HW122265   2.881   2.288   6.615
 7122SOL    HW222266   2.953   2.325   6.757
 7123SOL     OW22267   5.236   3.414   6.404
 7123SOL    HW122268   5.246   3.508   6.372
 7123SOL    HW222269   5.308   3.394   6.470
 7124SOL     OW22270   2.883   2.606   6.313
 7124SOL    HW122271   2.892   2.680   6.380
 7124SOL    HW222272   2.938   2.528   6.342
 7125SOL     OW22273   1.002   5.945   1.289
 7125SOL    HW122274   0.977   5.986   1.377
 7125SOL    HW222275   0.980   5.847   1.291
 7126SOL     OW22276   3.759   5.164   0.584
 7126SOL    HW122277   3.721   5.096   0.521
 7126SOL    HW222278   3.818   5.118   0.651
 7127SOL     OW22279   2.515   6.994   5.025
 7127SOL    HW122280   2.441   7.014   5.088
 7127SOL    HW222281   2.493   0.011   4.935
 7128SOL     OW22282   4.287   3.770   0.216
 7128SOL    HW122283   4.230   3.819   0.150
 7128SOL    HW222284   4.336   3.836   0.273
 7129SOL     OW22285   6.861   1.592   0.556
 7129SOL    HW122286   6.933   1.548   0.608
 7129SOL    HW222287   6.875   1.691   0.554
 7130SOL     OW22288   3.366   7.004   3.764
 7130SOL    HW122289   3.338   6.994   3.860
 7130SOL    HW222290   3.334   6.925   3.712
 7131SOL     OW22291   2.592   1.774   2.838
 7131SOL    HW122292   2.520   1.839   2.861
 7131SOL    HW222293   2.594   1.760   2.739
 7132SOL     OW22294   5.270   5.005   2.538
 7132SOL    HW122295   5.356   4.956   2.521
 7132SOL    HW222296   5.239   4.986   2.631
 7133SOL     OW22297   3.643   6.394   2.190
 7133SOL    HW122298   3.610   6.300   2.178
 7133SOL    HW222299   3.687   6.425   2.106
 7134SOL     OW22300   5.938   4.717   6.539
 7134SOL    HW122301   5.841   4.691   6.547
 7134SOL    HW222302   5.947   4.815   6.557
 7135SOL     OW22303   2.367   5.617   0.344
 7135SOL    HW122304   2.455   5.569   0.343
 7135SOL    HW222305   2.306   5.574   0.411
 7136SOL     OW22306   1.448   2.861   2.670
 7136SOL    HW122307   1.431   2.781   2.612
 7136SOL    HW222308   1.521   2.840   2.735
 7137SOL     OW22309   1.480   6.855   1.693
 7137SOL    HW122310   1.502   6.849   1.791
 7137SOL    HW222311   1.473   6.951   1.666
 7138SOL     OW22312   6.402   3.878   0.780
 7138SOL    HW122313   6.427   3.975   0.782
 7138SOL    HW222314   6.416   3.841   0.688
 7139SOL     OW22315   5.816   5.579   0.665
 7139SOL    HW122316   5.849   5.673   0.658
 7139SOL    HW222317   5.720   5.579   0.695
 7140SOL     OW22318   6.306   3.878   0.244
 7140SOL    HW122319   6.339   3.972   0.232
 7140SOL    HW222320   6.265   3.846   0.159
 7141SOL     OW22321   2.537   2.307   0.061
 7141SOL    HW122322   2.456   2.250   0.046
 7141SOL    HW222323   2.546   2.373   7.007
 7142SOL     OW22324   4.053   6.690   5.856
 7142SOL    HW122325   4.142   6.690   5.811
 7142SOL    HW222326   4.009   6.779   5.843
 7143SOL     OW22327   2.680   3.093   5.695
 7143SOL    HW122328   2.621   3.017   5.667
 7143SOL    HW222329   2.663   3.114   5.792
 7144SOL     OW22330   6.264   1.703   6.540
 7144SOL    HW122331   6.178   1.734   6.499
 7144SOL    HW222332   6.341   1.731   6.484
 7145SOL     OW22333   0.560   3.094   0.187
 7145SOL    HW122334   0.485   3.153   0.216
 7145SOL    HW222335   0.550   3.004   0.229
 7146SOL     OW22336   6.815   1.394   4.435
 7146SOL    HW122337   6.764   1.328   4.490
 7146SOL    HW222338   6.912   1.388   4.457
 7147SOL     OW22339   6.529   0.633   0.166
 7147SOL    HW122340   6.587   0.714   0.170
 7147SOL    HW222341   6.433   0.660   0.174
 7148SOL     OW22342   5.608   6.637   0.572
 7148SOL    HW122343   5.558   6.690   0.504
 7148SOL    HW222344   5.645   6.700   0.642
 7149SOL     OW22345   6.577   3.786   0.229
 7149SOL    HW122346   6.654   3.733   0.265
 7149SOL    HW222347   6.507   3.723   0.194
 7150SOL     OW22348   2.347   1.907   6.806
 7150SOL    HW122349   2.442   1.914   6.776
 7150SOL    HW222350   2.340   1.927   6.904
 7151SOL     OW22351   5.568   2.536   6.840
 7151SOL    HW122352   5.537   2.610   6.780
 7151SOL    HW222353   5.641   2.484   6.794
 7152SOL     OW22354   5.985   0.691   4.835
 7152SOL    HW122355   6.069   0.636   4.837
 7152SOL    HW222356   6.008   0.788   4.829
 7153SOL     OW22357   5.165   5.813   0.088
 7153SOL    HW122358   5.237   5.779   0.027
 7153SOL    HW222359   5.134   5.739   0.147
 7154SOL     OW22360   5.377   6.873   2.178
 7154SOL    HW122361   5.453   6.838   2.122
 7154SOL    HW222362   5.402   6.961   2.217
 7155SOL     OW22363   1.309   6.909   1.310
 7155SOL    HW122364   1.318   7.008   1.318
 7155SOL    HW222365   1.213   6.883   1.324
 7156SOL     OW22366   6.841   3.137   5.345
 7156SOL    HW122367   6.834   3.059   5.283
 7156SOL    HW222368   6.888   3.109   5.429
 7157SOL     OW22369   0.125   3.966   5.816
 7157SOL    HW122370   0.039   3.922   5.844
 7157SOL    HW222371   0.198   3.934   5.876
 7158SOL     OW22372   4.941   6.848   3.921
 7158SOL    HW122373   4.985   6.793   3.850
 7158SOL    HW222374   4.845   6.820   3.930
 7159SOL     OW22375   0.740   6.786   3.202
 7159SOL    HW122376   0.659   6.801   3.145
 7159SOL    HW222377   0.712   6.745   3.289
 7160SOL     OW22378   5.982   5.969   2.043
 7160SOL    HW122379   6.063   5.911   2.037
 7160SOL    HW222380   5.976   6.009   2.134
 7161SOL     OW22381   3.768   3.192   1.774
 7161SOL    HW122382   3.706   3.176   1.697
 7161SOL    HW222383   3.854   3.230   1.741
 7162SOL     OW22384   0.862   6.446   0.364
 7162SOL    HW122385   0.935   6.454   0.297
 7162SOL    HW222386   0.878   6.367   0.423
 7163SOL     OW22387   6.694   5.961   6.966
 7163SOL    HW122388   6.714   5.926   6.874
 7163SOL    HW222389   6.766   5.931   0.008
 7164SOL     OW22390   1.089   6.594   6.695
 7164SOL    HW122391   1.138   6.510   6.674
 7164SOL    HW222392   1.110   6.622   6.789
 7165SOL     OW22393   4.083   2.786   5.924
 7165SOL    HW122394   4.099   2.745   5.834
 7165SOL    HW222395   4.170   2.797   5.971
 7166SOL     OW22396   0.218   6.292   5.756
 7166SOL    HW122397   0.137   6.311   5.812
 7166SOL    HW222398   0.205   6.205   5.708
 7167SOL     OW22399   0.776   3.741   5.714
 7167SOL    HW122400   0.749   3.764   5.620
 7167SOL    HW222401   0.772   3.824   5.770
 7168SOL     OW22402   0.026   0.163   2.324
 7168SOL    HW122403   0.122   0.170   2.350
 7168SOL    HW222404   6.989   0.177   2.405
 7169SOL     OW22405   1.503   4.910   5.566
 7169SOL    HW122406   1.591   4.909   5.614
 7169SOL    HW222407   1.513   4.960   5.480
 7170SOL     OW22408   4.227   2.275   1.904
 7170SOL    HW122409   4.263   2.317   1.821
 7170SOL    HW222410   4.264   2.323   1.984
 7171SOL     OW22411   0.059   5.901   1.731
 7171SOL    HW122412   0.031   5.949   1.648
 7171SOL    HW222413   0.153   5.926   1.753
 7172SOL     OW22414   1.354   2.827   3.298
 7172SOL    HW122415   1.352   2.746   3.357
 7172SOL    HW222416   1.349   2.798   3.202
 7173SOL     OW22417   3.561   5.177   4.582
 7173SOL    HW122418   3.528   5.191   4.675
 7173SOL    HW222419   3.633   5.243   4.562
 7174SOL     OW22420   6.664   3.509   2.773
 7174SOL    HW122421   6.709   3.419   2.772
 7174SOL    HW222422   6.566   3.496   2.762
 7175SOL     OW22423   5.868   2.647   5.814
 7175SOL    HW122424   5.792   2.584   5.800
 7175SOL    HW222425   5.927   2.647   5.733
 7176SOL     OW22426   6.335   1.850   6.289
 7176SOL    HW122427   6.409   1.804   6.241
 7176SOL    HW222428   6.358   1.947   6.300
 7177SOL     OW22429   1.365   5.530   3.845
 7177SOL    HW122430   1.449   5.581   3.829
 7177SOL    HW222431   1.290   5.574   3.795
 7178SOL     OW22432   0.629   6.484   5.669
 7178SOL    HW122433   0.635   6.467   5.767
 7178SOL    HW222434   0.717   6.519   5.636
 7179SOL     OW22435   5.314   4.440   5.436
 7179SOL    HW122436   5.268   4.410   5.519
 7179SOL    HW222437   5.247   4.466   5.367
 7180SOL     OW22438   6.764   2.032   2.550
 7180SOL    HW122439   6.810   2.010   2.636
 7180SOL    HW222440   6.806   2.114   2.510
 7181SOL     OW22441   3.999   0.262   0.206
 7181SOL    HW122442   3.911   0.217   0.190
 7181SOL    HW222443   3.984   0.349   0.252
 7182SOL     OW22444   1.998   0.599   2.446
 7182SOL    HW122445   1.984   0.692   2.479
 7182SOL    HW222446   1.946   0.535   2.502
 7183SOL     OW22447   1.734   6.913   1.227
 7183SOL    HW122448   1.811   6.958   1.272
 7183SOL    HW222449   1.667   6.885   1.295
 7184SOL     OW22450   0.068   1.611   3.061
 7184SOL    HW122451   0.115   1.658   2.986
 7184SOL    HW222452   0.031   1.679   3.124
 7185SOL     OW22453   3.539   0.323   3.996
 7185SOL    HW122454   3.514   0.329   3.899
 7185SOL    HW222455   3.528   0.412   4.039
 7186SOL     OW22456   6.514   2.608   0.451
 7186SOL    HW122457   6.543   2.691   0.497
 7186SOL    HW222458   6.426   2.624   0.405
 7187SOL     OW22459   3.060   3.758   3.877
 7187SOL    HW122460   3.159   3.764   3.884
 7187SOL    HW222461   3.033   3.662   3.870
 7188SOL     OW22462   4.785   4.731   6.953
 7188SOL    HW122463   4.766   4.650   6.897
 7188SOL    HW222464   4.797   4.810   6.894
 7189SOL     OW22465   6.881   2.034   6.044
 7189SOL    HW122466   6.798   1.980   6.030
 7189SOL    HW222467   6.859   2.132   6.041
 7190SOL     OW22468   5.522   5.523   0.704
 7190SOL    HW122469   5.460   5.584   0.655
 7190SOL    HW222470   5.507   5.533   0.803
 7191SOL     OW22471   0.241   5.119   2.585
 7191SOL    HW122472   0.190   5.119   2.499
 7191SOL    HW222473   0.177   5.117   2.662
 7192SOL     OW22474   3.422   4.078   5.804
 7192SOL    HW122475   3.503   4.122   5.765
 7192SOL    HW222476   3.388   4.133   5.881
 7193SOL     OW22477   3.832   1.252   4.288
 7193SOL    HW122478   3.847   1.343   4.250
 7193SOL    HW222479   3.908   1.192   4.263
 7194SOL     OW22480   3.792   2.648   5.311
 7194SOL    HW122481   3.830   2.630   5.402
 7194SOL    HW222482   3.715   2.712   5.319
 7195SOL     OW22483   6.726   3.976   5.332
 7195SOL    HW122484   6.651   3.969   5.266
 7195SOL    HW222485   6.768   3.886   5.344
 7196SOL     OW22486   2.984   4.316   1.342
 7196SOL    HW122487   3.054   4.268   1.289
 7196SOL    HW222488   2.960   4.261   1.422
 7197SOL     OW22489   3.404   4.439   6.317
 7197SOL    HW122490   3.436   4.344   6.310
 7197SOL    HW222491   3.402   4.466   6.413
 7198SOL     OW22492   1.594   6.431   1.957
 7198SOL    HW122493   1.560   6.503   1.896
 7198SOL    HW222494   1.621   6.471   2.045
 7199SOL     OW22495   6.213   1.195   3.545
 7199SOL    HW122496   6.140   1.129   3.563
 7199SOL    HW222497   6.207   1.226   3.450
 7200SOL     OW22498   0.542   4.221   6.424
 7200SOL    HW122499   0.525   4.158   6.348
 7200SOL    HW222500   0.528   4.315   6.393
 7201SOL     OW22501   5.593   5.693   5.000
 7201SOL    HW122502   5.543   5.726   5.081
 7201SOL    HW222503   5.551   5.731   4.918
 7202SOL     OW22504   4.415   6.599   5.918
 7202SOL    HW122505   4.372   6.675   5.869
 7202SOL    HW222506   4.350   6.558   5.982
 7203SOL     OW22507   0.991   1.528   0.614
 7203SOL    HW122508   1.024   1.553   0.705
 7203SOL    HW222509   0.987   1.609   0.556
 7204SOL     OW22510   5.074   0.944   2.713
 7204SOL    HW122511   4.977   0.959   2.734
 7204SOL    HW222512   5.120   0.907   2.794
 7205SOL     OW22513   2.996   1.324   3.782
 7205SOL    HW122514   3.069   1.359   3.722
 7205SOL    HW222515   3.000   1.224   3.783
 7206SOL     OW22516   1.693   2.578   6.598
 7206SOL    HW122517   1.594   2.591   6.605
 7206SOL    HW222518   1.739   2.665   6.612
 7207SOL     OW22519   1.751   2.394   3.458
 7207SOL    HW122520   1.814   2.392   3.381
 7207SOL    HW222521   1.743   2.302   3.497
 7208SOL     OW22522   2.798   0.116   3.395
 7208SOL    HW122523   2.808   0.180   3.472
 7208SOL    HW222524   2.864   0.042   3.405
 7209SOL     OW22525   4.131   1.416   2.753
 7209SOL    HW122526   4.185   1.356   2.694
 7209SOL    HW222527   4.034   1.408   2.729
 7210SOL     OW22528   3.231   1.227   4.904
 7210SOL    HW122529   3.331   1.223   4.895
 7210SOL    HW222530   3.204   1.319   4.933
 7211SOL     OW22531   5.005   6.237   6.238
 7211SOL    HW122532   5.085   6.273   6.190
 7211SOL    HW222533   5.024   6.144   6.269
 7212SOL     OW22534   0.178   5.676   4.307
 7212SOL    HW122535   0.244   5.676   4.232
 7212SOL    HW222536   0.164   5.582   4.339
 7213SOL     OW22537   5.130   2.695   0.579
 7213SOL    HW122538   5.221   2.716   0.614
 7213SOL    HW222539   5.089   2.622   0.633
 7214SOL     OW22540   6.329   1.632   5.791
 7214SOL    HW122541   6.284   1.672   5.711
 7214SOL    HW222542   6.261   1.583   5.846
 7215SOL     OW22543   6.289   1.469   2.666
 7215SOL    HW122544   6.270   1.371   2.655
 7215SOL    HW222545   6.205   1.516   2.696
 7216SOL     OW22546   5.403   6.419   3.739
 7216SOL    HW122547   5.315   6.423   3.692
 7216SOL    HW222548   5.469   6.477   3.691
 7217SOL     OW22549   1.103   3.372   3.135
 7217SOL    HW122550   1.168   3.430   3.087
 7217SOL    HW222551   1.131   3.276   3.128
 7218SOL     OW22552   6.891   2.765   5.420
 7218SOL    HW122553   6.963   2.736   5.358
 7218SOL    HW222554   6.906   2.860   5.447
 7219SOL     OW22555   3.689   6.130   1.076
 7219SOL    HW122556   3.650   6.209   1.123
 7219SOL    HW222557   3.628   6.101   1.002
 7220SOL     OW22558   0.453   3.737   4.097
 7220SOL    HW122559   0.430   3.679   4.019
 7220SOL    HW222560   0.391   3.716   4.173
 7221SOL     OW22561   4.816   4.803   3.741
 7221SOL    HW122562   4.903   4.832   3.700
 7221SOL    HW222563   4.756   4.883   3.749
 7222SOL     OW22564   6.188   5.600   3.959
 7222SOL    HW122565   6.216   5.527   4.021
 7222SOL    HW222566   6.128   5.664   4.007
 7223SOL     OW22567   6.350   5.351   1.404
 7223SOL    HW122568   6.283   5.376   1.474
 7223SOL    HW222569   6.442   5.355   1.443
 7224SOL     OW22570   5.728   2.838   2.443
 7224SOL    HW122571   5.819   2.811   2.412
 7224SOL    HW222572   5.671   2.757   2.456
 7225SOL     OW22573   0.865   5.260   0.462
 7225SOL    HW122574   0.799   5.257   0.537
 7225SOL    HW222575   0.906   5.169   0.450
 7226SOL     OW22576   6.474   6.587   0.144
 7226SOL    HW122577   6.426   6.571   0.058
 7226SOL    HW222578   6.503   6.499   0.183
 7227SOL     OW22579   2.078   0.615   2.040
 7227SOL    HW122580   2.154   0.550   2.046
 7227SOL    HW222581   2.086   0.667   1.955
 7228SOL     OW22582   6.930   3.477   3.048
 7228SOL    HW122583   6.866   3.551   3.071
 7228SOL    HW222584   6.992   3.462   3.125
 7229SOL     OW22585   5.432   6.752   5.435
 7229SOL    HW122586   5.486   6.732   5.517
 7229SOL    HW222587   5.493   6.769   5.358
 7230SOL     OW22588   2.937   4.922   6.033
 7230SOL    HW122589   3.023   4.872   6.044
 7230SOL    HW222590   2.885   4.883   5.958
 7231SOL     OW22591   3.487   2.911   6.763
 7231SOL    HW122592   3.457   2.965   6.842
 7231SOL    HW222593   3.500   2.972   6.684
 7232SOL     OW22594   4.189   5.628   3.356
 7232SOL    HW122595   4.118   5.633   3.285
 7232SOL    HW222596   4.194   5.534   3.391
 7233SOL     OW22597   0.585   1.834   6.793
 7233SOL    HW122598   0.524   1.800   6.864
 7233SOL    HW222599   0.626   1.756   6.745
 7234SOL     OW22600   5.364   5.422   3.555
 7234SOL    HW122601   5.334   5.375   3.472
 7234SOL    HW222602   5.384   5.355   3.627
 7235SOL     OW22603   6.931   0.258   1.152
 7235SOL    HW122604   6.905   0.164   1.176
 7235SOL    HW222605   0.005   0.274   1.178
 7236SOL     OW22606   0.606   4.155   2.962
 7236SOL    HW122607   0.653   4.095   3.027
 7236SOL    HW222608   0.622   4.121   2.869
 7237SOL     OW22609   4.814   1.106   6.801
 7237SOL    HW122610   4.789   1.061   6.715
 7237SOL    HW222611   4.912   1.092   6.818
 7238SOL     OW22612   4.401   3.365   0.220
 7238SOL    HW122613   4.322   3.303   0.217
 7238SOL    HW222614   4.375   3.453   0.181
 7239SOL     OW22615   6.294   3.051   2.272
 7239SOL    HW122616   6.238   3.034   2.353
 7239SOL    HW222617   6.389   3.066   2.299
 7240SOL     OW22618   0.433   2.232   0.981
 7240SOL    HW122619   0.442   2.332   0.972
 7240SOL    HW222620   0.385   2.211   1.066
 7241SOL     OW22621   2.263   0.188   3.100
 7241SOL    HW122622   2.300   0.279   3.078
 7241SOL    HW222623   2.337   0.121   3.099
 7242SOL     OW22624   6.671   3.571   5.950
 7242SOL    HW122625   6.760   3.526   5.937
 7242SOL    HW222626   6.682   3.649   6.011
 7243SOL     OW22627   6.682   4.479   6.379
 7243SOL    HW122628   6.620   4.407   6.351
 7243SOL    HW222629   6.696   4.475   6.478
 7244SOL     OW22630   6.863   5.962   0.585
 7244SOL    HW122631   6.780   5.929   0.540
 7244SOL    HW222632   6.888   5.901   0.660
 7245SOL     OW22633   1.774   2.282   6.977
 7245SOL    HW122634   1.812   2.200   0.001
 7245SOL    HW222635   1.676   2.288   6.996
 7246SOL     OW22636   4.367   0.059   4.538
 7246SOL    HW122637   4.391   6.988   4.505
 7246SOL    HW222638   4.333   0.053   4.631
 7247SOL     OW22639   3.597   4.165   4.648
 7247SOL    HW122640   3.506   4.162   4.604
 7247SOL    HW222641   3.587   4.147   4.746
 7248SOL     OW22642   2.692   2.395   5.070
 7248SOL    HW122643   2.722   2.470   5.011
 7248SOL    HW222644   2.646   2.326   5.014
 7249SOL     OW22645   3.549   6.006   3.048
 7249SOL    HW122646   3.580   6.055   3.129
 7249SOL    HW222647   3.489   6.065   2.994
 7250SOL     OW22648   4.947   5.063   5.342
 7250SOL    HW122649   4.891   4.986   5.371
 7250SOL    HW222650   4.990   5.106   5.421
 7251SOL     OW22651   0.326   5.916   4.299
 7251SOL    HW122652   0.403   5.941   4.357
 7251SOL    HW222653   0.260   5.863   4.352
 7252SOL     OW22654   3.775   4.217   1.643
 7252SOL    HW122655   3.693   4.234   1.697
 7252SOL    HW222656   3.787   4.119   1.631
 7253SOL     OW22657   1.309   5.477   5.653
 7253SOL    HW122658   1.236   5.485   5.721
 7253SOL    HW222659   1.274   5.501   5.563
 7254SOL     OW22660   0.453   3.760   3.773
 7254SOL    HW122661   0.504   3.705   3.706
 7254SOL    HW222662   0.517   3.806   3.834
 7255SOL     OW22663   4.780   4.018   0.686
 7255SOL    HW122664   4.704   4.075   0.655
 7255SOL    HW222665   4.744   3.938   0.735
 7256SOL     OW22666   3.259   6.937   4.023
 7256SOL    HW122667   3.293   7.008   4.084
 7256SOL    HW222668   3.169   6.963   3.988
 7257SOL     OW22669   0.945   0.969   4.913
 7257SOL    HW122670   0.890   0.887   4.896
 7257SOL    HW222671   1.006   0.985   4.835
 7258SOL     OW22672   0.239   1.772   2.911
 7258SOL    HW122673   0.228   1.863   2.950
 7258SOL    HW222674   0.310   1.774   2.841
 7259SOL     OW22675   1.420   3.965   2.301
 7259SOL    HW122676   1.416   4.056   2.343
 7259SOL    HW222677   1.425   3.895   2.373
 7260SOL     OW22678   5.845   2.591   0.812
 7260SOL    HW122679   5.942   2.588   0.790
 7260SOL    HW222680   5.832   2.635   0.900
 7261SOL     OW22681   6.995   4.476   6.831
 7261SOL    HW122682   0.023   4.487   6.918
 7261SOL    HW222683   6.913   4.421   6.845
 7262SOL     OW22684   3.017   0.239   5.194
 7262SOL    HW122685   2.977   0.166   5.250
 7262SOL    HW222686   3.035   0.319   5.252
 7263SOL     OW22687   6.332   4.863   6.102
 7263SOL    HW122688   6.395   4.835   6.175
 7263SOL    HW222689   6.270   4.933   6.136
 7264SOL     OW22690   4.936   1.980   1.606
 7264SOL    HW122691   4.962   1.980   1.510
 7264SOL    HW222692   4.909   1.888   1.633
 7265SOL     OW22693   3.265   6.938   5.377
 7265SOL    HW122694   3.256   6.848   5.334
 7265SOL    HW222695   3.189   6.952   5.441
 7266SOL     OW22696   6.827   1.047   2.856
 7266SOL    HW122697   6.921   1.063   2.887
 7266SOL    HW222698   6.771   1.127   2.876
 7267SOL     OW22699   0.131   4.007   5.554
 7267SOL    HW122700   0.118   3.922   5.502
 7267SOL    HW222701   0.109   3.991   5.650
 7268SOL     OW22702   5.573   6.241   4.148
 7268SOL    HW122703   5.551   6.149   4.180
 7268SOL    HW222704   5.584   6.240   4.049
 7269SOL     OW22705   2.739   5.584   4.631
 7269SOL    HW122706   2.662   5.539   4.676
 7269SOL    HW222707   2.705   5.651   4.565
 7270SOL     OW22708   0.370   1.535   4.357
 7270SOL    HW122709   0.398   1.620   4.312
 7270SOL    HW222710   0.374   1.460   4.291
 7271SOL     OW22711   0.807   5.639   3.066
 7271SOL    HW122712   0.708   5.647   3.054
 7271SOL    HW222713   0.826   5.582   3.146
 7272SOL     OW22714   6.645   4.021   1.798
 7272SOL    HW122715   6.642   4.072   1.712
 7272SOL    HW222716   6.606   3.930   1.784
 7273SOL     OW22717   0.406   1.137   4.646
 7273SOL    HW122718   0.364   1.223   4.617
 7273SOL    HW222719   0.385   1.120   4.742
 7274SOL     OW22720   0.210   5.936   6.372
 7274SOL    HW122721   0.278   6.008   6.370
 7274SOL    HW222722   0.249   5.854   6.415
 7275SOL     OW22723   0.427   5.418   3.122
 7275SOL    HW122724   0.427   5.323   3.091
 7275SOL    HW222725   0.333   5.452   3.125
 7276SOL     OW22726   5.153   6.442   3.613
 7276SOL    HW122727   5.058   6.448   3.645
 7276SOL    HW222728   5.154   6.430   3.514
 7277SOL     OW22729   5.265   1.233   6.905
 7277SOL    HW122730   5.340   1.172   6.932
 7277SOL    HW222731   5.247   1.221   6.807
 7278SOL     OW22732   3.897   3.044   2.289
 7278SOL    HW122733   3.952   2.961   2.291
 7278SOL    HW222734   3.824   3.034   2.222
 7279SOL     OW22735   3.403   6.413   6.326
 7279SOL    HW122736   3.383   6.448   6.234
 7279SOL    HW222737   3.500   6.426   6.346
 7280SOL     OW22738   4.318   6.929   5.419
 7280SOL    HW122739   4.311   6.940   5.320
 7280SOL    HW222740   4.336   6.833   5.441
 7281SOL     OW22741   5.676   0.698   6.470
 7281SOL    HW122742   5.709   0.784   6.430
 7281SOL    HW222743   5.599   0.717   6.531
 7282SOL     OW22744   6.281   5.738   3.436
 7282SOL    HW122745   6.270   5.827   3.392
 7282SOL    HW222746   6.246   5.743   3.530
 7283SOL     OW22747   2.164   1.365   2.838
 7283SOL    HW122748   2.157   1.294   2.908
 7283SOL    HW222749   2.229   1.435   2.867
 7284SOL     OW22750   1.308   1.160   4.874
 7284SOL    HW122751   1.385   1.201   4.826
 7284SOL    HW222752   1.261   1.096   4.814
 7285SOL     OW22753   6.073   5.100   2.274
 7285SOL    HW122754   6.152   5.150   2.241
 7285SOL    HW222755   6.096   5.003   2.282
 7286SOL     OW22756   1.469   3.980   0.301
 7286SOL    HW122757   1.411   4.053   0.266
 7286SOL    HW222758   1.461   3.900   0.241
 7287SOL     OW22759   6.168   2.066   6.169
 7287SOL    HW122760   6.231   2.061   6.092
 7287SOL    HW222761   6.187   1.991   6.233
 7288SOL     OW22762   2.708   0.154   6.962
 7288SOL    HW122763   2.751   0.064   6.962
 7288SOL    HW222764   2.714   0.194   0.032
 7289SOL     OW22765   4.195   1.266   2.984
 7289SOL    HW122766   4.266   1.305   3.044
 7289SOL    HW222767   4.173   1.332   2.912
 7290SOL     OW22768   2.491   5.909   4.305
 7290SOL    HW122769   2.450   5.974   4.370
 7290SOL    HW222770   2.459   5.930   4.213
 7291SOL     OW22771   3.846   5.008   1.510
 7291SOL    HW122772   3.808   5.075   1.446
 7291SOL    HW222773   3.945   5.020   1.516
 7292SOL     OW22774   3.633   0.117   4.716
 7292SOL    HW122775   3.683   0.174   4.650
 7292SOL    HW222776   3.577   0.174   4.775
 7293SOL     OW22777   2.411   1.171   6.114
 7293SOL    HW122778   2.366   1.211   6.034
 7293SOL    HW222779   2.345   1.117   6.167
 7294SOL     OW22780   5.884   5.409   6.525
 7294SOL    HW122781   5.981   5.414   6.551
 7294SOL    HW222782   5.862   5.489   6.468
 7295SOL     OW22783   4.494   6.817   1.680
 7295SOL    HW122784   4.579   6.843   1.727
 7295SOL    HW222785   4.420   6.876   1.711
 7296SOL     OW22786   4.400   5.138   0.342
 7296SOL    HW122787   4.432   5.096   0.427
 7296SOL    HW222788   4.402   5.070   0.269
 7297SOL     OW22789   4.851   6.395   2.695
 7297SOL    HW122790   4.807   6.379   2.606
 7297SOL    HW222791   4.939   6.348   2.697
 7298SOL     OW22792   5.956   2.621   4.545
 7298SOL    HW122793   6.018   2.632   4.467
 7298SOL    HW222794   5.870   2.579   4.514
 7299SOL     OW22795   5.279   3.314   0.201
 7299SOL    HW122796   5.287   3.282   0.295
 7299SOL    HW222797   5.349   3.270   0.145
 7300SOL     OW22798   4.675   5.431   0.927
 7300SOL    HW122799   4.594   5.373   0.916
 7300SOL    HW222800   4.711   5.455   0.837
 7301SOL     OW22801   6.581   1.748   6.472
 7301SOL    HW122802   6.607   1.651   6.474
 7301SOL    HW222803   6.575   1.783   6.565
 7302SOL     OW22804   6.839   1.171   6.656
 7302SOL    HW122805   6.809   1.159   6.751
 7302SOL    HW222806   6.831   1.084   6.608
 7303SOL     OW22807   4.820   0.444   1.156
 7303SOL    HW122808   4.733   0.478   1.121
 7303SOL    HW222809   4.833   0.476   1.250
 7304SOL     OW22810   3.956   3.315   4.320
 7304SOL    HW122811   3.912   3.231   4.288
 7304SOL    HW222812   3.903   3.354   4.395
 7305SOL     OW22813   5.783   2.429   0.101
 7305SOL    HW122814   5.741   2.431   0.192
 7305SOL    HW222815   5.752   2.348   0.052
 7306SOL     OW22816   4.665   4.847   1.726
 7306SOL    HW122817   4.596   4.817   1.793
 7306SOL    HW222818   4.754   4.812   1.754
 7307SOL     OW22819   4.067   6.633   2.300
 7307SOL    HW122820   4.124   6.715   2.301
 7307SOL    HW222821   4.056   6.599   2.394
 7308SOL     OW22822   5.338   0.441   4.006
 7308SOL    HW122823   5.293   0.487   4.082
 7308SOL    HW222824   5.300   0.474   3.919
 7309SOL     OW22825   4.416   4.588   0.432
 7309SOL    HW122826   4.393   4.663   0.494
 7309SOL    HW222827   4.516   4.577   0.429
 7310SOL     OW22828   1.949   5.669   2.049
 7310SOL    HW122829   2.024   5.689   2.113
 7310SOL    HW222830   1.885   5.605   2.092
 7311SOL     OW22831   3.110   1.984   2.330
 7311SOL    HW122832   3.134   1.912   2.395
 7311SOL    HW222833   3.086   1.943   2.242
 7312SOL     OW22834   0.131   2.801   6.539
 7312SOL    HW122835   0.105   2.874   6.603
 7312SOL    HW222836   0.198   2.740   6.582
 7313SOL     OW22837   3.758   2.546   6.438
 7313SOL    HW122838   3.693   2.523   6.367
 7313SOL    HW222839   3.709   2.579   6.519
 7314SOL     OW22840   0.997   1.831   4.745
 7314SOL    HW122841   0.968   1.833   4.840
 7314SOL    HW222842   0.931   1.780   4.690
 7315SOL     OW22843   6.800   1.495   5.519
 7315SOL    HW122844   6.793   1.499   5.619
 7315SOL    HW222845   6.718   1.535   5.478
 7316SOL     OW22846   4.132   3.688   3.708
 7316SOL    HW122847   4.128   3.627   3.629
 7316SOL    HW222848   4.218   3.740   3.705
 7317SOL     OW22849   2.973   0.474   4.371
 7317SOL    HW122850   3.034   0.395   4.362
 7317SOL    HW222851   2.891   0.447   4.421
 7318SOL     OW22852   1.954   0.673   1.073
 7318SOL    HW122853   1.912   0.728   1.000
 7318SOL    HW222854   2.025   0.727   1.118
 7319SOL     OW22855   6.919   4.231   6.547
 7319SOL    HW122856   6.887   4.218   6.641
 7319SOL    HW222857   6.887   4.155   6.491
 7320SOL     OW22858   0.554   1.603   2.556
 7320SOL    HW122859   0.617   1.526   2.558
 7320SOL    HW222860   0.499   1.599   2.472
 7321SOL     OW22861   4.334   1.657   3.713
 7321SOL    HW122862   4.380   1.652   3.802
 7321SOL    HW222863   4.252   1.713   3.721
 7322SOL     OW22864   1.129   2.990   1.544
 7322SOL    HW122865   1.154   2.959   1.452
 7322SOL    HW222866   1.125   3.090   1.545
 7323SOL     OW22867   2.394   4.427   3.347
 7323SOL    HW122868   2.327   4.374   3.295
 7323SOL    HW222869   2.385   4.405   3.444
 7324SOL     OW22870   4.838   5.570   3.194
 7324SOL    HW122871   4.755   5.625   3.193
 7324SOL    HW222872   4.813   5.473   3.190
 7325SOL     OW22873   2.926   6.148   0.777
 7325SOL    HW122874   2.871   6.125   0.697
 7325SOL    HW222875   2.901   6.088   0.853
 7326SOL     OW22876   2.454   0.867   4.045
 7326SOL    HW122877   2.494   0.778   4.065
 7326SOL    HW222878   2.478   0.932   4.117
 7327SOL     OW22879   1.675   3.148   6.158
 7327SOL    HW122880   1.745   3.200   6.108
 7327SOL    HW222881   1.718   3.102   6.236
 7328SOL     OW22882   2.213   6.471   0.311
 7328SOL    HW122883   2.252   6.408   0.244
 7328SOL    HW222884   2.171   6.419   0.386
 7329SOL     OW22885   4.544   3.726   1.704
 7329SOL    HW122886   4.552   3.671   1.621
 7329SOL    HW222887   4.449   3.723   1.737
 7330SOL     OW22888   4.136   2.130   0.999
 7330SOL    HW122889   4.137   2.031   1.006
 7330SOL    HW222890   4.226   2.162   0.968
 7331SOL     OW22891   6.637   1.296   1.195
 7331SOL    HW122892   6.589   1.374   1.236
 7331SOL    HW222893   6.694   1.252   1.264
 7332SOL     OW22894   3.447   6.715   0.249
 7332SOL    HW122895   3.465   6.620   0.275
 7332SOL    HW222896   3.384   6.756   0.316
 7333SOL     OW22897   0.150   4.662   2.114
 7333SOL    HW122898   0.065   4.625   2.152
 7333SOL    HW222899   0.223   4.595   2.126
 7334SOL     OW22900   3.168   0.355   4.151
 7334SOL    HW122901   3.230   0.433   4.149
 7334SOL    HW222902   3.176   0.309   4.239
 7335SOL     OW22903   1.916   3.148   3.256
 7335SOL    HW122904   1.953   3.093   3.181
 7335SOL    HW222905   1.986   3.158   3.327
 7336SOL     OW22906   1.369   6.010   4.578
 7336SOL    HW122907   1.320   5.975   4.658
 7336SOL    HW222908   1.383   6.108   4.589
 7337SOL     OW22909   4.971   2.462   1.352
 7337SOL    HW122910   4.906   2.417   1.290
 7337SOL    HW222911   5.056   2.480   1.304
 7338SOL     OW22912   0.627   3.866   0.578
 7338SOL    HW122913   0.702   3.822   0.627
 7338SOL    HW222914   0.540   3.843   0.622
 7339SOL     OW22915   1.757   5.532   5.140
 7339SOL    HW122916   1.719   5.493   5.057
 7339SOL    HW222917   1.758   5.632   5.133
 7340SOL     OW22918   3.272   6.675   6.528
 7340SOL    HW122919   3.243   6.584   6.500
 7340SOL    HW222920   3.357   6.669   6.581
 7341SOL     OW22921   5.897   2.123   0.267
 7341SOL    HW122922   5.939   2.176   0.193
 7341SOL    HW222923   5.898   2.177   0.352
 7342SOL     OW22924   0.282   6.242   1.780
 7342SOL    HW122925   0.367   6.212   1.823
 7342SOL    HW222926   0.290   6.234   1.681
 7343SOL     OW22927   6.589   3.055   0.476
 7343SOL    HW122928   6.633   3.023   0.392
 7343SOL    HW222929   6.580   3.155   0.473
 7344SOL     OW22930   2.619   0.491   5.769
 7344SOL    HW122931   2.672   0.514   5.850
 7344SOL    HW222932   2.620   0.391   5.756
 7345SOL     OW22933   3.924   5.756   6.339
 7345SOL    HW122934   3.880   5.844   6.319
 7345SOL    HW222935   4.006   5.747   6.282
 7346SOL     OW22936   4.399   5.040   2.077
 7346SOL    HW122937   4.386   5.139   2.081
 7346SOL    HW222938   4.424   5.006   2.168
 7347SOL     OW22939   4.871   0.626   6.043
 7347SOL    HW122940   4.891   0.583   5.955
 7347SOL    HW222941   4.863   0.556   6.114
 7348SOL     OW22942   0.319   6.015   0.420
 7348SOL    HW122943   0.245   5.997   0.355
 7348SOL    HW222944   0.375   5.934   0.430
 7349SOL     OW22945   4.543   1.213   1.347
 7349SOL    HW122946   4.593   1.246   1.428
 7349SOL    HW222947   4.601   1.221   1.266
 7350SOL     OW22948   3.462   1.302   5.204
 7350SOL    HW122949   3.504   1.221   5.164
 7350SOL    HW222950   3.492   1.384   5.154
 7351SOL     OW22951   2.423   4.887   4.949
 7351SOL    HW122952   2.493   4.955   4.969
 7351SOL    HW222953   2.370   4.916   4.869
 7352SOL     OW22954   6.106   3.075   4.133
 7352SOL    HW122955   6.021   3.031   4.161
 7352SOL    HW222956   6.175   3.065   4.204
 7353SOL     OW22957   6.859   2.436   5.828
 7353SOL    HW122958   6.907   2.403   5.747
 7353SOL    HW222959   6.774   2.481   5.800
 7354SOL     OW22960   0.887   1.904   2.723
 7354SOL    HW122961   0.981   1.877   2.743
 7354SOL    HW222962   0.885   2.002   2.702
 7355SOL     OW22963   3.385   1.822   0.561
 7355SOL    HW122964   3.395   1.907   0.613
 7355SOL    HW222965   3.454   1.819   0.489
 7356SOL     OW22966   3.797   4.937   6.138
 7356SOL    HW122967   3.781   4.961   6.234
 7356SOL    HW222968   3.869   4.995   6.101
 7357SOL     OW22969   4.530   6.571   2.325
 7357SOL    HW122970   4.541   6.497   2.258
 7357SOL    HW222971   4.443   6.559   2.373
 7358SOL     OW22972   4.486   0.170   2.907
 7358SOL    HW122973   4.561   0.137   2.849
 7358SOL    HW222974   4.523   0.196   2.997
 7359SOL     OW22975   3.718   0.084   2.280
 7359SOL    HW122976   3.704   0.059   2.184
 7359SOL    HW222977   3.770   0.012   2.326
 7360SOL     OW22978   2.558   3.950   6.451
 7360SOL    HW122979   2.504   3.871   6.480
 7360SOL    HW222980   2.607   3.928   6.367
 7361SOL     OW22981   5.984   0.674   3.543
 7361SOL    HW122982   5.958   0.747   3.607
 7361SOL    HW222983   6.074   0.693   3.505
 7362SOL     OW22984   3.754   5.862   0.785
 7362SOL    HW122985   3.835   5.915   0.813
 7362SOL    HW222986   3.671   5.908   0.817
 7363SOL     OW22987   4.551   0.390   1.005
 7363SOL    HW122988   4.475   0.332   0.976
 7363SOL    HW222989   4.638   0.349   0.975
 7364SOL     OW22990   5.562   5.710   2.001
 7364SOL    HW122991   5.620   5.792   2.000
 7364SOL    HW222992   5.468   5.736   1.977
 7365SOL     OW22993   4.861   3.658   1.980
 7365SOL    HW122994   4.831   3.738   1.928
 7365SOL    HW222995   4.855   3.576   1.923
 7366SOL     OW22996   2.400   6.446   3.331
 7366SOL    HW122997   2.309   6.469   3.297
 7366SOL    HW222998   2.396   6.430   3.430
 7367SOL     OW22999   4.510   1.154   0.235
 7367SOL    HW123000   4.439   1.158   0.165
 7367SOL    HW223001   4.574   1.080   0.214
 7368SOL     OW23002   3.119   3.926   3.080
 7368SOL    HW123003   3.195   3.872   3.044
 7368SOL    HW223004   3.035   3.871   3.075
 7369SOL     OW23005   5.573   3.546   6.994
 7369SOL    HW123006   5.629   3.478   0.020
 7369SOL    HW223007   5.477   3.530   7.014
 7370SOL     OW23008   2.319   1.196   3.990
 7370SOL    HW123009   2.365   1.154   4.068
 7370SOL    HW223010   2.296   1.126   3.923
 7371SOL     OW23011   4.011   0.163   3.926
 7371SOL    HW123012   4.104   0.184   3.956
 7371SOL    HW223013   4.015   0.106   3.844
 7372SOL     OW23014   3.792   1.496   5.605
 7372SOL    HW123015   3.792   1.439   5.687
 7372SOL    HW223016   3.698   1.511   5.574
 7373SOL     OW23017   6.452   3.030   4.188
 7373SOL    HW123018   6.513   2.958   4.220
 7373SOL    HW223019   6.456   3.108   4.251
 7374SOL     OW23020   6.842   3.359   6.422
 7374SOL    HW123021   6.873   3.278   6.472
 7374SOL    HW223022   6.790   3.331   6.341
 7375SOL     OW23023   1.936   2.416   1.408
 7375SOL    HW123024   1.872   2.339   1.409
 7375SOL    HW223025   1.995   2.409   1.328
 7376SOL     OW23026   6.291   5.241   0.428
 7376SOL    HW123027   6.380   5.235   0.381
 7376SOL    HW223028   6.234   5.310   0.383
 7377SOL     OW23029   2.817   5.980   0.983
 7377SOL    HW123030   2.807   5.894   1.032
 7377SOL    HW223031   2.728   6.025   0.977
 7378SOL     OW23032   2.421   4.966   5.873
 7378SOL    HW123033   2.488   4.924   5.935
 7378SOL    HW223034   2.463   4.977   5.783
 7379SOL     OW23035   5.276   2.455   2.506
 7379SOL    HW123036   5.250   2.395   2.581
 7379SOL    HW223037   5.230   2.426   2.422
 7380SOL     OW23038   5.168   3.608   1.309
 7380SOL    HW123039   5.252   3.570   1.348
 7380SOL    HW223040   5.092   3.545   1.324
 7381SOL     OW23041   3.674   0.140   1.455
 7381SOL    HW123042   3.576   0.127   1.469
 7381SOL    HW223043   3.716   0.053   1.428
 7382SOL     OW23044   0.413   2.772   0.054
 7382SOL    HW123045   0.444   2.681   0.083
 7382SOL    HW223046   0.425   2.781   6.976
 7383SOL     OW23047   2.391   6.744   1.032
 7383SOL    HW123048   2.319   6.813   1.023
 7383SOL    HW223049   2.418   6.737   1.127
 7384SOL     OW23050   0.055   0.650   6.951
 7384SOL    HW123051   0.141   0.661   7.002
 7384SOL    HW223052   0.049   0.719   6.880
 7385SOL     OW23053   6.836   4.619   2.951
 7385SOL    HW123054   6.744   4.580   2.952
 7385SOL    HW223055   6.851   4.667   2.865
 7386SOL     OW23056   6.121   3.995   0.611
 7386SOL    HW123057   6.145   4.080   0.562
 7386SOL    HW223058   6.185   3.982   0.687
 7387SOL     OW23059   7.005   5.315   4.001
 7387SOL    HW123060   0.078   5.285   4.018
 7387SOL    HW223061   6.972   5.367   4.080
 7388SOL     OW23062   2.488   4.478   2.873
 7388SOL    HW123063   2.388   4.478   2.872
 7388SOL    HW223064   2.523   4.463   2.780
 7389SOL     OW23065   0.561   2.781   1.033
 7389SOL    HW123066   0.463   2.794   1.018
 7389SOL    HW223067   0.576   2.724   1.114
 7390SOL     OW23068   4.108   2.192   4.023
 7390SOL    HW123069   4.050   2.131   3.968
 7390SOL    HW223070   4.167   2.136   4.081
 7391SOL     OW23071   3.071   3.759   2.619
 7391SOL    HW123072   3.099   3.672   2.659
 7391SOL    HW223073   3.048   3.746   2.523
 7392SOL     OW23074   3.569   6.879   0.468
 7392SOL    HW123075   3.665   6.906   0.464
 7392SOL    HW223076   3.562   6.784   0.498
 7393SOL     OW23077   4.628   5.740   3.214
 7393SOL    HW123078   4.638   5.838   3.196
 7393SOL    HW223079   4.549   5.705   3.164
 7394SOL     OW23080   1.747   1.486   6.299
 7394SOL    HW123081   1.653   1.454   6.290
 7394SOL    HW223082   1.754   1.580   6.266
 7395SOL     OW23083   2.811   5.734   1.132
 7395SOL    HW123084   2.826   5.637   1.153
 7395SOL    HW223085   2.873   5.789   1.188
 7396SOL     OW23086   1.114   5.232   2.335
 7396SOL    HW123087   1.159   5.260   2.421
 7396SOL    HW223088   1.090   5.314   2.283
 7397SOL     OW23089   5.944   5.078   4.357
 7397SOL    HW123090   5.952   5.177   4.355
 7397SOL    HW223091   5.951   5.045   4.451
 7398SOL     OW23092   2.911   5.501   2.095
 7398SOL    HW123093   2.865   5.577   2.049
 7398SOL    HW223094   2.919   5.523   2.193
 7399SOL     OW23095   6.245   2.546   5.097
 7399SOL    HW123096   6.258   2.456   5.138
 7399SOL    HW223097   6.323   2.568   5.038
 7400SOL     OW23098   4.140   3.630   5.465
 7400SOL    HW123099   4.146   3.533   5.488
 7400SOL    HW223100   4.227   3.662   5.428
 7401SOL     OW23101   2.594   1.921   4.389
 7401SOL    HW123102   2.614   1.948   4.483
 7401SOL    HW223103   2.658   1.851   4.359
 7402SOL     OW23104   3.036   5.117   4.310
 7402SOL    HW123105   3.094   5.191   4.343
 7402SOL    HW223106   3.092   5.036   4.291
 7403SOL     OW23107   1.891   5.087   4.164
 7403SOL    HW123108   1.805   5.086   4.112
 7403SOL    HW223109   1.968   5.094   4.101
 7404SOL     OW23110   1.909   2.894   1.424
 7404SOL    HW123111   1.828   2.859   1.377
 7404SOL    HW223112   1.918   2.850   1.514
 7405SOL     OW23113   3.042   6.481   5.936
 7405SOL    HW123114   3.041   6.381   5.931
 7405SOL    HW223115   3.119   6.517   5.882
 7406SOL     OW23116   0.795   2.681   4.533
 7406SOL    HW123117   0.704   2.721   4.543
 7406SOL    HW223118   0.848   2.735   4.466
 7407SOL     OW23119   1.115   6.257   4.254
 7407SOL    HW123120   1.151   6.184   4.313
 7407SOL    HW223121   1.066   6.323   4.310
 7408SOL     OW23122   4.360   4.952   5.527
 7408SOL    HW123123   4.273   4.962   5.576
 7408SOL    HW223124   4.344   4.957   5.429
 7409SOL     OW23125   6.127   4.941   1.276
 7409SOL    HW123126   6.160   4.920   1.368
 7409SOL    HW223127   6.179   5.017   1.238
 7410SOL     OW23128   6.305   1.265   0.301
 7410SOL    HW123129   6.294   1.180   0.250
 7410SOL    HW223130   6.225   1.280   0.359
 7411SOL     OW23131   3.334   1.728   5.765
 7411SOL    HW123132   3.256   1.790   5.754
 7411SOL    HW223133   3.310   1.655   5.828
 7412SOL     OW23134   4.436   6.978   6.313
 7412SOL    HW123135   4.465   6.937   6.399
 7412SOL    HW223136   4.457   0.055   6.313
 7413SOL     OW23137   4.800   1.116   4.177
 7413SOL    HW123138   4.783   1.199   4.230
 7413SOL    HW223139   4.790   1.136   4.080
 7414SOL     OW23140   3.001   0.877   4.390
 7414SOL    HW123141   2.994   0.976   4.386
 7414SOL    HW223142   3.085   0.848   4.344
 7415SOL     OW23143   4.222   0.534   5.835
 7415SOL    HW123144   4.161   0.603   5.798
 7415SOL    HW223145   4.253   0.474   5.762
 7416SOL     OW23146   0.234   0.390   1.900
 7416SOL    HW123147   0.267   0.296   1.910
 7416SOL    HW223148   0.303   0.444   1.854
 7417SOL     OW23149   7.018   0.550   1.835
 7417SOL    HW123150   7.004   0.545   1.736
 7417SOL    HW223151   0.085   0.507   1.859
 7418SOL     OW23152   1.911   3.568   6.330
 7418SOL    HW123153   1.887   3.481   6.286
 7418SOL    HW223154   1.874   3.643   6.275
 7419SOL     OW23155   6.463   2.926   4.513
 7419SOL    HW123156   6.483   2.880   4.426
 7419SOL    HW223157   6.540   2.984   4.539
 7420SOL     OW23158   6.610   0.090   0.196
 7420SOL    HW123159   6.642   0.029   0.268
 7420SOL    HW223160   6.687   0.118   0.138
 7421SOL     OW23161   6.868   3.777   0.846
 7421SOL    HW123162   6.857   3.745   0.752
 7421SOL    HW223163   6.845   3.875   0.851
 7422SOL     OW23164   6.474   3.538   1.875
 7422SOL    HW123165   6.485   3.636   1.891
 7422SOL    HW223166   6.449   3.493   1.960
 7423SOL     OW23167   4.097   2.298   5.701
 7423SOL    HW123168   4.083   2.397   5.694
 7423SOL    HW223169   4.009   2.251   5.693
 7424SOL     OW23170   0.464   1.788   4.242
 7424SOL    HW123171   0.450   1.856   4.314
 7424SOL    HW223172   0.561   1.780   4.222
 7425SOL     OW23173   5.365   0.301   0.773
 7425SOL    HW123174   5.435   0.357   0.729
 7425SOL    HW223175   5.377   0.304   0.872
 7426SOL     OW23176   3.830   3.549   5.281
 7426SOL    HW123177   3.919   3.541   5.327
 7426SOL    HW223178   3.774   3.617   5.329
 7427SOL     OW23179   2.639   0.761   1.663
 7427SOL    HW123180   2.696   0.819   1.721
 7427SOL    HW223181   2.642   0.796   1.569
 7428SOL     OW23182   1.413   6.791   5.154
 7428SOL    HW123183   1.478   6.798   5.078
 7428SOL    HW223184   1.433   6.708   5.206
 7429SOL     OW23185   1.201   0.253   2.217
 7429SOL    HW123186   1.262   0.328   2.244
 7429SOL    HW223187   1.106   0.284   2.221
 7430SOL     OW23188   6.429   3.974   2.283
 7430SOL    HW123189   6.511   3.931   2.320
 7430SOL    HW223190   6.438   3.983   2.184
 7431SOL     OW23191   1.212   2.687   4.548
 7431SOL    HW123192   1.305   2.651   4.540
 7431SOL    HW223193   1.204   2.739   4.633
 7432SOL     OW23194   1.214   0.894   2.629
 7432SOL    HW123195   1.224   0.973   2.569
 7432SOL    HW223196   1.296   0.885   2.686
 7433SOL     OW23197   3.622   0.158   6.216
 7433SOL    HW123198   3.623   0.187   6.312
 7433SOL    HW223199   3.695   0.091   6.202
 7434SOL     OW23200   4.040   6.783   3.936
 7434SOL    HW123201   4.000   6.805   3.847
 7434SOL    HW223202   3.974   6.805   4.008
 7435SOL     OW23203   5.233   4.830   3.082
 7435SOL    HW123204   5.153   4.876   3.121
 7435SOL    HW223205   5.313   4.889   3.091
 7436SOL     OW23206   4.436   2.948   6.237
 7436SOL    HW123207   4.454   2.965   6.334
 7436SOL    HW223208   4.394   3.030   6.197
 7437SOL     OW23209   3.852   0.277   1.647
 7437SOL    HW123210   3.807   0.214   1.584
 7437SOL    HW223211   3.853   0.369   1.607
 7438SOL     OW23212   1.955   1.063   6.793
 7438SOL    HW123213   1.944   1.163   6.792
 7438SOL    HW223214   1.866   1.020   6.804
 7439SOL     OW23215   1.517   4.157   6.057
 7439SOL    HW123216   1.426   4.161   6.098
 7439SOL    HW223217   1.509   4.139   5.959
 7440SOL     OW23218   5.825   2.301   4.470
 7440SOL    HW123219   5.774   2.384   4.493
 7440SOL    HW223220   5.785   2.223   4.519
 7441SOL     OW23221   4.329   6.767   0.446
 7441SOL    HW123222   4.409   6.725   0.489
 7441SOL    HW223223   4.358   6.831   0.376
 7442SOL     OW23224   6.571   1.482   6.346
 7442SOL    HW123225   6.560   1.410   6.414
 7442SOL    HW223226   6.561   1.443   6.254
 7443SOL     OW23227   6.931   6.673   0.383
 7443SOL    HW123228   6.873   6.602   0.421
 7443SOL    HW223229   0.006   6.646   0.391
 7444SOL     OW23230   1.122   5.936   6.438
 7444SOL    HW123231   1.222   5.936   6.448
 7444SOL    HW223232   1.097   6.001   6.366
 7445SOL     OW23233   3.939   6.015   2.465
 7445SOL    HW123234   3.996   6.058   2.535
 7445SOL    HW223235   3.877   6.082   2.425
 7446SOL     OW23236   6.625   4.976   0.401
 7446SOL    HW123237   6.571   4.937   0.327
 7446SOL    HW223238   6.669   4.903   0.453
 7447SOL     OW23239   0.554   5.570   0.965
 7447SOL    HW123240   0.602   5.583   0.878
 7447SOL    HW223241   0.466   5.525   0.948
 7448SOL     OW23242   5.019   4.830   0.040
 7448SOL    HW123243   5.071   4.877   6.990
 7448SOL    HW223244   4.953   4.768   7.017
 7449SOL     OW23245   6.509   3.500   6.383
 7449SOL    HW123246   6.454   3.432   6.431
 7449SOL    HW223247   6.567   3.453   6.316
 7450SOL     OW23248   5.164   3.360   0.606
 7450SOL    HW123249   5.172   3.459   0.594
 7450SOL    HW223250   5.116   3.340   0.692
 7451SOL     OW23251   4.478   4.949   3.062
 7451SOL    HW123252   4.512   4.940   3.156
 7451SOL    HW223253   4.470   5.045   3.039
 7452SOL     OW23254   6.552   6.081   6.707
 7452SOL    HW123255   6.650   6.080   6.728
 7452SOL    HW223256   6.525   6.174   6.681
 7453SOL     OW23257   4.536   5.067   6.362
 7453SOL    HW123258   4.502   4.975   6.378
 7453SOL    HW223259   4.521   5.123   6.444
 7454SOL     OW23260   4.033   1.843   1.351
 7454SOL    HW123261   3.999   1.931   1.384
 7454SOL    HW223262   4.092   1.803   1.421
 7455SOL     OW23263   6.662   0.414   2.547
 7455SOL    HW123264   6.566   0.437   2.562
 7455SOL    HW223265   6.717   0.497   2.545
 7456SOL     OW23266   2.968   0.851   5.563
 7456SOL    HW123267   2.978   0.912   5.642
 7456SOL    HW223268   2.886   0.795   5.574
 7457SOL     OW23269   1.386   1.604   2.393
 7457SOL    HW123270   1.347   1.694   2.371
 7457SOL    HW223271   1.422   1.563   2.309
 7458SOL     OW23272   0.247   5.977   5.181
 7458SOL    HW123273   0.175   5.919   5.142
 7458SOL    HW223274   0.222   6.073   5.172
 7459SOL     OW23275   5.825   6.688   3.105
 7459SOL    HW123276   5.752   6.733   3.156
 7459SOL    HW223277   5.856   6.748   3.032
 7460SOL     OW23278   0.504   0.477   1.084
 7460SOL    HW123279   0.536   0.387   1.115
 7460SOL    HW223280   0.420   0.466   1.033
 7461SOL     OW23281   1.803   4.778   5.517
 7461SOL    HW123282   1.774   4.693   5.561
 7461SOL    HW223283   1.885   4.762   5.463
 7462SOL     OW23284   2.035   4.444   7.020
 7462SOL    HW123285   1.989   4.371   6.969
 7462SOL    HW223286   2.134   4.433   7.013
 7463SOL     OW23287   4.829   4.753   0.682
 7463SOL    HW123288   4.907   4.708   0.724
 7463SOL    HW223289   4.756   4.765   0.750
 7464SOL     OW23290   5.172   5.218   5.449
 7464SOL    HW123291   5.195   5.313   5.426
 7464SOL    HW223292   5.207   5.157   5.378
 7465SOL     OW23293   1.452   3.634   6.485
 7465SOL    HW123294   1.471   3.562   6.551
 7465SOL    HW223295   1.537   3.667   6.445
 7466SOL     OW23296   0.236   0.009   5.706
 7466SOL    HW123297   0.190   6.942   5.723
 7466SOL    HW223298   0.227   0.033   5.610
 7467SOL     OW23299   1.008   3.338   3.908
 7467SOL    HW123300   1.074   3.264   3.915
 7467SOL    HW223301   0.979   3.348   3.813
 7468SOL     OW23302   6.223   2.581   4.660
 7468SOL    HW123303   6.132   2.557   4.693
 7468SOL    HW223304   6.226   2.679   4.641
 7469SOL     OW23305   0.040   2.026   0.026
 7469SOL    HW123306   0.043   2.126   0.029
 7469SOL    HW223307   0.133   1.990   0.024
 7470SOL     OW23308   5.098   3.283   3.916
 7470SOL    HW123309   5.042   3.264   3.835
 7470SOL    HW223310   5.076   3.217   3.987
 7471SOL     OW23311   3.315   6.854   6.141
 7471SOL    HW123312   3.247   6.803   6.195
 7471SOL    HW223313   3.309   6.951   6.165
 7472SOL     OW23314   6.673   0.186   5.571
 7472SOL    HW123315   6.659   0.278   5.607
 7472SOL    HW223316   6.731   0.191   5.489
 7473SOL     OW23317   4.336   6.889   3.152
 7473SOL    HW123318   4.400   6.911   3.227
 7473SOL    HW223319   4.282   6.970   3.130
 7474SOL     OW23320   6.084   2.327   1.443
 7474SOL    HW123321   6.103   2.345   1.347
 7474SOL    HW223322   6.039   2.407   1.484
 7475SOL     OW23323   5.257   3.022   1.291
 7475SOL    HW123324   5.321   3.065   1.228
 7475SOL    HW223325   5.168   3.067   1.285
 7476SOL     OW23326   2.550   1.751   2.585
 7476SOL    HW123327   2.486   1.825   2.565
 7476SOL    HW223328   2.555   1.689   2.507
 7477SOL     OW23329   2.525   3.579   5.934
 7477SOL    HW123330   2.463   3.503   5.918
 7477SOL    HW223331   2.578   3.598   5.851
 7478SOL     OW23332   0.492   2.734   6.533
 7478SOL    HW123333   0.564   2.778   6.479
 7478SOL    HW223334   0.464   2.649   6.488
 7479SOL     OW23335   5.808   2.410   1.868
 7479SOL    HW123336   5.768   2.368   1.950
 7479SOL    HW223337   5.777   2.362   1.787
 7480SOL     OW23338   3.935   6.046   2.083
 7480SOL    HW123339   4.012   5.986   2.061
 7480SOL    HW223340   3.947   6.133   2.035
 7481SOL     OW23341   0.363   4.384   6.991
 7481SOL    HW123342   0.337   4.471   6.949
 7481SOL    HW223343   0.416   4.330   6.926
 7482SOL     OW23344   3.986   1.646   4.908
 7482SOL    HW123345   4.055   1.683   4.970
 7482SOL    HW223346   3.902   1.700   4.917
 7483SOL     OW23347   5.921   1.035   5.935
 7483SOL    HW123348   5.938   0.942   5.902
 7483SOL    HW223349   5.908   1.096   5.857
 7484SOL     OW23350   2.354   6.751   4.937
 7484SOL    HW123351   2.347   6.714   4.845
 7484SOL    HW223352   2.361   6.851   4.932
 7485SOL     OW23353   3.927   0.212   6.890
 7485SOL    HW123354   3.962   0.137   6.834
 7485SOL    HW223355   3.998   0.243   6.953
 7486SOL     OW23356   4.410   6.159   0.915
 7486SOL    HW123357   4.441   6.254   0.922
 7486SOL    HW223358   4.416   6.129   0.820
 7487SOL     OW23359   3.347   6.257   4.544
 7487SOL    HW123360   3.334   6.320   4.468
 7487SOL    HW223361   3.263   6.204   4.559
 7488SOL     OW23362   1.979   5.903   3.629
 7488SOL    HW123363   1.907   5.870   3.690
 7488SOL    HW223364   1.999   5.832   3.561
 7489SOL     OW23365   4.627   3.589   6.089
 7489SOL    HW123366   4.611   3.491   6.080
 7489SOL    HW223367   4.601   3.618   6.181
 7490SOL     OW23368   2.096   2.251   1.201
 7490SOL    HW123369   2.155   2.219   1.127
 7490SOL    HW223370   2.072   2.173   1.261
 7491SOL     OW23371   4.558   3.950   6.651
 7491SOL    HW123372   4.573   4.007   6.732
 7491SOL    HW223373   4.528   3.859   6.679
 7492SOL     OW23374   1.520   1.308   3.143
 7492SOL    HW123375   1.452   1.301   3.069
 7492SOL    HW223376   1.565   1.397   3.138
 7493SOL     OW23377   6.116   4.827   4.552
 7493SOL    HW123378   6.111   4.824   4.452
 7493SOL    HW223379   6.032   4.790   4.591
 7494SOL     OW23380   5.923   1.086   2.089
 7494SOL    HW123381   5.861   1.107   2.014
 7494SOL    HW223382   5.931   0.987   2.099
 7495SOL     OW23383   1.565   3.268   4.300
 7495SOL    HW123384   1.663   3.288   4.291
 7495SOL    HW223385   1.523   3.335   4.361
 7496SOL     OW23386   5.765   3.023   3.296
 7496SOL    HW123387   5.785   2.928   3.318
 7496SOL    HW223388   5.672   3.046   3.324
 7497SOL     OW23389   6.019   0.594   0.911
 7497SOL    HW123390   6.113   0.623   0.930
 7497SOL    HW223391   6.018   0.535   0.830
 7498SOL     OW23392   2.217   6.188   3.173
 7498SOL    HW123393   2.202   6.189   3.074
 7498SOL    HW223394   2.292   6.126   3.195
 7499SOL     OW23395   2.881   1.355   3.264
 7499SOL    HW123396   2.946   1.404   3.321
 7499SOL    HW223397   2.819   1.420   3.220
 7500SOL     OW23398   3.665   1.424   4.864
 7500SOL    HW123399   3.634   1.495   4.801
 7500SOL    HW223400   3.599   1.349   4.865
 7501SOL     OW23401   5.879   2.093   3.951
 7501SOL    HW123402   5.903   2.181   3.993
 7501SOL    HW223403   5.817   2.043   4.012
 7502SOL     OW23404   3.732   1.321   3.755
 7502SOL    HW123405   3.730   1.338   3.853
 7502SOL    HW223406   3.770   1.231   3.737
 7503SOL     OW23407   1.128   5.616   0.885
 7503SOL    HW123408   1.053   5.673   0.919
 7503SOL    HW223409   1.202   5.675   0.852
 7504SOL     OW23410   5.591   6.301   5.106
 7504SOL    HW123411   5.592   6.320   5.205
 7504SOL    HW223412   5.647   6.368   5.059
 7505SOL     OW23413   0.447   6.785   6.904
 7505SOL    HW123414   0.434   6.773   7.003
 7505SOL    HW223415   0.539   6.755   6.879
 7506SOL     OW23416   3.747   2.068   4.376
 7506SOL    HW123417   3.656   2.096   4.344
 7506SOL    HW223418   3.744   2.055   4.475
 7507SOL     OW23419   6.816   3.622   6.401
 7507SOL    HW123420   6.841   3.526   6.391
 7507SOL    HW223421   6.801   3.642   6.498
 7508SOL     OW23422   3.641   6.513   0.140
 7508SOL    HW123423   3.724   6.459   0.133
 7508SOL    HW223424   3.643   6.586   0.072
 7509SOL     OW23425   5.673   4.420   3.160
 7509SOL    HW123426   5.652   4.482   3.236
 7509SOL    HW223427   5.737   4.350   3.190
 7510SOL     OW23428   3.733   4.719   1.422
 7510SOL    HW123429   3.757   4.648   1.488
 7510SOL    HW223430   3.733   4.808   1.467
 7511SOL     OW23431   4.938   6.098   3.835
 7511SOL    HW123432   5.036   6.082   3.822
 7511SOL    HW223433   4.889   6.078   3.750
 7512SOL     OW23434   3.960   6.070   0.755
 7512SOL    HW123435   4.037   6.061   0.819
 7512SOL    HW223436   3.926   6.164   0.758
 7513SOL     OW23437   0.247   0.634   2.507
 7513SOL    HW123438   0.284   0.543   2.524
 7513SOL    HW223439   0.147   0.632   2.521
 7514SOL     OW23440   0.018   0.507   0.515
 7514SOL    HW123441   0.017   0.412   0.546
 7514SOL    HW223442   6.967   0.522   0.447
 7515SOL     OW23443   0.452   4.800   5.057
 7515SOL    HW123444   0.429   4.740   5.134
 7515SOL    HW223445   0.393   4.880   5.059
 7516SOL     OW23446   2.290   5.821   4.974
 7516SOL    HW123447   2.381   5.827   5.015
 7516SOL    HW223448   2.290   5.748   4.905
 7517SOL     OW23449   0.469   2.617   0.453
 7517SOL    HW123450   0.544   2.556   0.429
 7517SOL    HW223451   0.507   2.700   0.495
 7518SOL     OW23452   3.957   2.006   4.794
 7518SOL    HW123453   3.969   2.076   4.864
 7518SOL    HW223454   4.039   2.003   4.736
 7519SOL     OW23455   3.094   6.293   4.849
 7519SOL    HW123456   3.088   6.392   4.858
 7519SOL    HW223457   3.167   6.258   4.908
 7520SOL     OW23458   1.899   0.707   0.703
 7520SOL    HW123459   1.997   0.705   0.681
 7520SOL    HW223460   1.886   0.749   0.792
 7521SOL     OW23461   4.543   1.539   5.700
 7521SOL    HW123462   4.465   1.556   5.640
 7521SOL    HW223463   4.510   1.518   5.792
 7522SOL     OW23464   1.540   6.699   4.288
 7522SOL    HW123465   1.639   6.681   4.288
 7522SOL    HW223466   1.507   6.699   4.194
 7523SOL     OW23467   5.814   1.776   6.851
 7523SOL    HW123468   5.726   1.777   6.897
 7523SOL    HW223469   5.853   1.867   6.851
 7524SOL     OW23470   0.083   3.948   4.889
 7524SOL    HW123471   0.176   3.917   4.870
 7524SOL    HW223472   0.085   4.024   4.954
 7525SOL     OW23473   2.773   4.833   5.773
 7525SOL    HW123474   2.735   4.757   5.721
 7525SOL    HW223475   2.739   4.919   5.735
 7526SOL     OW23476   1.102   4.034   0.774
 7526SOL    HW123477   1.021   3.981   0.797
 7526SOL    HW223478   1.181   3.999   0.824
 7527SOL     OW23479   3.214   5.579   2.641
 7527SOL    HW123480   3.262   5.492   2.631
 7527SOL    HW223481   3.116   5.561   2.654
 7528SOL     OW23482   6.701   2.730   0.203
 7528SOL    HW123483   6.733   2.643   0.238
 7528SOL    HW223484   6.744   2.805   0.254
 7529SOL     OW23485   5.919   2.918   4.641
 7529SOL    HW123486   5.934   2.819   4.649
 7529SOL    HW223487   5.969   2.952   4.561
 7530SOL     OW23488   2.023   2.142   3.190
 7530SOL    HW123489   1.979   2.053   3.192
 7530SOL    HW223490   2.059   2.164   3.280
 7531SOL     OW23491   4.620   1.785   3.876
 7531SOL    HW123492   4.649   1.812   3.784
 7531SOL    HW223493   4.609   1.866   3.933
 7532SOL     OW23494   4.374   4.848   6.607
 7532SOL    HW123495   4.322   4.778   6.558
 7532SOL    HW223496   4.356   4.842   6.705
 7533SOL     OW23497   4.436   4.652   1.118
 7533SOL    HW123498   4.477   4.563   1.139
 7533SOL    HW223499   4.382   4.646   1.034
 7534SOL     OW23500   4.442   6.158   4.709
 7534SOL    HW123501   4.423   6.254   4.731
 7534SOL    HW223502   4.369   6.101   4.745
 7535SOL     OW23503   0.243   6.808   4.648
 7535SOL    HW123504   0.234   6.811   4.549
 7535SOL    HW223505   0.197   6.888   4.688
 7536SOL     OW23506   5.967   0.132   2.900
 7536SOL    HW123507   5.962   0.108   2.802
 7536SOL    HW223508   6.047   0.190   2.916
 7537SOL     OW23509   2.302   0.812   2.149
 7537SOL    HW123510   2.272   0.875   2.221
 7537SOL    HW223511   2.235   0.739   2.138
 7538SOL     OW23512   0.051   4.517   0.069
 7538SOL    HW123513   0.095   4.443   0.120
 7538SOL    HW223514   0.086   4.605   0.100
 7539SOL     OW23515   6.525   0.316   4.804
 7539SOL    HW123516   6.521   0.305   4.705
 7539SOL    HW223517   6.616   0.346   4.831
 7540SOL     OW23518   5.530   3.677   3.497
 7540SOL    HW123519   5.504   3.585   3.467
 7540SOL    HW223520   5.448   3.730   3.519
 7541SOL     OW23521   2.258   3.818   0.031
 7541SOL    HW123522   2.225   3.739   7.001
 7541SOL    HW223523   2.304   3.881   6.988
 7542SOL     OW23524   6.231   5.846   4.581
 7542SOL    HW123525   6.204   5.887   4.668
 7542SOL    HW223526   6.164   5.779   4.552
 7543SOL     OW23527   2.296   0.535   0.629
 7543SOL    HW123528   2.274   0.613   0.570
 7543SOL    HW223529   2.393   0.512   0.620
 7544SOL     OW23530   6.121   1.612   4.984
 7544SOL    HW123531   6.144   1.597   4.888
 7544SOL    HW223532   6.036   1.566   5.006
 7545SOL     OW23533   1.075   5.503   4.911
 7545SOL    HW123534   1.061   5.552   4.825
 7545SOL    HW223535   1.037   5.411   4.902
 7546SOL     OW23536   2.359   2.956   1.731
 7546SOL    HW123537   2.292   2.969   1.658
 7546SOL    HW223538   2.451   2.971   1.695
 7547SOL     OW23539   3.902   0.321   1.910
 7547SOL    HW123540   3.958   0.242   1.937
 7547SOL    HW223541   3.876   0.312   1.814
 7548SOL     OW23542   2.317   2.046   6.325
 7548SOL    HW123543   2.232   2.034   6.273
 7548SOL    HW223544   2.356   2.135   6.305
 7549SOL     OW23545   5.026   0.469   4.983
 7549SOL    HW123546   4.977   0.543   4.936
 7549SOL    HW223547   5.002   0.469   5.080
 7550SOL     OW23548   2.747   5.747   5.029
 7550SOL    HW123549   2.807   5.766   5.108
 7550SOL    HW223550   2.659   5.712   5.062
 7551SOL     OW23551   6.358   3.304   6.219
 7551SOL    HW123552   6.386   3.211   6.245
 7551SOL    HW223553   6.409   3.332   6.137
 7552SOL     OW23554   2.796   6.489   4.240
 7552SOL    HW123555   2.886   6.464   4.276
 7552SOL    HW223556   2.801   6.579   4.197
 7553SOL     OW23557   6.294   0.026   5.329
 7553SOL    HW123558   6.211   0.081   5.340
 7553SOL    HW223559   6.322   0.026   5.233
 7554SOL     OW23560   4.925   1.573   1.886
 7554SOL    HW123561   4.907   1.587   1.984
 7554SOL    HW223562   5.018   1.603   1.865
 7555SOL     OW23563   4.815   5.823   4.054
 7555SOL    HW123564   4.911   5.851   4.057
 7555SOL    HW223565   4.790   5.803   3.959
 7556SOL     OW23566   0.702   6.098   0.582
 7556SOL    HW123567   0.787   6.114   0.530
 7556SOL    HW223568   0.685   6.174   0.644
 7557SOL     OW23569   4.246   6.087   0.162
 7557SOL    HW123570   4.197   6.081   0.075
 7557SOL    HW223571   4.297   6.002   0.177
 7558SOL     OW23572   1.212   1.447   3.874
 7558SOL    HW123573   1.184   1.494   3.958
 7558SOL    HW223574   1.311   1.454   3.863
 7559SOL     OW23575   1.191   6.688   4.959
 7559SOL    HW123576   1.092   6.692   4.974
 7559SOL    HW223577   1.238   6.699   5.046
 7560SOL     OW23578   1.198   0.791   5.731
 7560SOL    HW123579   1.210   0.718   5.664
 7560SOL    HW223580   1.167   0.874   5.685
 7561SOL     OW23581   5.222   1.404   5.637
 7561SOL    HW123582   5.225   1.324   5.697
 7561SOL    HW223583   5.226   1.374   5.542
 7562SOL     OW23584   1.623   5.635   3.767
 7562SOL    HW123585   1.685   5.624   3.844
 7562SOL    HW223586   1.631   5.728   3.731
 7563SOL     OW23587   2.632   6.621   3.318
 7563SOL    HW123588   2.682   6.594   3.400
 7563SOL    HW223589   2.534   6.612   3.334
 7564SOL     OW23590   5.241   3.265   6.058
 7564SOL    HW123591   5.248   3.261   5.958
 7564SOL    HW223592   5.152   3.302   6.083
 7565SOL     OW23593   6.621   3.649   5.703
 7565SOL    HW123594   6.598   3.745   5.687
 7565SOL    HW223595   6.624   3.631   5.802
 7566SOL     OW23596   4.875   4.300   1.648
 7566SOL    HW123597   4.865   4.239   1.569
 7566SOL    HW223598   4.894   4.245   1.730
 7567SOL     OW23599   1.664   0.313   2.842
 7567SOL    HW123600   1.630   0.220   2.852
 7567SOL    HW223601   1.694   0.327   2.747
 7568SOL     OW23602   0.307   4.180   1.054
 7568SOL    HW123603   0.317   4.194   1.153
 7568SOL    HW223604   0.216   4.208   1.026
 7569SOL     OW23605   4.551   3.733   1.417
 7569SOL    HW123606   4.534   3.820   1.463
 7569SOL    HW223607   4.534   3.742   1.319
 7570SOL     OW23608   0.935   2.634   1.805
 7570SOL    HW123609   0.954   2.539   1.831
 7570SOL    HW223610   0.946   2.644   1.706
 7571SOL     OW23611   5.145   1.840   3.633
 7571SOL    HW123612   5.204   1.871   3.559
 7571SOL    HW223613   5.053   1.875   3.619
 7572SOL     OW23614   4.748   6.843   2.775
 7572SOL    HW123615   4.801   6.910   2.724
 7572SOL    HW223616   4.804   6.762   2.791
 7573SOL     OW23617   3.598   6.935   5.751
 7573SOL    HW123618   3.563   6.927   5.657
 7573SOL    HW223619   3.549   7.008   5.798
 7574SOL     OW23620   0.832   3.237   2.969
 7574SOL    HW123621   0.849   3.336   2.974
 7574SOL    HW223622   0.816   3.211   2.874
 7575SOL     OW23623   0.125   6.924   6.993
 7575SOL    HW123624   0.140   6.863   0.051
 7575SOL    HW223625   0.051   6.888   6.937
 7576SOL     OW23626   4.715   3.173   0.014
 7576SOL    HW123627   4.805   3.215   0.000
 7576SOL    HW223628   4.713   3.127   0.103
 7577SOL     OW23629   6.903   0.268   6.167
 7577SOL    HW123630   6.890   0.182   6.214
 7577SOL    HW223631   7.001   0.286   6.155
 7578SOL     OW23632   6.205   5.413   2.485
 7578SOL    HW123633   6.278   5.345   2.489
 7578SOL    HW223634   6.116   5.367   2.483
 7579SOL     OW23635   1.167   1.589   6.773
 7579SOL    HW123636   1.135   1.650   6.700
 7579SOL    HW223637   1.241   1.634   6.824
 7580SOL     OW23638   2.495   5.078   2.478
 7580SOL    HW123639   2.408   5.100   2.434
 7580SOL    HW223640   2.524   4.986   2.451
 7581SOL     OW23641   0.553   0.294   0.771
 7581SOL    HW123642   0.544   0.303   0.871
 7581SOL    HW223643   0.577   0.382   0.732
 7582SOL     OW23644   1.711   0.223   5.860
 7582SOL    HW123645   1.657   0.246   5.940
 7582SOL    HW223646   1.770   0.145   5.880
 7583SOL     OW23647   5.612   3.989   2.151
 7583SOL    HW123648   5.676   3.957   2.081
 7583SOL    HW223649   5.638   4.081   2.180
 7584SOL     OW23650   0.205   0.602   3.722
 7584SOL    HW123651   0.124   0.627   3.774
 7584SOL    HW223652   0.198   0.641   3.629
 7585SOL     OW23653   0.553   1.140   5.467
 7585SOL    HW123654   0.532   1.043   5.475
 7585SOL    HW223655   0.476   1.194   5.502
 7586SOL     OW23656   1.880   6.645   4.019
 7586SOL    HW123657   1.835   6.637   3.930
 7586SOL    HW223658   1.960   6.704   4.011
 7587SOL     OW23659   5.416   0.562   2.047
 7587SOL    HW123660   5.320   0.587   2.035
 7587SOL    HW223661   5.450   0.520   1.963
 7588SOL     OW23662   2.115   3.470   4.505
 7588SOL    HW123663   2.114   3.565   4.537
 7588SOL    HW223664   2.133   3.468   4.407
 7589SOL     OW23665   6.686   6.754   2.276
 7589SOL    HW123666   6.775   6.715   2.253
 7589SOL    HW223667   6.643   6.699   2.348
 7590SOL     OW23668   6.097   1.078   6.871
 7590SOL    HW123669   6.083   1.176   6.865
 7590SOL    HW223670   6.010   1.032   6.889
 7591SOL     OW23671   3.541   3.919   5.176
 7591SOL    HW123672   3.557   3.821   5.166
 7591SOL    HW223673   3.546   3.964   5.087
 7592SOL     OW23674   0.224   6.590   3.149
 7592SOL    HW123675   0.146   6.651   3.165
 7592SOL    HW223676   0.297   6.612   3.214
 7593SOL     OW23677   6.561   1.671   5.894
 7593SOL    HW123678   6.471   1.675   5.850
 7593SOL    HW223679   6.550   1.684   5.992
 7594SOL     OW23680   6.647   3.974   6.148
 7594SOL    HW123681   6.588   3.972   6.229
 7594SOL    HW223682   6.622   4.052   6.090
 7595SOL     OW23683   0.427   3.372   0.220
 7595SOL    HW123684   0.376   3.442   0.171
 7595SOL    HW223685   0.522   3.400   0.231
 7596SOL     OW23686   3.388   1.659   6.371
 7596SOL    HW123687   3.431   1.633   6.458
 7596SOL    HW223688   3.289   1.668   6.385
 7597SOL     OW23689   2.737   4.543   0.647
 7597SOL    HW123690   2.724   4.557   0.745
 7597SOL    HW223691   2.811   4.601   0.614
 7598SOL     OW23692   4.902   0.475   2.229
 7598SOL    HW123693   4.874   0.447   2.137
 7598SOL    HW223694   4.832   0.532   2.270
 7599SOL     OW23695   2.998   2.972   0.241
 7599SOL    HW123696   2.961   2.935   0.326
 7599SOL    HW223697   2.933   2.955   0.167
 7600SOL     OW23698   0.686   6.808   3.860
 7600SOL    HW123699   0.761   6.821   3.796
 7600SOL    HW223700   0.683   6.885   3.924
 7601SOL     OW23701   2.884   6.276   1.136
 7601SOL    HW123702   2.953   6.218   1.178
 7601SOL    HW223703   2.808   6.220   1.104
 7602SOL     OW23704   0.272   1.071   1.546
 7602SOL    HW123705   0.291   1.055   1.643
 7602SOL    HW223706   0.260   0.982   1.500
 7603SOL     OW23707   4.529   1.177   6.609
 7603SOL    HW123708   4.594   1.103   6.591
 7603SOL    HW223709   4.446   1.162   6.555
 7604SOL     OW23710   2.351   2.004   5.564
 7604SOL    HW123711   2.348   2.007   5.464
 7604SOL    HW223712   2.276   2.059   5.601
 7605SOL     OW23713   2.863   5.827   6.804
 7605SOL    HW123714   2.951   5.866   6.778
 7605SOL    HW223715   2.795   5.850   6.735
 7606SOL     OW23716   6.436   0.917   3.307
 7606SOL    HW123717   6.384   0.972   3.241
 7606SOL    HW223718   6.468   0.976   3.381
 7607SOL     OW23719   1.811   5.270   5.602
 7607SOL    HW123720   1.795   5.369   5.598
 7607SOL    HW223721   1.875   5.244   5.531
 7608SOL     OW23722   0.699   2.860   6.385
 7608SOL    HW123723   0.682   2.959   6.377
 7608SOL    HW223724   0.789   2.838   6.347
 7609SOL     OW23725   3.021   6.823   4.996
 7609SOL    HW123726   3.118   6.848   5.005
 7609SOL    HW223727   2.999   6.751   5.062
 7610SOL     OW23728   4.217   5.560   4.402
 7610SOL    HW123729   4.142   5.498   4.427
 7610SOL    HW223730   4.213   5.579   4.304
 7611SOL     OW23731   4.429   2.193   0.431
 7611SOL    HW123732   4.502   2.186   0.363
 7611SOL    HW223733   4.344   2.218   0.385
 7612SOL     OW23734   4.877   3.105   2.243
 7612SOL    HW123735   4.843   3.091   2.150
 7612SOL    HW223736   4.840   3.034   2.303
 7613SOL     OW23737   0.282   0.569   6.664
 7613SOL    HW123738   0.244   0.478   6.682
 7613SOL    HW223739   0.340   0.565   6.583
 7614SOL     OW23740   6.224   5.111   6.681
 7614SOL    HW123741   6.193   5.200   6.647
 7614SOL    HW223742   6.257   5.120   6.775
 7615SOL     OW23743   5.057   3.164   6.695
 7615SOL    HW123744   5.122   3.121   6.632
 7615SOL    HW223745   4.964   3.132   6.674
 7616SOL     OW23746   6.535   6.754   1.948
 7616SOL    HW123747   6.492   6.702   2.021
 7616SOL    HW223748   6.464   6.796   1.891
 7617SOL     OW23749   6.007   4.660   3.112
 7617SOL    HW123750   6.104   4.662   3.089
 7617SOL    HW223751   5.954   4.701   3.037
 7618SOL     OW23752   2.849   2.090   0.064
 7618SOL    HW123753   2.934   2.140   0.050
 7618SOL    HW223754   2.808   2.068   6.996
 7619SOL     OW23755   0.303   0.418   4.873
 7619SOL    HW123756   0.349   0.476   4.940
 7619SOL    HW223757   0.371   0.370   4.818
 7620SOL     OW23758   3.430   3.991   0.202
 7620SOL    HW123759   3.514   3.943   0.227
 7620SOL    HW223760   3.388   3.948   0.123
 7621SOL     OW23761   5.877   4.956   0.653
 7621SOL    HW123762   5.926   4.953   0.740
 7621SOL    HW223763   5.828   5.042   0.644
 7622SOL     OW23764   2.579   3.854   0.691
 7622SOL    HW123765   2.647   3.811   0.749
 7622SOL    HW223766   2.594   3.826   0.596
 7623SOL     OW23767   5.050   4.943   3.312
 7623SOL    HW123768   5.033   5.041   3.324
 7623SOL    HW223769   4.987   4.905   3.245
 7624SOL     OW23770   6.767   2.692   2.949
 7624SOL    HW123771   6.851   2.721   2.994
 7624SOL    HW223772   6.689   2.737   2.992
 7625SOL     OW23773   5.131   0.416   2.376
 7625SOL    HW123774   5.166   0.323   2.376
 7625SOL    HW223775   5.058   0.425   2.309
 7626SOL     OW23776   4.572   6.345   0.424
 7626SOL    HW123777   4.623   6.416   0.473
 7626SOL    HW223778   4.620   6.258   0.431
 7627SOL     OW23779   4.547   2.771   5.542
 7627SOL    HW123780   4.447   2.769   5.548
 7627SOL    HW223781   4.581   2.863   5.562
 7628SOL     OW23782   3.710   2.813   1.204
 7628SOL    HW123783   3.783   2.748   1.181
 7628SOL    HW223784   3.701   2.879   1.130
 7629SOL     OW23785   5.669   2.977   4.046
 7629SOL    HW123786   5.719   2.906   3.998
 7629SOL    HW223787   5.607   3.023   3.982
 7630SOL     OW23788   1.209   6.005   3.621
 7630SOL    HW123789   1.284   6.000   3.555
 7630SOL    HW223790   1.128   6.045   3.578
 7631SOL     OW23791   1.071   1.096   6.604
 7631SOL    HW123792   1.026   1.033   6.667
 7631SOL    HW223793   1.073   1.057   6.512
 7632SOL     OW23794   4.090   5.552   1.238
 7632SOL    HW123795   4.000   5.562   1.281
 7632SOL    HW223796   4.156   5.520   1.306
 7633SOL     OW23797   4.839   0.412   1.927
 7633SOL    HW123798   4.896   0.337   1.895
 7633SOL    HW223799   4.769   0.377   1.988
 7634SOL     OW23800   0.308   1.958   0.017
 7634SOL    HW123801   0.384   1.981   0.078
 7634SOL    HW223802   0.342   1.900   6.964
 7635SOL     OW23803   1.879   2.997   5.875
 7635SOL    HW123804   1.919   2.907   5.858
 7635SOL    HW223805   1.837   3.031   5.792
 7636SOL     OW23806   6.954   2.992   3.692
 7636SOL    HW123807   6.957   3.054   3.613
 7636SOL    HW223808   6.905   2.909   3.666
 7637SOL     OW23809   1.713   4.154   4.746
 7637SOL    HW123810   1.771   4.074   4.734
 7637SOL    HW223811   1.623   4.136   4.706
 7638SOL     OW23812   0.446   6.765   0.676
 7638SOL    HW123813   0.376   6.761   0.748
 7638SOL    HW223814   0.411   6.817   0.598
 7639SOL     OW23815   2.398   6.214   0.666
 7639SOL    HW123816   2.428   6.181   0.577
 7639SOL    HW223817   2.348   6.142   0.714
 7640SOL     OW23818   3.410   0.573   0.919
 7640SOL    HW123819   3.368   0.485   0.898
 7640SOL    HW223820   3.474   0.563   0.995
 7641SOL     OW23821   6.547   4.465   5.370
 7641SOL    HW123822   6.452   4.440   5.352
 7641SOL    HW223823   6.600   4.382   5.388
 7642SOL     OW23824   5.978   1.031   4.067
 7642SOL    HW123825   5.922   1.113   4.061
 7642SOL    HW223826   5.932   0.963   4.124
 7643SOL     OW23827   5.187   1.988   4.183
 7643SOL    HW123828   5.094   1.959   4.160
 7643SOL    HW223829   5.236   2.013   4.099
 7644SOL     OW23830   5.280   3.906   0.610
 7644SOL    HW123831   5.219   3.961   0.553
 7644SOL    HW223832   5.355   3.871   0.554
 7645SOL     OW23833   5.296   4.657   6.384
 7645SOL    HW123834   5.333   4.588   6.321
 7645SOL    HW223835   5.317   4.630   6.478
 7646SOL     OW23836   6.673   1.475   2.108
 7646SOL    HW123837   6.723   1.558   2.086
 7646SOL    HW223838   6.629   1.485   2.197
 7647SOL     OW23839   6.991   1.979   3.985
 7647SOL    HW123840   0.013   1.992   3.895
 7647SOL    HW223841   6.959   2.068   4.019
 7648SOL     OW23842   1.786   2.595   0.751
 7648SOL    HW123843   1.768   2.514   0.694
 7648SOL    HW223844   1.736   2.673   0.715
 7649SOL     OW23845   4.200   0.621   0.546
 7649SOL    HW123846   4.110   0.586   0.570
 7649SOL    HW223847   4.193   0.717   0.521
 7650SOL     OW23848   3.506   2.842   0.443
 7650SOL    HW123849   3.458   2.804   0.522
 7650SOL    HW223850   3.594   2.795   0.432
 7651SOL     OW23851   3.961   5.441   6.089
 7651SOL    HW123852   3.878   5.411   6.137
 7651SOL    HW223853   3.937   5.515   6.026
 7652SOL     OW23854   0.577   1.151   5.021
 7652SOL    HW123855   0.676   1.164   5.023
 7652SOL    HW223856   0.556   1.061   4.982
 7653SOL     OW23857   2.183   6.603   6.438
 7653SOL    HW123858   2.085   6.582   6.434
 7653SOL    HW223859   2.206   6.667   6.365
 7654SOL     OW23860   6.599   2.719   5.649
 7654SOL    HW123861   6.666   2.770   5.702
 7654SOL    HW223862   6.619   2.729   5.551
 7655SOL     OW23863   2.574   2.038   5.133
 7655SOL    HW123864   2.646   2.023   5.201
 7655SOL    HW223865   2.607   2.102   5.064
 7656SOL     OW23866   6.287   3.562   0.461
 7656SOL    HW123867   6.279   3.662   0.463
 7656SOL    HW223868   6.199   3.522   0.434
 7657SOL     OW23869   1.302   3.848   4.812
 7657SOL    HW123870   1.299   3.941   4.777
 7657SOL    HW223871   1.257   3.844   4.901
 7658SOL     OW23872   2.980   0.547   0.996
 7658SOL    HW123873   2.886   0.520   0.977
 7658SOL    HW223874   3.021   0.480   1.058
 7659SOL     OW23875   5.310   4.082   5.102
 7659SOL    HW123876   5.213   4.071   5.081
 7659SOL    HW223877   5.364   4.030   5.036
 7660SOL     OW23878   0.388   6.172   4.741
 7660SOL    HW123879   0.375   6.085   4.694
 7660SOL    HW223880   0.467   6.166   4.803
 7661SOL     OW23881   2.007   0.473   4.867
 7661SOL    HW123882   2.061   0.454   4.785
 7661SOL    HW223883   1.967   0.388   4.901
 7662SOL     OW23884   6.813   6.529   1.374
 7662SOL    HW123885   6.831   6.517   1.472
 7662SOL    HW223886   6.887   6.581   1.332
 7663SOL     OW23887   1.137   5.745   3.756
 7663SOL    HW123888   1.170   5.834   3.723
 7663SOL    HW223889   1.088   5.757   3.842
 7664SOL     OW23890   5.618   2.429   3.069
 7664SOL    HW123891   5.574   2.440   2.980
 7664SOL    HW223892   5.602   2.336   3.103
 7665SOL     OW23893   1.864   0.195   5.276
 7665SOL    HW123894   1.950   0.145   5.286
 7665SOL    HW223895   1.790   0.145   5.321
 7666SOL     OW23896   6.276   5.490   4.443
 7666SOL    HW123897   6.335   5.539   4.379
 7666SOL    HW223898   6.296   5.392   4.437
 7667SOL     OW23899   4.269   5.425   1.385
 7667SOL    HW123900   4.219   5.399   1.468
 7667SOL    HW223901   4.326   5.349   1.355
 7668SOL     OW23902   1.521   5.453   0.395
 7668SOL    HW123903   1.516   5.551   0.373
 7668SOL    HW223904   1.613   5.432   0.429
 7669SOL     OW23905   4.071   2.802   6.278
 7669SOL    HW123906   3.994   2.817   6.217
 7669SOL    HW223907   4.104   2.708   6.269
 7670SOL     OW23908   1.230   0.376   0.588
 7670SOL    HW123909   1.308   0.318   0.561
 7670SOL    HW223910   1.252   0.423   0.674
 7671SOL     OW23911   3.746   0.934   1.865
 7671SOL    HW123912   3.734   0.865   1.794
 7671SOL    HW223913   3.842   0.963   1.867
 7672SOL     OW23914   5.699   3.090   2.565
 7672SOL    HW123915   5.792   3.126   2.561
 7672SOL    HW223916   5.692   3.009   2.507
 7673SOL     OW23917   1.769   6.711   5.125
 7673SOL    HW123918   1.705   6.696   5.050
 7673SOL    HW223919   1.810   6.623   5.152
 7674SOL     OW23920   3.188   5.310   3.978
 7674SOL    HW123921   3.262   5.370   4.009
 7674SOL    HW223922   3.225   5.238   3.920
 7675SOL     OW23923   3.762   6.912   3.448
 7675SOL    HW123924   3.687   6.978   3.443
 7675SOL    HW223925   3.768   6.863   3.361
 7676SOL     OW23926   3.140   3.113   4.501
 7676SOL    HW123927   3.216   3.149   4.554
 7676SOL    HW223928   3.175   3.053   4.429
 7677SOL     OW23929   0.399   6.238   0.284
 7677SOL    HW123930   0.365   6.144   0.295
 7677SOL    HW223931   0.496   6.236   0.261
 7678SOL     OW23932   3.183   1.080   5.346
 7678SOL    HW123933   3.184   0.996   5.290
 7678SOL    HW223934   3.205   1.057   5.440
 7679SOL     OW23935   2.947   5.778   3.912
 7679SOL    HW123936   3.005   5.849   3.950
 7679SOL    HW223937   2.958   5.694   3.966
 7680SOL     OW23938   1.185   6.648   4.126
 7680SOL    HW123939   1.186   6.716   4.200
 7680SOL    HW223940   1.248   6.574   4.149
 7681SOL     OW23941   2.056   1.808   5.468
 7681SOL    HW123942   2.068   1.893   5.518
 7681SOL    HW223943   1.960   1.796   5.443
 7682SOL     OW23944   3.410   0.179   1.885
 7682SOL    HW123945   3.500   0.145   1.915
 7682SOL    HW223946   3.387   0.261   1.938
 7683SOL     OW23947   1.374   4.216   4.356
 7683SOL    HW123948   1.364   4.286   4.284
 7683SOL    HW223949   1.294   4.219   4.416
 7684SOL     OW23950   4.978   3.680   1.639
 7684SOL    HW123951   4.945   3.739   1.566
 7684SOL    HW223952   4.901   3.651   1.696
 7685SOL     OW23953   2.414   0.227   0.158
 7685SOL    HW123954   2.364   0.310   0.184
 7685SOL    HW223955   2.417   0.220   0.059
 7686SOL     OW23956   6.351   0.720   4.347
 7686SOL    HW123957   6.277   0.785   4.361
 7686SOL    HW223958   6.314   0.627   4.340
 7687SOL     OW23959   5.834   3.520   5.433
 7687SOL    HW123960   5.754   3.579   5.422
 7687SOL    HW223961   5.915   3.575   5.451
 7688SOL     OW23962   6.735   3.492   0.582
 7688SOL    HW123963   6.638   3.500   0.608
 7688SOL    HW223964   6.783   3.436   0.650
 7689SOL     OW23965   5.394   0.037   2.596
 7689SOL    HW123966   5.443   6.979   2.559
 7689SOL    HW223967   5.355   0.014   2.685
 7690SOL     OW23968   6.506   4.427   2.223
 7690SOL    HW123969   6.522   4.523   2.245
 7690SOL    HW223970   6.493   4.375   2.307
 7691SOL     OW23971   5.163   2.998   4.330
 7691SOL    HW123972   5.255   3.023   4.361
 7691SOL    HW223973   5.153   2.899   4.333
 7692SOL     OW23974   2.271   6.455   2.394
 7692SOL    HW123975   2.244   6.486   2.485
 7692SOL    HW223976   2.352   6.505   2.365
 7693SOL     OW23977   2.497   2.557   0.937
 7693SOL    HW123978   2.479   2.648   0.975
 7693SOL    HW223979   2.528   2.496   1.010
 7694SOL     OW23980   4.221   2.466   1.282
 7694SOL    HW123981   4.263   2.375   1.281
 7694SOL    HW223982   4.132   2.460   1.326
 7695SOL     OW23983   5.113   6.603   4.185
 7695SOL    HW123984   5.025   6.558   4.200
 7695SOL    HW223985   5.174   6.540   4.136
 7696SOL     OW23986   2.505   1.168   5.443
 7696SOL    HW123987   2.505   1.144   5.346
 7696SOL    HW223988   2.441   1.110   5.492
 7697SOL     OW23989   5.746   0.270   2.960
 7697SOL    HW123990   5.739   0.297   3.056
 7697SOL    HW223991   5.830   0.217   2.946
 7698SOL     OW23992   5.596   2.338   1.375
 7698SOL    HW123993   5.689   2.360   1.343
 7698SOL    HW223994   5.559   2.262   1.322
 7699SOL     OW23995   3.874   6.079   6.304
 7699SOL    HW123996   3.885   6.094   6.206
 7699SOL    HW223997   3.777   6.067   6.326
 7700SOL     OW23998   6.231   4.891   1.527
 7700SOL    HW123999   6.224   4.986   1.560
 7700SOL    HW224000   6.295   4.841   1.586
 7701SOL     OW24001   3.131   1.685   6.444
 7701SOL    HW124002   3.095   1.643   6.360
 7701SOL    HW224003   3.064   1.752   6.478
 7702SOL     OW24004   6.023   6.107   5.853
 7702SOL    HW124005   6.005   6.144   5.762
 7702SOL    HW224006   5.939   6.069   5.892
 7703SOL     OW24007   0.021   6.214   6.853
 7703SOL    HW124008   7.017   6.242   6.946
 7703SOL    HW224009   0.113   6.247   6.832
 7704SOL     OW24010   1.464   2.668   4.991
 7704SOL    HW124011   1.431   2.608   4.917
 7704SOL    HW224012   1.393   2.734   5.014
 7705SOL     OW24013   0.772   4.354   0.336
 7705SOL    HW124014   0.743   4.270   0.383
 7705SOL    HW224015   0.799   4.422   0.403
 7706SOL     OW24016   3.233   3.797   2.237
 7706SOL    HW124017   3.138   3.767   2.226
 7706SOL    HW224018   3.293   3.740   2.181
 7707SOL     OW24019   6.837   5.691   5.581
 7707SOL    HW124020   6.799   5.697   5.673
 7707SOL    HW224021   6.776   5.737   5.517
 7708SOL     OW24022   0.791   0.211   3.690
 7708SOL    HW124023   0.841   0.274   3.749
 7708SOL    HW224024   0.693   0.231   3.696
 7709SOL     OW24025   6.546   4.422   1.216
 7709SOL    HW124026   6.598   4.463   1.141
 7709SOL    HW224027   6.609   4.395   1.289
 7710SOL     OW24028   5.956   3.477   2.784
 7710SOL    HW124029   5.896   3.514   2.713
 7710SOL    HW224030   6.045   3.523   2.780
 7711SOL     OW24031   1.072   4.806   3.177
 7711SOL    HW124032   1.161   4.811   3.133
 7711SOL    HW224033   1.011   4.749   3.122
 7712SOL     OW24034   1.065   4.614   4.505
 7712SOL    HW124035   1.047   4.705   4.468
 7712SOL    HW224036   1.150   4.615   4.557
 7713SOL     OW24037   0.692   6.031   0.067
 7713SOL    HW124038   0.689   6.130   0.079
 7713SOL    HW224039   0.732   6.010   6.998
 7714SOL     OW24040   5.790   1.687   4.718
 7714SOL    HW124041   5.864   1.626   4.693
 7714SOL    HW224042   5.818   1.782   4.705
 7715SOL     OW24043   3.775   3.537   6.457
 7715SOL    HW124044   3.771   3.482   6.541
 7715SOL    HW224045   3.713   3.615   6.464
 7716SOL     OW24046   1.772   1.093   0.092
 7716SOL    HW124047   1.731   1.164   0.035
 7716SOL    HW224048   1.872   1.102   0.088
 7717SOL     OW24049   0.591   1.949   5.980
 7717SOL    HW124050   0.558   1.903   5.897
 7717SOL    HW224051   0.522   1.942   6.052
 7718SOL     OW24052   0.427   3.656   3.511
 7718SOL    HW124053   0.467   3.697   3.429
 7718SOL    HW224054   0.336   3.694   3.526
 7719SOL     OW24055   2.186   6.509   4.988
 7719SOL    HW124056   2.151   6.452   4.913
 7719SOL    HW224057   2.267   6.558   4.957
 7720SOL     OW24058   4.522   1.237   6.293
 7720SOL    HW124059   4.601   1.290   6.325
 7720SOL    HW224060   4.546   1.140   6.292
 7721SOL     OW24061   5.774   5.456   2.565
 7721SOL    HW124062   5.852   5.397   2.541
 7721SOL    HW224063   5.737   5.498   2.482
 7722SOL     OW24064   0.108   6.064   4.741
 7722SOL    HW124065   0.016   6.099   4.754
 7722SOL    HW224066   0.174   6.139   4.749
 7723SOL     OW24067   3.739   4.671   6.473
 7723SOL    HW124068   3.704   4.614   6.547
 7723SOL    HW224069   3.699   4.642   6.386
 7724SOL     OW24070   1.128   4.428   0.239
 7724SOL    HW124071   1.180   4.416   0.154
 7724SOL    HW224072   1.036   4.391   0.227
 7725SOL     OW24073   5.437   3.202   4.983
 7725SOL    HW124074   5.361   3.139   4.999
 7725SOL    HW224075   5.435   3.275   5.051
 7726SOL     OW24076   1.925   3.044   0.807
 7726SOL    HW124077   1.872   2.970   0.848
 7726SOL    HW224078   2.003   3.066   0.867
 7727SOL     OW24079   5.436   0.420   3.208
 7727SOL    HW124080   5.425   0.420   3.307
 7727SOL    HW224081   5.419   0.512   3.172
 7728SOL     OW24082   2.096   3.040   5.602
 7728SOL    HW124083   2.189   3.072   5.581
 7728SOL    HW224084   2.037   3.119   5.618
 7729SOL     OW24085   0.434   0.901   2.869
 7729SOL    HW124086   0.361   0.841   2.903
 7729SOL    HW224087   0.476   0.859   2.789
 7730SOL     OW24088   6.068   3.201   6.528
 7730SOL    HW124089   6.025   3.117   6.560
 7730SOL    HW224090   6.067   3.203   6.428
 7731SOL     OW24091   6.955   0.695   5.970
 7731SOL    HW124092   0.029   0.703   6.001
 7731SOL    HW224093   6.947   0.617   5.908
 7732SOL     OW24094   4.219   1.233   0.122
 7732SOL    HW124095   4.190   1.315   0.072
 7732SOL    HW224096   4.199   1.152   0.068
 7733SOL     OW24097   5.662   6.137   1.666
 7733SOL    HW124098   5.716   6.165   1.746
 7733SOL    HW224099   5.590   6.204   1.649
 7734SOL     OW24100   3.680   3.925   3.704
 7734SOL    HW124101   3.614   3.992   3.669
 7734SOL    HW224102   3.709   3.953   3.796
 7735SOL     OW24103   0.420   5.724   0.671
 7735SOL    HW124104   0.387   5.718   0.577
 7735SOL    HW224105   0.492   5.656   0.685
 7736SOL     OW24106   2.006   1.780   0.769
 7736SOL    HW124107   2.089   1.745   0.726
 7736SOL    HW224108   2.030   1.846   0.841
 7737SOL     OW24109   4.625   4.582   6.720
 7737SOL    HW124110   4.638   4.656   6.654
 7737SOL    HW224111   4.557   4.518   6.686
 7738SOL     OW24112   1.769   1.003   5.626
 7738SOL    HW124113   1.710   0.999   5.707
 7738SOL    HW224114   1.838   0.931   5.631
 7739SOL     OW24115   0.886   2.804   6.207
 7739SOL    HW124116   0.860   2.893   6.169
 7739SOL    HW224117   0.852   2.731   6.148
 7740SOL     OW24118   2.239   0.902   3.898
 7740SOL    HW124119   2.314   0.912   3.963
 7740SOL    HW224120   2.159   0.863   3.944
 7741SOL     OW24121   6.258   4.110   6.234
 7741SOL    HW124122   6.231   4.025   6.188
 7741SOL    HW224123   6.271   4.182   6.166
 7742SOL     OW24124   4.766   2.800   3.863
 7742SOL    HW124125   4.801   2.710   3.888
 7742SOL    HW224126   4.764   2.809   3.764
 7743SOL     OW24127   3.180   1.015   6.001
 7743SOL    HW124128   3.146   1.019   6.095
 7743SOL    HW224129   3.165   1.103   5.956
 7744SOL     OW24130   6.888   6.189   4.734
 7744SOL    HW124131   6.931   6.269   4.691
 7744SOL    HW224132   6.813   6.219   4.792
 7745SOL     OW24133   2.777   0.091   0.382
 7745SOL    HW124134   2.767   0.147   0.464
 7745SOL    HW224135   2.815   0.002   0.406
 7746SOL     OW24136   6.870   6.287   0.965
 7746SOL    HW124137   6.913   6.236   1.039
 7746SOL    HW224138   6.794   6.234   0.928
 7747SOL     OW24139   6.732   5.876   0.871
 7747SOL    HW124140   6.793   5.953   0.886
 7747SOL    HW224141   6.765   5.796   0.922
 7748SOL     OW24142   4.782   1.146   5.458
 7748SOL    HW124143   4.725   1.129   5.377
 7748SOL    HW224144   4.782   1.064   5.516
 7749SOL     OW24145   3.148   3.505   2.718
 7749SOL    HW124146   3.101   3.509   2.806
 7749SOL    HW224147   3.223   3.439   2.723
 7750SOL     OW24148   5.184   3.978   6.034
 7750SOL    HW124149   5.101   3.991   6.089
 7750SOL    HW224150   5.207   3.881   6.032
 7751SOL     OW24151   0.621   1.289   4.506
 7751SOL    HW124152   0.566   1.225   4.560
 7751SOL    HW224153   0.617   1.380   4.549
 7752SOL     OW24154   5.429   4.102   6.034
 7752SOL    HW124155   5.333   4.082   6.053
 7752SOL    HW224156   5.487   4.034   6.079
 7753SOL     OW24157   2.354   1.007   4.826
 7753SOL    HW124158   2.426   1.011   4.758
 7753SOL    HW224159   2.293   1.085   4.815
 7754SOL     OW24160   6.672   1.344   0.738
 7754SOL    HW124161   6.681   1.393   0.825
 7754SOL    HW224162   6.762   1.332   0.697
 7755SOL     OW24163   1.631   6.447   5.374
 7755SOL    HW124164   1.643   6.352   5.400
 7755SOL    HW224165   1.591   6.498   5.450
 7756SOL     OW24166   3.662   6.453   2.974
 7756SOL    HW124167   3.711   6.504   3.044
 7756SOL    HW224168   3.582   6.506   2.944
 7757SOL     OW24169   3.432   1.207   5.602
 7757SOL    HW124170   3.369   1.131   5.585
 7757SOL    HW224171   3.437   1.265   5.521
 7758SOL     OW24172   2.668   1.255   5.990
 7758SOL    HW124173   2.695   1.177   5.934
 7758SOL    HW224174   2.574   1.243   6.021
 7759SOL     OW24175   2.586   6.791   4.559
 7759SOL    HW124176   2.563   6.811   4.464
 7759SOL    HW224177   2.629   6.701   4.564
 7760SOL     OW24178   5.369   1.709   2.668
 7760SOL    HW124179   5.294   1.758   2.624
 7760SOL    HW224180   5.337   1.664   2.750
 7761SOL     OW24181   4.876   0.582   7.010
 7761SOL    HW124182   4.823   0.523   6.950
 7761SOL    HW224183   4.907   0.662   6.959
 7762SOL     OW24184   1.943   2.198   0.579
 7762SOL    HW124185   1.855   2.237   0.551
 7762SOL    HW224186   1.938   2.098   0.577
 7763SOL     OW24187   2.119   2.809   0.509
 7763SOL    HW124188   2.211   2.847   0.512
 7763SOL    HW224189   2.122   2.713   0.539
 7764SOL     OW24190   3.384   3.372   1.986
 7764SOL    HW124191   3.309   3.359   1.920
 7764SOL    HW224192   3.457   3.307   1.966
 7765SOL     OW24193   0.479   1.427   2.066
 7765SOL    HW124194   0.505   1.362   1.994
 7765SOL    HW224195   0.490   1.520   2.032
 7766SOL     OW24196   6.736   3.379   0.347
 7766SOL    HW124197   6.720   3.407   0.442
 7766SOL    HW224198   6.794   3.298   0.345
 7767SOL     OW24199   6.335   3.731   5.024
 7767SOL    HW124200   6.278   3.812   5.038
 7767SOL    HW224201   6.279   3.657   4.986
 7768SOL     OW24202   4.109   5.089   1.480
 7768SOL    HW124203   4.136   5.114   1.387
 7768SOL    HW224204   4.100   5.173   1.535
 7769SOL     OW24205   4.888   1.751   3.377
 7769SOL    HW124206   4.984   1.724   3.367
 7769SOL    HW224207   4.845   1.695   3.447
 7770SOL     OW24208   2.991   6.632   1.512
 7770SOL    HW124209   2.975   6.549   1.566
 7770SOL    HW224210   2.981   6.610   1.415
 7771SOL     OW24211   2.069   0.574   4.500
 7771SOL    HW124212   2.103   0.643   4.564
 7771SOL    HW224213   1.972   0.558   4.518
 7772SOL     OW24214   5.396   0.756   5.784
 7772SOL    HW124215   5.488   0.784   5.755
 7772SOL    HW224216   5.328   0.800   5.726
 7773SOL     OW24217   4.226   4.374   6.075
 7773SOL    HW124218   4.299   4.354   6.010
 7773SOL    HW224219   4.138   4.376   6.028
 7774SOL     OW24220   4.155   1.752   0.495
 7774SOL    HW124221   4.119   1.845   0.503
 7774SOL    HW224222   4.239   1.753   0.440
 7775SOL     OW24223   1.339   6.436   1.622
 7775SOL    HW124224   1.341   6.336   1.615
 7775SOL    HW224225   1.318   6.475   1.532
 7776SOL     OW24226   3.023   4.460   0.839
 7776SOL    HW124227   2.983   4.467   0.931
 7776SOL    HW224228   2.950   4.446   0.772
 7777SOL     OW24229   0.387   0.575   6.908
 7777SOL    HW124230   0.333   0.560   6.826
 7777SOL    HW224231   0.484   0.580   6.884
 7778SOL     OW24232   5.203   2.274   2.052
 7778SOL    HW124233   5.197   2.193   2.110
 7778SOL    HW224234   5.123   2.279   1.993
 7779SOL     OW24235   4.313   3.275   0.711
 7779SOL    HW124236   4.243   3.347   0.712
 7779SOL    HW224237   4.284   3.201   0.651
 7780SOL     OW24238   2.084   0.583   4.221
 7780SOL    HW124239   1.991   0.561   4.194
 7780SOL    HW224240   2.087   0.597   4.320
 7781SOL     OW24241   2.251   4.234   5.525
 7781SOL    HW124242   2.234   4.217   5.428
 7781SOL    HW224243   2.243   4.333   5.543
 7782SOL     OW24244   4.898   4.477   0.122
 7782SOL    HW124245   4.981   4.520   0.159
 7782SOL    HW224246   4.818   4.527   0.155
 7783SOL     OW24247   3.410   6.000   6.671
 7783SOL    HW124248   3.358   5.916   6.686
 7783SOL    HW224249   3.485   5.982   6.608
 7784SOL     OW24250   6.257   3.185   0.349
 7784SOL    HW124251   6.293   3.196   0.257
 7784SOL    HW224252   6.318   3.230   0.415
 7785SOL     OW24253   1.539   6.305   6.227
 7785SOL    HW124254   1.510   6.222   6.273
 7785SOL    HW224255   1.461   6.367   6.216
 7786SOL     OW24256   3.904   4.147   5.317
 7786SOL    HW124257   3.839   4.135   5.393
 7786SOL    HW224258   3.855   4.139   5.230
 7787SOL     OW24259   3.205   1.914   5.362
 7787SOL    HW124260   3.190   2.008   5.390
 7787SOL    HW224261   3.147   1.893   5.283
 7788SOL     OW24262   6.972   2.641   1.100
 7788SOL    HW124263   6.963   2.740   1.104
 7788SOL    HW224264   0.001   2.608   1.180
 7789SOL     OW24265   0.938   0.251   1.826
 7789SOL    HW124266   0.950   0.152   1.822
 7789SOL    HW224267   1.026   0.294   1.848
 7790SOL     OW24268   6.878   3.615   2.594
 7790SOL    HW124269   6.963   3.664   2.612
 7790SOL    HW224270   6.839   3.583   2.680
 7791SOL     OW24271   6.692   5.693   5.835
 7791SOL    HW124272   6.729   5.708   5.927
 7791SOL    HW224273   6.593   5.686   5.840
 7792SOL     OW24274   1.427   5.621   6.468
 7792SOL    HW124275   1.520   5.630   6.502
 7792SOL    HW224276   1.365   5.674   6.525
 7793SOL     OW24277   2.688   0.392   6.468
 7793SOL    HW124278   2.619   0.320   6.467
 7793SOL    HW224279   2.760   0.369   6.533
 7794SOL     OW24280   5.060   4.766   2.767
 7794SOL    HW124281   4.965   4.766   2.798
 7794SOL    HW224282   5.077   4.684   2.712
 7795SOL     OW24283   1.827   3.770   6.176
 7795SOL    HW124284   1.912   3.821   6.182
 7795SOL    HW224285   1.806   3.751   6.080
 7796SOL     OW24286   4.043   3.650   3.956
 7796SOL    HW124287   3.959   3.597   3.949
 7796SOL    HW224288   4.086   3.657   3.866
 7797SOL     OW24289   1.208   6.091   3.881
 7797SOL    HW124290   1.211   6.055   3.788
 7797SOL    HW224291   1.167   6.182   3.881
 7798SOL     OW24292   4.905   5.337   6.098
 7798SOL    HW124293   4.860   5.253   6.068
 7798SOL    HW224294   5.003   5.330   6.080
 7799SOL     OW24295   5.790   5.755   1.356
 7799SOL    HW124296   5.730   5.829   1.326
 7799SOL    HW224297   5.775   5.737   1.454
 7800SOL     OW24298   0.520   6.198   2.698
 7800SOL    HW124299   0.483   6.133   2.632
 7800SOL    HW224300   0.578   6.265   2.650
 7801SOL     OW24301   4.467   2.437   5.316
 7801SOL    HW124302   4.517   2.410   5.398
 7801SOL    HW224303   4.488   2.533   5.294
 7802SOL     OW24304   5.703   2.292   6.756
 7802SOL    HW124305   5.801   2.291   6.771
 7802SOL    HW224306   5.656   2.253   6.836
 7803SOL     OW24307   3.146   3.389   6.006
 7803SOL    HW124308   3.223   3.324   6.005
 7803SOL    HW224309   3.117   3.407   5.912
 7804SOL     OW24310   4.718   0.902   5.611
 7804SOL    HW124311   4.712   0.890   5.512
 7804SOL    HW224312   4.644   0.961   5.643
 7805SOL     OW24313   5.698   3.270   2.044
 7805SOL    HW124314   5.669   3.234   2.133
 7805SOL    HW224315   5.665   3.364   2.034
 7806SOL     OW24316   5.221   2.486   0.791
 7806SOL    HW124317   5.158   2.424   0.836
 7806SOL    HW224318   5.273   2.437   0.721
 7807SOL     OW24319   0.881   3.989   6.687
 7807SOL    HW124320   0.818   3.962   6.614
 7807SOL    HW224321   0.829   4.017   6.767
 7808SOL     OW24322   0.378   1.739   4.655
 7808SOL    HW124323   0.328   1.822   4.631
 7808SOL    HW224324   0.397   1.686   4.571
 7809SOL     OW24325   1.049   5.725   5.683
 7809SOL    HW124326   1.004   5.798   5.734
 7809SOL    HW224327   0.979   5.667   5.640
 7810SOL     OW24328   3.141   1.273   0.095
 7810SOL    HW124329   3.148   1.250   0.192
 7810SOL    HW224330   3.233   1.270   0.054
 7811SOL     OW24331   6.279   4.550   5.099
 7811SOL    HW124332   6.184   4.575   5.078
 7811SOL    HW224333   6.335   4.632   5.100
 7812SOL     OW24334   0.599   1.948   3.785
 7812SOL    HW124335   0.678   1.887   3.785
 7812SOL    HW224336   0.585   1.984   3.877
 7813SOL     OW24337   5.935   1.269   1.144
 7813SOL    HW124338   5.926   1.264   1.044
 7813SOL    HW224339   6.020   1.314   1.168
 7814SOL     OW24340   1.713   3.002   3.655
 7814SOL    HW124341   1.636   3.017   3.593
 7814SOL    HW224342   1.680   3.005   3.750
 7815SOL     OW24343   6.627   2.129   5.266
 7815SOL    HW124344   6.629   2.171   5.357
 7815SOL    HW224345   6.671   2.040   5.269
 7816SOL     OW24346   0.179   4.400   4.771
 7816SOL    HW124347   0.100   4.360   4.817
 7816SOL    HW224348   0.209   4.481   4.821
 7817SOL     OW24349   5.758   2.975   5.462
 7817SOL    HW124350   5.707   3.004   5.381
 7817SOL    HW224351   5.758   3.049   5.529
 7818SOL     OW24352   5.816   2.761   3.302
 7818SOL    HW124353   5.824   2.725   3.395
 7818SOL    HW224354   5.743   2.714   3.254
 7819SOL     OW24355   1.092   1.181   0.889
 7819SOL    HW124356   1.161   1.254   0.889
 7819SOL    HW224357   1.127   1.103   0.942
 7820SOL     OW24358   2.767   6.512   5.876
 7820SOL    HW124359   2.764   6.413   5.860
 7820SOL    HW224360   2.856   6.537   5.914
 7821SOL     OW24361   3.235   6.132   0.985
 7821SOL    HW124362   3.172   6.054   0.986
 7821SOL    HW224363   3.207   6.198   1.054
 7822SOL     OW24364   0.745   6.666   4.930
 7822SOL    HW124365   0.667   6.728   4.928
 7822SOL    HW224366   0.714   6.572   4.917
 7823SOL     OW24367   2.108   3.331   5.454
 7823SOL    HW124368   2.171   3.314   5.378
 7823SOL    HW224369   2.153   3.389   5.522
 7824SOL     OW24370   1.110   3.308   5.591
 7824SOL    HW124371   1.158   3.356   5.518
 7824SOL    HW224372   1.034   3.364   5.624
 7825SOL     OW24373   2.216   0.971   0.386
 7825SOL    HW124374   2.211   1.069   0.401
 7825SOL    HW224375   2.235   0.953   0.289
 7826SOL     OW24376   0.557   4.046   6.002
 7826SOL    HW124377   0.615   4.036   6.083
 7826SOL    HW224378   0.613   4.081   5.926
 7827SOL     OW24379   5.849   4.977   3.346
 7827SOL    HW124380   5.853   4.905   3.277
 7827SOL    HW224381   5.939   5.021   3.354
 7828SOL     OW24382   1.178   6.202   5.849
 7828SOL    HW124383   1.129   6.282   5.885
 7828SOL    HW224384   1.112   6.138   5.810
 7829SOL     OW24385   4.539   4.951   0.980
 7829SOL    HW124386   4.608   5.021   0.996
 7829SOL    HW224387   4.481   4.942   1.061
 7830SOL     OW24388   1.892   5.456   4.288
 7830SOL    HW124389   1.834   5.528   4.327
 7830SOL    HW224390   1.856   5.367   4.314
 7831SOL     OW24391   1.465   0.304   6.713
 7831SOL    HW124392   1.393   0.366   6.683
 7831SOL    HW224393   1.497   0.332   6.804
 7832SOL     OW24394   0.129   1.089   5.203
 7832SOL    HW124395   0.095   1.103   5.296
 7832SOL    HW224396   0.221   1.128   5.195
 7833SOL     OW24397   0.928   0.648   2.697
 7833SOL    HW124398   1.026   0.632   2.704
 7833SOL    HW224399   0.882   0.619   2.781
 7834SOL     OW24400   0.647   3.244   4.918
 7834SOL    HW124401   0.578   3.303   4.962
 7834SOL    HW224402   0.728   3.299   4.896
 7835SOL     OW24403   3.085   2.815   5.596
 7835SOL    HW124404   3.023   2.749   5.554
 7835SOL    HW224405   3.108   2.886   5.530
 7836SOL     OW24406   2.957   3.783   5.035
 7836SOL    HW124407   3.047   3.769   5.077
 7836SOL    HW224408   2.930   3.701   4.985
 7837SOL     OW24409   0.471   5.694   0.078
 7837SOL    HW124410   0.546   5.628   0.074
 7837SOL    HW224411   0.478   5.748   0.161
 7838SOL     OW24412   4.104   4.914   0.911
 7838SOL    HW124413   4.062   4.921   1.001
 7838SOL    HW224414   4.192   4.961   0.911
 7839SOL     OW24415   5.984   3.859   4.468
 7839SOL    HW124416   5.912   3.847   4.536
 7839SOL    HW224417   5.986   3.780   4.407
 7840SOL     OW24418   2.171   2.205   3.418
 7840SOL    HW124419   2.240   2.277   3.423
 7840SOL    HW224420   2.215   2.119   3.391
 7841SOL     OW24421   4.368   2.274   5.998
 7841SOL    HW124422   4.371   2.339   6.074
 7841SOL    HW224423   4.285   2.219   6.004
 7842SOL     OW24424   0.679   0.287   1.140
 7842SOL    HW124425   0.769   0.329   1.130
 7842SOL    HW224426   0.678   0.199   1.091
 7843SOL     OW24427   6.450   6.230   2.118
 7843SOL    HW124428   6.485   6.152   2.170
 7843SOL    HW224429   6.409   6.296   2.180
 7844SOL     OW24430   3.138   6.681   2.545
 7844SOL    HW124431   3.193   6.720   2.619
 7844SOL    HW224432   3.129   6.748   2.471
 7845SOL     OW24433   6.947   3.448   1.949
 7845SOL    HW124434   6.850   3.425   1.957
 7845SOL    HW224435   6.966   3.478   1.855
 7846SOL     OW24436   0.703   2.115   0.495
 7846SOL    HW124437   0.666   2.134   0.586
 7846SOL    HW224438   0.802   2.103   0.500
 7847SOL     OW24439   5.424   3.670   5.745
 7847SOL    HW124440   5.389   3.741   5.805
 7847SOL    HW224441   5.522   3.659   5.761
 7848SOL     OW24442   4.931   4.856   0.278
 7848SOL    HW124443   4.942   4.873   0.180
 7848SOL    HW224444   5.008   4.897   0.327
 7849SOL     OW24445   4.767   5.329   6.452
 7849SOL    HW124446   4.685   5.386   6.457
 7849SOL    HW224447   4.781   5.299   6.357
 7850SOL     OW24448   6.630   0.629   3.595
 7850SOL    HW124449   6.710   0.596   3.645
 7850SOL    HW224450   6.626   0.582   3.507
 7851SOL     OW24451   1.130   3.937   0.408
 7851SOL    HW124452   1.179   3.867   0.459
 7851SOL    HW224453   1.139   4.025   0.454
 7852SOL     OW24454   1.707   3.489   5.551
 7852SOL    HW124455   1.677   3.528   5.638
 7852SOL    HW224456   1.655   3.405   5.532
 7853SOL     OW24457   4.445   3.141   1.651
 7853SOL    HW124458   4.518   3.107   1.711
 7853SOL    HW224459   4.358   3.136   1.699
 7854SOL     OW24460   4.067   1.042   1.394
 7854SOL    HW124461   4.043   1.119   1.334
 7854SOL    HW224462   3.985   0.988   1.413
 7855SOL     OW24463   4.968   6.232   3.430
 7855SOL    HW124464   4.992   6.315   3.380
 7855SOL    HW224465   5.050   6.194   3.473
 7856SOL     OW24466   2.101   6.251   6.761
 7856SOL    HW124467   2.005   6.276   6.771
 7856SOL    HW224468   2.117   6.161   6.803
 7857SOL     OW24469   6.863   5.140   0.438
 7857SOL    HW124470   6.801   5.063   0.422
 7857SOL    HW224471   6.958   5.108   0.433
 7858SOL     OW24472   0.156   4.167   6.468
 7858SOL    HW124473   0.167   4.100   6.395
 7858SOL    HW224474   0.061   4.197   6.471
 7859SOL     OW24475   4.724   2.463   1.590
 7859SOL    HW124476   4.820   2.483   1.575
 7859SOL    HW224477   4.715   2.377   1.640
 7860SOL     OW24478   2.796   1.733   3.007
 7860SOL    HW124479   2.812   1.823   3.049
 7860SOL    HW224480   2.722   1.739   2.940
 7861SOL     OW24481   1.765   5.567   0.546
 7861SOL    HW124482   1.834   5.636   0.526
 7861SOL    HW224483   1.688   5.609   0.594
 7862SOL     OW24484   1.076   0.328   6.761
 7862SOL    HW124485   1.001   0.367   6.815
 7862SOL    HW224486   1.118   0.253   6.812
 7863SOL     OW24487   0.836   4.397   3.873
 7863SOL    HW124488   0.779   4.456   3.815
 7863SOL    HW224489   0.855   4.443   3.959
 7864SOL     OW24490   3.187   5.550   4.907
 7864SOL    HW124491   3.202   5.577   4.812
 7864SOL    HW224492   3.093   5.569   4.933
 7865SOL     OW24493   6.365   5.469   3.626
 7865SOL    HW124494   6.345   5.395   3.690
 7865SOL    HW224495   6.340   5.557   3.666
 7866SOL     OW24496   0.848   1.127   5.468
 7866SOL    HW124497   0.784   1.169   5.532
 7866SOL    HW224498   0.799   1.060   5.412
 7867SOL     OW24499   4.641   6.078   2.576
 7867SOL    HW124500   4.619   6.127   2.661
 7867SOL    HW224501   4.673   6.144   2.508
 7868SOL     OW24502   4.294   6.347   1.373
 7868SOL    HW124503   4.232   6.425   1.379
 7868SOL    HW224504   4.250   6.267   1.413
 7869SOL     OW24505   5.673   5.191   0.193
 7869SOL    HW124506   5.632   5.267   0.144
 7869SOL    HW224507   5.643   5.192   0.289
 7870SOL     OW24508   6.639   0.403   3.389
 7870SOL    HW124509   6.598   0.321   3.349
 7870SOL    HW224510   6.730   0.418   3.349
 7871SOL     OW24511   4.710   0.477   0.718
 7871SOL    HW124512   4.746   0.516   0.633
 7871SOL    HW224513   4.614   0.503   0.728
 7872SOL     OW24514   6.553   5.316   4.306
 7872SOL    HW124515   6.570   5.410   4.279
 7872SOL    HW224516   6.591   5.299   4.397
 7873SOL     OW24517   4.850   2.203   6.599
 7873SOL    HW124518   4.939   2.218   6.643
 7873SOL    HW224519   4.786   2.275   6.628
 7874SOL     OW24520   6.050   2.638   0.578
 7874SOL    HW124521   6.028   2.540   0.575
 7874SOL    HW224522   6.145   2.651   0.552
 7875SOL     OW24523   6.461   4.970   0.138
 7875SOL    HW124524   6.403   4.949   0.217
 7875SOL    HW224525   6.471   5.069   0.129
 7876SOL     OW24526   0.986   6.721   2.489
 7876SOL    HW124527   1.030   6.775   2.417
 7876SOL    HW224528   0.944   6.783   2.556
 7877SOL     OW24529   0.827   3.229   2.377
 7877SOL    HW124530   0.879   3.144   2.375
 7877SOL    HW224531   0.786   3.245   2.287
 7878SOL     OW24532   3.899   0.224   2.494
 7878SOL    HW124533   3.877   0.320   2.510
 7878SOL    HW224534   3.815   0.171   2.485
 7879SOL     OW24535   2.712   5.627   1.897
 7879SOL    HW124536   2.709   5.727   1.903
 7879SOL    HW224537   2.638   5.587   1.951
 7880SOL     OW24538   1.429   5.105   2.679
 7880SOL    HW124539   1.509   5.133   2.625
 7880SOL    HW224540   1.361   5.178   2.678
 7881SOL     OW24541   4.894   2.997   2.991
 7881SOL    HW124542   4.846   2.921   3.036
 7881SOL    HW224543   4.987   3.003   3.027
 7882SOL     OW24544   0.070   2.637   0.028
 7882SOL    HW124545   0.010   2.590   6.985
 7882SOL    HW224546   0.119   2.710   7.001
 7883SOL     OW24547   0.156   0.203   4.930
 7883SOL    HW124548   0.179   0.141   4.856
 7883SOL    HW224549   0.216   0.283   4.926
 7884SOL     OW24550   1.707   2.717   3.731
 7884SOL    HW124551   1.740   2.810   3.713
 7884SOL    HW224552   1.768   2.673   3.797
 7885SOL     OW24553   6.331   6.314   6.796
 7885SOL    HW124554   6.387   6.327   6.714
 7885SOL    HW224555   6.378   6.252   6.859
 7886SOL     OW24556   4.686   3.598   0.376
 7886SOL    HW124557   4.749   3.529   0.341
 7886SOL    HW224558   4.697   3.683   0.324
 7887SOL     OW24559   4.578   1.872   6.577
 7887SOL    HW124560   4.634   1.851   6.657
 7887SOL    HW224561   4.630   1.930   6.514
 7888SOL     OW24562   4.275   5.856   4.036
 7888SOL    HW124563   4.277   5.904   3.948
 7888SOL    HW224564   4.325   5.909   4.104
 7889SOL     OW24565   6.334   4.392   3.535
 7889SOL    HW124566   6.426   4.415   3.567
 7889SOL    HW224567   6.298   4.467   3.480
 7890SOL     OW24568   2.198   4.035   3.062
 7890SOL    HW124569   2.283   4.006   3.018
 7890SOL    HW224570   2.128   4.049   2.992
 7891SOL     OW24571   0.231   4.211   2.812
 7891SOL    HW124572   0.284   4.274   2.869
 7891SOL    HW224573   0.213   4.253   2.724
 7892SOL     OW24574   2.268   2.396   4.516
 7892SOL    HW124575   2.174   2.422   4.497
 7892SOL    HW224576   2.271   2.302   4.551
 7893SOL     OW24577   5.195   6.092   1.514
 7893SOL    HW124578   5.288   6.057   1.501
 7893SOL    HW224579   5.141   6.024   1.564
 7894SOL     OW24580   3.073   0.182   0.875
 7894SOL    HW124581   3.084   0.122   0.955
 7894SOL    HW224582   3.020   0.135   0.805
 7895SOL     OW24583   1.193   1.872   4.534
 7895SOL    HW124584   1.162   1.867   4.629
 7895SOL    HW224585   1.114   1.869   4.473
 7896SOL     OW24586   3.788   2.239   6.718
 7896SOL    HW124587   3.794   2.274   6.625
 7896SOL    HW224588   3.846   2.294   6.778
 7897SOL     OW24589   3.414   3.607   0.551
 7897SOL    HW124590   3.347   3.552   0.501
 7897SOL    HW224591   3.371   3.691   0.583
 7898SOL     OW24592   5.057   1.028   4.541
 7898SOL    HW124593   5.083   0.936   4.572
 7898SOL    HW224594   5.117   1.095   4.583
 7899SOL     OW24595   4.570   0.756   1.466
 7899SOL    HW124596   4.535   0.767   1.559
 7899SOL    HW224597   4.669   0.769   1.465
 7900SOL     OW24598   0.272   5.729   1.561
 7900SOL    HW124599   0.180   5.702   1.591
 7900SOL    HW224600   0.317   5.780   1.634
 7901SOL     OW24601   5.565   4.424   1.138
 7901SOL    HW124602   5.602   4.442   1.047
 7901SOL    HW224603   5.639   4.430   1.206
 7902SOL     OW24604   4.849   4.867   6.344
 7902SOL    HW124605   4.895   4.795   6.293
 7902SOL    HW224606   4.816   4.937   6.280
 7903SOL     OW24607   0.765   2.500   2.209
 7903SOL    HW124608   0.845   2.560   2.214
 7903SOL    HW224609   0.685   2.547   2.247
 7904SOL     OW24610   5.128   1.616   3.364
 7904SOL    HW124611   5.144   1.522   3.334
 7904SOL    HW224612   5.213   1.668   3.356
 7905SOL     OW24613   2.385   2.326   1.545
 7905SOL    HW124614   2.435   2.282   1.471
 7905SOL    HW224615   2.389   2.268   1.627
 7906SOL     OW24616   1.718   4.277   6.706
 7906SOL    HW124617   1.664   4.298   6.625
 7906SOL    HW224618   1.804   4.328   6.702
 7907SOL     OW24619   0.467   2.703   2.826
 7907SOL    HW124620   0.502   2.662   2.741
 7907SOL    HW224621   0.458   2.802   2.815
 7908SOL     OW24622   0.693   1.071   3.422
 7908SOL    HW124623   0.630   0.998   3.450
 7908SOL    HW224624   0.734   1.112   3.504
 7909SOL     OW24625   4.040   5.937   5.302
 7909SOL    HW124626   3.993   5.852   5.325
 7909SOL    HW224627   3.974   6.005   5.270
 7910SOL     OW24628   6.037   2.986   6.161
 7910SOL    HW124629   6.086   2.920   6.219
 7910SOL    HW224630   6.028   3.073   6.211
 7911SOL     OW24631   6.787   6.115   6.380
 7911SOL    HW124632   6.707   6.067   6.345
 7911SOL    HW224633   6.870   6.067   6.352
 7912SOL     OW24634   6.737   5.533   4.841
 7912SOL    HW124635   6.805   5.606   4.851
 7912SOL    HW224636   6.779   5.445   4.863
 7913SOL     OW24637   1.833   6.246   6.873
 7913SOL    HW124638   1.854   6.194   6.956
 7913SOL    HW224639   1.794   6.335   6.898
 7914SOL     OW24640   5.916   4.312   0.652
 7914SOL    HW124641   5.939   4.318   0.555
 7914SOL    HW224642   5.997   4.287   0.704
 7915SOL     OW24643   2.941   1.585   2.826
 7915SOL    HW124644   2.876   1.535   2.769
 7915SOL    HW224645   2.893   1.654   2.879
 7916SOL     OW24646   3.845   3.373   4.589
 7916SOL    HW124647   3.874   3.289   4.635
 7916SOL    HW224648   3.922   3.436   4.582
 7917SOL     OW24649   3.476   4.097   3.701
 7917SOL    HW124650   3.389   4.100   3.653
 7917SOL    HW224651   3.460   4.103   3.800
 7918SOL     OW24652   6.317   1.591   1.730
 7918SOL    HW124653   6.405   1.637   1.717
 7918SOL    HW224654   6.246   1.659   1.745
 7919SOL     OW24655   5.486   3.872   2.608
 7919SOL    HW124656   5.467   3.837   2.700
 7919SOL    HW224657   5.582   3.855   2.585
 7920SOL     OW24658   6.791   6.478   0.522
 7920SOL    HW124659   6.733   6.503   0.599
 7920SOL    HW224660   6.873   6.432   0.556
 7921SOL     OW24661   3.350   5.028   1.965
 7921SOL    HW124662   3.398   4.975   1.894
 7921SOL    HW224663   3.390   5.007   2.054
 7922SOL     OW24664   1.297   3.832   4.339
 7922SOL    HW124665   1.325   3.806   4.247
 7922SOL    HW224666   1.369   3.887   4.381
 7923SOL     OW24667   1.767   2.813   2.517
 7923SOL    HW124668   1.824   2.786   2.440
 7923SOL    HW224669   1.788   2.907   2.543
 7924SOL     OW24670   2.373   1.932   3.586
 7924SOL    HW124671   2.308   1.952   3.513
 7924SOL    HW224672   2.466   1.932   3.548
 7925SOL     OW24673   1.307   1.715   0.241
 7925SOL    HW124674   1.271   1.630   0.202
 7925SOL    HW224675   1.384   1.747   0.185
 7926SOL     OW24676   3.202   0.543   1.757
 7926SOL    HW124677   3.253   0.626   1.778
 7926SOL    HW224678   3.126   0.566   1.697
 7927SOL     OW24679   4.764   5.212   4.758
 7927SOL    HW124680   4.696   5.196   4.829
 7927SOL    HW224681   4.724   5.192   4.668
 7928SOL     OW24682   0.593   3.755   1.047
 7928SOL    HW124683   0.536   3.836   1.031
 7928SOL    HW224684   0.542   3.673   1.020
 7929SOL     OW24685   3.807   4.095   5.033
 7929SOL    HW124686   3.860   4.106   4.949
 7929SOL    HW224687   3.712   4.076   5.011
 7930SOL     OW24688   3.647   6.792   1.878
 7930SOL    HW124689   3.687   6.790   1.969
 7930SOL    HW224690   3.714   6.829   1.813
 7931SOL     OW24691   2.358   3.106   5.812
 7931SOL    HW124692   2.398   3.028   5.860
 7931SOL    HW224693   2.371   3.095   5.714
 7932SOL     OW24694   3.096   1.608   0.750
 7932SOL    HW124695   3.095   1.626   0.652
 7932SOL    HW224696   3.042   1.679   0.797
 7933SOL     OW24697   1.653   1.094   6.207
 7933SOL    HW124698   1.666   1.076   6.110
 7933SOL    HW224699   1.730   1.148   6.242
 7934SOL     OW24700   4.443   2.474   5.771
 7934SOL    HW124701   4.418   2.411   5.845
 7934SOL    HW224702   4.516   2.535   5.802
 7935SOL     OW24703   4.739   5.137   2.685
 7935SOL    HW124704   4.808   5.190   2.636
 7935SOL    HW224705   4.709   5.061   2.628
 7936SOL     OW24706   4.412   5.876   1.956
 7936SOL    HW124707   4.315   5.861   1.975
 7936SOL    HW224708   4.443   5.956   2.007
 7937SOL     OW24709   5.705   1.807   6.149
 7937SOL    HW124710   5.763   1.765   6.219
 7937SOL    HW224711   5.757   1.881   6.105
 7938SOL     OW24712   6.167   4.679   4.258
 7938SOL    HW124713   6.175   4.778   4.265
 7938SOL    HW224714   6.094   4.657   4.192
 7939SOL     OW24715   6.281   5.910   4.000
 7939SOL    HW124716   6.304   5.877   4.092
 7939SOL    HW224717   6.184   5.932   3.996
 7940SOL     OW24718   1.941   5.819   0.288
 7940SOL    HW124719   2.014   5.808   0.356
 7940SOL    HW224720   1.877   5.889   0.319
 7941SOL     OW24721   1.209   0.478   1.176
 7941SOL    HW124722   1.288   0.539   1.165
 7941SOL    HW224723   1.234   0.386   1.145
 7942SOL     OW24724   0.718   6.485   0.931
 7942SOL    HW124725   0.638   6.545   0.928
 7942SOL    HW224726   0.791   6.529   0.983
 7943SOL     OW24727   6.167   2.357   6.113
 7943SOL    HW124728   6.074   2.352   6.076
 7943SOL    HW224729   6.180   2.282   6.179
 7944SOL     OW24730   6.303   4.112   1.912
 7944SOL    HW124731   6.319   4.169   1.832
 7944SOL    HW224732   6.377   4.126   1.978
 7945SOL     OW24733   5.887   6.440   0.376
 7945SOL    HW124734   5.846   6.520   0.332
 7945SOL    HW224735   5.984   6.436   0.353
 7946SOL     OW24736   2.058   1.552   5.154
 7946SOL    HW124737   2.010   1.560   5.066
 7946SOL    HW224738   1.998   1.510   5.222
 7947SOL     OW24739   3.820   5.507   6.415
 7947SOL    HW124740   3.868   5.588   6.383
 7947SOL    HW224741   3.755   5.532   6.487
 7948SOL     OW24742   1.579   5.018   4.800
 7948SOL    HW124743   1.543   4.951   4.734
 7948SOL    HW224744   1.503   5.057   4.852
 7949SOL     OW24745   6.968   3.602   4.038
 7949SOL    HW124746   6.887   3.611   3.981
 7949SOL    HW224747   6.988   3.691   4.081
 7950SOL     OW24748   2.600   5.884   3.394
 7950SOL    HW124749   2.560   5.895   3.485
 7950SOL    HW224750   2.536   5.833   3.335
 7951SOL     OW24751   2.282   3.300   0.755
 7951SOL    HW124752   2.189   3.289   0.790
 7951SOL    HW224753   2.344   3.241   0.807
 7952SOL     OW24754   6.201   3.407   0.825
 7952SOL    HW124755   6.110   3.407   0.782
 7952SOL    HW224756   6.212   3.492   0.878
 7953SOL     OW24757   2.062   4.403   1.450
 7953SOL    HW124758   1.997   4.477   1.468
 7953SOL    HW224759   2.016   4.315   1.462
 7954SOL     OW24760   5.887   5.500   4.221
 7954SOL    HW124761   5.802   5.495   4.168
 7954SOL    HW224762   5.937   5.583   4.197
 7955SOL     OW24763   1.718   6.415   6.580
 7955SOL    HW124764   1.760   6.335   6.536
 7955SOL    HW224765   1.775   6.445   6.657
 7956SOL     OW24766   5.332   6.033   3.421
 7956SOL    HW124767   5.358   6.016   3.326
 7956SOL    HW224768   5.243   5.991   3.440
 7957SOL     OW24769   1.422   3.051   1.323
 7957SOL    HW124770   1.450   2.958   1.299
 7957SOL    HW224771   1.382   3.095   1.243
 7958SOL     OW24772   1.910   5.681   3.189
 7958SOL    HW124773   1.941   5.588   3.209
 7958SOL    HW224774   1.868   5.720   3.270
 7959SOL     OW24775   4.347   4.877   1.232
 7959SOL    HW124776   4.384   4.789   1.202
 7959SOL    HW224777   4.248   4.879   1.217
 7960SOL     OW24778   1.871   2.383   1.083
 7960SOL    HW124779   1.798   2.318   1.065
 7960SOL    HW224780   1.941   2.339   1.140
 7961SOL     OW24781   1.449   6.417   0.132
 7961SOL    HW124782   1.542   6.450   0.115
 7961SOL    HW224783   1.451   6.350   0.206
 7962SOL     OW24784   2.073   6.715   2.377
 7962SOL    HW124785   2.016   6.645   2.334
 7962SOL    HW224786   2.032   6.743   2.464
 7963SOL     OW24787   6.991   6.313   5.895
 7963SOL    HW124788   6.931   6.233   5.903
 7963SOL    HW224789   7.003   6.356   5.984
 7964SOL     OW24790   6.003   5.471   3.774
 7964SOL    HW124791   5.959   5.386   3.803
 7964SOL    HW224792   6.063   5.504   3.847
 7965SOL     OW24793   4.309   1.667   1.068
 7965SOL    HW124794   4.387   1.608   1.087
 7965SOL    HW224795   4.304   1.686   0.970
 7966SOL     OW24796   0.105   1.697   4.401
 7966SOL    HW124797   0.181   1.649   4.357
 7966SOL    HW224798   0.050   1.743   4.332
 7967SOL     OW24799   2.162   0.464   3.984
 7967SOL    HW124800   2.176   0.485   4.081
 7967SOL    HW224801   2.064   0.469   3.964
 7968SOL     OW24802   2.030   1.132   0.117
 7968SOL    HW124803   2.116   1.085   0.136
 7968SOL    HW224804   2.042   1.193   0.038
 7969SOL     OW24805   4.250   2.098   3.420
 7969SOL    HW124806   4.165   2.078   3.371
 7969SOL    HW224807   4.314   2.144   3.358
 7970SOL     OW24808   0.448   4.620   3.159
 7970SOL    HW124809   0.514   4.591   3.090
 7970SOL    HW224810   0.441   4.550   3.231
 7971SOL     OW24811   3.677   2.132   2.780
 7971SOL    HW124812   3.582   2.110   2.757
 7971SOL    HW224813   3.705   2.215   2.732
 7972SOL     OW24814   5.208   5.684   1.214
 7972SOL    HW124815   5.281   5.747   1.242
 7972SOL    HW224816   5.245   5.614   1.154
 7973SOL     OW24817   5.650   1.723   2.635
 7973SOL    HW124818   5.661   1.817   2.669
 7973SOL    HW224819   5.552   1.705   2.620
 7974SOL     OW24820   4.541   6.145   4.444
 7974SOL    HW124821   4.634   6.117   4.469
 7974SOL    HW224822   4.486   6.153   4.527
 7975SOL     OW24823   2.090   1.656   2.183
 7975SOL    HW124824   2.028   1.722   2.140
 7975SOL    HW224825   2.113   1.584   2.118
 7976SOL     OW24826   0.437   6.428   6.498
 7976SOL    HW124827   0.428   6.490   6.420
 7976SOL    HW224828   0.439   6.481   6.583
 7977SOL     OW24829   5.459   6.116   1.208
 7977SOL    HW124830   5.469   6.174   1.290
 7977SOL    HW224831   5.362   6.112   1.182
 7978SOL     OW24832   2.972   1.692   5.890
 7978SOL    HW124833   2.949   1.685   5.793
 7978SOL    HW224834   2.918   1.766   5.932
 7979SOL     OW24835   4.760   5.722   3.798
 7979SOL    HW124836   4.701   5.752   3.723
 7979SOL    HW224837   4.715   5.648   3.847
 7980SOL     OW24838   2.850   1.161   1.292
 7980SOL    HW124839   2.774   1.140   1.231
 7980SOL    HW224840   2.919   1.089   1.285
 7981SOL     OW24841   0.125   6.183   2.395
 7981SOL    HW124842   0.078   6.155   2.478
 7981SOL    HW224843   0.172   6.104   2.355
 7982SOL     OW24844   0.445   3.030   1.399
 7982SOL    HW124845   0.376   2.974   1.354
 7982SOL    HW224846   0.534   3.013   1.356
 7983SOL     OW24847   5.389   1.856   0.814
 7983SOL    HW124848   5.484   1.872   0.840
 7983SOL    HW224849   5.350   1.939   0.775
 7984SOL     OW24850   6.032   0.830   0.113
 7984SOL    HW124851   6.115   0.781   0.137
 7984SOL    HW224852   6.004   0.888   0.190
 7985SOL     OW24853   0.861   1.335   0.926
 7985SOL    HW124854   0.936   1.273   0.901
 7985SOL    HW224855   0.774   1.285   0.920
 7986SOL     OW24856   5.083   3.595   0.901
 7986SOL    HW124857   5.074   3.663   0.828
 7986SOL    HW224858   5.060   3.504   0.864
 7987SOL     OW24859   1.372   3.683   5.205
 7987SOL    HW124860   1.457   3.671   5.257
 7987SOL    HW224861   1.390   3.670   5.108
 7988SOL     OW24862   2.491   1.072   5.196
 7988SOL    HW124863   2.498   1.157   5.145
 7988SOL    HW224864   2.395   1.054   5.218
 7989SOL     OW24865   3.131   3.549   0.018
 7989SOL    HW124866   3.097   3.629   6.989
 7989SOL    HW224867   3.131   3.470   6.977
 7990SOL     OW24868   2.116   2.917   4.586
 7990SOL    HW124869   2.146   2.968   4.667
 7990SOL    HW224870   2.064   2.836   4.615
 7991SOL     OW24871   2.262   3.603   6.306
 7991SOL    HW124872   2.242   3.589   6.209
 7991SOL    HW224873   2.196   3.552   6.362
 7992SOL     OW24874   3.025   1.258   6.858
 7992SOL    HW124875   3.032   1.357   6.842
 7992SOL    HW224876   3.039   1.239   6.955
 7993SOL     OW24877   3.281   6.061   6.431
 7993SOL    HW124878   3.346   6.113   6.376
 7993SOL    HW224879   3.307   6.066   6.527
 7994SOL     OW24880   5.673   0.286   4.838
 7994SOL    HW124881   5.700   0.254   4.747
 7994SOL    HW224882   5.586   0.334   4.833
 7995SOL     OW24883   4.226   4.981   2.330
 7995SOL    HW124884   4.172   5.003   2.411
 7995SOL    HW224885   4.204   5.045   2.257
 7996SOL     OW24886   4.346   1.621   5.486
 7996SOL    HW124887   4.384   1.643   5.397
 7996SOL    HW224888   4.333   1.706   5.539
 7997SOL     OW24889   5.370   3.239   0.937
 7997SOL    HW124890   5.302   3.174   0.902
 7997SOL    HW224891   5.324   3.320   0.973
 7998SOL     OW24892   6.951   5.618   6.359
 7998SOL    HW124893   6.906   5.530   6.343
 7998SOL    HW224894   6.985   5.621   6.453
 7999SOL     OW24895   2.950   2.308   6.047
 7999SOL    HW124896   2.968   2.374   5.975
 7999SOL    HW224897   2.887   2.238   6.013
 8000SOL     OW24898   5.262   0.746   5.397
 8000SOL    HW124899   5.187   0.732   5.332
 8000SOL    HW224900   5.225   0.748   5.490
 8001SOL     OW24901   2.644   5.014   1.277
 8001SOL    HW124902   2.670   4.984   1.369
 8001SOL    HW224903   2.611   4.935   1.225
 8002SOL     OW24904   4.339   1.890   5.630
 8002SOL    HW124905   4.359   1.976   5.583
 8002SOL    HW224906   4.425   1.847   5.659
 8003SOL     OW24907   5.227   5.384   2.915
 8003SOL    HW124908   5.164   5.308   2.930
 8003SOL    HW224909   5.208   5.457   2.982
 8004SOL     OW24910   1.272   4.979   3.551
 8004SOL    HW124911   1.355   4.985   3.496
 8004SOL    HW224912   1.269   5.057   3.614
 8005SOL     OW24913   2.376   1.202   2.402
 8005SOL    HW124914   2.353   1.293   2.367
 8005SOL    HW224915   2.409   1.211   2.496
 8006SOL     OW24916   4.737   5.652   2.793
 8006SOL    HW124917   4.800   5.577   2.815
 8006SOL    HW224918   4.783   5.717   2.733
 8007SOL     OW24919   0.777   1.225   3.666
 8007SOL    HW124920   0.679   1.242   3.662
 8007SOL    HW224921   0.804   1.206   3.760
 8008SOL     OW24922   6.158   4.583   1.465
 8008SOL    HW124923   6.176   4.503   1.407
 8008SOL    HW224924   6.244   4.631   1.482
 8009SOL     OW24925   6.725   6.310   3.271
 8009SOL    HW124926   6.642   6.365   3.264
 8009SOL    HW224927   6.805   6.371   3.271
 8010SOL     OW24928   2.128   1.700   7.013
 8010SOL    HW124929   2.193   1.754   0.047
 8010SOL    HW224930   2.094   1.624   0.048
 8011SOL     OW24931   1.998   3.250   0.382
 8011SOL    HW124932   2.000   3.258   0.283
 8011SOL    HW224933   2.007   3.153   0.408
 8012SOL     OW24934   1.749   5.802   3.377
 8012SOL    HW124935   1.667   5.805   3.320
 8012SOL    HW224936   1.726   5.823   3.472
 8013SOL     OW24937   6.683   5.728   4.112
 8013SOL    HW124938   6.779   5.704   4.105
 8013SOL    HW224939   6.666   5.814   4.063
 8014SOL     OW24940   2.303   0.381   6.289
 8014SOL    HW124941   2.332   0.461   6.340
 8014SOL    HW224942   2.351   0.378   6.201
 8015SOL     OW24943   2.039   1.467   0.885
 8015SOL    HW124944   2.089   1.383   0.865
 8015SOL    HW224945   2.049   1.530   0.808
 8016SOL     OW24946   4.639   5.304   1.898
 8016SOL    HW124947   4.640   5.246   1.816
 8016SOL    HW224948   4.697   5.384   1.883
 8017SOL     OW24949   6.499   3.874   4.846
 8017SOL    HW124950   6.420   3.814   4.853
 8017SOL    HW224951   6.481   3.947   4.781
 8018SOL     OW24952   4.800   2.988   4.029
 8018SOL    HW124953   4.781   2.911   3.967
 8018SOL    HW224954   4.769   2.964   4.121
 8019SOL     OW24955   3.494   5.150   1.310
 8019SOL    HW124956   3.499   5.077   1.378
 8019SOL    HW224957   3.425   5.127   1.241
 8020SOL     OW24958   5.106   6.715   0.052
 8020SOL    HW124959   5.052   6.678   0.128
 8020SOL    HW224960   5.051   6.712   6.989
 8021SOL     OW24961   6.853   1.142   1.978
 8021SOL    HW124962   6.942   1.154   1.936
 8021SOL    HW224963   6.781   1.156   1.910
 8022SOL     OW24964   5.708   4.982   4.258
 8022SOL    HW124965   5.658   5.046   4.200
 8022SOL    HW224966   5.792   5.026   4.291
 8023SOL     OW24967   6.987   5.464   3.740
 8023SOL    HW124968   6.970   5.416   3.827
 8023SOL    HW224969   0.008   5.553   3.759
 8024SOL     OW24970   4.576   6.063   3.806
 8024SOL    HW124971   4.530   6.150   3.791
 8024SOL    HW224972   4.663   6.062   3.756
 8025SOL     OW24973   2.472   5.834   0.022
 8025SOL    HW124974   2.473   5.857   0.119
 8025SOL    HW224975   2.378   5.823   7.012
 8026SOL     OW24976   3.090   1.805   6.845
 8026SOL    HW124977   3.117   1.896   6.814
 8026SOL    HW224978   3.171   1.754   6.873
 8027SOL     OW24979   4.352   3.387   5.705
 8027SOL    HW124980   4.380   3.479   5.678
 8027SOL    HW224981   4.269   3.362   5.654
 8028SOL     OW24982   5.916   4.548   0.929
 8028SOL    HW124983   5.936   4.620   0.995
 8028SOL    HW224984   5.992   4.539   0.865
 8029SOL     OW24985   3.474   4.723   5.883
 8029SOL    HW124986   3.465   4.692   5.978
 8029SOL    HW224987   3.458   4.647   5.821
 8030SOL     OW24988   0.125   3.728   2.081
 8030SOL    HW124989   0.123   3.655   2.150
 8030SOL    HW224990   0.199   3.710   2.016
 8031SOL     OW24991   4.054   6.410   0.212
 8031SOL    HW124992   4.020   6.321   0.242
 8031SOL    HW224993   4.089   6.403   0.119
 8032SOL     OW24994   4.629   3.369   5.344
 8032SOL    HW124995   4.698   3.308   5.305
 8032SOL    HW224996   4.635   3.458   5.299
 8033SOL     OW24997   6.213   1.092   2.136
 8033SOL    HW124998   6.124   1.098   2.092
 8033SOL    HW224999   6.239   1.182   2.170
 8034SOL     OW25000   6.317   2.641   5.633
 8034SOL    HW125001   6.287   2.700   5.708
 8034SOL    HW225002   6.417   2.643   5.628
 8035SOL     OW25003   5.570   6.129   5.992
 8035SOL    HW125004   5.496   6.082   6.040
 8035SOL    HW225005   5.592   6.214   6.040
 8036SOL     OW25006   1.131   3.790   1.748
 8036SOL    HW125007   1.148   3.694   1.726
 8036SOL    HW225008   1.217   3.835   1.773
 8037SOL     OW25009   2.188   3.011   1.932
 8037SOL    HW125010   2.257   3.027   1.863
 8037SOL    HW225011   2.180   3.091   1.992
 8038SOL     OW25012   5.649   0.977   3.684
 8038SOL    HW125013   5.741   0.938   3.694
 8038SOL    HW225014   5.626   1.031   3.765
 8039SOL     OW25015   2.140   5.353   3.401
 8039SOL    HW125016   2.101   5.434   3.358
 8039SOL    HW225017   2.100   5.339   3.491
 8040SOL     OW25018   6.015   6.432   6.599
 8040SOL    HW125019   5.986   6.346   6.641
 8040SOL    HW225020   6.008   6.425   6.500
 8041SOL     OW25021   3.177   2.606   0.903
 8041SOL    HW125022   3.179   2.567   0.811
 8041SOL    HW225023   3.086   2.593   0.943
 8042SOL     OW25024   1.570   4.601   6.894
 8042SOL    HW125025   1.609   4.519   6.935
 8042SOL    HW225026   1.498   4.575   6.830
 8043SOL     OW25027   3.190   0.737   0.914
 8043SOL    HW125028   3.123   0.667   0.937
 8043SOL    HW225029   3.277   0.694   0.891
 8044SOL     OW25030   3.222   2.702   1.654
 8044SOL    HW125031   3.321   2.696   1.651
 8044SOL    HW225032   3.194   2.759   1.732
 8045SOL     OW25033   5.781   2.771   3.904
 8045SOL    HW125034   5.871   2.729   3.892
 8045SOL    HW225035   5.710   2.703   3.889
 8046SOL     OW25036   6.444   5.489   5.033
 8046SOL    HW125037   6.541   5.467   5.027
 8046SOL    HW225038   6.421   5.556   4.963
 8047SOL     OW25039   2.875   6.826   4.302
 8047SOL    HW125040   2.935   6.752   4.333
 8047SOL    HW225041   2.845   6.879   4.381
 8048SOL     OW25042   5.317   0.341   5.458
 8048SOL    HW125043   5.299   0.258   5.511
 8048SOL    HW225044   5.415   0.359   5.454
 8049SOL     OW25045   2.513   6.293   6.265
 8049SOL    HW125046   2.540   6.359   6.335
 8049SOL    HW225047   2.431   6.244   6.295
 8050SOL     OW25048   0.365   3.656   1.970
 8050SOL    HW125049   0.447   3.638   2.024
 8050SOL    HW225050   0.353   3.585   1.901
 8051SOL     OW25051   2.427   2.683   4.167
 8051SOL    HW125052   2.435   2.648   4.073
 8051SOL    HW225053   2.467   2.774   4.173
 8052SOL     OW25054   3.998   1.145   2.801
 8052SOL    HW125055   4.078   1.133   2.860
 8052SOL    HW225056   3.988   1.065   2.742
 8053SOL     OW25057   4.840   3.787   1.410
 8053SOL    HW125058   4.884   3.718   1.351
 8053SOL    HW225059   4.741   3.779   1.402
 8054SOL     OW25060   4.878   6.486   4.210
 8054SOL    HW125061   4.901   6.392   4.183
 8054SOL    HW225062   4.791   6.512   4.169
 8055SOL     OW25063   1.510   7.009   4.887
 8055SOL    HW125064   1.594   0.013   4.936
 8055SOL    HW225065   1.489   0.059   4.819
 8056SOL     OW25066   4.537   1.193   3.011
 8056SOL    HW125067   4.506   1.108   3.054
 8056SOL    HW225068   4.592   1.245   3.076
 8057SOL     OW25069   3.445   0.251   3.710
 8057SOL    HW125070   3.429   0.154   3.730
 8057SOL    HW225071   3.540   0.263   3.679
 8058SOL     OW25072   1.897   6.976   2.900
 8058SOL    HW125073   1.875   6.943   2.991
 8058SOL    HW225074   1.933   0.049   2.906
 8059SOL     OW25075   1.649   1.315   4.374
 8059SOL    HW125076   1.617   1.221   4.388
 8059SOL    HW225077   1.737   1.314   4.327
 8060SOL     OW25078   0.867   2.891   5.324
 8060SOL    HW125079   0.902   2.974   5.280
 8060SOL    HW225080   0.796   2.916   5.390
 8061SOL     OW25081   5.468   6.533   3.344
 8061SOL    HW125082   5.462   6.433   3.337
 8061SOL    HW225083   5.377   6.570   3.361
 8062SOL     OW25084   1.850   1.792   1.200
 8062SOL    HW125085   1.871   1.804   1.298
 8062SOL    HW225086   1.753   1.772   1.189
 8063SOL     OW25087   2.756   2.216   5.831
 8063SOL    HW125088   2.821   2.226   5.755
 8063SOL    HW225089   2.663   2.226   5.797
 8064SOL     OW25090   5.359   2.208   6.070
 8064SOL    HW125091   5.402   2.157   5.996
 8064SOL    HW225092   5.269   2.240   6.042
 8065SOL     OW25093   4.410   0.842   6.531
 8065SOL    HW125094   4.453   0.763   6.488
 8065SOL    HW225095   4.365   0.814   6.615
 8066SOL     OW25096   0.721   0.292   1.657
 8066SOL    HW125097   0.740   0.280   1.560
 8066SOL    HW225098   0.808   0.293   1.708
 8067SOL     OW25099   4.569   2.016   2.686
 8067SOL    HW125100   4.584   1.940   2.623
 8067SOL    HW225101   4.549   2.099   2.634
 8068SOL     OW25102   6.910   4.440   3.493
 8068SOL    HW125103   6.895   4.390   3.408
 8068SOL    HW225104   6.865   4.530   3.487
 8069SOL     OW25105   6.828   5.972   2.482
 8069SOL    HW125106   6.825   6.042   2.410
 8069SOL    HW225107   6.885   5.895   2.451
 8070SOL     OW25108   3.832   0.506   2.529
 8070SOL    HW125109   3.764   0.535   2.461
 8070SOL    HW225110   3.916   0.559   2.515
 8071SOL     OW25111   5.405   4.776   6.806
 8071SOL    HW125112   5.431   4.748   6.898
 8071SOL    HW225113   5.469   4.845   6.773
 8072SOL     OW25114   3.679   0.209   3.548
 8072SOL    HW125115   3.769   0.167   3.560
 8072SOL    HW225116   3.679   0.266   3.465
 8073SOL     OW25117   5.287   0.228   6.499
 8073SOL    HW125118   5.270   0.267   6.590
 8073SOL    HW225119   5.207   0.242   6.441
 8074SOL     OW25120   2.824   4.469   0.315
 8074SOL    HW125121   2.767   4.495   0.237
 8074SOL    HW225122   2.907   4.424   0.282
 8075SOL     OW25123   6.443   1.721   3.809
 8075SOL    HW125124   6.362   1.672   3.776
 8075SOL    HW225125   6.513   1.656   3.837
 8076SOL     OW25126   4.857   2.918   6.987
 8076SOL    HW125127   4.886   2.986   6.920
 8076SOL    HW225128   4.758   2.908   6.984
 8077SOL     OW25129   0.639   0.583   6.838
 8077SOL    HW125130   0.666   0.652   6.771
 8077SOL    HW225131   0.650   0.492   6.798
 8078SOL     OW25132   6.397   4.168   1.259
 8078SOL    HW125133   6.445   4.156   1.345
 8078SOL    HW225134   6.423   4.256   1.218
 8079SOL     OW25135   1.604   3.052   0.376
 8079SOL    HW125136   1.619   3.139   0.328
 8079SOL    HW225137   1.674   3.041   0.447
 8080SOL     OW25138   3.512   4.552   0.218
 8080SOL    HW125139   3.530   4.534   0.121
 8080SOL    HW225140   3.571   4.495   0.274
 8081SOL     OW25141   5.424   2.492   4.395
 8081SOL    HW125142   5.442   2.549   4.315
 8081SOL    HW225143   5.349   2.429   4.374
 8082SOL     OW25144   6.967   3.491   4.948
 8082SOL    HW125145   6.907   3.569   4.930
 8082SOL    HW225146   6.958   3.424   4.875
 8083SOL     OW25147   6.564   1.779   4.888
 8083SOL    HW125148   6.620   1.750   4.811
 8083SOL    HW225149   6.493   1.842   4.856
 8084SOL     OW25150   5.728   6.995   6.778
 8084SOL    HW125151   5.781   7.000   6.693
 8084SOL    HW225152   5.634   6.968   6.757
 8085SOL     OW25153   5.362   2.623   1.651
 8085SOL    HW125154   5.337   2.672   1.567
 8085SOL    HW225155   5.403   2.535   1.627
 8086SOL     OW25156   3.339   5.180   6.472
 8086SOL    HW125157   3.286   5.100   6.498
 8086SOL    HW225158   3.390   5.213   6.552
 8087SOL     OW25159   1.827   3.942   0.715
 8087SOL    HW125160   1.897   3.897   0.659
 8087SOL    HW225161   1.853   3.937   0.811
 8088SOL     OW25162   4.885   0.355   3.069
 8088SOL    HW125163   4.846   0.440   3.102
 8088SOL    HW225164   4.858   0.340   2.974
 8089SOL     OW25165   6.933   2.507   0.204
 8089SOL    HW125166   6.981   2.420   0.211
 8089SOL    HW225167   6.985   2.569   0.145
 8090SOL     OW25168   5.521   1.389   4.900
 8090SOL    HW125169   5.422   1.375   4.901
 8090SOL    HW225170   5.545   1.462   4.964
 8091SOL     OW25171   1.900   3.624   5.179
 8091SOL    HW125172   1.891   3.634   5.278
 8091SOL    HW225173   1.979   3.676   5.147
 8092SOL     OW25174   6.071   2.367   3.833
 8092SOL    HW125175   6.094   2.313   3.753
 8092SOL    HW225176   6.110   2.324   3.915
 8093SOL     OW25177   6.035   4.705   0.669
 8093SOL    HW125178   6.085   4.717   0.755
 8093SOL    HW225179   5.995   4.792   0.641
 8094SOL     OW25180   0.771   3.452   3.969
 8094SOL    HW125181   0.772   3.551   3.979
 8094SOL    HW225182   0.863   3.420   3.946
 8095SOL     OW25183   6.466   3.331   5.170
 8095SOL    HW125184   6.500   3.409   5.117
 8095SOL    HW225185   6.441   3.362   5.262
 8096SOL     OW25186   3.880   0.216   0.848
 8096SOL    HW125187   3.926   0.154   0.785
 8096SOL    HW225188   3.787   0.183   0.867
 8097SOL     OW25189   5.219   2.141   3.855
 8097SOL    HW125190   5.243   2.196   3.775
 8097SOL    HW225191   5.119   2.128   3.858
 8098SOL     OW25192   2.164   2.424   3.997
 8098SOL    HW125193   2.147   2.523   4.002
 8098SOL    HW225194   2.211   2.394   4.079
 8099SOL     OW25195   4.015   0.216   4.387
 8099SOL    HW125196   4.081   0.284   4.420
 8099SOL    HW225197   4.064   0.143   4.339
 8100SOL     OW25198   6.154   6.705   1.544
 8100SOL    HW125199   6.086   6.778   1.541
 8100SOL    HW225200   6.126   6.636   1.611
 8101SOL     OW25201   1.404   4.833   2.659
 8101SOL    HW125202   1.451   4.788   2.584
 8101SOL    HW225203   1.438   4.927   2.669
 8102SOL     OW25204   6.766   0.536   5.469
 8102SOL    HW125205   6.719   0.518   5.556
 8102SOL    HW225206   6.848   0.590   5.487
 8103SOL     OW25207   2.642   2.329   2.265
 8103SOL    HW125208   2.738   2.319   2.240
 8103SOL    HW225209   2.602   2.405   2.214
 8104SOL     OW25210   2.693   0.039   5.884
 8104SOL    HW125211   2.697   0.109   5.956
 8104SOL    HW225212   2.649   6.977   5.920
 8105SOL     OW25213   2.500   2.467   2.474
 8105SOL    HW125214   2.521   2.416   2.391
 8105SOL    HW225215   2.581   2.473   2.532
 8106SOL     OW25216   0.292   4.347   6.290
 8106SOL    HW125217   0.299   4.284   6.367
 8106SOL    HW225218   0.202   4.339   6.249
 8107SOL     OW25219   0.685   4.977   6.713
 8107SOL    HW125220   0.766   4.930   6.749
 8107SOL    HW225221   0.623   4.999   6.788
 8108SOL     OW25222   1.895   2.244   6.345
 8108SOL    HW125223   1.814   2.200   6.385
 8108SOL    HW225224   1.936   2.182   6.278
 8109SOL     OW25225   0.479   5.850   5.281
 8109SOL    HW125226   0.432   5.902   5.211
 8109SOL    HW225227   0.433   5.862   5.369
 8110SOL     OW25228   0.884   4.698   0.249
 8110SOL    HW125229   0.940   4.639   0.192
 8110SOL    HW225230   0.878   4.660   0.341
 8111SOL     OW25231   3.304   6.423   4.323
 8111SOL    HW125232   3.403   6.425   4.331
 8111SOL    HW225233   3.276   6.473   4.241
 8112SOL     OW25234   4.175   1.584   4.452
 8112SOL    HW125235   4.116   1.566   4.531
 8112SOL    HW225236   4.120   1.626   4.380
 8113SOL     OW25237   2.998   2.056   6.290
 8113SOL    HW125238   3.086   2.026   6.254
 8113SOL    HW225239   3.005   2.150   6.323
 8114SOL     OW25240   2.823   3.756   1.501
 8114SOL    HW125241   2.809   3.771   1.403
 8114SOL    HW225242   2.801   3.661   1.525
 8115SOL     OW25243   4.048   2.937   1.195
 8115SOL    HW125244   4.003   3.022   1.219
 8115SOL    HW225245   4.108   2.908   1.269
 8116SOL     OW25246   5.706   1.902   5.742
 8116SOL    HW125247   5.654   1.836   5.796
 8116SOL    HW225248   5.708   1.990   5.789
 8117SOL     OW25249   3.064   2.945   5.343
 8117SOL    HW125250   3.007   2.863   5.344
 8117SOL    HW225251   3.094   2.964   5.250
 8118SOL     OW25252   0.908   2.100   4.203
 8118SOL    HW125253   0.936   2.145   4.288
 8118SOL    HW225254   0.896   2.002   4.219
 8119SOL     OW25255   1.470   0.026   2.052
 8119SOL    HW125256   1.513   0.105   2.096
 8119SOL    HW225257   1.441   6.982   2.122
 8120SOL     OW25258   4.804   3.997   2.210
 8120SOL    HW125259   4.750   4.078   2.185
 8120SOL    HW225260   4.746   3.933   2.261
 8121SOL     OW25261   6.979   6.106   3.685
 8121SOL    HW125262   0.047   6.150   3.668
 8121SOL    HW225263   6.978   6.067   3.777
 8122SOL     OW25264   0.495   5.007   1.509
 8122SOL    HW125265   0.466   4.979   1.600
 8122SOL    HW225266   0.588   5.043   1.513
 8123SOL     OW25267   1.162   4.967   5.938
 8123SOL    HW125268   1.165   5.062   5.909
 8123SOL    HW225269   1.247   4.921   5.912
 8124SOL     OW25270   1.622   6.014   2.215
 8124SOL    HW125271   1.704   6.069   2.200
 8124SOL    HW225272   1.545   6.056   2.168
 8125SOL     OW25273   5.024   5.209   3.443
 8125SOL    HW125274   5.046   5.168   3.532
 8125SOL    HW225275   5.057   5.304   3.441
 8126SOL     OW25276   0.357   4.532   2.228
 8126SOL    HW125277   0.373   4.439   2.262
 8126SOL    HW225278   0.442   4.569   2.191
 8127SOL     OW25279   4.556   5.361   0.312
 8127SOL    HW125280   4.506   5.398   0.233
 8127SOL    HW225281   4.508   5.281   0.348
 8128SOL     OW25282   3.808   2.190   5.250
 8128SOL    HW125283   3.780   2.281   5.280
 8128SOL    HW225284   3.735   2.149   5.195
 8129SOL     OW25285   5.094   5.174   6.616
 8129SOL    HW125286   5.181   5.131   6.595
 8129SOL    HW225287   5.021   5.106   6.609
 8130SOL     OW25288   0.501   0.691   6.116
 8130SOL    HW125289   0.478   0.627   6.042
 8130SOL    HW225290   0.462   0.780   6.095
 8131SOL     OW25291   2.364   1.708   1.359
 8131SOL    HW125292   2.411   1.637   1.412
 8131SOL    HW225293   2.329   1.778   1.421
 8132SOL     OW25294   5.909   4.589   3.596
 8132SOL    HW125295   5.932   4.594   3.499
 8132SOL    HW225296   5.900   4.493   3.623
 8133SOL     OW25297   0.026   5.428   2.535
 8133SOL    HW125298   6.959   5.391   2.566
 8133SOL    HW225299   0.095   5.412   2.606
 8134SOL     OW25300   3.594   3.468   1.412
 8134SOL    HW125301   3.534   3.537   1.369
 8134SOL    HW225302   3.560   3.448   1.504
 8135SOL     OW25303   4.167   5.815   2.273
 8135SOL    HW125304   4.213   5.885   2.328
 8135SOL    HW225305   4.073   5.803   2.306
 8136SOL     OW25306   2.281   5.497   1.201
 8136SOL    HW125307   2.203   5.439   1.179
 8136SOL    HW225308   2.348   5.444   1.253
 8137SOL     OW25309   3.656   4.432   5.655
 8137SOL    HW125310   3.662   4.500   5.582
 8137SOL    HW225311   3.576   4.451   5.711
 8138SOL     OW25312   4.224   0.827   3.811
 8138SOL    HW125313   4.286   0.795   3.739
 8138SOL    HW225314   4.150   0.881   3.770
 8139SOL     OW25315   1.876   3.263   5.564
 8139SOL    HW125316   1.849   3.349   5.607
 8139SOL    HW225317   1.959   3.278   5.510
 8140SOL     OW25318   5.127   1.689   1.296
 8140SOL    HW125319   5.210   1.691   1.240
 8140SOL    HW225320   5.089   1.597   1.295
 8141SOL     OW25321   6.154   1.920   5.053
 8141SOL    HW125322   6.150   1.821   5.039
 8141SOL    HW225323   6.063   1.959   5.046
 8142SOL     OW25324   4.020   5.792   0.395
 8142SOL    HW125325   4.029   5.768   0.298
 8142SOL    HW225326   3.927   5.825   0.412
 8143SOL     OW25327   5.715   5.165   0.736
 8143SOL    HW125328   5.760   5.252   0.759
 8143SOL    HW225329   5.716   5.105   0.816
 8144SOL     OW25330   1.791   5.462   6.335
 8144SOL    HW125331   1.850   5.450   6.255
 8144SOL    HW225332   1.736   5.380   6.349
 8145SOL     OW25333   4.847   5.499   5.492
 8145SOL    HW125334   4.764   5.523   5.542
 8145SOL    HW225335   4.859   5.563   5.416
 8146SOL     OW25336   6.764   6.364   5.534
 8146SOL    HW125337   6.733   6.398   5.623
 8146SOL    HW225338   6.687   6.323   5.485
 8147SOL     OW25339   2.279   6.387   4.592
 8147SOL    HW125340   2.309   6.468   4.643
 8147SOL    HW225341   2.233   6.416   4.508
 8148SOL     OW25342   4.979   5.012   0.798
 8148SOL    HW125343   4.927   4.964   0.727
 8148SOL    HW225344   4.987   4.954   0.879
 8149SOL     OW25345   1.358   6.275   4.661
 8149SOL    HW125346   1.415   6.332   4.601
 8149SOL    HW225347   1.389   6.287   4.756
 8150SOL     OW25348   0.691   4.169   0.496
 8150SOL    HW125349   0.724   4.079   0.467
 8150SOL    HW225350   0.759   4.212   0.555
 8151SOL     OW25351   6.107   4.312   2.676
 8151SOL    HW125352   6.021   4.334   2.724
 8151SOL    HW225353   6.150   4.233   2.719
 8152SOL     OW25354   5.129   1.922   4.428
 8152SOL    HW125355   5.216   1.892   4.466
 8152SOL    HW225356   5.143   1.958   4.336
 8153SOL     OW25357   0.431   1.703   0.983
 8153SOL    HW125358   0.398   1.760   1.058
 8153SOL    HW225359   0.514   1.745   0.944
 8154SOL     OW25360   6.846   0.414   4.773
 8154SOL    HW125361   6.814   0.461   4.855
 8154SOL    HW225362   6.943   0.436   4.759
 8155SOL     OW25363   1.357   4.483   4.772
 8155SOL    HW125364   1.316   4.572   4.747
 8155SOL    HW225365   1.410   4.493   4.855
 8156SOL     OW25366   1.208   3.696   0.664
 8156SOL    HW125367   1.228   3.681   0.567
 8156SOL    HW225368   1.168   3.613   0.703
 8157SOL     OW25369   6.448   4.715   5.901
 8157SOL    HW125370   6.386   4.688   5.827
 8157SOL    HW225371   6.395   4.741   5.981
 8158SOL     OW25372   6.797   5.085   6.410
 8158SOL    HW125373   6.847   5.017   6.463
 8158SOL    HW225374   6.713   5.045   6.374
 8159SOL     OW25375   2.026   6.301   5.270
 8159SOL    HW125376   2.038   6.281   5.367
 8159SOL    HW225377   2.110   6.340   5.232
 8160SOL     OW25378   4.893   3.315   2.665
 8160SOL    HW125379   4.841   3.239   2.703
 8160SOL    HW225380   4.990   3.294   2.668
 8161SOL     OW25381   0.487   2.473   0.918
 8161SOL    HW125382   0.406   2.527   0.897
 8161SOL    HW225383   0.561   2.498   0.855
 8162SOL     OW25384   6.737   6.145   5.982
 8162SOL    HW125385   6.704   6.066   6.034
 8162SOL    HW225386   6.704   6.138   5.888
 8163SOL     OW25387   3.678   5.276   5.943
 8163SOL    HW125388   3.667   5.287   6.042
 8163SOL    HW225389   3.713   5.361   5.904
 8164SOL     OW25390   5.516   2.003   0.119
 8164SOL    HW125391   5.433   1.981   0.170
 8164SOL    HW225392   5.552   1.920   0.076
 8165SOL     OW25393   1.503   2.377   5.859
 8165SOL    HW125394   1.430   2.439   5.889
 8165SOL    HW225395   1.553   2.418   5.783
 8166SOL     OW25396   3.547   2.149   3.956
 8166SOL    HW125397   3.557   2.074   3.891
 8166SOL    HW225398   3.450   2.171   3.967
 8167SOL     OW25399   1.670   2.015   2.064
 8167SOL    HW125400   1.665   1.929   2.013
 8167SOL    HW225401   1.756   2.061   2.043
 8168SOL     OW25402   1.242   5.857   2.712
 8168SOL    HW125403   1.239   5.955   2.734
 8168SOL    HW225404   1.261   5.845   2.615
 8169SOL     OW25405   5.348   4.934   6.499
 8169SOL    HW125406   5.288   4.879   6.440
 8169SOL    HW225407   5.442   4.902   6.491
 8170SOL     OW25408   0.324   4.858   3.169
 8170SOL    HW125409   0.367   4.768   3.171
 8170SOL    HW225410   0.260   4.861   3.092
 8171SOL     OW25411   1.414   1.596   1.707
 8171SOL    HW125412   1.474   1.633   1.778
 8171SOL    HW225413   1.438   1.501   1.689
 8172SOL     OW25414   1.502   4.876   0.530
 8172SOL    HW125415   1.525   4.836   0.441
 8172SOL    HW225416   1.416   4.836   0.562
 8173SOL     OW25417   5.195   0.654   1.309
 8173SOL    HW125418   5.183   0.564   1.268
 8173SOL    HW225419   5.274   0.699   1.267
 8174SOL     OW25420   2.974   6.355   3.781
 8174SOL    HW125421   2.915   6.282   3.816
 8174SOL    HW225422   2.924   6.408   3.712
 8175SOL     OW25423   0.923   2.403   6.298
 8175SOL    HW125424   0.831   2.431   6.327
 8175SOL    HW225425   0.931   2.416   6.199
 8176SOL     OW25426   2.523   4.537   0.470
 8176SOL    HW125427   2.599   4.551   0.535
 8176SOL    HW225428   2.544   4.584   0.384
 8177SOL     OW25429   3.293   1.369   2.172
 8177SOL    HW125430   3.313   1.440   2.105
 8177SOL    HW225431   3.359   1.295   2.164
 8178SOL     OW25432   2.670   6.471   0.876
 8178SOL    HW125433   2.597   6.476   0.809
 8178SOL    HW225434   2.737   6.543   0.858
 8179SOL     OW25435   6.518   6.401   4.476
 8179SOL    HW125436   6.429   6.390   4.432
 8179SOL    HW225437   6.533   6.498   4.496
 8180SOL     OW25438   3.572   5.439   0.972
 8180SOL    HW125439   3.611   5.500   0.902
 8180SOL    HW225440   3.475   5.425   0.953
 8181SOL     OW25441   6.473   0.856   6.541
 8181SOL    HW125442   6.409   0.927   6.569
 8181SOL    HW225443   6.440   0.812   6.457
 8182SOL     OW25444   3.211   3.281   3.034
 8182SOL    HW125445   3.272   3.300   2.957
 8182SOL    HW225446   3.228   3.188   3.069
 8183SOL     OW25447   0.256   0.423   5.464
 8183SOL    HW125448   0.249   0.323   5.459
 8183SOL    HW225449   0.351   0.451   5.454
 8184SOL     OW25450   6.924   5.768   4.831
 8184SOL    HW125451   6.978   5.811   4.904
 8184SOL    HW225452   6.985   5.731   4.762
 8185SOL     OW25453   6.654   6.313   4.831
 8185SOL    HW125454   6.722   6.382   4.806
 8185SOL    HW225455   6.603   6.344   4.911
 8186SOL     OW25456   0.692   6.198   6.770
 8186SOL    HW125457   0.621   6.129   6.785
 8186SOL    HW225458   0.724   6.193   6.675
 8187SOL     OW25459   1.087   6.520   4.607
 8187SOL    HW125460   1.176   6.565   4.618
 8187SOL    HW225461   1.101   6.421   4.597
 8188SOL     OW25462   1.517   2.295   2.566
 8188SOL    HW125463   1.435   2.345   2.540
 8188SOL    HW225464   1.543   2.320   2.659
 8189SOL     OW25465   6.805   5.171   3.816
 8189SOL    HW125466   6.756   5.103   3.870
 8189SOL    HW225467   6.892   5.192   3.860
 8190SOL     OW25468   5.202   3.862   2.305
 8190SOL    HW125469   5.298   3.833   2.302
 8190SOL    HW225470   5.192   3.937   2.369
 8191SOL     OW25471   4.601   5.196   0.769
 8191SOL    HW125472   4.559   5.113   0.734
 8191SOL    HW225473   4.659   5.237   0.699
 8192SOL     OW25474   6.453   5.788   2.778
 8192SOL    HW125475   6.386   5.717   2.754
 8192SOL    HW225476   6.505   5.814   2.697
 8193SOL     OW25477   0.861   5.009   4.437
 8193SOL    HW125478   0.826   5.065   4.362
 8193SOL    HW225479   0.791   4.943   4.465
 8194SOL     OW25480   5.923   6.760   2.254
 8194SOL    HW125481   5.947   6.679   2.307
 8194SOL    HW225482   5.831   6.791   2.279
 8195SOL     OW25483   6.491   6.884   3.069
 8195SOL    HW125484   6.546   6.876   3.152
 8195SOL    HW225485   6.505   6.803   3.012
 8196SOL     OW25486   5.381   0.090   2.329
 8196SOL    HW125487   5.403   0.089   2.426
 8196SOL    HW225488   5.282   0.092   2.317
 8197SOL     OW25489   4.063   0.716   3.333
 8197SOL    HW125490   4.004   0.674   3.264
 8197SOL    HW225491   4.010   0.733   3.416
 8198SOL     OW25492   1.880   5.322   0.128
 8198SOL    HW125493   1.870   5.248   0.062
 8198SOL    HW225494   1.790   5.350   0.162
 8199SOL     OW25495   5.812   2.810   6.886
 8199SOL    HW125496   5.879   2.864   6.936
 8199SOL    HW225497   5.736   2.786   6.947
 8200SOL     OW25498   5.766   4.528   0.066
 8200SOL    HW125499   5.714   4.607   0.099
 8200SOL    HW225500   5.748   4.515   6.989
 8201SOL     OW25501   5.407   1.575   5.921
 8201SOL    HW125502   5.454   1.488   5.905
 8201SOL    HW225503   5.328   1.559   5.981
 8202SOL     OW25504   6.868   6.172   2.290
 8202SOL    HW125505   6.960   6.204   2.309
 8202SOL    HW225506   6.801   6.234   2.332
 8203SOL     OW25507   0.912   2.861   0.206
 8203SOL    HW125508   0.928   2.954   0.172
 8203SOL    HW225509   0.948   2.853   0.299
 8204SOL     OW25510   1.501   3.471   0.770
 8204SOL    HW125511   1.499   3.434   0.677
 8204SOL    HW225512   1.558   3.553   0.772
 8205SOL     OW25513   6.867   3.963   6.431
 8205SOL    HW125514   6.781   3.936   6.387
 8205SOL    HW225515   6.942   3.956   6.366
 8206SOL     OW25516   3.289   1.517   1.280
 8206SOL    HW125517   3.235   1.599   1.260
 8206SOL    HW225518   3.311   1.514   1.377
 8207SOL     OW25519   3.691   3.313   3.903
 8207SOL    HW125520   3.719   3.405   3.929
 8207SOL    HW225521   3.612   3.285   3.957
 8208SOL     OW25522   3.766   0.188   5.530
 8208SOL    HW125523   3.758   0.097   5.490
 8208SOL    HW225524   3.858   0.223   5.514
 8209SOL     OW25525   5.098   2.749   3.802
 8209SOL    HW125526   5.071   2.838   3.764
 8209SOL    HW225527   5.109   2.758   3.901
 8210SOL     OW25528   1.268   1.652   6.105
 8210SOL    HW125529   1.358   1.634   6.064
 8210SOL    HW225530   1.215   1.712   6.045
 8211SOL     OW25531   4.009   4.567   1.302
 8211SOL    HW125532   4.042   4.609   1.387
 8211SOL    HW225533   3.964   4.636   1.246
 8212SOL     OW25534   1.867   3.452   2.669
 8212SOL    HW125535   1.768   3.449   2.655
 8212SOL    HW225536   1.906   3.529   2.618
 8213SOL     OW25537   6.531   4.692   0.817
 8213SOL    HW125538   6.499   4.786   0.806
 8213SOL    HW225539   6.533   4.647   0.728
 8214SOL     OW25540   4.817   2.706   3.539
 8214SOL    HW125541   4.727   2.662   3.538
 8214SOL    HW225542   4.810   2.796   3.581
 8215SOL     OW25543   3.412   4.102   1.678
 8215SOL    HW125544   3.451   4.183   1.721
 8215SOL    HW225545   3.473   4.069   1.606
 8216SOL     OW25546   5.586   2.801   4.615
 8216SOL    HW125547   5.654   2.731   4.592
 8216SOL    HW225548   5.626   2.891   4.600
 8217SOL     OW25549   2.240   5.757   6.932
 8217SOL    HW125550   2.301   5.709   6.870
 8217SOL    HW225551   2.207   5.694   7.002
 8218SOL     OW25552   4.621   1.898   0.011
 8218SOL    HW125553   4.684   1.865   0.081
 8218SOL    HW225554   4.656   1.875   6.941
 8219SOL     OW25555   5.394   2.732   0.251
 8219SOL    HW125556   5.463   2.726   0.178
 8219SOL    HW225557   5.398   2.823   0.292
 8220SOL     OW25558   4.080   3.433   1.553
 8220SOL    HW125559   4.036   3.511   1.509
 8220SOL    HW225560   4.067   3.439   1.652
 8221SOL     OW25561   5.657   3.725   3.741
 8221SOL    HW125562   5.649   3.641   3.796
 8221SOL    HW225563   5.619   3.708   3.650
 8222SOL     OW25564   5.835   1.307   3.187
 8222SOL    HW125565   5.812   1.375   3.117
 8222SOL    HW225566   5.855   1.354   3.273
 8223SOL     OW25567   0.982   3.615   7.011
 8223SOL    HW125568   1.062   3.587   0.042
 8223SOL    HW225569   1.002   3.700   6.961
 8224SOL     OW25570   1.161   3.698   2.673
 8224SOL    HW125571   1.139   3.613   2.721
 8224SOL    HW225572   1.103   3.707   2.592
 8225SOL     OW25573   4.943   0.193   1.202
 8225SOL    HW125574   4.964   0.137   1.122
 8225SOL    HW225575   4.878   0.265   1.176
 8226SOL     OW25576   4.363   0.198   0.196
 8226SOL    HW125577   4.339   0.291   0.223
 8226SOL    HW225578   4.284   0.138   0.208
 8227SOL     OW25579   6.092   4.635   3.373
 8227SOL    HW125580   6.050   4.656   3.285
 8227SOL    HW225581   6.161   4.703   3.395
 8228SOL     OW25582   0.021   0.981   3.463
 8228SOL    HW125583   6.998   0.912   3.521
 8228SOL    HW225584   6.973   1.044   3.428
 8229SOL     OW25585   6.143   5.423   6.646
 8229SOL    HW125586   6.179   5.386   6.732
 8229SOL    HW225587   6.174   5.517   6.634
 8230SOL     OW25588   5.005   6.898   3.357
 8230SOL    HW125589   5.062   6.959   3.412
 8230SOL    HW225590   4.998   6.934   3.264
 8231SOL     OW25591   3.551   5.941   1.404
 8231SOL    HW125592   3.582   5.949   1.499
 8231SOL    HW225593   3.620   5.892   1.351
 8232SOL     OW25594   2.554   1.438   0.204
 8232SOL    HW125595   2.469   1.479   0.238
 8232SOL    HW225596   2.533   1.354   0.155
 8233SOL     OW25597   0.802   5.838   6.292
 8233SOL    HW125598   0.809   5.936   6.275
 8233SOL    HW225599   0.744   5.796   6.222
 8234SOL     OW25600   1.768   3.229   6.944
 8234SOL    HW125601   1.775   3.162   7.019
 8234SOL    HW225602   1.738   3.317   6.980
 8235SOL     OW25603   4.648   2.696   6.684
 8235SOL    HW125604   4.667   2.757   6.607
 8235SOL    HW225605   4.615   2.750   6.761
 8236SOL     OW25606   6.142   1.387   1.677
 8236SOL    HW125607   6.183   1.331   1.748
 8236SOL    HW225608   6.193   1.473   1.668
 8237SOL     OW25609   3.776   6.213   5.430
 8237SOL    HW125610   3.685   6.253   5.430
 8237SOL    HW225611   3.797   6.178   5.338
 8238SOL     OW25612   0.187   1.137   5.480
 8238SOL    HW125613   0.108   1.122   5.540
 8238SOL    HW225614   0.183   1.229   5.442
 8239SOL     OW25615   4.905   1.628   6.325
 8239SOL    HW125616   4.814   1.667   6.341
 8239SOL    HW225617   4.895   1.536   6.287
 8240SOL     OW25618   3.823   2.937   2.793
 8240SOL    HW125619   3.786   2.935   2.700
 8240SOL    HW225620   3.755   2.900   2.856
 8241SOL     OW25621   4.247   6.411   1.064
 8241SOL    HW125622   4.316   6.465   1.112
 8241SOL    HW225623   4.199   6.351   1.129
 8242SOL     OW25624   1.908   4.296   4.892
 8242SOL    HW125625   1.983   4.240   4.927
 8242SOL    HW225626   1.842   4.237   4.845
 8243SOL     OW25627   6.937   4.277   4.380
 8243SOL    HW125628   6.839   4.294   4.374
 8243SOL    HW225629   6.954   4.203   4.446
 8244SOL     OW25630   3.391   5.534   5.540
 8244SOL    HW125631   3.450   5.482   5.479
 8244SOL    HW225632   3.296   5.503   5.530
 8245SOL     OW25633   4.512   4.143   1.149
 8245SOL    HW125634   4.502   4.115   1.245
 8245SOL    HW225635   4.555   4.233   1.145
 8246SOL     OW25636   5.621   3.045   5.231
 8246SOL    HW125637   5.575   3.009   5.150
 8246SOL    HW225638   5.562   3.110   5.278
 8247SOL     OW25639   1.060   5.918   6.994
 8247SOL    HW125640   1.137   5.981   6.978
 8247SOL    HW225641   0.984   5.942   6.933
 8248SOL     OW25642   6.765   4.181   3.145
 8248SOL    HW125643   6.684   4.151   3.195
 8248SOL    HW225644   6.796   4.269   3.181
 8249SOL     OW25645   0.903   5.947   3.150
 8249SOL    HW125646   0.978   6.000   3.111
 8249SOL    HW225647   0.918   5.850   3.132
 8250SOL     OW25648   3.045   3.198   2.407
 8250SOL    HW125649   3.015   3.242   2.323
 8250SOL    HW225650   2.988   3.230   2.483
 8251SOL     OW25651   5.625   0.545   4.119
 8251SOL    HW125652   5.541   0.592   4.148
 8251SOL    HW225653   5.605   0.487   4.040
 8252SOL     OW25654   0.778   3.716   4.589
 8252SOL    HW125655   0.863   3.769   4.597
 8252SOL    HW225656   0.798   3.618   4.594
 8253SOL     OW25657   2.922   3.029   5.775
 8253SOL    HW125658   2.979   2.965   5.724
 8253SOL    HW225659   2.836   3.044   5.726
 8254SOL     OW25660   4.796   4.799   2.795
 8254SOL    HW125661   4.749   4.878   2.754
 8254SOL    HW225662   4.729   4.742   2.843
 8255SOL     OW25663   3.954   5.104   3.792
 8255SOL    HW125664   3.878   5.061   3.744
 8255SOL    HW225665   3.922   5.186   3.838
 8256SOL     OW25666   5.169   2.330   2.722
 8256SOL    HW125667   5.192   2.233   2.724
 8256SOL    HW225668   5.123   2.355   2.807
 8257SOL     OW25669   6.297   4.474   4.375
 8257SOL    HW125670   6.226   4.540   4.351
 8257SOL    HW225671   6.354   4.510   4.449
 8258SOL     OW25672   5.389   1.884   0.427
 8258SOL    HW125673   5.420   1.794   0.395
 8258SOL    HW225674   5.462   1.951   0.413
 8259SOL     OW25675   4.411   0.464   1.224
 8259SOL    HW125676   4.470   0.479   1.303
 8259SOL    HW225677   4.467   0.434   1.146
 8260SOL     OW25678   3.417   5.526   6.528
 8260SOL    HW125679   3.431   5.623   6.510
 8260SOL    HW225680   3.492   5.491   6.585
 8261SOL     OW25681   4.690   1.323   1.553
 8261SOL    HW125682   4.765   1.386   1.531
 8261SOL    HW225683   4.642   1.356   1.634
 8262SOL     OW25684   6.346   2.860   1.834
 8262SOL    HW125685   6.258   2.823   1.805
 8262SOL    HW225686   6.402   2.787   1.873
 8263SOL     OW25687   5.966   1.851   0.164
 8263SOL    HW125688   5.866   1.858   0.158
 8263SOL    HW225689   6.003   1.935   0.203
 8264SOL     OW25690   1.539   4.094   1.423
 8264SOL    HW125691   1.614   4.093   1.490
 8264SOL    HW225692   1.561   4.033   1.347
 8265SOL     OW25693   2.257   0.542   3.153
 8265SOL    HW125694   2.341   0.526   3.204
 8265SOL    HW225695   2.253   0.638   3.125
 8266SOL     OW25696   2.924   1.128   2.841
 8266SOL    HW125697   2.835   1.161   2.810
 8266SOL    HW225698   2.960   1.062   2.776
 8267SOL     OW25699   6.889   3.143   1.924
 8267SOL    HW125700   6.958   3.214   1.908
 8267SOL    HW225701   6.927   3.073   1.985
 8268SOL     OW25702   2.334   4.541   0.119
 8268SOL    HW125703   2.273   4.595   0.177
 8268SOL    HW225704   2.321   4.444   0.140
 8269SOL     OW25705   5.318   2.357   6.902
 8269SOL    HW125706   5.298   2.392   6.993
 8269SOL    HW225707   5.396   2.407   6.863
 8270SOL     OW25708   2.254   6.079   4.338
 8270SOL    HW125709   2.169   6.054   4.291
 8270SOL    HW225710   2.249   6.048   4.433
 8271SOL     OW25711   0.534   2.085   2.610
 8271SOL    HW125712   0.588   2.048   2.534
 8271SOL    HW225713   0.468   2.151   2.576
 8272SOL     OW25714   3.709   0.965   4.333
 8272SOL    HW125715   3.690   1.063   4.332
 8272SOL    HW225716   3.739   0.939   4.425
 8273SOL     OW25717   2.245   6.587   1.906
 8273SOL    HW125718   2.189   6.598   1.988
 8273SOL    HW225719   2.332   6.543   1.931
 8274SOL     OW25720   5.277   3.576   3.681
 8274SOL    HW125721   5.230   3.601   3.596
 8274SOL    HW225722   5.245   3.635   3.756
 8275SOL     OW25723   6.327   2.487   6.922
 8275SOL    HW125724   6.404   2.525   6.870
 8275SOL    HW225725   6.347   2.490   7.019
 8276SOL     OW25726   1.087   1.790   3.606
 8276SOL    HW125727   1.040   1.808   3.520
 8276SOL    HW225728   1.158   1.859   3.620
 8277SOL     OW25729   0.299   1.330   0.710
 8277SOL    HW125730   0.319   1.282   0.625
 8277SOL    HW225731   0.290   1.264   0.785
 8278SOL     OW25732   0.999   2.478   0.312
 8278SOL    HW125733   1.065   2.551   0.328
 8278SOL    HW225734   0.906   2.515   0.317
 8279SOL     OW25735   0.494   6.100   3.878
 8279SOL    HW125736   0.586   6.061   3.873
 8279SOL    HW225737   0.499   6.192   3.916
 8280SOL     OW25738   3.131   2.303   6.247
 8280SOL    HW125739   3.058   2.302   6.179
 8280SOL    HW225740   3.219   2.319   6.202
 8281SOL     OW25741   4.099   5.192   2.247
 8281SOL    HW125742   4.105   5.231   2.338
 8281SOL    HW225743   4.111   5.264   2.179
 8282SOL     OW25744   6.837   2.998   6.256
 8282SOL    HW125745   6.743   2.972   6.239
 8282SOL    HW225746   6.846   3.037   6.347
 8283SOL     OW25747   2.403   2.634   6.381
 8283SOL    HW125748   2.373   2.556   6.327
 8283SOL    HW225749   2.459   2.695   6.324
 8284SOL     OW25750   6.849   4.536   1.848
 8284SOL    HW125751   6.804   4.611   1.895
 8284SOL    HW225752   6.921   4.572   1.789
 8285SOL     OW25753   3.358   2.891   3.674
 8285SOL    HW125754   3.457   2.887   3.660
 8285SOL    HW225755   3.314   2.829   3.609
 8286SOL     OW25756   0.077   3.037   0.036
 8286SOL    HW125757   0.121   3.004   0.119
 8286SOL    HW225758   0.127   3.116   0.001
 8287SOL     OW25759   1.518   6.905   4.475
 8287SOL    HW125760   1.603   6.922   4.526
 8287SOL    HW225761   1.533   6.829   4.411
 8288SOL     OW25762   2.370   1.580   2.829
 8288SOL    HW125763   2.422   1.644   2.772
 8288SOL    HW225764   2.406   1.581   2.922
 8289SOL     OW25765   0.970   6.778   0.204
 8289SOL    HW125766   0.958   6.742   0.111
 8289SOL    HW225767   1.059   6.822   0.212
 8290SOL     OW25768   6.302   1.777   1.171
 8290SOL    HW125769   6.206   1.778   1.198
 8290SOL    HW225770   6.318   1.701   1.108
 8291SOL     OW25771   4.099   0.531   1.549
 8291SOL    HW125772   4.130   0.577   1.465
 8291SOL    HW225773   4.007   0.495   1.534
 8292SOL     OW25774   2.206   0.952   6.192
 8292SOL    HW125775   2.233   0.881   6.127
 8292SOL    HW225776   2.110   0.937   6.219
 8293SOL     OW25777   6.151   5.306   5.618
 8293SOL    HW125778   6.239   5.316   5.664
 8293SOL    HW225779   6.155   5.227   5.556
 8294SOL     OW25780   6.015   2.962   6.993
 8294SOL    HW125781   6.038   3.018   6.913
 8294SOL    HW225782   6.091   2.963   0.037
 8295SOL     OW25783   5.480   2.247   6.568
 8295SOL    HW125784   5.534   2.253   6.651
 8295SOL    HW225785   5.538   2.267   6.489
 8296SOL     OW25786   0.479   5.129   5.246
 8296SOL    HW125787   0.548   5.059   5.226
 8296SOL    HW225788   0.480   5.149   5.344
 8297SOL     OW25789   1.328   3.694   4.072
 8297SOL    HW125790   1.422   3.692   4.108
 8297SOL    HW225791   1.286   3.604   4.083
 8298SOL     OW25792   4.559   2.571   2.583
 8298SOL    HW125793   4.487   2.640   2.595
 8298SOL    HW225794   4.534   2.510   2.508
 8299SOL     OW25795   6.176   1.406   1.156
 8299SOL    HW125796   6.184   1.475   1.085
 8299SOL    HW225797   6.192   1.447   1.246
 8300SOL     OW25798   1.225   5.379   2.844
 8300SOL    HW125799   1.176   5.466   2.851
 8300SOL    HW225800   1.319   5.390   2.875
 8301SOL     OW25801   3.078   1.280   5.911
 8301SOL    HW125802   3.043   1.363   5.868
 8301SOL    HW225803   3.131   1.304   5.992
 8302SOL     OW25804   6.318   4.983   6.475
 8302SOL    HW125805   6.242   4.934   6.433
 8302SOL    HW225806   6.286   5.035   6.554
 8303SOL     OW25807   0.315   0.325   6.983
 8303SOL    HW125808   0.317   0.292   0.056
 8303SOL    HW225809   0.357   0.416   6.979
 8304SOL     OW25810   0.026   3.313   0.559
 8304SOL    HW125811   0.019   3.231   0.616
 8304SOL    HW225812   7.005   3.294   0.470
 8305SOL     OW25813   3.324   5.809   2.530
 8305SOL    HW125814   3.397   5.792   2.464
 8305SOL    HW225815   3.293   5.723   2.569
 8306SOL     OW25816   1.387   2.271   3.848
 8306SOL    HW125817   1.435   2.341   3.901
 8306SOL    HW225818   1.380   2.300   3.753
 8307SOL     OW25819   3.526   6.350   1.189
 8307SOL    HW125820   3.447   6.376   1.133
 8307SOL    HW225821   3.571   6.433   1.223
 8308SOL     OW25822   2.709   0.908   2.485
 8308SOL    HW125823   2.610   0.904   2.496
 8308SOL    HW225824   2.746   0.815   2.483
 8309SOL     OW25825   5.931   6.212   2.495
 8309SOL    HW125826   5.988   6.131   2.510
 8309SOL    HW225827   5.903   6.250   2.583
 8310SOL     OW25828   5.944   5.029   0.020
 8310SOL    HW125829   5.914   5.023   0.115
 8310SOL    HW225830   6.015   4.961   0.004
 8311SOL     OW25831   6.905   0.724   6.591
 8311SOL    HW125832   6.903   0.654   6.519
 8311SOL    HW225833   6.989   0.778   6.583
 8312SOL     OW25834   4.709   6.171   1.297
 8312SOL    HW125835   4.636   6.228   1.336
 8312SOL    HW225836   4.672   6.118   1.220
 8313SOL     OW25837   3.990   2.142   2.850
 8313SOL    HW125838   4.072   2.197   2.869
 8313SOL    HW225839   3.921   2.162   2.919
 8314SOL     OW25840   6.590   6.980   4.313
 8314SOL    HW125841   6.492   6.966   4.303
 8314SOL    HW225842   6.624   0.015   4.236
 8315SOL     OW25843   5.108   4.248   6.947
 8315SOL    HW125844   5.091   4.338   6.908
 8315SOL    HW225845   5.131   4.257   0.023
 8316SOL     OW25846   2.744   5.555   6.251
 8316SOL    HW125847   2.794   5.471   6.273
 8316SOL    HW225848   2.791   5.633   6.291
 8317SOL     OW25849   2.123   5.029   1.534
 8317SOL    HW125850   2.067   5.062   1.459
 8317SOL    HW225851   2.209   5.081   1.537
 8318SOL     OW25852   2.963   1.085   5.750
 8318SOL    HW125853   2.989   1.159   5.812
 8318SOL    HW225854   2.890   1.116   5.689
 8319SOL     OW25855   2.151   0.659   5.439
 8319SOL    HW125856   2.150   0.559   5.433
 8319SOL    HW225857   2.157   0.698   5.347
 8320SOL     OW25858   3.769   4.951   1.000
 8320SOL    HW125859   3.754   5.050   1.007
 8320SOL    HW225860   3.740   4.919   0.910
 8321SOL     OW25861   6.916   1.413   1.651
 8321SOL    HW125862   6.879   1.478   1.585
 8321SOL    HW225863   6.960   1.338   1.603
 8322SOL     OW25864   5.303   6.426   1.013
 8322SOL    HW125865   5.369   6.448   0.941
 8322SOL    HW225866   5.351   6.413   1.100
 8323SOL     OW25867   1.389   0.621   1.544
 8323SOL    HW125868   1.465   0.660   1.597
 8323SOL    HW225869   1.367   0.530   1.580
 8324SOL     OW25870   6.985   0.799   2.849
 8324SOL    HW125871   7.007   0.845   2.763
 8324SOL    HW225872   6.893   0.825   2.878
 8325SOL     OW25873   3.624   3.684   5.060
 8325SOL    HW125874   3.578   3.622   5.124
 8325SOL    HW225875   3.722   3.666   5.061
 8326SOL     OW25876   4.238   3.031   5.527
 8326SOL    HW125877   4.289   3.097   5.473
 8326SOL    HW225878   4.150   3.012   5.483
 8327SOL     OW25879   4.801   2.473   5.946
 8327SOL    HW125880   4.743   2.548   5.915
 8327SOL    HW225881   4.770   2.442   6.036
 8328SOL     OW25882   1.864   2.613   3.919
 8328SOL    HW125883   1.870   2.602   4.019
 8328SOL    HW225884   1.873   2.524   3.875
 8329SOL     OW25885   1.130   3.554   4.746
 8329SOL    HW125886   1.144   3.557   4.647
 8329SOL    HW225887   1.166   3.638   4.786
 8330SOL     OW25888   2.619   6.791   6.705
 8330SOL    HW125889   2.582   6.763   6.616
 8330SOL    HW225890   2.705   6.840   6.691
 8331SOL     OW25891   2.490   6.987   1.179
 8331SOL    HW125892   2.579   6.949   1.152
 8331SOL    HW225893   2.422   6.965   1.109
 8332SOL     OW25894   4.700   6.295   3.102
 8332SOL    HW125895   4.694   6.384   3.146
 8332SOL    HW225896   4.792   6.282   3.065
 8333SOL     OW25897   2.016   4.740   5.354
 8333SOL    HW125898   2.106   4.738   5.398
 8333SOL    HW225899   2.027   4.742   5.255
 8334SOL     OW25900   6.860   0.403   3.202
 8334SOL    HW125901   6.867   0.336   3.128
 8334SOL    HW225902   6.873   0.495   3.166
 8335SOL     OW25903   6.124   6.161   4.955
 8335SOL    HW125904   6.035   6.186   4.917
 8335SOL    HW225905   6.158   6.079   4.909
 8336SOL     OW25906   1.554   1.650   2.687
 8336SOL    HW125907   1.511   1.615   2.604
 8336SOL    HW225908   1.490   1.646   2.763
 8337SOL     OW25909   6.269   6.622   2.381
 8337SOL    HW125910   6.216   6.654   2.459
 8337SOL    HW225911   6.366   6.624   2.402
 8338SOL     OW25912   2.524   5.878   0.716
 8338SOL    HW125913   2.578   5.816   0.660
 8338SOL    HW225914   2.557   5.877   0.810
 8339SOL     OW25915   4.976   1.227   3.383
 8339SOL    HW125916   5.044   1.269   3.322
 8339SOL    HW225917   4.997   1.252   3.478
 8340SOL     OW25918   5.015   4.093   1.522
 8340SOL    HW125919   5.004   4.054   1.613
 8340SOL    HW225920   5.112   4.108   1.503
 8341SOL     OW25921   2.003   0.245   0.768
 8341SOL    HW125922   1.957   0.216   0.852
 8341SOL    HW225923   1.939   0.299   0.712
 8342SOL     OW25924   5.454   0.145   1.500
 8342SOL    HW125925   5.398   0.063   1.489
 8342SOL    HW225926   5.400   0.216   1.545
 8343SOL     OW25927   6.743   4.600   4.643
 8343SOL    HW125928   6.715   4.695   4.637
 8343SOL    HW225929   6.829   4.587   4.593
 8344SOL     OW25930   3.612   6.718   4.681
 8344SOL    HW125931   3.687   6.673   4.633
 8344SOL    HW225932   3.559   6.774   4.616
 8345SOL     OW25933   5.667   1.460   2.765
 8345SOL    HW125934   5.714   1.502   2.842
 8345SOL    HW225935   5.656   1.527   2.692
 8346SOL     OW25936   4.124   5.413   2.073
 8346SOL    HW125937   4.214   5.443   2.103
 8346SOL    HW225938   4.095   5.468   1.994
 8347SOL     OW25939   3.080   5.270   4.690
 8347SOL    HW125940   2.983   5.295   4.682
 8347SOL    HW225941   3.092   5.174   4.665
 8348SOL     OW25942   2.285   6.956   0.637
 8348SOL    HW125943   2.311   6.982   0.544
 8348SOL    HW225944   2.360   6.904   0.678
 8349SOL     OW25945   5.638   4.621   2.668
 8349SOL    HW125946   5.593   4.558   2.732
 8349SOL    HW225947   5.666   4.570   2.586
 8350SOL     OW25948   6.124   1.129   5.345
 8350SOL    HW125949   6.214   1.088   5.354
 8350SOL    HW225950   6.054   1.058   5.354
 8351SOL     OW25951   2.867   6.939   2.482
 8351SOL    HW125952   2.870   6.841   2.502
 8351SOL    HW225953   2.961   6.975   2.480
 8352SOL     OW25954   6.014   6.293   1.981
 8352SOL    HW125955   6.033   6.351   2.060
 8352SOL    HW225956   6.004   6.198   2.011
 8353SOL     OW25957   2.204   3.755   1.946
 8353SOL    HW125958   2.221   3.665   1.985
 8353SOL    HW225959   2.177   3.746   1.850
 8354SOL     OW25960   3.041   0.240   0.487
 8354SOL    HW125961   3.026   0.147   0.522
 8354SOL    HW225962   3.139   0.262   0.491
 8355SOL     OW25963   2.819   1.798   0.723
 8355SOL    HW125964   2.807   1.889   0.683
 8355SOL    HW225965   2.831   1.731   0.650
 8356SOL     OW25966   2.886   4.724   0.503
 8356SOL    HW125967   2.836   4.801   0.464
 8356SOL    HW225968   2.890   4.650   0.437
 8357SOL     OW25969   3.796   6.691   2.555
 8357SOL    HW125970   3.731   6.726   2.623
 8357SOL    HW225971   3.764   6.602   2.521
 8358SOL     OW25972   2.801   2.013   4.955
 8358SOL    HW125973   2.755   2.092   4.914
 8358SOL    HW225974   2.884   2.044   5.001
 8359SOL     OW25975   3.959   4.831   4.061
 8359SOL    HW125976   3.989   4.912   4.111
 8359SOL    HW225977   4.024   4.810   3.989
 8360SOL     OW25978   4.562   1.057   3.497
 8360SOL    HW125979   4.624   1.060   3.419
 8360SOL    HW225980   4.613   1.031   3.579
 8361SOL     OW25981   1.562   0.459   3.279
 8361SOL    HW125982   1.612   0.471   3.193
 8361SOL    HW225983   1.464   0.452   3.259
 8362SOL     OW25984   3.298   2.890   0.909
 8362SOL    HW125985   3.249   2.819   0.959
 8362SOL    HW225986   3.233   2.947   0.859
 8363SOL     OW25987   0.724   3.301   2.092
 8363SOL    HW125988   0.758   3.243   2.018
 8363SOL    HW225989   0.711   3.395   2.058
 8364SOL     OW25990   7.003   4.823   5.477
 8364SOL    HW125991   6.954   4.885   5.539
 8364SOL    HW225992   0.077   4.814   5.507
 8365SOL     OW25993   1.898   3.852   5.656
 8365SOL    HW125994   1.799   3.845   5.646
 8365SOL    HW225995   1.921   3.867   5.753
 8366SOL     OW25996   2.711   6.638   2.074
 8366SOL    HW125997   2.776   6.642   1.998
 8366SOL    HW225998   2.697   6.730   2.110
 8367SOL     OW25999   5.025   5.621   3.846
 8367SOL    HW126000   5.092   5.628   3.772
 8367SOL    HW226001   4.942   5.670   3.821
 8368SOL     OW26002   2.765   5.626   5.940
 8368SOL    HW126003   2.734   5.618   6.035
 8368SOL    HW226004   2.844   5.565   5.926
 8369SOL     OW26005   2.241   1.258   1.370
 8369SOL    HW126006   2.244   1.257   1.470
 8369SOL    HW226007   2.321   1.307   1.335
 8370SOL     OW26008   2.477   1.071   0.673
 8370SOL    HW126009   2.387   1.056   0.714
 8370SOL    HW226010   2.508   0.988   0.629
 8371SOL     OW26011   1.515   2.610   0.128
 8371SOL    HW126012   1.431   2.654   0.095
 8371SOL    HW226013   1.579   2.679   0.161
 8372SOL     OW26014   5.775   0.752   0.128
 8372SOL    HW126015   5.869   0.781   0.107
 8372SOL    HW226016   5.729   0.825   0.179
 8373SOL     OW26017   1.932   0.042   3.952
 8373SOL    HW126018   1.906   0.103   4.027
 8373SOL    HW226019   1.950   0.096   3.869
 8374SOL     OW26020   6.710   2.031   5.644
 8374SOL    HW126021   6.620   2.071   5.629
 8374SOL    HW226022   6.722   2.012   5.742
 8375SOL     OW26023   4.046   0.807   6.439
 8375SOL    HW126024   4.084   0.730   6.491
 8375SOL    HW226025   4.103   0.822   6.358
 8376SOL     OW26026   4.286   0.158   3.948
 8376SOL    HW126027   4.290   0.136   3.851
 8376SOL    HW226028   4.373   0.200   3.977
 8377SOL     OW26029   4.536   4.991   0.610
 8377SOL    HW126030   4.474   4.912   0.605
 8377SOL    HW226031   4.615   4.975   0.551
 8378SOL     OW26032   5.109   2.976   3.595
 8378SOL    HW126033   5.027   2.919   3.583
 8378SOL    HW226034   5.105   3.053   3.531
 8379SOL     OW26035   5.328   2.940   2.633
 8379SOL    HW126036   5.373   3.028   2.651
 8379SOL    HW226037   5.342   2.915   2.537
 8380SOL     OW26038   5.818   1.245   4.014
 8380SOL    HW126039   5.767   1.286   4.090
 8380SOL    HW226040   5.869   1.316   3.965
 8381SOL     OW26041   1.672   5.442   4.877
 8381SOL    HW126042   1.720   5.356   4.860
 8381SOL    HW226043   1.708   5.514   4.817
 8382SOL     OW26044   0.829   4.828   2.177
 8382SOL    HW126045   0.841   4.923   2.205
 8382SOL    HW226046   0.798   4.774   2.256
 8383SOL     OW26047   3.171   1.499   5.446
 8383SOL    HW126048   3.254   1.551   5.466
 8383SOL    HW226049   3.195   1.420   5.388
 8384SOL     OW26050   0.406   0.106   1.081
 8384SOL    HW126051   0.484   0.074   1.027
 8384SOL    HW226052   0.433   0.115   1.177
 8385SOL     OW26053   4.136   1.549   1.317
 8385SOL    HW126054   4.228   1.572   1.283
 8385SOL    HW226055   4.091   1.489   1.251
 8386SOL     OW26056   0.004   2.756   1.964
 8386SOL    HW126057   0.061   2.681   1.997
 8386SOL    HW226058   6.978   2.799   2.042
 8387SOL     OW26059   0.688   1.777   2.039
 8387SOL    HW126060   0.747   1.754   1.961
 8387SOL    HW226061   0.595   1.748   2.020
 8388SOL     OW26062   1.648   6.824   2.375
 8388SOL    HW126063   1.557   6.865   2.367
 8388SOL    HW226064   1.650   6.764   2.455
 8389SOL     OW26065   6.566   2.841   3.684
 8389SOL    HW126066   6.497   2.854   3.613
 8389SOL    HW226067   6.521   2.817   3.770
 8390SOL     OW26068   5.942   2.116   6.458
 8390SOL    HW126069   5.908   2.210   6.460
 8390SOL    HW226070   6.027   2.111   6.510
 8391SOL     OW26071   6.331   0.873   1.185
 8391SOL    HW126072   6.294   0.962   1.213
 8391SOL    HW226073   6.279   0.800   1.230
 8392SOL     OW26074   3.613   3.140   4.727
 8392SOL    HW126075   3.592   3.073   4.799
 8392SOL    HW226076   3.684   3.202   4.760
 8393SOL     OW26077   5.626   0.264   0.935
 8393SOL    HW126078   5.705   0.244   0.993
 8393SOL    HW226079   5.651   0.332   0.867
 8394SOL     OW26080   4.896   3.267   3.102
 8394SOL    HW126081   4.844   3.188   3.069
 8394SOL    HW226082   4.991   3.260   3.071
 8395SOL     OW26083   2.122   1.129   5.803
 8395SOL    HW126084   2.070   1.071   5.866
 8395SOL    HW226085   2.083   1.122   5.711
 8396SOL     OW26086   4.677   4.921   4.072
 8396SOL    HW126087   4.706   5.014   4.098
 8396SOL    HW226088   4.704   4.904   3.977
 8397SOL     OW26089   5.715   6.525   2.852
 8397SOL    HW126090   5.761   6.604   2.813
 8397SOL    HW226091   5.652   6.556   2.924
 8398SOL     OW26092   6.059   1.849   6.410
 8398SOL    HW126093   5.970   1.804   6.412
 8398SOL    HW226094   6.048   1.947   6.424
 8399SOL     OW26095   0.622   4.075   2.693
 8399SOL    HW126096   0.702   4.016   2.708
 8399SOL    HW226097   0.539   4.020   2.697
 8400SOL     OW26098   1.324   0.873   4.205
 8400SOL    HW126099   1.346   0.870   4.108
 8400SOL    HW226100   1.349   0.786   4.248
 8401SOL     OW26101   1.369   0.426   6.022
 8401SOL    HW126102   1.307   0.458   6.093
 8401SOL    HW226103   1.348   0.473   5.936
 8402SOL     OW26104   2.265   0.713   6.062
 8402SOL    HW126105   2.330   0.638   6.070
 8402SOL    HW226106   2.185   0.695   6.120
 8403SOL     OW26107   5.980   4.201   6.225
 8403SOL    HW126108   5.973   4.292   6.184
 8403SOL    HW226109   6.076   4.178   6.239
 8404SOL     OW26110   1.038   1.256   0.238
 8404SOL    HW126111   1.019   1.279   0.333
 8404SOL    HW226112   0.962   1.285   0.180
 8405SOL     OW26113   3.646   6.354   5.704
 8405SOL    HW126114   3.549   6.376   5.693
 8405SOL    HW226115   3.698   6.438   5.719
 8406SOL     OW26116   6.478   1.207   6.202
 8406SOL    HW126117   6.505   1.126   6.151
 8406SOL    HW226118   6.410   1.259   6.149
 8407SOL     OW26119   4.835   0.667   5.033
 8407SOL    HW126120   4.823   0.758   4.994
 8407SOL    HW226121   4.746   0.620   5.035
 8408SOL     OW26122   3.795   1.950   1.657
 8408SOL    HW126123   3.805   1.981   1.752
 8408SOL    HW226124   3.779   2.029   1.598
 8409SOL     OW26125   4.548   2.599   1.914
 8409SOL    HW126126   4.644   2.581   1.936
 8409SOL    HW226127   4.528   2.696   1.930
 8410SOL     OW26128   7.003   2.274   1.616
 8410SOL    HW126129   0.037   2.346   1.574
 8410SOL    HW226130   6.930   2.315   1.671
 8411SOL     OW26131   0.848   5.723   1.289
 8411SOL    HW126132   0.780   5.731   1.217
 8411SOL    HW226133   0.807   5.747   1.377
 8412SOL     OW26134   2.719   2.102   6.832
 8412SOL    HW126135   2.800   2.155   6.808
 8412SOL    HW226136   2.662   2.090   6.750
 8413SOL     OW26137   4.015   5.982   4.951
 8413SOL    HW126138   3.955   5.919   4.901
 8413SOL    HW226139   4.105   5.941   4.962
 8414SOL     OW26140   1.467   0.177   0.870
 8414SOL    HW126141   1.509   0.112   0.933
 8414SOL    HW226142   1.496   0.157   0.777
 8415SOL     OW26143   4.014   1.329   6.017
 8415SOL    HW126144   4.103   1.299   5.982
 8415SOL    HW226145   4.025   1.370   6.107
 8416SOL     OW26146   0.362   2.242   4.685
 8416SOL    HW126147   0.388   2.325   4.735
 8416SOL    HW226148   0.276   2.258   4.636
 8417SOL     OW26149   1.973   3.144   6.296
 8417SOL    HW126150   1.980   3.082   6.218
 8417SOL    HW226151   1.880   3.141   6.333
 8418SOL     OW26152   6.642   6.307   2.422
 8418SOL    HW126153   6.616   6.383   2.482
 8418SOL    HW226154   6.560   6.253   2.399
 8419SOL     OW26155   4.016   1.689   4.249
 8419SOL    HW126156   3.967   1.770   4.216
 8419SOL    HW226157   3.950   1.618   4.273
 8420SOL     OW26158   4.079   1.055   2.464
 8420SOL    HW126159   4.065   0.996   2.544
 8420SOL    HW226160   4.021   1.136   2.473
 8421SOL     OW26161   4.545   0.209   6.580
 8421SOL    HW126162   4.516   0.286   6.637
 8421SOL    HW226163   4.570   0.132   6.639
 8422SOL     OW26164   5.404   1.642   4.613
 8422SOL    HW126165   5.457   1.657   4.697
 8422SOL    HW226166   5.435   1.706   4.543
 8423SOL     OW26167   6.425   5.891   0.331
 8423SOL    HW126168   6.468   5.860   0.246
 8423SOL    HW226169   6.332   5.922   0.311
 8424SOL     OW26170   2.335   6.962   5.237
 8424SOL    HW126171   2.312   6.866   5.221
 8424SOL    HW226172   2.390   6.971   5.319
 8425SOL     OW26173   3.410   2.923   1.828
 8425SOL    HW126174   3.324   2.872   1.840
 8425SOL    HW226175   3.478   2.890   1.893
 8426SOL     OW26176   3.497   3.480   1.668
 8426SOL    HW126177   3.448   3.401   1.706
 8426SOL    HW226178   3.512   3.547   1.741
 8427SOL     OW26179   3.888   4.007   2.813
 8427SOL    HW126180   3.790   4.026   2.810
 8427SOL    HW226181   3.937   4.089   2.845
 8428SOL     OW26182   4.814   1.050   1.680
 8428SOL    HW126183   4.909   1.075   1.701
 8428SOL    HW226184   4.805   1.034   1.581
 8429SOL     OW26185   3.246   6.211   5.590
 8429SOL    HW126186   3.280   6.252   5.674
 8429SOL    HW226187   3.213   6.283   5.529
 8430SOL     OW26188   5.179   6.967   5.587
 8430SOL    HW126189   5.112   6.903   5.548
 8430SOL    HW226190   5.132   0.009   5.649
 8431SOL     OW26191   2.649   3.321   6.469
 8431SOL    HW126192   2.625   3.372   6.386
 8431SOL    HW226193   2.689   3.233   6.443
 8432SOL     OW26194   6.411   5.006   5.297
 8432SOL    HW126195   6.462   5.019   5.212
 8432SOL    HW226196   6.456   4.937   5.353
 8433SOL     OW26197   4.606   1.517   0.660
 8433SOL    HW126198   4.514   1.477   0.652
 8433SOL    HW226199   4.598   1.617   0.664
 8434SOL     OW26200   2.630   6.241   4.464
 8434SOL    HW126201   2.582   6.221   4.549
 8434SOL    HW226202   2.727   6.219   4.474
 8435SOL     OW26203   6.533   1.471   3.375
 8435SOL    HW126204   6.496   1.445   3.286
 8435SOL    HW226205   6.465   1.527   3.424
 8436SOL     OW26206   2.555   4.967   2.711
 8436SOL    HW126207   2.640   4.923   2.682
 8436SOL    HW226208   2.536   5.046   2.652
 8437SOL     OW26209   1.451   5.505   0.072
 8437SOL    HW126210   1.474   5.575   0.140
 8437SOL    HW226211   1.411   5.549   7.012
 8438SOL     OW26212   1.104   4.364   2.440
 8438SOL    HW126213   1.005   4.356   2.452
 8438SOL    HW226214   1.149   4.281   2.471
 8439SOL     OW26215   5.735   4.098   2.517
 8439SOL    HW126216   5.650   4.146   2.538
 8439SOL    HW226217   5.807   4.165   2.495
 8440SOL     OW26218   1.353   1.925   2.502
 8440SOL    HW126219   1.404   1.956   2.421
 8440SOL    HW226220   1.418   1.897   2.573
 8441SOL     OW26221   6.772   2.897   6.572
 8441SOL    HW126222   6.792   2.874   6.667
 8441SOL    HW226223   6.833   2.846   6.511
 8442SOL     OW26224   3.393   2.549   6.488
 8442SOL    HW126225   3.310   2.600   6.511
 8442SOL    HW226226   3.419   2.570   6.394
 8443SOL     OW26227   1.796   3.988   2.992
 8443SOL    HW126228   1.734   3.944   3.057
 8443SOL    HW226229   1.803   4.085   3.013
 8444SOL     OW26230   5.333   5.732   5.169
 8444SOL    HW126231   5.234   5.734   5.185
 8444SOL    HW226232   5.380   5.766   5.251
 8445SOL     OW26233   4.739   6.493   6.367
 8445SOL    HW126234   4.673   6.554   6.409
 8445SOL    HW226235   4.795   6.449   6.437
 8446SOL     OW26236   6.631   6.175   4.378
 8446SOL    HW126237   6.589   6.254   4.421
 8446SOL    HW226238   6.715   6.203   4.331
 8447SOL     OW26239   3.521   2.103   4.246
 8447SOL    HW126240   3.506   2.004   4.239
 8447SOL    HW226241   3.547   2.138   4.156
 8448SOL     OW26242   3.292   6.860   2.687
 8448SOL    HW126243   3.270   6.859   2.785
 8448SOL    HW226244   3.258   6.945   2.647
 8449SOL     OW26245   1.106   2.470   3.726
 8449SOL    HW126246   1.146   2.561   3.740
 8449SOL    HW226247   1.008   2.480   3.706
 8450SOL     OW26248   6.761   1.471   0.999
 8450SOL    HW126249   6.751   1.397   1.065
 8450SOL    HW226250   6.723   1.555   1.037
 8451SOL     OW26251   4.541   2.727   0.502
 8451SOL    HW126252   4.549   2.630   0.482
 8451SOL    HW226253   4.447   2.758   0.484
 8452SOL     OW26254   5.177   0.833   5.670
 8452SOL    HW126255   5.156   0.917   5.620
 8452SOL    HW226256   5.124   0.830   5.754
 8453SOL     OW26257   0.274   0.873   0.328
 8453SOL    HW126258   0.316   0.817   0.258
 8453SOL    HW226259   0.332   0.953   0.346
 8454SOL     OW26260   6.443   5.771   6.780
 8454SOL    HW126261   6.434   5.829   6.861
 8454SOL    HW226262   6.354   5.731   6.758
 8455SOL     OW26263   6.617   0.838   2.913
 8455SOL    HW126264   6.639   0.798   3.001
 8455SOL    HW226265   6.673   0.920   2.898
 8456SOL     OW26266   6.143   0.375   2.134
 8456SOL    HW126267   6.141   0.278   2.110
 8456SOL    HW226268   6.098   0.389   2.222
 8457SOL     OW26269   6.330   6.863   4.892
 8457SOL    HW126270   6.251   6.801   4.887
 8457SOL    HW226271   6.345   6.904   4.801
 8458SOL     OW26272   1.451   6.453   0.602
 8458SOL    HW126273   1.518   6.426   0.533
 8458SOL    HW226274   1.481   6.420   0.692
 8459SOL     OW26275   0.967   6.609   3.561
 8459SOL    HW126276   0.877   6.575   3.536
 8459SOL    HW226277   0.994   6.572   3.649
 8460SOL     OW26278   3.959   3.256   3.810
 8460SOL    HW126279   4.044   3.266   3.862
 8460SOL    HW226280   3.883   3.290   3.864
 8461SOL     OW26281   6.389   3.566   3.717
 8461SOL    HW126282   6.352   3.579   3.809
 8461SOL    HW226283   6.381   3.470   3.692
 8462SOL     OW26284   2.469   2.503   2.159
 8462SOL    HW126285   2.537   2.472   2.093
 8462SOL    HW226286   2.390   2.441   2.157
 8463SOL     OW26287   6.261   0.149   1.774
 8463SOL    HW126288   6.266   0.247   1.756
 8463SOL    HW226289   6.275   0.133   1.872
 8464SOL     OW26290   6.694   1.244   4.617
 8464SOL    HW126291   6.612   1.234   4.561
 8464SOL    HW226292   6.677   1.203   4.707
 8465SOL     OW26293   2.197   0.706   0.430
 8465SOL    HW126294   2.229   0.800   0.436
 8465SOL    HW226295   2.097   0.704   0.432
 8466SOL     OW26296   1.141   0.170   3.937
 8466SOL    HW126297   1.157   0.218   3.851
 8466SOL    HW226298   1.069   0.217   3.989
 8467SOL     OW26299   3.766   5.189   1.324
 8467SOL    HW126300   3.809   5.220   1.240
 8467SOL    HW226301   3.667   5.179   1.310
 8468SOL     OW26302   4.546   2.876   0.148
 8468SOL    HW126303   4.446   2.877   0.141
 8468SOL    HW226304   4.577   2.957   0.197
 8469SOL     OW26305   5.102   2.377   5.496
 8469SOL    HW126306   5.140   2.293   5.536
 8469SOL    HW226307   5.003   2.376   5.505
 8470SOL     OW26308   1.981   2.689   6.864
 8470SOL    HW126309   1.926   2.626   6.918
 8470SOL    HW226310   2.068   2.645   6.839
 8471SOL     OW26311   3.601   1.819   5.710
 8471SOL    HW126312   3.600   1.863   5.620
 8471SOL    HW226313   3.509   1.787   5.732
 8472SOL     OW26314   1.449   5.933   2.436
 8472SOL    HW126315   1.413   6.004   2.496
 8472SOL    HW226316   1.538   5.962   2.400
 8473SOL     OW26317   6.831   5.619   6.701
 8473SOL    HW126318   6.791   5.688   6.642
 8473SOL    HW226319   6.780   5.534   6.693
 8474SOL     OW26320   4.428   5.791   6.877
 8474SOL    HW126321   4.465   5.834   6.795
 8474SOL    HW226322   4.383   5.706   6.853
 8475SOL     OW26323   5.126   1.287   2.945
 8475SOL    HW126324   5.208   1.253   2.899
 8475SOL    HW226325   5.087   1.362   2.891
 8476SOL     OW26326   5.148   0.870   2.972
 8476SOL    HW126327   5.097   0.925   3.039
 8476SOL    HW226328   5.122   0.774   2.983
 8477SOL     OW26329   2.472   0.579   3.536
 8477SOL    HW126330   2.401   0.618   3.596
 8477SOL    HW226331   2.447   0.595   3.441
 8478SOL     OW26332   0.925   1.618   6.423
 8478SOL    HW126333   0.900   1.674   6.344
 8478SOL    HW226334   1.012   1.650   6.461
 8479SOL     OW26335   5.664   6.871   2.054
 8479SOL    HW126336   5.743   6.820   2.020
 8479SOL    HW226337   5.660   6.960   2.008
 8480SOL     OW26338   2.201   0.980   2.333
 8480SOL    HW126339   2.246   1.066   2.355
 8480SOL    HW226340   2.108   0.997   2.301
 8481SOL     OW26341   4.070   0.153   5.472
 8481SOL    HW126342   4.058   0.243   5.514
 8481SOL    HW226343   4.165   0.124   5.482
 8482SOL     OW26344   6.257   0.452   1.447
 8482SOL    HW126345   6.338   0.397   1.429
 8482SOL    HW226346   6.219   0.428   1.536
 8483SOL     OW26347   4.833   6.419   1.415
 8483SOL    HW126348   4.879   6.502   1.446
 8483SOL    HW226349   4.738   6.440   1.391
 8484SOL     OW26350   6.271   4.329   6.047
 8484SOL    HW126351   6.328   4.374   5.979
 8484SOL    HW226352   6.190   4.385   6.066
 8485SOL     OW26353   2.338   3.289   6.494
 8485SOL    HW126354   2.253   3.341   6.483
 8485SOL    HW226355   2.372   3.262   6.404
 8486SOL     OW26356   4.311   0.281   2.217
 8486SOL    HW126357   4.349   0.351   2.278
 8486SOL    HW226358   4.213   0.273   2.233
 8487SOL     OW26359   4.099   0.525   0.917
 8487SOL    HW126360   4.001   0.537   0.934
 8487SOL    HW226361   4.123   0.568   0.830
 8488SOL     OW26362   0.073   4.313   6.135
 8488SOL    HW126363   7.008   4.272   6.168
 8488SOL    HW226364   0.085   4.289   6.039
 8489SOL     OW26365   3.124   0.124   3.685
 8489SOL    HW126366   3.209   0.115   3.736
 8489SOL    HW226367   3.126   0.210   3.633
 8490SOL     OW26368   3.696   4.880   2.497
 8490SOL    HW126369   3.768   4.892   2.429
 8490SOL    HW226370   3.736   4.872   2.588
 8491SOL     OW26371   0.481   0.989   1.124
 8491SOL    HW126372   0.493   0.894   1.096
 8491SOL    HW226373   0.513   1.001   1.218
 8492SOL     OW26374   5.951   4.095   4.778
 8492SOL    HW126375   5.941   3.996   4.775
 8492SOL    HW226376   6.044   4.121   4.751
 8493SOL     OW26377   4.191   3.058   0.575
 8493SOL    HW126378   4.093   3.077   0.575
 8493SOL    HW226379   4.210   2.983   0.638
 8494SOL     OW26380   3.381   6.271   6.734
 8494SOL    HW126381   3.292   6.304   6.764
 8494SOL    HW226382   3.377   6.173   6.719
 8495SOL     OW26383   0.200   3.514   6.290
 8495SOL    HW126384   0.157   3.424   6.303
 8495SOL    HW226385   0.295   3.501   6.260
 8496SOL     OW26386   1.440   1.957   4.432
 8496SOL    HW126387   1.479   1.865   4.426
 8496SOL    HW226388   1.346   1.951   4.467
 8497SOL     OW26389   5.480   3.787   4.036
 8497SOL    HW126390   5.525   3.809   3.950
 8497SOL    HW226391   5.381   3.789   4.024
 8498SOL     OW26392   6.780   0.895   2.028
 8498SOL    HW126393   6.717   0.875   1.953
 8498SOL    HW226394   6.831   0.979   2.007
 8499SOL     OW26395   6.767   4.315   0.884
 8499SOL    HW126396   6.745   4.294   0.789
 8499SOL    HW226397   6.737   4.408   0.906
 8500SOL     OW26398   1.942   0.703   5.004
 8500SOL    HW126399   1.953   0.625   4.943
 8500SOL    HW226400   1.850   0.702   5.043
 8501SOL     OW26401   3.171   3.710   6.384
 8501SOL    HW126402   3.178   3.696   6.285
 8501SOL    HW226403   3.114   3.638   6.425
 8502SOL     OW26404   0.275   6.370   1.137
 8502SOL    HW126405   0.372   6.351   1.147
 8502SOL    HW226406   0.253   6.384   1.040
 8503SOL     OW26407   3.771   5.785   3.166
 8503SOL    HW126408   3.712   5.757   3.090
 8503SOL    HW226409   3.859   5.737   3.159
 8504SOL     OW26410   2.034   4.954   2.810
 8504SOL    HW126411   2.045   5.049   2.839
 8504SOL    HW226412   2.078   4.893   2.876
 8505SOL     OW26413   4.323   1.942   2.608
 8505SOL    HW126414   4.225   1.963   2.602
 8505SOL    HW226415   4.360   1.980   2.693
 8506SOL     OW26416   0.784   5.110   7.015
 8506SOL    HW126417   0.684   5.104   7.015
 8506SOL    HW226418   0.822   5.027   0.035
 8507SOL     OW26419   2.402   0.362   4.221
 8507SOL    HW126420   2.394   0.461   4.207
 8507SOL    HW226421   2.409   0.343   4.319
 8508SOL     OW26422   0.961   3.675   6.141
 8508SOL    HW126423   1.049   3.630   6.159
 8508SOL    HW226424   0.973   3.741   6.067
 8509SOL     OW26425   6.630   2.853   4.255
 8509SOL    HW126426   6.647   2.758   4.228
 8509SOL    HW226427   6.700   2.882   4.319
 8510SOL     OW26428   5.504   6.579   3.029
 8510SOL    HW126429   5.523   6.515   3.103
 8510SOL    HW226430   5.486   6.670   3.067
 8511SOL     OW26431   6.593   5.194   1.329
 8511SOL    HW126432   6.558   5.106   1.296
 8511SOL    HW226433   6.668   5.177   1.393
 8512SOL     OW26434   3.895   2.909   0.890
 8512SOL    HW126435   3.809   2.911   0.941
 8512SOL    HW226436   3.970   2.935   0.951
 8513SOL     OW26437   0.970   3.651   0.395
 8513SOL    HW126438   1.061   3.613   0.374
 8513SOL    HW226439   0.975   3.705   0.479
 8514SOL     OW26440   2.009   3.242   5.146
 8514SOL    HW126441   2.034   3.185   5.224
 8514SOL    HW226442   2.076   3.315   5.135
 8515SOL     OW26443   3.182   1.181   0.357
 8515SOL    HW126444   3.088   1.156   0.379
 8515SOL    HW226445   3.208   1.263   0.409
 8516SOL     OW26446   6.770   3.720   5.369
 8516SOL    HW126447   6.747   3.655   5.297
 8516SOL    HW226448   6.809   3.672   5.447
 8517SOL     OW26449   1.375   2.146   5.792
 8517SOL    HW126450   1.412   2.232   5.827
 8517SOL    HW226451   1.366   2.081   5.868
 8518SOL     OW26452   5.321   4.962   0.170
 8518SOL    HW126453   5.280   5.005   0.090
 8518SOL    HW226454   5.420   4.954   0.156
 8519SOL     OW26455   1.357   3.968   1.091
 8519SOL    HW126456   1.387   3.873   1.100
 8519SOL    HW226457   1.280   3.985   1.153
 8520SOL     OW26458   3.717   3.867   6.000
 8520SOL    HW126459   3.646   3.810   6.041
 8520SOL    HW226460   3.707   3.961   6.032
 8521SOL     OW26461   2.103   6.968   4.630
 8521SOL    HW126462   2.132   0.028   4.578
 8521SOL    HW226463   2.067   6.899   4.567
 8522SOL     OW26464   0.558   0.799   0.008
 8522SOL    HW126465   0.640   0.813   0.063
 8522SOL    HW226466   0.576   0.730   6.959
 8523SOL     OW26467   4.126   1.769   1.925
 8523SOL    HW126468   4.109   1.772   2.023
 8523SOL    HW226469   4.045   1.732   1.879
 8524SOL     OW26470   2.664   6.048   5.407
 8524SOL    HW126471   2.630   6.109   5.479
 8524SOL    HW226472   2.661   5.953   5.440
 8525SOL     OW26473   6.039   2.853   3.158
 8525SOL    HW126474   6.005   2.822   3.069
 8525SOL    HW226475   5.985   2.811   3.231
 8526SOL     OW26476   0.738   4.690   6.379
 8526SOL    HW126477   0.784   4.659   6.296
 8526SOL    HW226478   0.665   4.626   6.403
 8527SOL     OW26479   1.671   0.693   6.311
 8527SOL    HW126480   1.690   0.738   6.399
 8527SOL    HW226481   1.723   0.607   6.306
 8528SOL     OW26482   5.892   0.065   0.346
 8528SOL    HW126483   5.812   0.010   0.371
 8528SOL    HW226484   5.966   0.048   0.412
 8529SOL     OW26485   1.029   6.244   6.768
 8529SOL    HW126486   1.035   6.151   6.805
 8529SOL    HW226487   1.109   6.263   6.712
 8530SOL     OW26488   3.602   3.969   3.123
 8530SOL    HW126489   3.607   4.037   3.197
 8530SOL    HW226490   3.535   3.899   3.146
 8531SOL     OW26491   6.267   5.920   2.962
 8531SOL    HW126492   6.205   5.843   2.980
 8531SOL    HW226493   6.325   5.899   2.883
 8532SOL     OW26494   3.641   5.568   0.421
 8532SOL    HW126495   3.717   5.527   0.471
 8532SOL    HW226496   3.602   5.643   0.475
 8533SOL     OW26497   2.750   5.577   5.486
 8533SOL    HW126498   2.780   5.483   5.469
 8533SOL    HW226499   2.652   5.578   5.501
 8534SOL     OW26500   1.921   3.597   1.969
 8534SOL    HW126501   2.007   3.633   2.006
 8534SOL    HW226502   1.938   3.510   1.923
 8535SOL     OW26503   6.202   6.821   1.868
 8535SOL    HW126504   6.116   6.852   1.909
 8535SOL    HW226505   6.231   6.887   1.798
 8536SOL     OW26506   2.248   0.960   4.445
 8536SOL    HW126507   2.226   0.862   4.446
 8536SOL    HW226508   2.166   1.013   4.427
 8537SOL     OW26509   5.768   1.059   3.164
 8537SOL    HW126510   5.800   1.148   3.198
 8537SOL    HW226511   5.749   0.998   3.241
 8538SOL     OW26512   0.405   2.462   6.487
 8538SOL    HW126513   0.336   2.501   6.547
 8538SOL    HW226514   0.394   2.362   6.485
 8539SOL     OW26515   5.344   3.750   1.911
 8539SOL    HW126516   5.355   3.840   1.953
 8539SOL    HW226517   5.266   3.704   1.952
 8540SOL     OW26518   4.285   0.007   1.096
 8540SOL    HW126519   4.384   0.013   1.085
 8540SOL    HW226520   4.250   0.097   1.122
 8541SOL     OW26521   1.177   3.089   3.137
 8541SOL    HW126522   1.261   3.044   3.105
 8541SOL    HW226523   1.133   3.032   3.206
 8542SOL     OW26524   2.933   5.345   6.660
 8542SOL    HW126525   3.027   5.378   6.657
 8542SOL    HW226526   2.921   5.273   6.592
 8543SOL     OW26527   4.184   2.078   6.624
 8543SOL    HW126528   4.096   2.031   6.622
 8543SOL    HW226529   4.184   2.145   6.698
 8544SOL     OW26530   5.697   2.113   4.603
 8544SOL    HW126531   5.601   2.138   4.592
 8544SOL    HW226532   5.708   2.057   4.685
 8545SOL     OW26533   4.513   0.168   5.339
 8545SOL    HW126534   4.424   0.151   5.381
 8545SOL    HW226535   4.509   0.251   5.284
 8546SOL     OW26536   4.296   2.159   6.378
 8546SOL    HW126537   4.267   2.135   6.471
 8546SOL    HW226538   4.236   2.114   6.312
 8547SOL     OW26539   1.521   4.743   2.394
 8547SOL    HW126540   1.440   4.714   2.343
 8547SOL    HW226541   1.557   4.828   2.355
 8548SOL     OW26542   6.023   2.639   5.284
 8548SOL    HW126543   5.964   2.611   5.208
 8548SOL    HW226544   6.110   2.671   5.248
 8549SOL     OW26545   5.059   2.614   4.620
 8549SOL    HW126546   5.086   2.553   4.694
 8549SOL    HW226547   5.139   2.637   4.565
 8550SOL     OW26548   1.753   4.843   5.826
 8550SOL    HW126549   1.733   4.932   5.785
 8550SOL    HW226550   1.762   4.853   5.925
 8551SOL     OW26551   2.614   4.963   0.602
 8551SOL    HW126552   2.549   4.896   0.568
 8551SOL    HW226553   2.698   4.960   0.548
 8552SOL     OW26554   3.105   6.620   3.523
 8552SOL    HW126555   3.148   6.531   3.507
 8552SOL    HW226556   3.131   6.653   3.613
 8553SOL     OW26557   6.288   5.658   0.025
 8553SOL    HW126558   6.308   5.755   0.042
 8553SOL    HW226559   6.346   5.625   6.971
 8554SOL     OW26560   5.711   3.867   7.015
 8554SOL    HW126561   5.653   3.946   6.992
 8554SOL    HW226562   5.676   3.786   6.969
 8555SOL     OW26563   1.942   6.262   4.239
 8555SOL    HW126564   1.934   6.164   4.222
 8555SOL    HW226565   1.883   6.312   4.175
 8556SOL     OW26566   5.372   0.369   5.204
 8556SOL    HW126567   5.472   0.360   5.212
 8556SOL    HW226568   5.332   0.374   5.295
 8557SOL     OW26569   0.084   1.782   1.136
 8557SOL    HW126570   0.018   1.800   1.063
 8557SOL    HW226571   0.058   1.834   1.217
 8558SOL     OW26572   1.948   4.533   2.205
 8558SOL    HW126573   2.032   4.544   2.258
 8558SOL    HW226574   1.872   4.512   2.267
 8559SOL     OW26575   1.201   1.003   5.133
 8559SOL    HW126576   1.181   1.094   5.171
 8559SOL    HW226577   1.171   1.001   5.038
 8560SOL     OW26578   6.528   2.940   0.105
 8560SOL    HW126579   6.605   2.881   0.127
 8560SOL    HW226580   6.547   2.990   0.020
 8561SOL     OW26581   5.324   6.487   5.913
 8561SOL    HW126582   5.315   6.402   5.862
 8561SOL    HW226583   5.387   6.548   5.865
 8562SOL     OW26584   3.799   0.896   4.585
 8562SOL    HW126585   3.772   0.822   4.647
 8562SOL    HW226586   3.896   0.918   4.600
 8563SOL     OW26587   2.412   3.094   6.233
 8563SOL    HW126588   2.357   3.018   6.200
 8563SOL    HW226589   2.482   3.117   6.165
 8564SOL     OW26590   0.984   5.433   4.063
 8564SOL    HW126591   0.964   5.531   4.056
 8564SOL    HW226592   0.975   5.391   3.972
 8565SOL     OW26593   3.541   0.581   1.430
 8565SOL    HW126594   3.498   0.668   1.453
 8565SOL    HW226595   3.513   0.511   1.496
 8566SOL     OW26596   1.509   4.616   4.470
 8566SOL    HW126597   1.524   4.552   4.546
 8566SOL    HW226598   1.563   4.587   4.391
 8567SOL     OW26599   5.201   6.769   6.352
 8567SOL    HW126600   5.288   6.755   6.305
 8567SOL    HW226601   5.136   6.698   6.322
 8568SOL     OW26602   5.328   6.937   0.806
 8568SOL    HW126603   5.416   6.979   0.787
 8568SOL    HW226604   5.329   6.842   0.774
 8569SOL     OW26605   2.516   0.805   5.446
 8569SOL    HW126606   2.479   0.777   5.358
 8569SOL    HW226607   2.461   0.880   5.483
 8570SOL     OW26608   6.777   3.731   6.159
 8570SOL    HW126609   6.786   3.686   6.248
 8570SOL    HW226610   6.718   3.811   6.168
 8571SOL     OW26611   0.138   4.682   6.441
 8571SOL    HW126612   0.172   4.620   6.512
 8571SOL    HW226613   0.215   4.734   6.403
 8572SOL     OW26614   2.527   4.931   6.444
 8572SOL    HW126615   2.549   4.904   6.538
 8572SOL    HW226616   2.583   5.010   6.418
 8573SOL     OW26617   3.099   5.881   4.388
 8573SOL    HW126618   3.096   5.796   4.337
 8573SOL    HW226619   3.177   5.936   4.359
 8574SOL     OW26620   1.154   4.159   4.503
 8574SOL    HW126621   1.095   4.239   4.508
 8574SOL    HW226622   1.098   4.076   4.498
 8575SOL     OW26623   2.791   3.488   6.192
 8575SOL    HW126624   2.693   3.470   6.178
 8575SOL    HW226625   2.813   3.580   6.159
 8576SOL     OW26626   1.828   0.441   0.643
 8576SOL    HW126627   1.733   0.457   0.614
 8576SOL    HW226628   1.860   0.519   0.696
 8577SOL     OW26629   6.232   5.923   4.837
 8577SOL    HW126630   6.321   5.968   4.841
 8577SOL    HW226631   6.207   5.890   4.928
 8578SOL     OW26632   4.726   0.534   4.272
 8578SOL    HW126633   4.782   0.599   4.220
 8578SOL    HW226634   4.645   0.581   4.307
 8579SOL     OW26635   6.972   4.859   2.406
 8579SOL    HW126636   7.017   4.945   2.429
 8579SOL    HW226637   6.925   4.868   2.318
 8580SOL     OW26638   1.870   5.715   6.064
 8580SOL    HW126639   1.795   5.699   6.129
 8580SOL    HW226640   1.832   5.736   5.974
 8581SOL     OW26641   3.528   3.301   0.127
 8581SOL    HW126642   3.580   3.326   0.208
 8581SOL    HW226643   3.450   3.364   0.117
 8582SOL     OW26644   3.118   5.544   0.286
 8582SOL    HW126645   3.169   5.461   0.262
 8582SOL    HW226646   3.175   5.625   0.265
 8583SOL     OW26647   5.693   6.973   4.347
 8583SOL    HW126648   5.627   0.004   4.292
 8583SOL    HW226649   5.709   0.001   4.433
 8584SOL     OW26650   0.669   5.722   6.071
 8584SOL    HW126651   0.601   5.707   6.143
 8584SOL    HW226652   0.663   5.648   6.004
 8585SOL     OW26653   1.325   0.829   0.415
 8585SOL    HW126654   1.398   0.829   0.346
 8585SOL    HW226655   1.248   0.883   0.382
 8586SOL     OW26656   3.647   5.181   3.690
 8586SOL    HW126657   3.631   5.091   3.649
 8586SOL    HW226658   3.585   5.248   3.650
 8587SOL     OW26659   0.036   1.483   0.697
 8587SOL    HW126660   0.042   1.517   0.791
 8587SOL    HW226661   0.127   1.456   0.666
 8588SOL     OW26662   3.767   2.858   6.523
 8588SOL    HW126663   3.723   2.945   6.501
 8588SOL    HW226664   3.804   2.818   6.439
 8589SOL     OW26665   3.316   1.674   3.930
 8589SOL    HW126666   3.245   1.628   3.983
 8589SOL    HW226667   3.364   1.607   3.873
 8590SOL     OW26668   4.902   3.672   6.151
 8590SOL    HW126669   4.823   3.688   6.093
 8590SOL    HW226670   4.959   3.754   6.152
 8591SOL     OW26671   0.679   3.127   0.499
 8591SOL    HW126672   0.723   3.168   0.579
 8591SOL    HW226673   0.628   3.045   0.528
 8592SOL     OW26674   6.492   6.119   7.020
 8592SOL    HW126675   6.581   6.079   7.000
 8592SOL    HW226676   6.434   6.051   0.044
 8593SOL     OW26677   0.652   5.341   3.809
 8593SOL    HW126678   0.660   5.430   3.765
 8593SOL    HW226679   0.742   5.311   3.840
 8594SOL     OW26680   4.009   3.763   2.494
 8594SOL    HW126681   4.102   3.761   2.456
 8594SOL    HW226682   3.951   3.701   2.443
 8595SOL     OW26683   1.328   2.774   2.180
 8595SOL    HW126684   1.271   2.765   2.098
 8595SOL    HW226685   1.348   2.683   2.216
 8596SOL     OW26686   6.924   4.159   2.666
 8596SOL    HW126687   6.849   4.112   2.620
 8596SOL    HW226688   6.913   4.150   2.765
 8597SOL     OW26689   1.895   2.110   0.854
 8597SOL    HW126690   1.932   2.202   0.867
 8597SOL    HW226691   1.947   2.063   0.783
 8598SOL     OW26692   6.219   2.649   1.399
 8598SOL    HW126693   6.213   2.592   1.317
 8598SOL    HW226694   6.254   2.595   1.475
 8599SOL     OW26695   0.899   2.389   0.624
 8599SOL    HW126696   0.943   2.310   0.667
 8599SOL    HW226697   0.957   2.470   0.634
 8600SOL     OW26698   0.187   2.915   5.831
 8600SOL    HW126699   0.139   2.999   5.805
 8600SOL    HW226700   0.211   2.863   5.749
 8601SOL     OW26701   0.550   0.165   4.629
 8601SOL    HW126702   0.524   0.070   4.642
 8601SOL    HW226703   0.573   0.181   4.533
 8602SOL     OW26704   0.943   6.382   2.158
 8602SOL    HW126705   0.885   6.301   2.149
 8602SOL    HW226706   1.026   6.370   2.104
 8603SOL     OW26707   4.770   3.862   1.790
 8603SOL    HW126708   4.783   3.960   1.776
 8603SOL    HW226709   4.684   3.834   1.748
 8604SOL     OW26710   6.249   2.250   3.355
 8604SOL    HW126711   6.262   2.321   3.286
 8604SOL    HW226712   6.177   2.187   3.325
 8605SOL     OW26713   2.188   5.656   1.712
 8605SOL    HW126714   2.223   5.642   1.805
 8605SOL    HW226715   2.092   5.682   1.716
 8606SOL     OW26716   3.946   5.452   4.476
 8606SOL    HW126717   3.871   5.484   4.533
 8606SOL    HW226718   3.926   5.359   4.445
 8607SOL     OW26719   3.020   6.126   0.320
 8607SOL    HW126720   3.034   6.069   0.238
 8607SOL    HW226721   3.060   6.080   0.399
 8608SOL     OW26722   5.844   6.311   2.758
 8608SOL    HW126723   5.819   6.229   2.809
 8608SOL    HW226724   5.788   6.388   2.789
 8609SOL     OW26725   5.845   0.276   5.653
 8609SOL    HW126726   5.789   0.359   5.647
 8609SOL    HW226727   5.786   0.197   5.670
 8610SOL     OW26728   0.120   0.046   4.673
 8610SOL    HW126729   0.153   0.095   4.592
 8610SOL    HW226730   0.050   7.001   4.646
 8611SOL     OW26731   1.759   1.705   2.881
 8611SOL    HW126732   1.690   1.695   2.810
 8611SOL    HW226733   1.781   1.615   2.919
 8612SOL     OW26734   5.072   3.361   4.248
 8612SOL    HW126735   5.010   3.403   4.314
 8612SOL    HW226736   5.024   3.287   4.200
 8613SOL     OW26737   1.642   0.569   1.057
 8613SOL    HW126738   1.699   0.503   1.008
 8613SOL    HW226739   1.698   0.647   1.084
 8614SOL     OW26740   1.712   2.670   3.290
 8614SOL    HW126741   1.764   2.645   3.372
 8614SOL    HW226742   1.658   2.751   3.309
 8615SOL     OW26743   4.739   1.818   6.083
 8615SOL    HW126744   4.653   1.840   6.037
 8615SOL    HW226745   4.721   1.780   6.174
 8616SOL     OW26746   0.848   3.354   0.968
 8616SOL    HW126747   0.801   3.435   0.931
 8616SOL    HW226748   0.806   3.271   0.932
 8617SOL     OW26749   6.463   3.326   0.491
 8617SOL    HW126750   6.457   3.365   0.583
 8617SOL    HW226751   6.451   3.398   0.424
 8618SOL     OW26752   3.097   1.312   2.962
 8618SOL    HW126753   3.034   1.247   2.919
 8618SOL    HW226754   3.079   1.404   2.928
 8619SOL     OW26755   4.016   6.361   0.603
 8619SOL    HW126756   4.085   6.407   0.547
 8619SOL    HW226757   4.058   6.323   0.685
 8620SOL     OW26758   5.981   5.956   3.968
 8620SOL    HW126759   5.949   6.050   3.981
 8620SOL    HW226760   5.972   5.931   3.872
 8621SOL     OW26761   5.034   1.320   4.112
 8621SOL    HW126762   4.951   1.369   4.084
 8621SOL    HW226763   5.042   1.322   4.212
 8622SOL     OW26764   5.341   4.982   6.034
 8622SOL    HW126765   5.288   4.909   6.077
 8622SOL    HW226766   5.437   4.971   6.057
 8623SOL     OW26767   5.565   1.783   3.714
 8623SOL    HW126768   5.554   1.811   3.619
 8623SOL    HW226769   5.512   1.845   3.773
 8624SOL     OW26770   6.788   2.705   3.630
 8624SOL    HW126771   6.806   2.684   3.533
 8624SOL    HW226772   6.706   2.762   3.636
 8625SOL     OW26773   3.626   1.501   6.894
 8625SOL    HW126774   3.630   1.599   6.874
 8625SOL    HW226775   3.560   1.457   6.832
 8626SOL     OW26776   2.972   4.124   1.742
 8626SOL    HW126777   2.894   4.182   1.721
 8626SOL    HW226778   3.034   4.122   1.663
 8627SOL     OW26779   3.410   0.478   6.439
 8627SOL    HW126780   3.349   0.405   6.407
 8627SOL    HW226781   3.443   0.456   6.531
 8628SOL     OW26782   6.091   0.686   1.565
 8628SOL    HW126783   6.092   0.774   1.612
 8628SOL    HW226784   6.164   0.684   1.496
 8629SOL     OW26785   1.329   6.143   3.176
 8629SOL    HW126786   1.359   6.084   3.251
 8629SOL    HW226787   1.331   6.238   3.205
 8630SOL     OW26788   5.164   4.985   4.148
 8630SOL    HW126789   5.168   4.891   4.116
 8630SOL    HW226790   5.095   4.994   4.219
 8631SOL     OW26791   4.000   0.126   3.604
 8631SOL    HW126792   3.997   0.048   3.541
 8631SOL    HW226793   4.054   0.200   3.563
 8632SOL     OW26794   3.003   0.760   2.866
 8632SOL    HW126795   2.983   0.821   2.790
 8632SOL    HW226796   3.046   0.677   2.831
 8633SOL     OW26797   6.199   6.487   3.068
 8633SOL    HW126798   6.190   6.502   2.970
 8633SOL    HW226799   6.110   6.501   3.112
 8634SOL     OW26800   5.689   6.652   1.614
 8634SOL    HW126801   5.770   6.710   1.606
 8634SOL    HW226802   5.652   6.633   1.523
 8635SOL     OW26803   6.180   3.744   5.888
 8635SOL    HW126804   6.199   3.674   5.956
 8635SOL    HW226805   6.111   3.711   5.823
 8636SOL     OW26806   5.671   4.819   1.020
 8636SOL    HW126807   5.705   4.811   0.926
 8636SOL    HW226808   5.748   4.842   1.080
 8637SOL     OW26809   0.914   0.282   2.141
 8637SOL    HW126810   0.899   0.287   2.043
 8637SOL    HW226811   0.857   0.210   2.180
 8638SOL     OW26812   6.246   4.447   1.181
 8638SOL    HW126813   6.206   4.521   1.127
 8638SOL    HW226814   6.345   4.450   1.173
 8639SOL     OW26815   5.782   2.699   3.578
 8639SOL    HW126816   5.795   2.616   3.633
 8639SOL    HW226817   5.711   2.756   3.620
 8640SOL     OW26818   4.869   5.944   1.408
 8640SOL    HW126819   4.888   5.898   1.495
 8640SOL    HW226820   4.817   5.883   1.348
 8641SOL     OW26821   4.809   5.181   3.883
 8641SOL    HW126822   4.810   5.190   3.982
 8641SOL    HW226823   4.900   5.201   3.846
 8642SOL     OW26824   4.275   0.763   0.873
 8642SOL    HW126825   4.228   0.686   0.916
 8642SOL    HW226826   4.373   0.755   0.890
 8643SOL     OW26827   5.041   0.057   0.170
 8643SOL    HW126828   5.023   0.014   0.258
 8643SOL    HW226829   5.131   0.102   0.172
 8644SOL     OW26830   6.291   3.218   5.499
 8644SOL    HW126831   6.277   3.211   5.598
 8644SOL    HW226832   6.202   3.215   5.453
 8645SOL     OW26833   6.472   3.582   2.218
 8645SOL    HW126834   6.428   3.607   2.304
 8645SOL    HW226835   6.570   3.602   2.223
 8646SOL     OW26836   4.358   6.583   0.159
 8646SOL    HW126837   4.348   6.497   0.209
 8646SOL    HW226838   4.435   6.634   0.197
 8647SOL     OW26839   4.955   4.995   1.965
 8647SOL    HW126840   5.025   5.061   1.937
 8647SOL    HW226841   4.997   4.905   1.974
 8648SOL     OW26842   6.583   0.804   4.524
 8648SOL    HW126843   6.545   0.777   4.612
 8648SOL    HW226844   6.513   0.795   4.453
 8649SOL     OW26845   6.674   3.099   5.635
 8649SOL    HW126846   6.664   3.196   5.614
 8649SOL    HW226847   6.770   3.072   5.625
 8650SOL     OW26848   0.447   5.630   1.907
 8650SOL    HW126849   0.482   5.634   2.000
 8650SOL    HW226850   0.422   5.535   1.885
 8651SOL     OW26851   4.326   3.358   1.102
 8651SOL    HW126852   4.272   3.442   1.094
 8651SOL    HW226853   4.325   3.326   1.196
 8652SOL     OW26854   0.782   2.554   4.769
 8652SOL    HW126855   0.713   2.487   4.743
 8652SOL    HW226856   0.802   2.613   4.691
 8653SOL     OW26857   5.228   3.686   6.421
 8653SOL    HW126858   5.277   3.694   6.507
 8653SOL    HW226859   5.135   3.721   6.432
 8654SOL     OW26860   1.862   4.584   1.559
 8654SOL    HW126861   1.778   4.541   1.593
 8654SOL    HW226862   1.926   4.597   1.635
 8655SOL     OW26863   5.491   6.141   2.838
 8655SOL    HW126864   5.440   6.102   2.762
 8655SOL    HW226865   5.571   6.083   2.857
 8656SOL     OW26866   6.531   2.018   2.111
 8656SOL    HW126867   6.567   2.076   2.184
 8656SOL    HW226868   6.552   2.059   2.022
 8657SOL     OW26869   2.803   4.964   0.414
 8657SOL    HW126870   2.902   4.982   0.417
 8657SOL    HW226871   2.763   5.014   0.337
 8658SOL     OW26872   1.062   6.016   5.456
 8658SOL    HW126873   1.086   6.106   5.494
 8658SOL    HW226874   0.968   5.994   5.478
 8659SOL     OW26875   3.397   0.130   4.163
 8659SOL    HW126876   3.410   0.180   4.249
 8659SOL    HW226877   3.424   0.188   4.086
 8660SOL     OW26878   4.839   4.278   0.392
 8660SOL    HW126879   4.878   4.189   0.366
 8660SOL    HW226880   4.908   4.331   0.441
 8661SOL     OW26881   6.488   2.680   2.025
 8661SOL    HW126882   6.565   2.625   2.056
 8661SOL    HW226883   6.408   2.662   2.082
 8662SOL     OW26884   0.436   1.240   0.120
 8662SOL    HW126885   0.525   1.195   0.107
 8662SOL    HW226886   0.427   1.267   0.216
 8663SOL     OW26887   3.161   5.605   0.553
 8663SOL    HW126888   3.148   5.703   0.541
 8663SOL    HW226889   3.123   5.556   0.474
 8664SOL     OW26890   4.777   4.058   1.325
 8664SOL    HW126891   4.824   4.025   1.407
 8664SOL    HW226892   4.760   3.982   1.262
 8665SOL     OW26893   5.301   5.173   4.326
 8665SOL    HW126894   5.250   5.104   4.275
 8665SOL    HW226895   5.266   5.264   4.302
 8666SOL     OW26896   6.735   4.875   4.614
 8666SOL    HW126897   6.667   4.925   4.667
 8666SOL    HW226898   6.827   4.901   4.642
 8667SOL     OW26899   5.517   2.972   3.343
 8667SOL    HW126900   5.419   2.980   3.324
 8667SOL    HW226901   5.535   2.886   3.390
 8668SOL     OW26902   3.039   0.715   4.978
 8668SOL    HW126903   3.030   0.800   4.925
 8668SOL    HW226904   3.101   0.653   4.930
 8669SOL     OW26905   3.636   6.363   6.703
 8669SOL    HW126906   3.553   6.308   6.694
 8669SOL    HW226907   3.714   6.304   6.724
 8670SOL     OW26908   4.334   4.726   2.973
 8670SOL    HW126909   4.236   4.746   2.977
 8670SOL    HW226910   4.384   4.801   3.016
 8671SOL     OW26911   6.021   5.265   1.206
 8671SOL    HW126912   6.020   5.343   1.143
 8671SOL    HW226913   6.108   5.216   1.197
 8672SOL     OW26914   3.757   5.364   4.681
 8672SOL    HW126915   3.850   5.354   4.716
 8672SOL    HW226916   3.696   5.392   4.755
 8673SOL     OW26917   4.782   2.417   6.886
 8673SOL    HW126918   4.832   2.504   6.885
 8673SOL    HW226919   4.711   2.418   6.815
 8674SOL     OW26920   0.390   6.894   2.221
 8674SOL    HW126921   0.417   6.958   2.150
 8674SOL    HW226922   0.472   6.845   2.253
 8675SOL     OW26923   2.630   2.100   2.085
 8675SOL    HW126924   2.655   2.172   2.149
 8675SOL    HW226925   2.692   2.103   2.006
 8676SOL     OW26926   5.385   1.451   4.182
 8676SOL    HW126927   5.383   1.397   4.099
 8676SOL    HW226928   5.323   1.529   4.172
 8677SOL     OW26929   2.193   3.499   5.673
 8677SOL    HW126930   2.098   3.509   5.701
 8677SOL    HW226931   2.225   3.584   5.631
 8678SOL     OW26932   0.722   1.105   6.137
 8678SOL    HW126933   0.633   1.143   6.112
 8678SOL    HW226934   0.791   1.178   6.134
 8679SOL     OW26935   6.224   2.459   4.412
 8679SOL    HW126936   6.156   2.386   4.416
 8679SOL    HW226937   6.205   2.526   4.484
 8680SOL     OW26938   0.566   3.130   6.333
 8680SOL    HW126939   0.473   3.099   6.352
 8680SOL    HW226940   0.585   3.120   6.235
 8681SOL     OW26941   4.212   4.094   1.452
 8681SOL    HW126942   4.277   4.056   1.518
 8681SOL    HW226943   4.163   4.171   1.494
 8682SOL     OW26944   1.497   5.789   2.960
 8682SOL    HW126945   1.567   5.722   2.934
 8682SOL    HW226946   1.435   5.805   2.884
 8683SOL     OW26947   4.563   3.772   6.842
 8683SOL    HW126948   4.492   3.837   6.869
 8683SOL    HW226949   4.583   3.711   6.919
 8684SOL     OW26950   6.310   2.615   3.884
 8684SOL    HW126951   6.360   2.552   3.825
 8684SOL    HW226952   6.212   2.601   3.872
 8685SOL     OW26953   0.386   2.194   5.340
 8685SOL    HW126954   0.336   2.216   5.256
 8685SOL    HW226955   0.413   2.098   5.339
 8686SOL     OW26956   6.199   1.263   4.072
 8686SOL    HW126957   6.130   1.191   4.063
 8686SOL    HW226958   6.289   1.226   4.049
 8687SOL     OW26959   3.700   1.108   2.802
 8687SOL    HW126960   3.668   1.198   2.774
 8687SOL    HW226961   3.784   1.117   2.855
 8688SOL     OW26962   6.906   6.540   1.634
 8688SOL    HW126963   6.873   6.570   1.724
 8688SOL    HW226964   6.990   6.488   1.645
 8689SOL     OW26965   4.866   4.675   1.796
 8689SOL    HW126966   4.810   4.592   1.790
 8689SOL    HW226967   4.940   4.660   1.862
 8690SOL     OW26968   1.956   0.559   1.746
 8690SOL    HW126969   2.016   0.631   1.781
 8690SOL    HW226970   1.898   0.596   1.673
 8691SOL     OW26971   5.722   1.363   6.860
 8691SOL    HW126972   5.721   1.303   6.780
 8691SOL    HW226973   5.792   1.434   6.847
 8692SOL     OW26974   1.620   1.246   3.697
 8692SOL    HW126975   1.539   1.254   3.639
 8692SOL    HW226976   1.644   1.149   3.707
 8693SOL     OW26977   4.862   2.571   6.580
 8693SOL    HW126978   4.763   2.576   6.594
 8693SOL    HW226979   4.881   2.548   6.484
 8694SOL     OW26980   3.958   0.275   6.588
 8694SOL    HW126981   3.968   0.271   6.688
 8694SOL    HW226982   4.038   0.235   6.545
 8695SOL     OW26983   4.133   3.839   5.164
 8695SOL    HW126984   4.171   3.909   5.225
 8695SOL    HW226985   4.033   3.841   5.170
 8696SOL     OW26986   2.092   5.522   0.113
 8696SOL    HW126987   2.017   5.465   0.081
 8696SOL    HW226988   2.056   5.606   0.155
 8697SOL     OW26989   5.134   5.749   6.517
 8697SOL    HW126990   5.087   5.702   6.592
 8697SOL    HW226991   5.135   5.691   6.436
 8698SOL     OW26992   5.917   5.797   5.505
 8698SOL    HW126993   5.865   5.798   5.591
 8698SOL    HW226994   5.969   5.711   5.499
 8699SOL     OW26995   1.881   1.373   4.238
 8699SOL    HW126996   1.880   1.468   4.270
 8699SOL    HW226997   1.960   1.360   4.178
 8700SOL     OW26998   2.478   0.497   6.067
 8700SOL    HW126999   2.564   0.546   6.076
 8700SOL    HW227000   2.485   0.430   5.993
 8701SOL     OW27001   1.286   0.437   3.314
 8701SOL    HW127002   1.212   0.503   3.298
 8701SOL    HW227003   1.256   0.371   3.383
 8702SOL     OW27004   4.509   0.394   6.360
 8702SOL    HW127005   4.529   0.326   6.290
 8702SOL    HW227006   4.522   0.353   6.451
 8703SOL     OW27007   1.663   4.437   0.988
 8703SOL    HW127008   1.659   4.519   0.932
 8703SOL    HW227009   1.586   4.377   0.965
 8704SOL     OW27010   1.126   4.465   2.179
 8704SOL    HW127011   1.033   4.476   2.146
 8704SOL    HW227012   1.125   4.436   2.275
 8705SOL     OW27013   4.600   6.429   4.415
 8705SOL    HW127014   4.598   6.329   4.417
 8705SOL    HW227015   4.595   6.461   4.321
 8706SOL     OW27016   4.914   0.324   6.647
 8706SOL    HW127017   4.916   0.302   6.549
 8706SOL    HW227018   4.955   0.413   6.662
 8707SOL     OW27019   3.846   1.693   5.817
 8707SOL    HW127020   3.762   1.736   5.784
 8707SOL    HW227021   3.897   1.654   5.740
 8708SOL     OW27022   3.765   1.606   1.272
 8708SOL    HW127023   3.854   1.647   1.292
 8708SOL    HW227024   3.765   1.573   1.178
 8709SOL     OW27025   5.105   3.465   0.061
 8709SOL    HW127026   5.157   3.415   0.130
 8709SOL    HW227027   5.034   3.520   0.105
 8710SOL     OW27028   6.410   3.889   3.972
 8710SOL    HW127029   6.344   3.814   3.967
 8710SOL    HW227030   6.366   3.970   4.011
 8711SOL     OW27031   1.880   1.612   4.378
 8711SOL    HW127032   1.792   1.659   4.365
 8711SOL    HW227033   1.954   1.673   4.351
 8712SOL     OW27034   3.488   0.356   6.661
 8712SOL    HW127035   3.396   0.361   6.701
 8712SOL    HW227036   3.555   0.341   6.734
 8713SOL     OW27037   6.267   4.670   3.030
 8713SOL    HW127038   6.317   4.682   3.116
 8713SOL    HW227039   6.329   4.633   2.960
 8714SOL     OW27040   2.111   1.498   3.832
 8714SOL    HW127041   2.057   1.418   3.805
 8714SOL    HW227042   2.073   1.580   3.789
 8715SOL     OW27043   5.459   0.724   2.575
 8715SOL    HW127044   5.414   0.683   2.655
 8715SOL    HW227045   5.390   0.746   2.506
 8716SOL     OW27046   1.430   0.531   2.664
 8716SOL    HW127047   1.395   0.587   2.589
 8716SOL    HW227048   1.530   0.527   2.658
 8717SOL     OW27049   4.622   3.947   0.925
 8717SOL    HW127050   4.711   3.910   0.949
 8717SOL    HW227051   4.622   4.046   0.939
 8718SOL     OW27052   6.850   2.536   6.068
 8718SOL    HW127053   6.831   2.486   5.983
 8718SOL    HW227054   6.788   2.615   6.075
 8719SOL     OW27055   6.497   1.161   5.771
 8719SOL    HW127056   6.507   1.260   5.762
 8719SOL    HW227057   6.459   1.123   5.686
 8720SOL     OW27058   5.281   2.983   4.974
 8720SOL    HW127059   5.230   2.902   4.946
 8720SOL    HW227060   5.379   2.961   4.977
 8721SOL     OW27061   6.837   0.649   5.001
 8721SOL    HW127062   6.860   0.735   5.047
 8721SOL    HW227063   6.808   0.581   5.069
 8722SOL     OW27064   3.704   2.658   0.463
 8722SOL    HW127065   3.765   2.701   0.529
 8722SOL    HW227066   3.702   2.560   0.478
 8723SOL     OW27067   0.469   5.990   0.713
 8723SOL    HW127068   0.535   6.031   0.651
 8723SOL    HW227069   0.467   5.891   0.699
 8724SOL     OW27070   4.551   5.951   6.350
 8724SOL    HW127071   4.465   5.972   6.304
 8724SOL    HW227072   4.626   5.998   6.305
 8725SOL     OW27073   2.884   6.442   0.587
 8725SOL    HW127074   2.903   6.344   0.586
 8725SOL    HW227075   2.853   6.471   0.497
 8726SOL     OW27076   0.071   6.911   0.630
 8726SOL    HW127077   0.031   6.824   0.659
 8726SOL    HW227078   0.070   6.975   0.707
 8727SOL     OW27079   5.248   6.549   2.269
 8727SOL    HW127080   5.165   6.563   2.323
 8727SOL    HW227081   5.231   6.572   2.174
 8728SOL     OW27082   2.240   5.214   5.600
 8728SOL    HW127083   2.153   5.240   5.642
 8728SOL    HW227084   2.311   5.280   5.625
 8729SOL     OW27085   4.911   5.702   4.414
 8729SOL    HW127086   4.845   5.663   4.349
 8729SOL    HW227087   4.969   5.768   4.366
 8730SOL     OW27088   6.234   6.270   1.274
 8730SOL    HW127089   6.333   6.254   1.280
 8730SOL    HW227090   6.189   6.233   1.355
 8731SOL     OW27091   0.737   1.943   3.040
 8731SOL    HW127092   0.773   2.010   2.975
 8731SOL    HW227093   0.810   1.880   3.066
 8732SOL     OW27094   6.203   6.434   2.161
 8732SOL    HW127095   6.214   6.499   2.236
 8732SOL    HW227096   6.248   6.468   2.079
 8733SOL     OW27097   6.668   0.826   0.615
 8733SOL    HW127098   6.569   0.813   0.625
 8733SOL    HW227099   6.684   0.902   0.552
 8734SOL     OW27100   6.239   6.956   1.043
 8734SOL    HW127101   6.198   0.014   0.996
 8734SOL    HW227102   6.267   6.983   1.135
 8735SOL     OW27103   0.434   2.954   5.972
 8735SOL    HW127104   0.344   2.944   5.930
 8735SOL    HW227105   0.445   2.885   6.045
 8736SOL     OW27106   0.636   5.012   5.765
 8736SOL    HW127107   0.735   5.000   5.777
 8736SOL    HW227108   0.587   4.956   5.832
 8737SOL     OW27109   4.072   5.459   6.827
 8737SOL    HW127110   4.013   5.526   6.783
 8737SOL    HW227111   4.039   5.440   6.919
 8738SOL     OW27112   1.138   3.822   5.367
 8738SOL    HW127113   1.237   3.817   5.353
 8738SOL    HW227114   1.092   3.769   5.296
 8739SOL     OW27115   1.279   3.468   5.398
 8739SOL    HW127116   1.317   3.537   5.337
 8739SOL    HW227117   1.290   3.377   5.358
 8740SOL     OW27118   1.198   6.022   0.453
 8740SOL    HW127119   1.204   6.100   0.515
 8740SOL    HW227120   1.126   5.960   0.485
 8741SOL     OW27121   1.450   3.622   1.983
 8741SOL    HW127122   1.401   3.539   2.010
 8741SOL    HW227123   1.407   3.702   2.026
 8742SOL     OW27124   4.690   5.126   1.654
 8742SOL    HW127125   4.598   5.156   1.628
 8742SOL    HW227126   4.693   5.026   1.655
 8743SOL     OW27127   3.223   5.180   2.606
 8743SOL    HW127128   3.293   5.232   2.656
 8743SOL    HW227129   3.197   5.231   2.524
 8744SOL     OW27130   3.010   3.760   5.484
 8744SOL    HW127131   2.997   3.663   5.464
 8744SOL    HW227132   3.104   3.787   5.458
 8745SOL     OW27133   5.484   1.833   5.933
 8745SOL    HW127134   5.524   1.833   6.025
 8745SOL    HW227135   5.462   1.739   5.907
 8746SOL     OW27136   5.232   3.353   4.640
 8746SOL    HW127137   5.138   3.326   4.662
 8746SOL    HW227138   5.293   3.274   4.650
 8747SOL     OW27139   0.987   1.825   4.323
 8747SOL    HW127140   1.038   1.844   4.239
 8747SOL    HW227141   0.988   1.727   4.342
 8748SOL     OW27142   3.510   0.423   6.183
 8748SOL    HW127143   3.537   0.327   6.195
 8748SOL    HW227144   3.481   0.460   6.271
 8749SOL     OW27145   4.109   1.469   3.488
 8749SOL    HW127146   4.198   1.450   3.530
 8749SOL    HW227147   4.097   1.410   3.408
 8750SOL     OW27148   1.954   6.996   4.847
 8750SOL    HW127149   1.992   6.954   4.930
 8750SOL    HW227150   2.008   6.969   4.768
 8751SOL     OW27151   1.868   6.203   2.727
 8751SOL    HW127152   1.799   6.179   2.795
 8751SOL    HW227153   1.957   6.215   2.771
 8752SOL     OW27154   1.945   0.721   6.660
 8752SOL    HW127155   2.037   0.757   6.648
 8752SOL    HW227156   1.879   0.782   6.617
 8753SOL     OW27157   5.293   1.957   5.163
 8753SOL    HW127158   5.280   2.049   5.199
 8753SOL    HW227159   5.223   1.896   5.202
 8754SOL     OW27160   1.565   1.030   5.817
 8754SOL    HW127161   1.526   1.107   5.868
 8754SOL    HW227162   1.534   0.944   5.858
 8755SOL     OW27163   2.216   2.271   0.571
 8755SOL    HW127164   2.236   2.300   0.664
 8755SOL    HW227165   2.121   2.239   0.566
 8756SOL     OW27166   3.443   4.939   5.000
 8756SOL    HW127167   3.511   5.005   5.033
 8756SOL    HW227168   3.447   4.856   5.055
 8757SOL     OW27169   3.187   5.385   3.522
 8757SOL    HW127170   3.210   5.457   3.457
 8757SOL    HW227171   3.151   5.426   3.606
 8758SOL     OW27172   5.272   6.643   2.848
 8758SOL    HW127173   5.366   6.612   2.863
 8758SOL    HW227174   5.248   6.631   2.752
 8759SOL     OW27175   5.092   0.117   5.779
 8759SOL    HW127176   5.183   0.120   5.819
 8759SOL    HW227177   5.023   0.131   5.850
 8760SOL     OW27178   1.898   2.816   3.486
 8760SOL    HW127179   1.862   2.909   3.491
 8760SOL    HW227180   1.947   2.794   3.570
 8761SOL     OW27181   4.883   6.173   1.659
 8761SOL    HW127182   4.936   6.097   1.696
 8761SOL    HW227183   4.881   6.247   1.727
 8762SOL     OW27184   1.889   4.927   1.199
 8762SOL    HW127185   1.858   4.848   1.251
 8762SOL    HW227186   1.827   4.943   1.122
 8763SOL     OW27187   6.840   5.918   6.733
 8763SOL    HW127188   6.920   5.973   6.708
 8763SOL    HW227189   6.868   5.845   6.795
 8764SOL     OW27190   3.005   1.910   6.533
 8764SOL    HW127191   2.997   1.977   6.460
 8764SOL    HW227192   3.060   1.948   6.608
 8765SOL     OW27193   5.783   0.678   5.010
 8765SOL    HW127194   5.852   0.684   4.938
 8765SOL    HW227195   5.706   0.738   4.987
 8766SOL     OW27196   2.522   4.464   2.607
 8766SOL    HW127197   2.525   4.561   2.583
 8766SOL    HW227198   2.534   4.409   2.524
 8767SOL     OW27199   3.965   0.822   4.916
 8767SOL    HW127200   4.053   0.867   4.923
 8767SOL    HW227201   3.963   0.764   4.834
 8768SOL     OW27202   0.883   4.430   1.295
 8768SOL    HW127203   0.824   4.395   1.368
 8768SOL    HW227204   0.828   4.446   1.213
 8769SOL     OW27205   1.657   0.660   6.593
 8769SOL    HW127206   1.749   0.674   6.631
 8769SOL    HW227207   1.592   0.643   6.666
 8770SOL     OW27208   5.909   1.836   3.093
 8770SOL    HW127209   5.846   1.904   3.055
 8770SOL    HW227210   5.987   1.824   3.032
 8771SOL     OW27211   2.955   3.459   5.422
 8771SOL    HW127212   2.858   3.474   5.407
 8771SOL    HW227213   2.979   3.366   5.395
 8772SOL     OW27214   0.285   0.054   6.861
 8772SOL    HW127215   0.235   7.009   6.917
 8772SOL    HW227216   0.310   0.134   6.916
 8773SOL     OW27217   2.884   1.654   3.349
 8773SOL    HW127218   2.861   1.735   3.296
 8773SOL    HW227219   2.832   1.653   3.434
 8774SOL     OW27220   1.282   1.372   0.396
 8774SOL    HW127221   1.228   1.318   0.461
 8774SOL    HW227222   1.230   1.385   0.312
 8775SOL     OW27223   6.061   6.446   4.170
 8775SOL    HW127224   6.123   6.367   4.171
 8775SOL    HW227225   5.972   6.418   4.132
 8776SOL     OW27226   2.904   3.658   5.745
 8776SOL    HW127227   2.987   3.614   5.777
 8776SOL    HW227228   2.925   3.715   5.665
 8777SOL     OW27229   6.148   5.446   3.250
 8777SOL    HW127230   6.110   5.511   3.315
 8777SOL    HW227231   6.132   5.353   3.282
 8778SOL     OW27232   1.149   2.957   2.784
 8778SOL    HW127233   1.249   2.953   2.782
 8778SOL    HW227234   1.111   2.882   2.729
 8779SOL     OW27235   2.078   4.809   0.783
 8779SOL    HW127236   2.064   4.736   0.716
 8779SOL    HW227237   2.081   4.770   0.875
 8780SOL     OW27238   2.275   5.900   5.285
 8780SOL    HW127239   2.216   5.952   5.224
 8780SOL    HW227240   2.228   5.817   5.315
 8781SOL     OW27241   0.622   2.568   2.553
 8781SOL    HW127242   0.622   2.564   2.453
 8781SOL    HW227243   0.683   2.641   2.584
 8782SOL     OW27244   5.481   1.137   4.337
 8782SOL    HW127245   5.416   1.212   4.351
 8782SOL    HW227246   5.444   1.053   4.375
 8783SOL     OW27247   5.707   2.316   6.042
 8783SOL    HW127248   5.645   2.289   6.116
 8783SOL    HW227249   5.733   2.412   6.054
 8784SOL     OW27250   4.760   3.985   6.363
 8784SOL    HW127251   4.783   3.889   6.382
 8784SOL    HW227252   4.662   3.992   6.342
 8785SOL     OW27253   4.971   3.997   6.187
 8785SOL    HW127254   4.905   4.004   6.263
 8785SOL    HW227255   4.921   3.997   6.100
 8786SOL     OW27256   1.777   5.876   6.712
 8786SOL    HW127257   1.871   5.883   6.744
 8786SOL    HW227258   1.723   5.823   6.777
 8787SOL     OW27259   0.661   2.457   6.345
 8787SOL    HW127260   0.599   2.465   6.423
 8787SOL    HW227261   0.641   2.530   6.279
 8788SOL     OW27262   1.647   1.605   5.250
 8788SOL    HW127263   1.604   1.636   5.165
 8788SOL    HW227264   1.576   1.576   5.314
 8789SOL     OW27265   6.719   1.516   0.325
 8789SOL    HW127266   6.793   1.510   0.391
 8789SOL    HW227267   6.634   1.543   0.371
 8790SOL     OW27268   4.053   1.018   6.671
 8790SOL    HW127269   4.105   0.942   6.633
 8790SOL    HW227270   4.094   1.104   6.642
 8791SOL     OW27271   6.206   5.890   5.429
 8791SOL    HW127272   6.142   5.830   5.380
 8791SOL    HW227273   6.289   5.839   5.451
 8792SOL     OW27274   5.793   6.713   2.681
 8792SOL    HW127275   5.865   6.700   2.612
 8792SOL    HW227276   5.740   6.795   2.658
 8793SOL     OW27277   1.095   5.078   3.097
 8793SOL    HW127278   1.105   5.163   3.149
 8793SOL    HW227279   1.078   5.002   3.160
 8794SOL     OW27280   2.512   6.812   2.192
 8794SOL    HW127281   2.424   6.855   2.212
 8794SOL    HW227282   2.581   6.883   2.176
 8795SOL     OW27283   3.412   6.824   4.464
 8795SOL    HW127284   3.477   6.825   4.388
 8795SOL    HW227285   3.330   6.773   4.437
 8796SOL     OW27286   4.481   2.557   4.388
 8796SOL    HW127287   4.458   2.527   4.480
 8796SOL    HW227288   4.430   2.503   4.321
 8797SOL     OW27289   0.080   5.618   6.631
 8797SOL    HW127290   7.013   5.603   6.676
 8797SOL    HW227291   0.144   5.660   6.696
 8798SOL     OW27292   3.521   3.399   5.496
 8798SOL    HW127293   3.586   3.350   5.554
 8798SOL    HW227294   3.428   3.366   5.514
 8799SOL     OW27295   3.603   0.504   1.832
 8799SOL    HW127296   3.542   0.479   1.908
 8799SOL    HW227297   3.593   0.438   1.758
 8800SOL     OW27298   4.013   4.035   0.591
 8800SOL    HW127299   3.995   3.939   0.568
 8800SOL    HW227300   4.086   4.040   0.659
 8801SOL     OW27301   3.112   6.388   5.460
 8801SOL    HW127302   3.132   6.467   5.518
 8801SOL    HW227303   3.020   6.354   5.479
 8802SOL     OW27304   1.791   6.733   1.481
 8802SOL    HW127305   1.707   6.752   1.429
 8802SOL    HW227306   1.796   6.635   1.501
 8803SOL     OW27307   3.679   5.635   2.214
 8803SOL    HW127308   3.639   5.620   2.124
 8803SOL    HW227309   3.734   5.556   2.240
 8804SOL     OW27310   3.249   0.774   1.307
 8804SOL    HW127311   3.277   0.804   1.398
 8804SOL    HW227312   3.268   0.676   1.297
 8805SOL     OW27313   7.007   0.248   4.095
 8805SOL    HW127314   0.072   0.284   4.131
 8805SOL    HW227315   6.941   0.238   4.169
 8806SOL     OW27316   2.011   4.895   6.834
 8806SOL    HW127317   1.999   4.949   6.750
 8806SOL    HW227318   1.981   4.949   6.913
 8807SOL     OW27319   1.612   4.722   6.477
 8807SOL    HW127320   1.646   4.650   6.417
 8807SOL    HW227321   1.649   4.709   6.569
 8808SOL     OW27322   6.450   2.543   0.929
 8808SOL    HW127323   6.413   2.489   1.004
 8808SOL    HW227324   6.478   2.482   0.855
 8809SOL     OW27325   6.051   4.225   6.901
 8809SOL    HW127326   6.008   4.254   6.816
 8809SOL    HW227327   6.054   4.125   6.905
 8810SOL     OW27328   4.934   1.684   4.381
 8810SOL    HW127329   4.982   1.754   4.330
 8810SOL    HW227330   4.990   1.654   4.458
 8811SOL     OW27331   0.591   0.718   3.546
 8811SOL    HW127332   0.629   0.792   3.602
 8811SOL    HW227333   0.639   0.715   3.459
 8812SOL     OW27334   2.498   0.846   0.496
 8812SOL    HW127335   2.535   0.774   0.436
 8812SOL    HW227336   2.450   0.914   0.440
 8813SOL     OW27337   0.647   5.543   0.709
 8813SOL    HW127338   0.738   5.583   0.695
 8813SOL    HW227339   0.649   5.447   0.680
 8814SOL     OW27340   5.614   6.928   6.473
 8814SOL    HW127341   5.607   6.834   6.506
 8814SOL    HW227342   5.537   6.982   6.509
 8815SOL     OW27343   6.476   4.685   3.254
 8815SOL    HW127344   6.496   4.587   3.253
 8815SOL    HW227345   6.441   4.711   3.344
 8816SOL     OW27346   0.701   5.963   2.362
 8816SOL    HW127347   0.700   6.009   2.274
 8816SOL    HW227348   0.796   5.941   2.387
 8817SOL     OW27349   1.819   4.088   5.097
 8817SOL    HW127350   1.807   4.102   4.999
 8817SOL    HW227351   1.855   4.172   5.139
 8818SOL     OW27352   6.906   4.734   5.192
 8818SOL    HW127353   6.985   4.753   5.133
 8818SOL    HW227354   6.932   4.746   5.288
 8819SOL     OW27355   0.532   0.906   4.563
 8819SOL    HW127356   0.491   0.988   4.604
 8819SOL    HW227357   0.632   0.914   4.565
 8820SOL     OW27358   1.502   2.282   3.217
 8820SOL    HW127359   1.435   2.356   3.231
 8820SOL    HW227360   1.519   2.237   3.304
 8821SOL     OW27361   1.260   6.667   6.925
 8821SOL    HW127362   1.251   6.719   7.010
 8821SOL    HW227363   1.342   6.697   6.876
 8822SOL     OW27364   1.246   2.291   3.561
 8822SOL    HW127365   1.192   2.359   3.611
 8822SOL    HW227366   1.201   2.270   3.474
 8823SOL     OW27367   2.675   5.717   0.582
 8823SOL    HW127368   2.649   5.653   0.510
 8823SOL    HW227369   2.742   5.673   0.642
 8824SOL     OW27370   5.127   4.435   1.604
 8824SOL    HW127371   5.038   4.394   1.584
 8824SOL    HW227372   5.198   4.365   1.593
 8825SOL     OW27373   2.581   1.995   6.627
 8825SOL    HW127374   2.640   1.920   6.595
 8825SOL    HW227375   2.557   2.053   6.549
 8826SOL     OW27376   5.393   0.494   1.521
 8826SOL    HW127377   5.303   0.473   1.559
 8826SOL    HW227378   5.402   0.593   1.509
 8827SOL     OW27379   0.076   1.196   3.833
 8827SOL    HW127380   0.074   1.106   3.875
 8827SOL    HW227381   0.046   1.265   3.899
 8828SOL     OW27382   1.378   5.604   3.161
 8828SOL    HW127383   1.414   5.658   3.085
 8828SOL    HW227384   1.278   5.599   3.153
 8829SOL     OW27385   0.380   0.443   1.353
 8829SOL    HW127386   0.434   0.472   1.274
 8829SOL    HW227387   0.361   0.522   1.411
 8830SOL     OW27388   1.606   1.526   1.190
 8830SOL    HW127389   1.569   1.438   1.222
 8830SOL    HW227390   1.667   1.510   1.112
 8831SOL     OW27391   0.176   0.327   1.198
 8831SOL    HW127392   0.221   0.375   1.274
 8831SOL    HW227393   0.202   0.370   1.112
 8832SOL     OW27394   6.672   0.804   1.638
 8832SOL    HW127395   6.612   0.817   1.717
 8832SOL    HW227396   6.631   0.847   1.557
 8833SOL     OW27397   0.137   5.350   1.486
 8833SOL    HW127398   0.191   5.386   1.410
 8833SOL    HW227399   0.101   5.427   1.540
 8834SOL     OW27400   6.376   4.800   4.526
 8834SOL    HW127401   6.277   4.811   4.530
 8834SOL    HW227402   6.418   4.848   4.603
 8835SOL     OW27403   0.847   1.628   0.863
 8835SOL    HW127404   0.836   1.654   0.766
 8835SOL    HW227405   0.854   1.529   0.870
 8836SOL     OW27406   4.764   2.232   1.347
 8836SOL    HW127407   4.775   2.264   1.441
 8836SOL    HW227408   4.719   2.142   1.346
 8837SOL     OW27409   0.685   2.885   2.428
 8837SOL    HW127410   0.761   2.931   2.383
 8837SOL    HW227411   0.696   2.891   2.527
 8838SOL     OW27412   1.609   6.492   3.328
 8838SOL    HW127413   1.509   6.493   3.326
 8838SOL    HW227414   1.644   6.449   3.245
 8839SOL     OW27415   6.154   5.383   4.951
 8839SOL    HW127416   6.211   5.418   4.877
 8839SOL    HW227417   6.058   5.383   4.921
 8840SOL     OW27418   4.177   0.543   1.985
 8840SOL    HW127419   4.209   0.637   1.994
 8840SOL    HW227420   4.123   0.518   2.066
 8841SOL     OW27421   4.016   6.971   3.383
 8841SOL    HW127422   4.052   6.885   3.347
 8841SOL    HW227423   3.928   6.954   3.429
 8842SOL     OW27424   1.756   1.466   2.057
 8842SOL    HW127425   1.807   1.410   2.123
 8842SOL    HW227426   1.819   1.528   2.011
 8843SOL     OW27427   0.202   2.904   3.859
 8843SOL    HW127428   0.223   2.807   3.850
 8843SOL    HW227429   0.119   2.925   3.806
 8844SOL     OW27430   5.654   2.180   7.013
 8844SOL    HW127431   5.599   2.131   0.060
 8844SOL    HW227432   5.727   2.121   6.979
 8845SOL     OW27433   5.096   2.770   0.326
 8845SOL    HW127434   5.180   2.821   0.306
 8845SOL    HW227435   5.098   2.737   0.420
 8846SOL     OW27436   3.236   4.877   4.253
 8846SOL    HW127437   3.204   4.785   4.229
 8846SOL    HW227438   3.215   4.895   4.349
 8847SOL     OW27439   1.478   1.830   3.583
 8847SOL    HW127440   1.454   1.762   3.652
 8847SOL    HW227441   1.418   1.910   3.591
 8848SOL     OW27442   0.485   1.020   3.855
 8848SOL    HW127443   0.440   1.011   3.944
 8848SOL    HW227444   0.477   1.115   3.824
 8849SOL     OW27445   3.000   0.092   1.677
 8849SOL    HW127446   2.996   0.108   1.776
 8849SOL    HW227447   2.965   0.001   1.656
 8850SOL     OW27448   3.288   1.603   0.217
 8850SOL    HW127449   3.384   1.575   0.217
 8850SOL    HW227450   3.269   1.653   0.133
 8851SOL     OW27451   2.240   3.744   1.149
 8851SOL    HW127452   2.265   3.733   1.245
 8851SOL    HW227453   2.301   3.688   1.093
 8852SOL     OW27454   0.938   2.684   4.954
 8852SOL    HW127455   0.867   2.633   4.906
 8852SOL    HW227456   0.932   2.780   4.929
 8853SOL     OW27457   4.983   0.221   1.813
 8853SOL    HW127458   5.074   0.261   1.809
 8853SOL    HW227459   4.969   0.162   1.733
 8854SOL     OW27460   6.963   2.719   4.862
 8854SOL    HW127461   7.011   2.631   4.864
 8854SOL    HW227462   6.978   2.764   4.774
 8855SOL     OW27463   4.986   4.892   1.066
 8855SOL    HW127464   5.058   4.824   1.080
 8855SOL    HW227465   4.898   4.854   1.094
 8856SOL     OW27466   6.186   0.814   5.461
 8856SOL    HW127467   6.280   0.793   5.434
 8856SOL    HW227468   6.136   0.730   5.479
 8857SOL     OW27469   0.316   2.625   6.728
 8857SOL    HW127470   0.369   2.709   6.721
 8857SOL    HW227471   0.371   2.556   6.776
 8858SOL     OW27472   0.646   4.924   5.193
 8858SOL    HW127473   0.694   4.885   5.271
 8858SOL    HW227474   0.580   4.857   5.158
 8859SOL     OW27475   0.663   6.076   3.174
 8859SOL    HW127476   0.591   6.024   3.128
 8859SOL    HW227477   0.752   6.035   3.153
 8860SOL     OW27478   7.000   2.679   3.122
 8860SOL    HW127479   0.035   2.757   3.092
 8860SOL    HW227480   0.039   2.605   3.153
 8861SOL     OW27481   3.300   2.551   1.123
 8861SOL    HW127482   3.263   2.463   1.156
 8861SOL    HW227483   3.257   2.574   1.036
 8862SOL     OW27484   4.536   4.520   4.809
 8862SOL    HW127485   4.504   4.522   4.714
 8862SOL    HW227486   4.461   4.544   4.870
 8863SOL     OW27487   1.585   3.564   1.652
 8863SOL    HW127488   1.518   3.535   1.583
 8863SOL    HW227489   1.602   3.488   1.715
 8864SOL     OW27490   0.071   1.896   4.581
 8864SOL    HW127491   0.092   1.807   4.541
 8864SOL    HW227492   0.007   1.884   4.657
 8865SOL     OW27493   2.352   1.522   0.349
 8865SOL    HW127494   2.433   1.540   0.404
 8865SOL    HW227495   2.285   1.472   0.404
 8866SOL     OW27496   6.111   0.821   2.076
 8866SOL    HW127497   6.197   0.836   2.125
 8866SOL    HW227498   6.119   0.856   1.983
 8867SOL     OW27499   5.638   2.391   3.451
 8867SOL    HW127500   5.635   2.361   3.546
 8867SOL    HW227501   5.579   2.471   3.439
 8868SOL     OW27502   0.514   2.789   3.389
 8868SOL    HW127503   0.571   2.830   3.318
 8868SOL    HW227504   0.533   2.691   3.394
 8869SOL     OW27505   4.300   0.277   3.291
 8869SOL    HW127506   4.321   0.347   3.223
 8869SOL    HW227507   4.280   0.321   3.379
 8870SOL     OW27508   1.193   0.847   1.328
 8870SOL    HW127509   1.095   0.833   1.342
 8870SOL    HW227510   1.243   0.765   1.357
 8871SOL     OW27511   6.839   6.934   0.362
 8871SOL    HW127512   6.879   6.844   0.349
 8871SOL    HW227513   6.779   6.933   0.442
 8872SOL     OW27514   6.608   5.439   3.770
 8872SOL    HW127515   6.664   5.358   3.755
 8872SOL    HW227516   6.528   5.437   3.709
 8873SOL     OW27517   1.827   1.305   3.117
 8873SOL    HW127518   1.874   1.220   3.095
 8873SOL    HW227519   1.803   1.306   3.214
 8874SOL     OW27520   2.790   6.179   0.474
 8874SOL    HW127521   2.762   6.268   0.439
 8874SOL    HW227522   2.844   6.131   0.404
 8875SOL     OW27523   6.640   2.376   4.146
 8875SOL    HW127524   6.685   2.431   4.217
 8875SOL    HW227525   6.665   2.411   4.056
 8876SOL     OW27526   4.932   0.052   0.845
 8876SOL    HW127527   4.925   6.974   0.853
 8876SOL    HW227528   5.025   0.078   0.820
 8877SOL     OW27529   1.231   4.638   1.743
 8877SOL    HW127530   1.275   4.713   1.693
 8877SOL    HW227531   1.261   4.639   1.838
 8878SOL     OW27532   4.910   3.764   2.493
 8878SOL    HW127533   4.905   3.859   2.465
 8878SOL    HW227534   4.904   3.705   2.413
 8879SOL     OW27535   6.586   4.698   3.906
 8879SOL    HW127536   6.596   4.609   3.950
 8879SOL    HW227537   6.506   4.745   3.944
 8880SOL     OW27538   4.008   1.802   2.636
 8880SOL    HW127539   3.959   1.845   2.712
 8880SOL    HW227540   3.975   1.839   2.549
 8881SOL     OW27541   3.810   5.980   2.916
 8881SOL    HW127542   3.746   6.000   2.991
 8881SOL    HW227543   3.805   6.053   2.848
 8882SOL     OW27544   4.121   1.684   0.166
 8882SOL    HW127545   4.129   1.715   0.261
 8882SOL    HW227546   4.211   1.655   0.133
 8883SOL     OW27547   0.735   6.641   2.819
 8883SOL    HW127548   0.740   6.606   2.913
 8883SOL    HW227549   0.653   6.607   2.775
 8884SOL     OW27550   4.416   1.853   6.256
 8884SOL    HW127551   4.503   1.818   6.290
 8884SOL    HW227552   4.426   1.948   6.229
 8885SOL     OW27553   5.068   5.409   0.585
 8885SOL    HW127554   5.136   5.481   0.573
 8885SOL    HW227555   5.076   5.342   0.511
 8886SOL     OW27556   4.497   6.927   0.862
 8886SOL    HW127557   4.532   6.913   0.955
 8886SOL    HW227558   4.416   6.986   0.865
 8887SOL     OW27559   3.935   0.764   2.251
 8887SOL    HW127560   3.990   0.841   2.219
 8887SOL    HW227561   3.842   0.795   2.269
 8888SOL     OW27562   3.943   1.650   2.139
 8888SOL    HW127563   3.878   1.702   2.083
 8888SOL    HW227564   3.970   1.705   2.218
 8889SOL     OW27565   1.815   4.502   6.499
 8889SOL    HW127566   1.893   4.459   6.453
 8889SOL    HW227567   1.734   4.446   6.487
 8890SOL     OW27568   1.694   5.655   6.894
 8890SOL    HW127569   1.693   5.556   6.881
 8890SOL    HW227570   1.762   5.679   6.964
 8891SOL     OW27571   5.608   3.678   5.404
 8891SOL    HW127572   5.644   3.723   5.486
 8891SOL    HW227573   5.510   3.692   5.398
 8892SOL     OW27574   2.594   5.013   5.642
 8892SOL    HW127575   2.618   5.101   5.682
 8892SOL    HW227576   2.578   5.024   5.543
 8893SOL     OW27577   1.049   4.430   5.396
 8893SOL    HW127578   0.975   4.372   5.364
 8893SOL    HW227579   1.084   4.395   5.483
 8894SOL     OW27580   6.285   2.228   1.611
 8894SOL    HW127581   6.263   2.182   1.697
 8894SOL    HW227582   6.201   2.249   1.561
 8895SOL     OW27583   0.544   3.345   2.324
 8895SOL    HW127584   0.479   3.419   2.339
 8895SOL    HW227585   0.572   3.344   2.228
 8896SOL     OW27586   0.637   0.531   3.969
 8896SOL    HW127587   0.640   0.483   4.057
 8896SOL    HW227588   0.549   0.515   3.925
 8897SOL     OW27589   1.468   4.860   4.580
 8897SOL    HW127590   1.441   4.916   4.502
 8897SOL    HW227591   1.496   4.770   4.548
 8898SOL     OW27592   6.122   4.872   2.871
 8898SOL    HW127593   6.165   4.784   2.889
 8898SOL    HW227594   6.102   4.880   2.773
 8899SOL     OW27595   1.743   4.808   1.951
 8899SOL    HW127596   1.741   4.887   2.012
 8899SOL    HW227597   1.825   4.753   1.971
 8900SOL     OW27598   4.652   1.699   4.922
 8900SOL    HW127599   4.676   1.793   4.897
 8900SOL    HW227600   4.552   1.691   4.931
 8901SOL     OW27601   1.129   4.694   5.637
 8901SOL    HW127602   1.034   4.724   5.646
 8901SOL    HW227603   1.185   4.769   5.602
 8902SOL     OW27604   1.307   3.860   6.564
 8902SOL    HW127605   1.362   3.783   6.529
 8902SOL    HW227606   1.210   3.839   6.553
 8903SOL     OW27607   0.684   1.179   4.207
 8903SOL    HW127608   0.658   1.084   4.192
 8903SOL    HW227609   0.616   1.223   4.266
 8904SOL     OW27610   6.484   1.043   2.079
 8904SOL    HW127611   6.529   1.077   2.162
 8904SOL    HW227612   6.385   1.058   2.087
 8905SOL     OW27613   1.348   5.265   1.100
 8905SOL    HW127614   1.381   5.249   1.007
 8905SOL    HW227615   1.408   5.217   1.165
 8906SOL     OW27616   6.777   1.151   6.300
 8906SOL    HW127617   6.764   1.068   6.356
 8906SOL    HW227618   6.697   1.163   6.241
 8907SOL     OW27619   2.709   3.129   5.312
 8907SOL    HW127620   2.613   3.118   5.285
 8907SOL    HW227621   2.744   3.214   5.274
 8908SOL     OW27622   1.934   5.919   5.264
 8908SOL    HW127623   2.002   5.846   5.276
 8908SOL    HW227624   1.900   5.949   5.353
 8909SOL     OW27625   2.798   6.108   1.895
 8909SOL    HW127626   2.742   6.181   1.935
 8909SOL    HW227627   2.814   6.128   1.798
 8910SOL     OW27628   1.075   0.814   3.859
 8910SOL    HW127629   1.087   0.845   3.953
 8910SOL    HW227630   1.037   0.888   3.804
 8911SOL     OW27631   4.765   2.911   4.297
 8911SOL    HW127632   4.772   2.813   4.280
 8911SOL    HW227633   4.676   2.931   4.337
 8912SOL     OW27634   3.616   3.240   3.337
 8912SOL    HW127635   3.665   3.204   3.417
 8912SOL    HW227636   3.637   3.184   3.257
 8913SOL     OW27637   5.083   5.624   0.295
 8913SOL    HW127638   5.132   5.629   0.382
 8913SOL    HW227639   4.993   5.665   0.306
 8914SOL     OW27640   5.230   4.523   4.767
 8914SOL    HW127641   5.293   4.575   4.711
 8914SOL    HW227642   5.278   4.446   4.809
 8915SOL     OW27643   2.688   1.511   3.166
 8915SOL    HW127644   2.754   1.580   3.135
 8915SOL    HW227645   2.598   1.532   3.128
 8916SOL     OW27646   6.652   6.991   2.421
 8916SOL    HW127647   6.674   6.912   2.364
 8916SOL    HW227648   6.668   0.054   2.368
 8917SOL     OW27649   5.598   2.668   0.058
 8917SOL    HW127650   5.556   2.627   6.997
 8917SOL    HW227651   5.668   2.607   0.094
 8918SOL     OW27652   1.862   3.029   2.858
 8918SOL    HW127653   1.891   3.054   2.765
 8918SOL    HW227654   1.815   2.941   2.855
 8919SOL     OW27655   6.781   2.180   3.169
 8919SOL    HW127656   6.763   2.180   3.267
 8919SOL    HW227657   6.768   2.087   3.133
 8920SOL     OW27658   1.288   1.789   6.889
 8920SOL    HW127659   1.375   1.797   6.938
 8920SOL    HW227660   1.224   1.858   6.925
 8921SOL     OW27661   1.523   1.993   1.698
 8921SOL    HW127662   1.537   1.947   1.785
 8921SOL    HW227663   1.426   1.993   1.675
 8922SOL     OW27664   3.586   5.626   3.517
 8922SOL    HW127665   3.582   5.697   3.447
 8922SOL    HW227666   3.604   5.668   3.606
 8923SOL     OW27667   2.362   2.344   3.713
 8923SOL    HW127668   2.302   2.265   3.721
 8923SOL    HW227669   2.329   2.403   3.638
 8924SOL     OW27670   6.414   5.174   5.017
 8924SOL    HW127671   6.490   5.225   4.978
 8924SOL    HW227672   6.335   5.234   5.029
 8925SOL     OW27673   0.721   6.516   3.511
 8925SOL    HW127674   0.631   6.556   3.494
 8925SOL    HW227675   0.710   6.425   3.550
 8926SOL     OW27676   5.968   2.256   6.816
 8926SOL    HW127677   6.044   2.194   6.796
 8926SOL    HW227678   5.997   2.350   6.803
 8927SOL     OW27679   1.302   1.557   6.370
 8927SOL    HW127680   1.364   1.478   6.366
 8927SOL    HW227681   1.288   1.593   6.277
 8928SOL     OW27682   0.122   6.527   4.743
 8928SOL    HW127683   0.090   6.506   4.650
 8928SOL    HW227684   0.221   6.542   4.742
 8929SOL     OW27685   0.029   1.537   3.547
 8929SOL    HW127686   0.126   1.539   3.572
 8929SOL    HW227687   0.019   1.502   3.454
 8930SOL     OW27688   2.319   5.429   2.311
 8930SOL    HW127689   2.374   5.505   2.344
 8930SOL    HW227690   2.370   5.378   2.242
 8931SOL     OW27691   4.751   3.478   0.010
 8931SOL    HW127692   4.708   3.394   0.042
 8931SOL    HW227693   4.804   3.458   6.948
 8932SOL     OW27694   0.927   3.606   2.538
 8932SOL    HW127695   0.895   3.524   2.587
 8932SOL    HW227696   0.852   3.670   2.527
 8933SOL     OW27697   4.965   2.760   5.755
 8933SOL    HW127698   4.900   2.821   5.801
 8933SOL    HW227699   4.960   2.774   5.656
 8934SOL     OW27700   2.410   5.977   2.719
 8934SOL    HW127701   2.451   5.953   2.631
 8934SOL    HW227702   2.471   5.948   2.793
 8935SOL     OW27703   6.965   5.902   6.263
 8935SOL    HW127704   0.030   5.935   6.301
 8935SOL    HW227705   6.945   5.812   6.301
 8936SOL     OW27706   4.354   3.769   0.518
 8936SOL    HW127707   4.362   3.672   0.497
 8936SOL    HW227708   4.396   3.788   0.607
 8937SOL     OW27709   6.949   1.784   6.268
 8937SOL    HW127710   6.988   1.698   6.237
 8937SOL    HW227711   7.004   1.860   6.233
 8938SOL     OW27712   5.096   5.222   1.832
 8938SOL    HW127713   5.187   5.200   1.799
 8938SOL    HW227714   5.028   5.188   1.767
 8939SOL     OW27715   5.855   1.922   4.381
 8939SOL    HW127716   5.838   1.990   4.453
 8939SOL    HW227717   5.907   1.964   4.307
 8940SOL     OW27718   5.470   6.567   1.886
 8940SOL    HW127719   5.540   6.555   1.957
 8940SOL    HW227720   5.509   6.613   1.807
 8941SOL     OW27721   4.223   1.923   6.906
 8941SOL    HW127722   4.288   1.990   6.869
 8941SOL    HW227723   4.236   1.835   6.860
 8942SOL     OW27724   1.362   1.930   5.986
 8942SOL    HW127725   1.457   1.900   5.976
 8942SOL    HW227726   1.302   1.867   5.936
 8943SOL     OW27727   4.708   3.210   1.013
 8943SOL    HW127728   4.735   3.234   0.920
 8943SOL    HW227729   4.610   3.192   1.016
 8944SOL     OW27730   4.798   5.505   0.689
 8944SOL    HW127731   4.889   5.468   0.672
 8944SOL    HW227732   4.755   5.529   0.602
 8945SOL     OW27733   2.007   0.981   3.695
 8945SOL    HW127734   2.027   1.023   3.783
 8945SOL    HW227735   2.002   0.882   3.706
 8946SOL     OW27736   3.453   0.064   5.222
 8946SOL    HW127737   3.371   0.040   5.273
 8946SOL    HW227738   3.488   7.003   5.175
 8947SOL     OW27739   3.219   3.852   5.789
 8947SOL    HW127740   3.132   3.900   5.782
 8947SOL    HW227741   3.289   3.914   5.823
 8948SOL     OW27742   5.391   5.024   3.700
 8948SOL    HW127743   5.357   5.037   3.607
 8948SOL    HW227744   5.317   4.990   3.758
 8949SOL     OW27745   1.567   5.278   6.329
 8949SOL    HW127746   1.533   5.188   6.304
 8949SOL    HW227747   1.494   5.346   6.319
 8950SOL     OW27748   4.949   2.591   5.111
 8950SOL    HW127749   4.882   2.520   5.131
 8950SOL    HW227750   4.910   2.681   5.131
 8951SOL     OW27751   2.744   1.405   5.311
 8951SOL    HW127752   2.732   1.308   5.286
 8951SOL    HW227753   2.657   1.441   5.345
 8952SOL     OW27754   5.568   6.597   3.604
 8952SOL    HW127755   5.527   6.576   3.515
 8952SOL    HW227756   5.667   6.591   3.597
 8953SOL     OW27757   1.206   5.086   6.359
 8953SOL    HW127758   1.220   5.110   6.455
 8953SOL    HW227759   1.109   5.089   6.337
 8954SOL     OW27760   2.573   6.423   6.508
 8954SOL    HW127761   2.495   6.422   6.571
 8954SOL    HW227762   2.599   6.518   6.490
 8955SOL     OW27763   7.004   3.099   4.216
 8955SOL    HW127764   6.949   3.032   4.167
 8955SOL    HW227765   7.019   3.179   4.158
 8956SOL     OW27766   1.823   0.553   4.153
 8956SOL    HW127767   1.728   0.575   4.176
 8956SOL    HW227768   1.825   0.490   4.075
 8957SOL     OW27769   3.306   6.130   1.838
 8957SOL    HW127770   3.250   6.180   1.905
 8957SOL    HW227771   3.281   6.160   1.745
 8958SOL     OW27772   3.033   0.210   4.674
 8958SOL    HW127773   2.946   0.238   4.633
 8958SOL    HW227774   3.018   0.183   4.769
 8959SOL     OW27775   3.508   5.215   6.673
 8959SOL    HW127776   3.463   5.190   6.758
 8959SOL    HW227777   3.606   5.226   6.688
 8960SOL     OW27778   4.437   5.653   0.589
 8960SOL    HW127779   4.527   5.619   0.559
 8960SOL    HW227780   4.366   5.590   0.558
 8961SOL     OW27781   0.635   2.905   4.516
 8961SOL    HW127782   0.544   2.921   4.476
 8961SOL    HW227783   0.641   2.950   4.605
 8962SOL     OW27784   4.411   0.627   3.672
 8962SOL    HW127785   4.463   0.559   3.725
 8962SOL    HW227786   4.449   0.634   3.580
 8963SOL     OW27787   1.343   0.501   4.602
 8963SOL    HW127788   1.429   0.490   4.650
 8963SOL    HW227789   1.292   0.415   4.602
 8964SOL     OW27790   1.055   2.531   3.412
 8964SOL    HW127791   1.134   2.566   3.362
 8964SOL    HW227792   1.051   2.432   3.402
 8965SOL     OW27793   1.327   4.931   1.059
 8965SOL    HW127794   1.388   5.009   1.076
 8965SOL    HW227795   1.381   4.847   1.056
 8966SOL     OW27796   3.484   2.072   4.784
 8966SOL    HW127797   3.408   2.088   4.722
 8966SOL    HW227798   3.466   2.117   4.872
 8967SOL     OW27799   5.255   6.702   0.659
 8967SOL    HW127800   5.241   6.603   0.654
 8967SOL    HW227801   5.231   6.744   0.571
 8968SOL     OW27802   6.574   3.848   3.778
 8968SOL    HW127803   6.652   3.909   3.791
 8968SOL    HW227804   6.510   3.859   3.854
 8969SOL     OW27805   6.361   0.071   4.157
 8969SOL    HW127806   6.399   0.147   4.209
 8969SOL    HW227807   6.401   0.070   4.065
 8970SOL     OW27808   3.307   2.973   1.378
 8970SOL    HW127809   3.272   3.026   1.301
 8970SOL    HW227810   3.346   2.888   1.345
 8971SOL     OW27811   3.237   6.795   2.929
 8971SOL    HW127812   3.149   6.749   2.938
 8971SOL    HW227813   3.306   6.728   2.901
 8972SOL     OW27814   5.556   0.645   5.396
 8972SOL    HW127815   5.603   0.619   5.481
 8972SOL    HW227816   5.458   0.656   5.414
 8973SOL     OW27817   1.978   4.284   6.802
 8973SOL    HW127818   1.930   4.200   6.827
 8973SOL    HW227819   2.077   4.267   6.803
 8974SOL     OW27820   0.966   2.472   4.167
 8974SOL    HW127821   0.972   2.452   4.265
 8974SOL    HW227822   1.058   2.477   4.128
 8975SOL     OW27823   3.663   1.190   6.417
 8975SOL    HW127824   3.745   1.134   6.417
 8975SOL    HW227825   3.625   1.194   6.324
 8976SOL     OW27826   1.601   6.056   4.140
 8976SOL    HW127827   1.517   6.051   4.086
 8976SOL    HW227828   1.672   6.000   4.097
 8977SOL     OW27829   5.593   1.743   0.018
 8977SOL    HW127830   5.607   1.663   0.077
 8977SOL    HW227831   5.499   1.744   7.005
 8978SOL     OW27832   5.373   4.567   2.455
 8978SOL    HW127833   5.390   4.494   2.388
 8978SOL    HW227834   5.358   4.527   2.545
 8979SOL     OW27835   0.855   4.497   5.036
 8979SOL    HW127836   0.822   4.585   5.070
 8979SOL    HW227837   0.950   4.507   5.004
 8980SOL     OW27838   3.089   3.106   3.691
 8980SOL    HW127839   3.187   3.119   3.674
 8980SOL    HW227840   3.073   3.097   3.789
 8981SOL     OW27841   3.159   2.207   5.417
 8981SOL    HW127842   3.098   2.249   5.484
 8981SOL    HW227843   3.171   2.269   5.340
 8982SOL     OW27844   2.622   5.128   0.257
 8982SOL    HW127845   2.586   5.169   0.173
 8982SOL    HW227846   2.641   5.201   0.323
 8983SOL     OW27847   4.912   4.316   0.904
 8983SOL    HW127848   4.917   4.287   1.000
 8983SOL    HW227849   4.817   4.313   0.873
 8984SOL     OW27850   1.812   6.595   2.853
 8984SOL    HW127851   1.853   6.519   2.802
 8984SOL    HW227852   1.782   6.666   2.790
 8985SOL     OW27853   3.005   3.102   6.222
 8985SOL    HW127854   3.079   3.167   6.239
 8985SOL    HW227855   2.959   3.125   6.136
 8986SOL     OW27856   2.632   6.185   2.245
 8986SOL    HW127857   2.567   6.115   2.217
 8986SOL    HW227858   2.660   6.169   2.339
 8987SOL     OW27859   5.238   6.617   2.579
 8987SOL    HW127860   5.139   6.636   2.578
 8987SOL    HW227861   5.253   6.518   2.584
 8988SOL     OW27862   0.791   4.279   5.272
 8988SOL    HW127863   0.739   4.334   5.337
 8988SOL    HW227864   0.822   4.337   5.197
 8989SOL     OW27865   2.295   2.516   6.875
 8989SOL    HW127866   2.367   2.570   6.832
 8989SOL    HW227867   2.321   2.419   6.875
 8990SOL     OW27868   0.208   4.890   4.807
 8990SOL    HW127869   0.132   4.929   4.755
 8990SOL    HW227870   0.217   4.938   4.894
 8991SOL     OW27871   1.285   2.058   4.972
 8991SOL    HW127872   1.214   2.079   5.040
 8991SOL    HW227873   1.242   2.040   4.884
 8992SOL     OW27874   6.424   1.362   1.529
 8992SOL    HW127875   6.465   1.383   1.618
 8992SOL    HW227876   6.349   1.426   1.511
 8993SOL     OW27877   4.395   2.238   0.925
 8993SOL    HW127878   4.418   2.158   0.981
 8993SOL    HW227879   4.466   2.307   0.936
 8994SOL     OW27880   2.229   5.388   2.918
 8994SOL    HW127881   2.311   5.424   2.963
 8994SOL    HW227882   2.191   5.313   2.974
 8995SOL     OW27883   0.278   0.446   0.943
 8995SOL    HW127884   0.249   0.372   0.882
 8995SOL    HW227885   0.232   0.531   0.915
 8996SOL     OW27886   4.376   5.488   5.395
 8996SOL    HW127887   4.300   5.552   5.404
 8996SOL    HW227888   4.405   5.456   5.485
 8997SOL     OW27889   5.701   6.839   4.696
 8997SOL    HW127890   5.602   6.829   4.689
 8997SOL    HW227891   5.746   6.779   4.629
 8998SOL     OW27892   0.013   4.024   5.258
 8998SOL    HW127893   7.001   3.988   5.346
 8998SOL    HW227894   6.968   4.002   5.186
 8999SOL     OW27895   4.184   5.730   6.226
 8999SOL    HW127896   4.218   5.674   6.150
 8999SOL    HW227897   4.207   5.826   6.211
 9000SOL     OW27898   1.730   3.877   1.270
 9000SOL    HW127899   1.829   3.863   1.265
 9000SOL    HW227900   1.699   3.925   1.188
 9001SOL     OW27901   1.413   5.222   0.809
 9001SOL    HW127902   1.460   5.310   0.812
 9001SOL    HW227903   1.318   5.236   0.782
 9002SOL     OW27904   6.708   6.656   6.660
 9002SOL    HW127905   6.613   6.638   6.687
 9002SOL    HW227906   6.770   6.615   6.726
 9003SOL     OW27907   4.730   6.811   0.970
 9003SOL    HW127908   4.825   6.789   0.945
 9003SOL    HW227909   4.669   6.783   0.897
 9004SOL     OW27910   6.357   4.857   1.942
 9004SOL    HW127911   6.335   4.952   1.924
 9004SOL    HW227912   6.384   4.812   1.857
 9005SOL     OW27913   5.029   1.150   4.812
 9005SOL    HW127914   5.120   1.189   4.824
 9005SOL    HW227915   4.967   1.220   4.777
 9006SOL     OW27916   3.331   6.383   0.522
 9006SOL    HW127917   3.391   6.460   0.543
 9006SOL    HW227918   3.323   6.324   0.603
 9007SOL     OW27919   0.351   0.603   3.086
 9007SOL    HW127920   0.381   0.561   3.172
 9007SOL    HW227921   0.329   0.699   3.102
 9008SOL     OW27922   7.012   5.140   2.108
 9008SOL    HW127923   6.916   5.114   2.121
 9008SOL    HW227924   0.041   5.065   2.064
 9009SOL     OW27925   3.407   6.539   2.263
 9009SOL    HW127926   3.469   6.599   2.314
 9009SOL    HW227927   3.446   6.518   2.174
 9010SOL     OW27928   2.021   5.206   4.863
 9010SOL    HW127929   2.108   5.185   4.908
 9010SOL    HW227930   2.028   5.293   4.815
 9011SOL     OW27931   2.656   2.032   1.736
 9011SOL    HW127932   2.692   2.090   1.662
 9011SOL    HW227933   2.705   2.053   1.821
 9012SOL     OW27934   2.291   6.284   0.145
 9012SOL    HW127935   2.230   6.205   0.141
 9012SOL    HW227936   2.385   6.253   0.158
 9013SOL     OW27937   1.812   0.516   4.583
 9013SOL    HW127938   1.767   0.437   4.541
 9013SOL    HW227939   1.816   0.503   4.682
 9014SOL     OW27940   5.738   3.288   3.243
 9014SOL    HW127941   5.727   3.189   3.246
 9014SOL    HW227942   5.795   3.313   3.165
 9015SOL     OW27943   3.748   6.380   6.202
 9015SOL    HW127944   3.710   6.416   6.287
 9015SOL    HW227945   3.754   6.453   6.134
 9016SOL     OW27946   4.761   4.028   5.997
 9016SOL    HW127947   4.777   4.123   6.021
 9016SOL    HW227948   4.670   4.000   6.027
 9017SOL     OW27949   2.574   0.216   5.692
 9017SOL    HW127950   2.590   0.172   5.604
 9017SOL    HW227951   2.596   0.152   5.766
 9018SOL     OW27952   3.519   4.818   0.290
 9018SOL    HW127953   3.605   4.860   0.261
 9018SOL    HW227954   3.514   4.725   0.254
 9019SOL     OW27955   0.395   4.028   4.621
 9019SOL    HW127956   0.483   4.006   4.661
 9019SOL    HW227957   0.363   4.116   4.657
 9020SOL     OW27958   5.597   5.431   3.409
 9020SOL    HW127959   5.541   5.460   3.487
 9020SOL    HW227960   5.683   5.393   3.442
 9021SOL     OW27961   0.272   1.358   4.536
 9021SOL    HW127962   0.177   1.330   4.518
 9021SOL    HW227963   0.294   1.437   4.479
 9022SOL     OW27964   4.621   3.294   6.664
 9022SOL    HW127965   4.688   3.368   6.673
 9022SOL    HW227966   4.662   3.219   6.612
 9023SOL     OW27967   0.393   4.700   0.918
 9023SOL    HW127968   0.293   4.704   0.919
 9023SOL    HW227969   0.425   4.636   0.988
 9024SOL     OW27970   1.887   4.742   6.268
 9024SOL    HW127971   1.935   4.736   6.355
 9024SOL    HW227972   1.876   4.650   6.229
 9025SOL     OW27973   0.481   6.104   1.918
 9025SOL    HW127974   0.573   6.064   1.913
 9025SOL    HW227975   0.436   6.073   2.003
 9026SOL     OW27976   5.879   1.321   6.611
 9026SOL    HW127977   5.948   1.342   6.541
 9026SOL    HW227978   5.827   1.241   6.583
 9027SOL     OW27979   0.407   4.347   2.981
 9027SOL    HW127980   0.493   4.296   2.987
 9027SOL    HW227981   0.378   4.374   3.072
 9028SOL     OW27982   2.997   4.765   6.929
 9028SOL    HW127983   2.971   4.809   7.015
 9028SOL    HW227984   3.088   4.724   6.939
 9029SOL     OW27985   4.187   6.234   4.493
 9029SOL    HW127986   4.214   6.166   4.425
 9029SOL    HW227987   4.269   6.270   4.539
 9030SOL     OW27988   2.940   2.205   2.316
 9030SOL    HW127989   3.012   2.136   2.321
 9030SOL    HW227990   2.926   2.230   2.220
 9031SOL     OW27991   5.455   6.735   5.042
 9031SOL    HW127992   5.495   6.798   5.108
 9031SOL    HW227993   5.384   6.782   4.990
 9032SOL     OW27994   4.991   3.102   1.232
 9032SOL    HW127995   4.975   3.153   1.316
 9032SOL    HW227996   4.905   3.060   1.202
 9033SOL     OW27997   1.210   5.836   2.442
 9033SOL    HW127998   1.173   5.830   2.349
 9033SOL    HW227999   1.303   5.874   2.438
 9034SOL     OW28000   4.179   6.467   5.183
 9034SOL    HW128001   4.169   6.566   5.194
 9034SOL    HW228002   4.092   6.427   5.156
 9035SOL     OW28003   2.160   5.515   5.843
 9035SOL    HW128004   2.111   5.428   5.833
 9035SOL    HW228005   2.155   5.566   5.758
 9036SOL     OW28006   0.059   5.306   5.185
 9036SOL    HW128007   7.020   5.235   5.149
 9036SOL    HW228008   0.078   5.287   5.282
 9037SOL     OW28009   6.704   0.858   2.517
 9037SOL    HW128010   6.763   0.884   2.440
 9037SOL    HW228011   6.626   0.806   2.482
 9038SOL     OW28012   3.179   3.586   5.719
 9038SOL    HW128013   3.181   3.685   5.734
 9038SOL    HW228014   3.268   3.547   5.744
 9039SOL     OW28015   4.584   6.347   6.191
 9039SOL    HW128016   4.643   6.418   6.228
 9039SOL    HW228017   4.490   6.380   6.187
 9040SOL     OW28018   2.495   2.176   1.336
 9040SOL    HW128019   2.436   2.107   1.295
 9040SOL    HW228020   2.540   2.228   1.264
 9041SOL     OW28021   6.515   2.518   3.320
 9041SOL    HW128022   6.469   2.464   3.249
 9041SOL    HW228023   6.448   2.553   3.385
 9042SOL     OW28024   6.239   5.429   6.314
 9042SOL    HW128025   6.192   5.436   6.227
 9042SOL    HW228026   6.181   5.378   6.379
 9043SOL     OW28027   3.064   2.852   1.837
 9043SOL    HW128028   2.974   2.851   1.794
 9043SOL    HW228029   3.073   2.935   1.894
 9044SOL     OW28030   1.908   0.995   0.345
 9044SOL    HW128031   1.879   1.038   0.260
 9044SOL    HW228032   2.005   0.972   0.339
 9045SOL     OW28033   3.005   0.633   4.143
 9045SOL    HW128034   2.990   0.619   4.241
 9045SOL    HW228035   3.061   0.558   4.107
 9046SOL     OW28036   4.096   3.620   1.935
 9046SOL    HW128037   4.107   3.584   2.028
 9046SOL    HW228038   4.027   3.693   1.936
 9047SOL     OW28039   0.662   4.009   5.676
 9047SOL    HW128040   0.741   3.997   5.617
 9047SOL    HW228041   0.680   4.083   5.741
 9048SOL     OW28042   0.803   2.500   5.429
 9048SOL    HW128043   0.828   2.563   5.355
 9048SOL    HW228044   0.797   2.407   5.392
 9049SOL     OW28045   0.542   6.620   5.234
 9049SOL    HW128046   0.499   6.570   5.159
 9049SOL    HW228047   0.472   6.650   5.299
 9050SOL     OW28048   1.315   4.416   0.044
 9050SOL    HW128049   1.409   4.402   0.012
 9050SOL    HW228050   1.251   4.400   6.989
 9051SOL     OW28051   2.001   0.829   1.396
 9051SOL    HW128052   1.904   0.818   1.416
 9051SOL    HW228053   2.012   0.876   1.308
 9052SOL     OW28054   2.394   2.739   6.726
 9052SOL    HW128055   2.439   2.667   6.673
 9052SOL    HW228056   2.411   2.828   6.683
 9053SOL     OW28057   0.613   1.427   0.496
 9053SOL    HW128058   0.689   1.361   0.496
 9053SOL    HW228059   0.633   1.501   0.432
 9054SOL     OW28060   1.153   5.310   3.235
 9054SOL    HW128061   1.240   5.286   3.278
 9054SOL    HW228062   1.148   5.409   3.224
 9055SOL     OW28063   0.482   2.786   6.178
 9055SOL    HW128064   0.409   2.803   6.245
 9055SOL    HW228065   0.570   2.807   6.220
 9056SOL     OW28066   5.062   1.010   4.240
 9056SOL    HW128067   5.046   1.002   4.338
 9056SOL    HW228068   4.987   1.062   4.199
 9057SOL     OW28069   4.840   1.608   3.843
 9057SOL    HW128070   4.775   1.536   3.866
 9057SOL    HW228071   4.795   1.697   3.851
 9058SOL     OW28072   1.858   6.763   6.049
 9058SOL    HW128073   1.801   6.725   5.976
 9058SOL    HW228074   1.800   6.805   6.118
 9059SOL     OW28075   1.989   2.117   3.600
 9059SOL    HW128076   2.046   2.151   3.526
 9059SOL    HW228077   2.008   2.169   3.684
 9060SOL     OW28078   5.454   2.173   5.398
 9060SOL    HW128079   5.544   2.132   5.383
 9060SOL    HW228080   5.464   2.271   5.417
 9061SOL     OW28081   2.126   4.809   4.112
 9061SOL    HW128082   2.150   4.729   4.056
 9061SOL    HW228083   2.031   4.803   4.140
 9062SOL     OW28084   2.063   6.288   1.688
 9062SOL    HW128085   2.079   6.318   1.593
 9062SOL    HW228086   1.978   6.237   1.692
 9063SOL     OW28087   3.017   1.738   1.502
 9063SOL    HW128088   3.028   1.653   1.555
 9063SOL    HW228089   3.102   1.756   1.452
 9064SOL     OW28090   3.965   3.754   0.311
 9064SOL    HW128091   4.034   3.761   0.238
 9064SOL    HW228092   3.889   3.815   0.290
 9065SOL     OW28093   2.828   1.041   0.799
 9065SOL    HW128094   2.796   1.015   0.709
 9065SOL    HW228095   2.826   1.141   0.808
 9066SOL     OW28096   4.960   6.573   0.221
 9066SOL    HW128097   4.959   6.475   0.200
 9066SOL    HW228098   4.882   6.618   0.177
 9067SOL     OW28099   0.567   0.524   2.080
 9067SOL    HW128100   0.507   0.604   2.085
 9067SOL    HW228101   0.663   0.553   2.082
 9068SOL     OW28102   0.776   6.096   6.228
 9068SOL    HW128103   0.735   6.081   6.138
 9068SOL    HW228104   0.736   6.178   6.270
 9069SOL     OW28105   1.077   2.412   5.810
 9069SOL    HW128106   0.998   2.465   5.781
 9069SOL    HW228107   1.157   2.471   5.816
 9070SOL     OW28108   1.244   4.114   4.788
 9070SOL    HW128109   1.290   4.157   4.711
 9070SOL    HW228110   1.256   4.170   4.870
 9071SOL     OW28111   4.907   5.359   6.823
 9071SOL    HW128112   4.996   5.313   6.825
 9071SOL    HW228113   4.908   5.430   6.752
 9072SOL     OW28114   5.431   4.466   0.474
 9072SOL    HW128115   5.503   4.512   0.527
 9072SOL    HW228116   5.398   4.387   0.526
 9073SOL     OW28117   1.934   0.013   1.399
 9073SOL    HW128118   1.994   6.956   1.417
 9073SOL    HW228119   1.902   0.051   1.487
 9074SOL     OW28120   0.974   1.126   1.409
 9074SOL    HW128121   0.974   1.176   1.496
 9074SOL    HW228122   0.943   1.187   1.336
 9075SOL     OW28123   6.248   0.404   1.122
 9075SOL    HW128124   6.267   0.455   1.038
 9075SOL    HW228125   6.331   0.358   1.153
 9076SOL     OW28126   1.136   2.803   5.299
 9076SOL    HW128127   1.188   2.862   5.361
 9076SOL    HW228128   1.041   2.835   5.294
 9077SOL     OW28129   5.567   5.489   1.878
 9077SOL    HW128130   5.485   5.497   1.821
 9077SOL    HW228131   5.575   5.569   1.937
 9078SOL     OW28132   4.902   3.063   5.301
 9078SOL    HW128133   4.899   3.149   5.250
 9078SOL    HW228134   4.887   2.987   5.238
 9079SOL     OW28135   1.531   0.391   5.476
 9079SOL    HW128136   1.494   0.467   5.424
 9079SOL    HW228137   1.631   0.391   5.470
 9080SOL     OW28138   4.285   0.888   0.450
 9080SOL    HW128139   4.282   0.984   0.478
 9080SOL    HW228140   4.364   0.843   0.492
 9081SOL     OW28141   5.782   6.685   3.867
 9081SOL    HW128142   5.690   6.657   3.841
 9081SOL    HW228143   5.840   6.688   3.786
 9082SOL     OW28144   2.190   0.350   2.257
 9082SOL    HW128145   2.110   0.361   2.198
 9082SOL    HW228146   2.273   0.353   2.201
 9083SOL     OW28147   4.227   5.323   3.371
 9083SOL    HW128148   4.246   5.342   3.275
 9083SOL    HW228149   4.141   5.272   3.378
 9084SOL     OW28150   3.583   3.608   2.640
 9084SOL    HW128151   3.667   3.650   2.672
 9084SOL    HW228152   3.506   3.670   2.657
 9085SOL     OW28153   1.741   1.784   0.676
 9085SOL    HW128154   1.834   1.787   0.713
 9085SOL    HW228155   1.686   1.856   0.719
 9086SOL     OW28156   6.712   3.548   1.021
 9086SOL    HW128157   6.760   3.519   0.939
 9086SOL    HW228158   6.613   3.545   1.005
 9087SOL     OW28159   5.079   3.968   1.759
 9087SOL    HW128160   5.037   3.879   1.739
 9087SOL    HW228161   5.077   3.983   1.858
 9088SOL     OW28162   6.330   4.782   2.572
 9088SOL    HW128163   6.397   4.786   2.647
 9088SOL    HW228164   6.351   4.704   2.513
 9089SOL     OW28165   4.749   1.136   5.899
 9089SOL    HW128166   4.724   1.224   5.939
 9089SOL    HW228167   4.736   1.063   5.966
 9090SOL     OW28168   0.116   2.398   3.881
 9090SOL    HW128169   0.175   2.337   3.827
 9090SOL    HW228170   0.021   2.379   3.858
 9091SOL     OW28171   4.228   3.135   5.848
 9091SOL    HW128172   4.143   3.187   5.845
 9091SOL    HW228173   4.254   3.109   5.755
 9092SOL     OW28174   6.970   4.014   6.159
 9092SOL    HW128175   6.920   4.101   6.168
 9092SOL    HW228176   6.945   3.970   6.074
 9093SOL     OW28177   2.585   6.271   4.740
 9093SOL    HW128178   2.671   6.223   4.758
 9093SOL    HW228179   2.512   6.232   4.796
 9094SOL     OW28180   1.715   3.988   0.415
 9094SOL    HW128181   1.696   3.985   0.513
 9094SOL    HW228182   1.629   4.003   0.365
 9095SOL     OW28183   0.341   0.438   6.020
 9095SOL    HW128184   0.376   0.379   5.948
 9095SOL    HW228185   0.313   0.382   6.098
 9096SOL     OW28186   6.340   5.259   3.810
 9096SOL    HW128187   6.415   5.285   3.870
 9096SOL    HW228188   6.283   5.189   3.853
 9097SOL     OW28189   0.634   4.150   1.211
 9097SOL    HW128190   0.602   4.245   1.206
 9097SOL    HW228191   0.601   4.100   1.130
 9098SOL     OW28192   2.030   5.418   4.690
 9098SOL    HW128193   1.985   5.498   4.650
 9098SOL    HW228194   2.032   5.344   4.622
 9099SOL     OW28195   1.806   0.935   6.516
 9099SOL    HW128196   1.874   1.007   6.501
 9099SOL    HW228197   1.752   0.957   6.598
 9100SOL     OW28198   1.490   4.957   4.190
 9100SOL    HW128199   1.410   4.898   4.204
 9100SOL    HW228200   1.570   4.914   4.233
 9101SOL     OW28201   6.376   1.904   1.584
 9101SOL    HW128202   6.404   1.999   1.572
 9101SOL    HW228203   6.283   1.891   1.550
 9102SOL     OW28204   4.033   0.816   2.935
 9102SOL    HW128205   3.992   0.742   2.988
 9102SOL    HW228206   4.066   0.887   2.996
 9103SOL     OW28207   5.672   0.781   1.109
 9103SOL    HW128208   5.760   0.787   1.155
 9103SOL    HW228209   5.670   0.699   1.052
 9104SOL     OW28210   5.087   2.571   5.920
 9104SOL    HW128211   5.034   2.534   5.997
 9104SOL    HW228212   5.026   2.624   5.860
 9105SOL     OW28213   3.007   0.709   0.098
 9105SOL    HW128214   2.974   0.730   0.189
 9105SOL    HW228215   3.036   0.793   0.052
 9106SOL     OW28216   2.274   2.830   6.188
 9106SOL    HW128217   2.187   2.877   6.201
 9106SOL    HW228218   2.258   2.732   6.177
 9107SOL     OW28219   3.923   0.588   1.278
 9107SOL    HW128220   4.023   0.588   1.285
 9107SOL    HW228221   3.890   0.494   1.266
 9108SOL     OW28222   6.142   6.701   5.658
 9108SOL    HW128223   6.162   6.717   5.562
 9108SOL    HW228224   6.144   6.603   5.677
 9109SOL     OW28225   5.472   3.862   3.141
 9109SOL    HW128226   5.483   3.827   3.048
 9109SOL    HW228227   5.541   3.820   3.201
 9110SOL     OW28228   1.024   6.126   1.814
 9110SOL    HW128229   0.944   6.073   1.843
 9110SOL    HW228230   1.049   6.100   1.720
 9111SOL     OW28231   5.213   3.349   5.561
 9111SOL    HW128232   5.200   3.428   5.621
 9111SOL    HW228233   5.212   3.379   5.466
 9112SOL     OW28234   0.737   4.832   1.503
 9112SOL    HW128235   0.824   4.875   1.479
 9112SOL    HW228236   0.712   4.859   1.596
 9113SOL     OW28237   5.447   0.178   4.978
 9113SOL    HW128238   5.545   0.192   4.962
 9113SOL    HW228239   5.425   0.203   5.072
 9114SOL     OW28240   6.841   1.308   5.939
 9114SOL    HW128241   6.920   1.320   6.000
 9114SOL    HW228242   6.793   1.224   5.965
 9115SOL     OW28243   5.028   3.858   4.643
 9115SOL    HW128244   5.069   3.851   4.734
 9115SOL    HW228245   5.093   3.903   4.580
 9116SOL     OW28246   0.479   5.348   3.412
 9116SOL    HW128247   0.434   5.357   3.323
 9116SOL    HW228248   0.440   5.271   3.462
 9117SOL     OW28249   1.961   6.534   6.962
 9117SOL    HW128250   1.954   6.531   0.041
 9117SOL    HW228251   2.052   6.506   6.933
 9118SOL     OW28252   0.119   4.719   0.954
 9118SOL    HW128253   0.154   4.745   1.044
 9118SOL    HW228254   0.048   4.784   0.925
 9119SOL     OW28255   3.814   2.054   0.874
 9119SOL    HW128256   3.807   2.041   0.973
 9119SOL    HW228257   3.758   2.132   0.846
 9120SOL     OW28258   6.511   4.715   5.002
 9120SOL    HW128259   6.547   4.622   4.991
 9120SOL    HW228260   6.585   4.781   4.997
 9121SOL     OW28261   4.477   1.278   4.857
 9121SOL    HW128262   4.520   1.331   4.784
 9121SOL    HW228263   4.430   1.340   4.920
 9122SOL     OW28264   0.373   1.626   2.358
 9122SOL    HW128265   0.306   1.646   2.429
 9122SOL    HW228266   0.327   1.611   2.271
 9123SOL     OW28267   0.555   5.952   4.776
 9123SOL    HW128268   0.488   5.926   4.847
 9123SOL    HW228269   0.598   5.869   4.740
 9124SOL     OW28270   2.972   5.371   0.862
 9124SOL    HW128271   2.950   5.309   0.938
 9124SOL    HW228272   3.034   5.325   0.798
 9125SOL     OW28273   4.669   6.748   2.016
 9125SOL    HW128274   4.733   6.734   2.092
 9125SOL    HW228275   4.655   6.661   1.968
 9126SOL     OW28276   3.774   4.917   0.228
 9126SOL    HW128277   3.819   4.912   0.139
 9126SOL    HW228278   3.843   4.918   0.301
 9127SOL     OW28279   6.155   3.977   6.458
 9127SOL    HW128280   6.093   3.903   6.431
 9127SOL    HW228281   6.184   4.027   6.376
 9128SOL     OW28282   5.273   3.093   0.005
 9128SOL    HW128283   5.246   3.032   6.952
 9128SOL    HW228284   5.302   3.181   6.987
 9129SOL     OW28285   1.003   2.670   1.500
 9129SOL    HW128286   0.948   2.629   1.427
 9129SOL    HW228287   1.073   2.606   1.529
 9130SOL     OW28288   2.899   4.152   6.502
 9130SOL    HW128289   2.909   4.226   6.569
 9130SOL    HW228290   2.978   4.092   6.508
 9131SOL     OW28291   6.021   3.125   0.986
 9131SOL    HW128292   6.007   3.161   0.893
 9131SOL    HW228293   6.111   3.083   0.992
 9132SOL     OW28294   1.085   4.311   3.755
 9132SOL    HW128295   1.052   4.241   3.691
 9132SOL    HW228296   1.013   4.329   3.823
 9133SOL     OW28297   5.234   6.411   0.586
 9133SOL    HW128298   5.171   6.335   0.600
 9133SOL    HW228299   5.218   6.450   0.495
 9134SOL     OW28300   4.828   3.789   6.752
 9134SOL    HW128301   4.840   3.866   6.689
 9134SOL    HW228302   4.736   3.792   6.790
 9135SOL     OW28303   6.591   5.014   2.471
 9135SOL    HW128304   6.592   4.916   2.490
 9135SOL    HW228305   6.635   5.063   2.546
 9136SOL     OW28306   0.396   5.164   6.756
 9136SOL    HW128307   0.455   5.135   6.681
 9136SOL    HW228308   0.417   5.110   6.838
 9137SOL     OW28309   5.834   5.605   6.033
 9137SOL    HW128310   5.868   5.661   6.108
 9137SOL    HW228311   5.850   5.508   6.054
 9138SOL     OW28312   1.620   3.834   5.673
 9138SOL    HW128313   1.586   3.753   5.721
 9138SOL    HW228314   1.545   3.875   5.620
 9139SOL     OW28315   0.649   0.085   0.928
 9139SOL    HW128316   0.652   0.137   0.844
 9139SOL    HW228317   0.721   0.016   0.928
 9140SOL     OW28318   0.452   4.506   2.733
 9140SOL    HW128319   0.429   4.460   2.819
 9140SOL    HW228320   0.470   4.437   2.663
 9141SOL     OW28321   0.136   5.420   4.395
 9141SOL    HW128322   0.122   5.355   4.320
 9141SOL    HW228323   0.113   5.376   4.481
 9142SOL     OW28324   1.746   5.216   3.069
 9142SOL    HW128325   1.668   5.257   3.117
 9142SOL    HW228326   1.712   5.151   3.001
 9143SOL     OW28327   5.258   3.295   2.429
 9143SOL    HW128328   5.204   3.379   2.422
 9143SOL    HW228329   5.223   3.227   2.364
 9144SOL     OW28330   2.655   4.660   5.594
 9144SOL    HW128331   2.711   4.603   5.535
 9144SOL    HW228332   2.583   4.704   5.540
 9145SOL     OW28333   2.320   5.570   6.686
 9145SOL    HW128334   2.415   5.588   6.663
 9145SOL    HW228335   2.302   5.472   6.679
 9146SOL     OW28336   5.390   1.390   4.437
 9146SOL    HW128337   5.376   1.413   4.341
 9146SOL    HW228338   5.413   1.473   4.488
 9147SOL     OW28339   3.682   6.857   6.349
 9147SOL    HW128340   3.599   6.904   6.379
 9147SOL    HW228341   3.715   6.797   6.422
 9148SOL     OW28342   3.390   5.875   1.767
 9148SOL    HW128343   3.351   5.965   1.788
 9148SOL    HW228344   3.352   5.841   1.681
 9149SOL     OW28345   1.043   4.125   2.118
 9149SOL    HW128346   1.069   4.188   2.045
 9149SOL    HW228347   1.031   4.033   2.081
 9150SOL     OW28348   3.805   3.450   7.013
 9150SOL    HW128349   3.876   3.487   6.953
 9150SOL    HW228350   3.818   3.487   0.084
 9151SOL     OW28351   2.285   4.137   3.550
 9151SOL    HW128352   2.352   4.086   3.604
 9151SOL    HW228353   2.259   4.220   3.600
 9152SOL     OW28354   1.750   5.519   2.131
 9152SOL    HW128355   1.805   5.439   2.151
 9152SOL    HW228356   1.654   5.492   2.121
 9153SOL     OW28357   0.839   3.608   1.231
 9153SOL    HW128358   0.754   3.631   1.184
 9153SOL    HW228359   0.827   3.521   1.279
 9154SOL     OW28360   4.232   5.328   2.545
 9154SOL    HW128361   4.321   5.287   2.527
 9154SOL    HW228362   4.225   5.415   2.497
 9155SOL     OW28363   0.407   0.122   1.963
 9155SOL    HW128364   0.450   0.173   2.038
 9155SOL    HW228365   0.473   0.107   1.890
 9156SOL     OW28366   6.726   4.672   5.831
 9156SOL    HW128367   6.635   4.689   5.867
 9156SOL    HW228368   6.786   4.641   5.905
 9157SOL     OW28369   2.360   4.610   4.997
 9157SOL    HW128370   2.372   4.705   5.023
 9157SOL    HW228371   2.411   4.551   5.059
 9158SOL     OW28372   6.996   2.697   3.805
 9158SOL    HW128373   0.016   2.606   3.801
 9158SOL    HW228374   6.934   2.710   3.727
 9159SOL     OW28375   1.986   0.596   3.370
 9159SOL    HW128376   1.961   0.679   3.319
 9159SOL    HW228377   1.969   0.516   3.313
 9160SOL     OW28378   0.502   3.373   6.679
 9160SOL    HW128379   0.593   3.391   6.644
 9160SOL    HW228380   0.502   3.380   6.779
 9161SOL     OW28381   6.002   3.016   2.711
 9161SOL    HW128382   6.060   3.023   2.792
 9161SOL    HW228383   5.917   3.067   2.726
 9162SOL     OW28384   5.563   2.094   1.750
 9162SOL    HW128385   5.537   2.120   1.843
 9162SOL    HW228386   5.530   2.002   1.730
 9163SOL     OW28387   1.288   3.788   2.906
 9163SOL    HW128388   1.378   3.804   2.865
 9163SOL    HW228389   1.230   3.739   2.841
 9164SOL     OW28390   4.084   0.897   0.723
 9164SOL    HW128391   4.143   0.848   0.788
 9164SOL    HW228392   4.119   0.989   0.708
 9165SOL     OW28393   6.688   0.246   0.392
 9165SOL    HW128394   6.638   0.199   0.319
 9165SOL    HW228395   6.786   0.242   0.373
 9166SOL     OW28396   4.143   5.846   2.011
 9166SOL    HW128397   4.153   5.852   2.110
 9166SOL    HW228398   4.129   5.751   1.985
 9167SOL     OW28399   0.495   2.833   5.206
 9167SOL    HW128400   0.587   2.816   5.241
 9167SOL    HW228401   0.484   2.931   5.188
 9168SOL     OW28402   6.325   6.698   5.101
 9168SOL    HW128403   6.356   6.781   5.055
 9168SOL    HW228404   6.357   6.618   5.051
 9169SOL     OW28405   5.504   5.872   0.097
 9169SOL    HW128406   5.447   5.876   0.015
 9169SOL    HW228407   5.503   5.779   0.134
 9170SOL     OW28408   1.585   6.756   4.946
 9170SOL    HW128409   1.552   6.833   4.893
 9170SOL    HW228410   1.575   6.671   4.894
 9171SOL     OW28411   4.457   5.565   6.586
 9171SOL    HW128412   4.370   5.610   6.569
 9171SOL    HW228413   4.476   5.499   6.513
 9172SOL     OW28414   5.126   0.353   6.019
 9172SOL    HW128415   5.212   0.380   5.977
 9172SOL    HW228416   5.055   0.345   5.949
 9173SOL     OW28417   5.568   3.911   6.703
 9173SOL    HW128418   5.632   3.912   6.627
 9173SOL    HW228419   5.597   3.977   6.772
 9174SOL     OW28420   5.531   5.330   6.868
 9174SOL    HW128421   5.629   5.345   6.853
 9174SOL    HW228422   5.484   5.334   6.780
 9175SOL     OW28423   2.439   0.750   1.829
 9175SOL    HW128424   2.508   0.747   1.757
 9175SOL    HW228425   2.456   0.676   1.894
 9176SOL     OW28426   1.253   6.703   2.046
 9176SOL    HW128427   1.213   6.671   2.132
 9176SOL    HW228428   1.206   6.660   1.969
 9177SOL     OW28429   0.521   5.666   3.013
 9177SOL    HW128430   0.512   5.576   3.056
 9177SOL    HW228431   0.509   5.738   3.082
 9178SOL     OW28432   0.659   2.956   1.261
 9178SOL    HW128433   0.727   2.900   1.307
 9178SOL    HW228434   0.622   2.906   1.182
 9179SOL     OW28435   3.685   5.926   2.564
 9179SOL    HW128436   3.774   5.924   2.609
 9179SOL    HW228437   3.677   5.848   2.502
 9180SOL     OW28438   0.925   1.347   4.265
 9180SOL    HW128439   0.836   1.300   4.256
 9180SOL    HW228440   0.988   1.311   4.195
 9181SOL     OW28441   3.188   1.893   2.737
 9181SOL    HW128442   3.188   1.857   2.643
 9181SOL    HW228443   3.184   1.817   2.802
 9182SOL     OW28444   6.384   1.035   2.731
 9182SOL    HW128445   6.471   1.070   2.696
 9182SOL    HW228446   6.389   0.935   2.737
 9183SOL     OW28447   2.923   1.582   5.372
 9183SOL    HW128448   3.005   1.546   5.416
 9183SOL    HW228449   2.859   1.508   5.354
 9184SOL     OW28450   2.773   6.415   0.070
 9184SOL    HW128451   2.870   6.417   0.093
 9184SOL    HW228452   2.740   6.508   0.054
 9185SOL     OW28453   0.827   1.211   4.947
 9185SOL    HW128454   0.891   1.269   4.897
 9185SOL    HW228455   0.862   1.117   4.948
 9186SOL     OW28456   4.891   6.624   5.986
 9186SOL    HW128457   4.902   6.534   5.944
 9186SOL    HW228458   4.975   6.677   5.974
 9187SOL     OW28459   4.600   3.153   1.380
 9187SOL    HW128460   4.603   3.071   1.323
 9187SOL    HW228461   4.542   3.136   1.460
 9188SOL     OW28462   1.584   0.897   2.543
 9188SOL    HW128463   1.529   0.969   2.502
 9188SOL    HW228464   1.553   0.882   2.637
 9189SOL     OW28465   3.267   0.394   6.818
 9189SOL    HW128466   3.190   0.450   6.847
 9189SOL    HW228467   3.249   0.298   6.839
 9190SOL     OW28468   3.557   0.893   6.170
 9190SOL    HW128469   3.510   0.967   6.219
 9190SOL    HW228470   3.503   0.866   6.091
 9191SOL     OW28471   5.140   0.377   1.510
 9191SOL    HW128472   5.092   0.290   1.519
 9191SOL    HW228473   5.074   0.453   1.518
 9192SOL     OW28474   4.185   4.714   3.602
 9192SOL    HW128475   4.280   4.711   3.571
 9192SOL    HW228476   4.125   4.733   3.524
 9193SOL     OW28477   3.860   3.801   1.997
 9193SOL    HW128478   3.902   3.841   2.078
 9193SOL    HW228479   3.794   3.732   2.024
 9194SOL     OW28480   2.482   5.601   3.351
 9194SOL    HW128481   2.568   5.602   3.402
 9194SOL    HW228482   2.467   5.509   3.313
 9195SOL     OW28483   0.226   3.423   3.603
 9195SOL    HW128484   0.302   3.402   3.665
 9195SOL    HW228485   0.216   3.523   3.597
 9196SOL     OW28486   5.515   5.564   3.204
 9196SOL    HW128487   5.548   5.515   3.284
 9196SOL    HW228488   5.590   5.618   3.165
 9197SOL     OW28489   4.326   2.716   6.067
 9197SOL    HW128490   4.383   2.636   6.085
 9197SOL    HW228491   4.330   2.778   6.145
 9198SOL     OW28492   6.690   3.029   4.630
 9198SOL    HW128493   6.710   2.938   4.665
 9198SOL    HW228494   6.644   3.083   4.700
 9199SOL     OW28495   0.780   3.464   6.650
 9199SOL    HW128496   0.781   3.392   6.581
 9199SOL    HW228497   0.715   3.535   6.623
 9200SOL     OW28498   4.470   6.127   2.062
 9200SOL    HW128499   4.483   6.172   1.974
 9200SOL    HW228500   4.381   6.153   2.100
 9201SOL     OW28501   0.329   2.836   2.599
 9201SOL    HW128502   0.261   2.845   2.671
 9201SOL    HW228503   0.306   2.897   2.523
 9202SOL     OW28504   1.894   6.166   3.021
 9202SOL    HW128505   1.945   6.156   3.107
 9202SOL    HW228506   1.831   6.243   3.029
 9203SOL     OW28507   5.412   2.264   0.242
 9203SOL    HW128508   5.473   2.225   0.312
 9203SOL    HW228509   5.446   2.242   0.151
 9204SOL     OW28510   5.269   3.971   1.536
 9204SOL    HW128511   5.241   3.939   1.626
 9204SOL    HW228512   5.361   3.938   1.516
 9205SOL     OW28513   4.910   2.606   0.761
 9205SOL    HW128514   4.918   2.563   0.851
 9205SOL    HW228515   4.939   2.702   0.767
 9206SOL     OW28516   6.683   0.504   5.196
 9206SOL    HW128517   6.699   0.495   5.294
 9206SOL    HW228518   6.615   0.437   5.167
 9207SOL     OW28519   5.922   6.376   0.662
 9207SOL    HW128520   5.893   6.398   0.569
 9207SOL    HW228521   5.960   6.283   0.665
 9208SOL     OW28522   6.293   3.831   1.481
 9208SOL    HW128523   6.277   3.816   1.578
 9208SOL    HW228524   6.267   3.750   1.429
 9209SOL     OW28525   5.132   0.549   4.211
 9209SOL    HW128526   5.216   0.565   4.262
 9209SOL    HW228527   5.057   0.532   4.275
 9210SOL     OW28528   1.672   6.321   0.440
 9210SOL    HW128529   1.716   6.392   0.384
 9210SOL    HW228530   1.601   6.276   0.386
 9211SOL     OW28531   5.277   1.124   6.336
 9211SOL    HW128532   5.214   1.137   6.413
 9211SOL    HW228533   5.251   1.043   6.285
 9212SOL     OW28534   5.866   3.446   6.187
 9212SOL    HW128535   5.837   3.515   6.253
 9212SOL    HW228536   5.798   3.372   6.184
 9213SOL     OW28537   0.545   6.166   3.402
 9213SOL    HW128538   0.610   6.109   3.352
 9213SOL    HW228539   0.579   6.260   3.406
 9214SOL     OW28540   1.615   1.245   5.555
 9214SOL    HW128541   1.665   1.178   5.610
 9214SOL    HW228542   1.619   1.219   5.459
 9215SOL     OW28543   6.592   4.475   3.627
 9215SOL    HW128544   6.650   4.554   3.606
 9215SOL    HW228545   6.542   4.493   3.712
 9216SOL     OW28546   1.525   0.019   3.274
 9216SOL    HW128547   1.515   6.958   3.330
 9216SOL    HW228548   1.552   7.013   3.181
 9217SOL     OW28549   3.992   2.481   0.180
 9217SOL    HW128550   4.065   2.530   0.227
 9217SOL    HW228551   3.935   2.546   0.130
 9218SOL     OW28552   5.131   5.930   6.065
 9218SOL    HW128553   5.125   6.029   6.050
 9218SOL    HW228554   5.039   5.892   6.070
 9219SOL     OW28555   3.138   2.683   5.851
 9219SOL    HW128556   3.161   2.717   5.760
 9219SOL    HW228557   3.138   2.583   5.850
 9220SOL     OW28558   0.412   6.552   3.554
 9220SOL    HW128559   0.373   6.504   3.632
 9220SOL    HW228560   0.432   6.646   3.579
 9221SOL     OW28561   2.508   1.151   2.128
 9221SOL    HW128562   2.461   1.185   2.047
 9221SOL    HW228563   2.447   1.156   2.207
 9222SOL     OW28564   2.639   6.258   2.986
 9222SOL    HW128565   2.717   6.196   2.974
 9222SOL    HW228566   2.592   6.269   2.899
 9223SOL     OW28567   5.724   2.727   5.032
 9223SOL    HW128568   5.801   2.788   5.014
 9223SOL    HW228569   5.757   2.633   5.044
 9224SOL     OW28570   2.251   5.545   2.678
 9224SOL    HW128571   2.310   5.483   2.730
 9224SOL    HW228572   2.203   5.606   2.741
 9225SOL     OW28573   6.976   6.241   5.424
 9225SOL    HW128574   6.926   6.291   5.495
 9225SOL    HW228575   7.004   6.152   5.459
 9226SOL     OW28576   0.379   6.596   4.752
 9226SOL    HW128577   0.347   6.680   4.710
 9226SOL    HW228578   0.463   6.566   4.706
 9227SOL     OW28579   4.403   2.669   0.962
 9227SOL    HW128580   4.444   2.759   0.949
 9227SOL    HW228581   4.322   2.678   1.020
 9228SOL     OW28582   3.378   3.828   4.186
 9228SOL    HW128583   3.458   3.784   4.144
 9228SOL    HW228584   3.393   3.836   4.285
 9229SOL     OW28585   0.294   6.189   1.501
 9229SOL    HW128586   0.221   6.247   1.465
 9229SOL    HW228587   0.279   6.095   1.473
 9230SOL     OW28588   3.398   6.479   5.648
 9230SOL    HW128589   3.441   6.517   5.566
 9230SOL    HW228590   3.303   6.509   5.654
 9231SOL     OW28591   4.918   5.738   2.028
 9231SOL    HW128592   4.891   5.750   2.124
 9231SOL    HW228593   4.847   5.776   1.969
 9232SOL     OW28594   1.183   5.008   1.569
 9232SOL    HW128595   1.090   4.983   1.540
 9232SOL    HW228596   1.230   5.055   1.495
 9233SOL     OW28597   0.813   0.941   5.927
 9233SOL    HW128598   0.776   0.963   6.017
 9233SOL    HW228599   0.892   0.881   5.937
 9234SOL     OW28600   3.007   3.974   0.431
 9234SOL    HW128601   3.070   4.045   0.398
 9234SOL    HW228602   2.920   4.016   0.454
 9235SOL     OW28603   1.085   2.350   2.844
 9235SOL    HW128604   1.061   2.429   2.787
 9235SOL    HW228605   1.154   2.296   2.797
 9236SOL     OW28606   2.038   3.928   6.158
 9236SOL    HW128607   2.107   3.888   6.218
 9236SOL    HW228608   2.064   4.022   6.135
 9237SOL     OW28609   6.693   6.018   3.770
 9237SOL    HW128610   6.699   6.018   3.870
 9237SOL    HW228611   6.781   6.046   3.731
 9238SOL     OW28612   2.299   2.596   5.511
 9238SOL    HW128613   2.261   2.672   5.563
 9238SOL    HW228614   2.253   2.590   5.422
 9239SOL     OW28615   2.096   5.921   6.304
 9239SOL    HW128616   2.111   5.825   6.283
 9239SOL    HW228617   2.015   5.930   6.363
 9240SOL     OW28618   3.551   1.555   5.092
 9240SOL    HW128619   3.575   1.635   5.147
 9240SOL    HW228620   3.615   1.547   5.016
 9241SOL     OW28621   5.331   5.749   6.866
 9241SOL    HW128622   5.398   5.714   6.800
 9241SOL    HW228623   5.241   5.713   6.843
 9242SOL     OW28624   1.889   2.862   0.085
 9242SOL    HW128625   1.953   2.826   0.154
 9242SOL    HW228626   1.907   2.818   7.018
 9243SOL     OW28627   2.087   0.077   0.127
 9243SOL    HW128628   2.130   0.155   0.173
 9243SOL    HW228629   2.090   0.091   0.028
 9244SOL     OW28630   3.434   6.146   6.247
 9244SOL    HW128631   3.453   6.138   6.149
 9244SOL    HW228632   3.413   6.241   6.270
 9245SOL     OW28633   0.958   4.147   3.552
 9245SOL    HW128634   0.861   4.147   3.573
 9245SOL    HW228635   0.972   4.178   3.457
 9246SOL     OW28636   5.263   1.715   6.700
 9246SOL    HW128637   5.290   1.622   6.724
 9246SOL    HW228638   5.165   1.727   6.718
 9247SOL     OW28639   3.016   6.376   2.373
 9247SOL    HW128640   3.051   6.402   2.463
 9247SOL    HW228641   3.007   6.277   2.368
 9248SOL     OW28642   2.863   6.944   6.630
 9248SOL    HW128643   2.925   7.018   6.653
 9248SOL    HW228644   2.783   6.980   6.582
 9249SOL     OW28645   2.838   1.595   0.515
 9249SOL    HW128646   2.890   1.630   0.438
 9249SOL    HW228647   2.835   1.495   0.511
 9250SOL     OW28648   1.002   3.892   1.984
 9250SOL    HW128649   1.040   3.902   1.892
 9250SOL    HW228650   1.027   3.802   2.020
 9251SOL     OW28651   4.362   1.341   0.943
 9251SOL    HW128652   4.265   1.327   0.963
 9251SOL    HW228653   4.377   1.331   0.845
 9252SOL     OW28654   6.158   1.516   4.733
 9252SOL    HW128655   6.211   1.436   4.705
 9252SOL    HW228656   6.182   1.594   4.675
 9253SOL     OW28657   2.665   5.304   4.095
 9253SOL    HW128658   2.764   5.298   4.083
 9253SOL    HW228659   2.626   5.212   4.098
 9254SOL     OW28660   6.339   5.605   2.022
 9254SOL    HW128661   6.319   5.702   2.033
 9254SOL    HW228662   6.281   5.567   1.951
 9255SOL     OW28663   0.514   3.089   2.089
 9255SOL    HW128664   0.570   3.164   2.126
 9255SOL    HW228665   0.574   3.018   2.053
 9256SOL     OW28666   1.200   6.269   0.576
 9256SOL    HW128667   1.299   6.285   0.581
 9256SOL    HW228668   1.153   6.337   0.632
 9257SOL     OW28669   6.547   6.697   5.526
 9257SOL    HW128670   6.589   6.787   5.536
 9257SOL    HW228671   6.462   6.704   5.474
 9258SOL     OW28672   5.203   3.573   3.082
 9258SOL    HW128673   5.253   3.487   3.073
 9258SOL    HW228674   5.108   3.559   3.056
 9259SOL     OW28675   1.404   2.905   6.144
 9259SOL    HW128676   1.331   2.882   6.079
 9259SOL    HW228677   1.485   2.934   6.094
 9260SOL     OW28678   5.266   4.868   5.032
 9260SOL    HW128679   5.363   4.871   5.010
 9260SOL    HW228680   5.212   4.882   4.949
 9261SOL     OW28681   1.332   3.111   1.044
 9261SOL    HW128682   1.251   3.168   1.031
 9261SOL    HW228683   1.413   3.162   1.017
 9262SOL     OW28684   6.368   6.145   5.718
 9262SOL    HW128685   6.289   6.141   5.656
 9262SOL    HW228686   6.361   6.070   5.784
 9263SOL     OW28687   1.786   4.362   2.392
 9263SOL    HW128688   1.845   4.282   2.387
 9263SOL    HW228689   1.710   4.352   2.329
 9264SOL     OW28690   6.028   3.735   5.484
 9264SOL    HW128691   6.109   3.766   5.434
 9264SOL    HW228692   5.956   3.804   5.476
 9265SOL     OW28693   4.001   0.522   2.195
 9265SOL    HW128694   3.940   0.491   2.122
 9265SOL    HW228695   3.987   0.619   2.212
 9266SOL     OW28696   0.086   4.866   1.446
 9266SOL    HW128697   0.117   4.949   1.492
 9266SOL    HW228698   0.122   4.864   1.353
 9267SOL     OW28699   6.858   1.169   3.425
 9267SOL    HW128700   6.771   1.191   3.470
 9267SOL    HW228701   6.858   1.207   3.333
 9268SOL     OW28702   0.001   0.234   0.520
 9268SOL    HW128703   6.982   0.203   0.434
 9268SOL    HW228704   0.038   0.156   0.571
 9269SOL     OW28705   3.392   6.650   1.370
 9269SOL    HW128706   3.306   6.697   1.388
 9269SOL    HW228707   3.402   6.573   1.432
 9270SOL     OW28708   1.754   0.694   5.421
 9270SOL    HW128709   1.766   0.598   5.396
 9270SOL    HW228710   1.842   0.731   5.452
 9271SOL     OW28711   1.061   5.370   5.556
 9271SOL    HW128712   1.087   5.317   5.476
 9271SOL    HW228713   1.030   5.461   5.527
 9272SOL     OW28714   6.409   6.623   5.783
 9272SOL    HW128715   6.449   6.615   5.692
 9272SOL    HW228716   6.320   6.668   5.776
 9273SOL     OW28717   6.213   3.889   3.350
 9273SOL    HW128718   6.231   3.869   3.446
 9273SOL    HW228719   6.218   3.988   3.335
 9274SOL     OW28720   6.683   2.943   1.755
 9274SOL    HW128721   6.759   3.007   1.751
 9274SOL    HW228722   6.598   2.990   1.734
 9275SOL     OW28723   4.394   1.708   0.339
 9275SOL    HW128724   4.482   1.687   0.381
 9275SOL    HW228725   4.393   1.673   0.245
 9276SOL     OW28726   1.549   3.767   1.018
 9276SOL    HW128727   1.635   3.718   1.032
 9276SOL    HW228728   1.566   3.850   0.966
 9277SOL     OW28729   3.221   5.791   2.846
 9277SOL    HW128730   3.181   5.740   2.769
 9277SOL    HW228731   3.221   5.889   2.825
 9278SOL     OW28732   1.369   6.623   4.753
 9278SOL    HW128733   1.291   6.640   4.813
 9278SOL    HW228734   1.426   6.551   4.792
 9279SOL     OW28735   3.916   5.765   2.401
 9279SOL    HW128736   3.919   5.857   2.438
 9279SOL    HW228737   3.824   5.746   2.366
 9280SOL     OW28738   1.332   4.385   2.004
 9280SOL    HW128739   1.373   4.476   1.998
 9280SOL    HW228740   1.247   4.390   2.056
 9281SOL     OW28741   1.258   5.627   0.450
 9281SOL    HW128742   1.305   5.621   0.538
 9281SOL    HW228743   1.172   5.577   0.454
 9282SOL     OW28744   1.803   0.614   3.733
 9282SOL    HW128745   1.895   0.647   3.712
 9282SOL    HW228746   1.750   0.604   3.649
 9283SOL     OW28747   5.646   4.921   6.488
 9283SOL    HW128748   5.733   4.961   6.461
 9283SOL    HW228749   5.616   4.857   6.417
 9284SOL     OW28750   3.886   6.086   1.247
 9284SOL    HW128751   3.868   5.992   1.275
 9284SOL    HW228752   3.823   6.111   1.173
 9285SOL     OW28753   6.548   5.901   3.066
 9285SOL    HW128754   6.466   5.906   3.008
 9285SOL    HW228755   6.535   5.832   3.136
 9286SOL     OW28756   5.154   5.728   1.869
 9286SOL    HW128757   5.085   5.691   1.932
 9286SOL    HW228758   5.204   5.653   1.827
 9287SOL     OW28759   4.341   4.404   0.207
 9287SOL    HW128760   4.329   4.414   0.306
 9287SOL    HW228761   4.430   4.363   0.188
 9288SOL     OW28762   3.364   0.906   3.529
 9288SOL    HW128763   3.266   0.916   3.512
 9288SOL    HW228764   3.408   0.995   3.523
 9289SOL     OW28765   4.447   5.902   2.630
 9289SOL    HW128766   4.533   5.951   2.613
 9289SOL    HW228767   4.378   5.933   2.565
 9290SOL     OW28768   5.315   0.210   3.665
 9290SOL    HW128769   5.261   0.220   3.749
 9290SOL    HW228770   5.406   0.174   3.688
 9291SOL     OW28771   0.437   5.134   5.528
 9291SOL    HW128772   0.516   5.124   5.589
 9291SOL    HW228773   0.353   5.131   5.583
 9292SOL     OW28774   1.920   1.924   0.514
 9292SOL    HW128775   1.875   1.835   0.516
 9292SOL    HW228776   1.942   1.948   0.420
 9293SOL     OW28777   4.010   1.315   6.423
 9293SOL    HW128778   3.970   1.225   6.404
 9293SOL    HW228779   3.959   1.384   6.372
 9294SOL     OW28780   5.452   6.731   6.250
 9294SOL    HW128781   5.428   6.666   6.177
 9294SOL    HW228782   5.481   6.817   6.208
 9295SOL     OW28783   6.256   0.673   3.030
 9295SOL    HW128784   6.276   0.605   3.100
 9295SOL    HW228785   6.339   0.691   2.976
 9296SOL     OW28786   2.213   2.785   5.668
 9296SOL    HW128787   2.160   2.870   5.674
 9296SOL    HW228788   2.301   2.797   5.715
 9297SOL     OW28789   0.025   5.331   1.886
 9297SOL    HW128790   0.056   5.324   1.980
 9297SOL    HW228791   6.986   5.410   1.876
 9298SOL     OW28792   6.687   4.176   0.286
 9298SOL    HW128793   6.687   4.157   0.187
 9298SOL    HW228794   6.672   4.274   0.301
 9299SOL     OW28795   3.863   2.153   3.910
 9299SOL    HW128796   3.864   2.245   3.950
 9299SOL    HW228797   3.773   2.111   3.927
 9300SOL     OW28798   2.501   6.360   5.825
 9300SOL    HW128799   2.539   6.325   5.911
 9300SOL    HW228800   2.405   6.385   5.840
 9301SOL     OW28801   0.214   3.712   3.871
 9301SOL    HW128802   0.231   3.647   3.945
 9301SOL    HW228803   0.301   3.735   3.827
 9302SOL     OW28804   3.262   5.998   3.797
 9302SOL    HW128805   3.212   6.005   3.883
 9302SOL    HW228806   3.280   6.090   3.762
 9303SOL     OW28807   2.767   4.140   0.192
 9303SOL    HW128808   2.673   4.173   0.205
 9303SOL    HW228809   2.827   4.218   0.175
 9304SOL     OW28810   5.815   5.785   6.804
 9304SOL    HW128811   5.824   5.703   6.860
 9304SOL    HW228812   5.825   5.866   6.862
 9305SOL     OW28813   2.454   1.845   0.628
 9305SOL    HW128814   2.435   1.890   0.715
 9305SOL    HW228815   2.487   1.913   0.562
 9306SOL     OW28816   6.497   6.444   3.121
 9306SOL    HW128817   6.402   6.419   3.107
 9306SOL    HW228818   6.516   6.530   3.073
 9307SOL     OW28819   1.986   3.810   1.230
 9307SOL    HW128820   1.937   3.730   1.194
 9307SOL    HW228821   2.081   3.807   1.200
 9308SOL     OW28822   2.443   3.148   0.925
 9308SOL    HW128823   2.454   3.105   1.015
 9308SOL    HW228824   2.507   3.107   0.860
 9309SOL     OW28825   3.479   5.379   6.301
 9309SOL    HW128826   3.446   5.285   6.312
 9309SOL    HW228827   3.467   5.429   6.387
 9310SOL     OW28828   6.166   6.877   5.877
 9310SOL    HW128829   6.104   6.954   5.861
 9310SOL    HW228830   6.147   6.805   5.810
 9311SOL     OW28831   5.211   4.303   0.276
 9311SOL    HW128832   5.291   4.328   0.221
 9311SOL    HW228833   5.142   4.374   0.270
 9312SOL     OW28834   6.420   3.233   4.346
 9312SOL    HW128835   6.372   3.217   4.432
 9312SOL    HW228836   6.384   3.314   4.301
 9313SOL     OW28837   0.057   0.414   2.149
 9313SOL    HW128838   0.080   0.409   2.052
 9313SOL    HW228839   0.016   0.328   2.178
 9314SOL     OW28840   5.800   4.739   1.773
 9314SOL    HW128841   5.877   4.789   1.734
 9314SOL    HW228842   5.740   4.803   1.822
 9315SOL     OW28843   5.332   5.374   5.112
 9315SOL    HW128844   5.305   5.455   5.059
 9315SOL    HW228845   5.400   5.322   5.060
 9316SOL     OW28846   5.299   6.035   6.823
 9316SOL    HW128847   5.289   6.085   6.909
 9316SOL    HW228848   5.309   5.938   6.842
 9317SOL     OW28849   2.819   6.830   3.206
 9317SOL    HW128850   2.804   6.898   3.134
 9317SOL    HW228851   2.734   6.815   3.256
 9318SOL     OW28852   3.318   0.507   3.664
 9318SOL    HW128853   3.332   0.515   3.565
 9318SOL    HW228854   3.366   0.426   3.698
 9319SOL     OW28855   4.225   2.500   0.824
 9319SOL    HW128856   4.274   2.564   0.883
 9319SOL    HW228857   4.238   2.407   0.859
 9320SOL     OW28858   6.535   0.271   6.944
 9320SOL    HW128859   6.479   0.193   6.917
 9320SOL    HW228860   6.480   0.333   7.000
 9321SOL     OW28861   1.574   2.503   4.057
 9321SOL    HW128862   1.517   2.489   4.139
 9321SOL    HW228863   1.523   2.558   3.991
 9322SOL     OW28864   5.442   3.549   0.721
 9322SOL    HW128865   5.346   3.550   0.690
 9322SOL    HW228866   5.502   3.552   0.641
 9323SOL     OW28867   0.284   2.785   5.044
 9323SOL    HW128868   0.356   2.779   5.113
 9323SOL    HW228869   0.323   2.824   4.960
 9324SOL     OW28870   1.265   4.126   1.457
 9324SOL    HW128871   1.363   4.135   1.478
 9324SOL    HW228872   1.245   4.031   1.433
 9325SOL     OW28873   0.212   3.703   3.001
 9325SOL    HW128874   0.158   3.625   2.967
 9325SOL    HW228875   0.170   3.788   2.969
 9326SOL     OW28876   3.805   4.703   1.148
 9326SOL    HW128877   3.765   4.704   1.240
 9326SOL    HW228878   3.783   4.789   1.102
 9327SOL     OW28879   2.135   1.905   2.983
 9327SOL    HW128880   2.125   1.974   3.054
 9327SOL    HW228881   2.178   1.947   2.902
 9328SOL     OW28882   0.834   0.021   3.489
 9328SOL    HW128883   0.821   0.105   3.543
 9328SOL    HW228884   0.822   6.962   3.549
 9329SOL     OW28885   1.459   5.020   6.248
 9329SOL    HW128886   1.524   4.977   6.310
 9329SOL    HW228887   1.367   5.015   6.288
 9330SOL     OW28888   0.476   6.019   1.018
 9330SOL    HW128889   0.450   6.005   0.922
 9330SOL    HW228890   0.506   6.113   1.031
 9331SOL     OW28891   2.433   5.391   5.230
 9331SOL    HW128892   2.401   5.310   5.280
 9331SOL    HW228893   2.503   5.364   5.164
 9332SOL     OW28894   6.273   6.211   0.532
 9332SOL    HW128895   6.372   6.214   0.544
 9332SOL    HW228896   6.252   6.211   0.434
 9333SOL     OW28897   0.914   5.766   0.971
 9333SOL    HW128898   0.886   5.838   1.035
 9333SOL    HW228899   0.833   5.729   0.925
 9334SOL     OW28900   6.769   6.249   0.376
 9334SOL    HW128901   6.742   6.345   0.375
 9334SOL    HW228902   6.867   6.241   0.393
 9335SOL     OW28903   0.113   3.371   1.121
 9335SOL    HW128904   0.088   3.289   1.174
 9335SOL    HW228905   0.135   3.345   1.027
 9336SOL     OW28906   4.879   5.831   5.647
 9336SOL    HW128907   4.936   5.896   5.697
 9336SOL    HW228908   4.830   5.878   5.573
 9337SOL     OW28909   2.913   1.706   4.761
 9337SOL    HW128910   2.920   1.613   4.727
 9337SOL    HW228911   2.840   1.711   4.830
 9338SOL     OW28912   4.278   0.312   1.856
 9338SOL    HW128913   4.320   0.243   1.915
 9338SOL    HW228914   4.240   0.385   1.912
 9339SOL     OW28915   0.256   3.596   4.634
 9339SOL    HW128916   0.245   3.583   4.733
 9339SOL    HW228917   0.352   3.615   4.613
 9340SOL     OW28918   2.993   4.820   1.979
 9340SOL    HW128919   2.921   4.752   1.991
 9340SOL    HW228920   3.080   4.775   1.960
 9341SOL     OW28921   4.978   5.876   1.659
 9341SOL    HW128922   4.918   5.901   1.735
 9341SOL    HW228923   5.057   5.826   1.694
 9342SOL     OW28924   2.697   0.651   4.646
 9342SOL    HW128925   2.610   0.690   4.677
 9342SOL    HW228926   2.724   0.579   4.710
 9343SOL     OW28927   5.628   3.810   0.828
 9343SOL    HW128928   5.601   3.802   0.733
 9343SOL    HW228929   5.613   3.903   0.860
 9344SOL     OW28930   5.158   6.485   5.099
 9344SOL    HW128931   5.242   6.466   5.049
 9344SOL    HW228932   5.179   6.545   5.176
 9345SOL     OW28933   6.994   4.897   6.535
 9345SOL    HW128934   6.961   4.816   6.486
 9345SOL    HW228935   0.046   4.940   6.482
 9346SOL     OW28936   4.976   0.746   2.353
 9346SOL    HW128937   4.983   0.780   2.447
 9346SOL    HW228938   4.954   0.649   2.354
 9347SOL     OW28939   4.983   6.696   2.609
 9347SOL    HW128940   4.893   6.705   2.566
 9347SOL    HW228941   4.972   6.670   2.705
 9348SOL     OW28942   2.472   5.218   2.129
 9348SOL    HW128943   2.572   5.215   2.128
 9348SOL    HW228944   2.436   5.132   2.094
 9349SOL     OW28945   0.998   4.708   1.293
 9349SOL    HW128946   1.058   4.694   1.214
 9349SOL    HW228947   0.976   4.620   1.334
 9350SOL     OW28948   6.786   0.896   6.898
 9350SOL    HW128949   6.764   0.817   6.841
 9350SOL    HW228950   6.762   0.876   6.993
 9351SOL     OW28951   4.325   4.154   6.190
 9351SOL    HW128952   4.294   4.159   6.285
 9351SOL    HW228953   4.297   4.237   6.142
 9352SOL     OW28954   2.714   1.698   0.157
 9352SOL    HW128955   2.655   1.617   0.168
 9352SOL    HW228956   2.686   1.749   0.076
 9353SOL     OW28957   1.158   3.066   2.180
 9353SOL    HW128958   1.255   3.045   2.189
 9353SOL    HW228959   1.135   3.077   2.084
 9354SOL     OW28960   5.819   2.094   2.391
 9354SOL    HW128961   5.782   2.187   2.396
 9354SOL    HW228962   5.902   2.088   2.447
 9355SOL     OW28963   0.646   2.066   2.034
 9355SOL    HW128964   0.663   2.095   1.940
 9355SOL    HW228965   0.670   1.970   2.044
 9356SOL     OW28966   4.408   2.421   2.145
 9356SOL    HW128967   4.453   2.361   2.079
 9356SOL    HW228968   4.394   2.511   2.103
 9357SOL     OW28969   2.021   4.007   6.785
 9357SOL    HW128970   1.946   3.954   6.745
 9357SOL    HW228971   2.052   3.962   6.869
 9358SOL     OW28972   5.598   4.781   3.462
 9358SOL    HW128973   5.512   4.740   3.432
 9358SOL    HW228974   5.655   4.799   3.382
 9359SOL     OW28975   4.054   5.341   5.607
 9359SOL    HW128976   4.069   5.293   5.520
 9359SOL    HW228977   3.981   5.296   5.658
 9360SOL     OW28978   0.697   0.392   5.635
 9360SOL    HW128979   0.667   0.433   5.549
 9360SOL    HW228980   0.796   0.404   5.645
 9361SOL     OW28981   1.203   1.436   2.567
 9361SOL    HW128982   1.142   1.488   2.628
 9361SOL    HW228983   1.271   1.497   2.528
 9362SOL     OW28984   1.353   1.671   2.853
 9362SOL    HW128985   1.400   1.723   2.924
 9362SOL    HW228986   1.334   1.579   2.886
 9363SOL     OW28987   0.942   6.646   2.104
 9363SOL    HW128988   0.865   6.665   2.044
 9363SOL    HW228989   0.954   6.548   2.114
 9364SOL     OW28990   5.890   3.861   0.603
 9364SOL    HW128991   5.819   3.912   0.651
 9364SOL    HW228992   5.976   3.910   0.608
 9365SOL     OW28993   2.934   1.175   4.371
 9365SOL    HW128994   2.895   1.193   4.462
 9365SOL    HW228995   2.871   1.118   4.318
 9366SOL     OW28996   2.574   1.591   0.568
 9366SOL    HW128997   2.539   1.667   0.622
 9366SOL    HW228998   2.671   1.606   0.548
 9367SOL     OW28999   5.303   6.601   4.624
 9367SOL    HW129000   5.349   6.686   4.649
 9367SOL    HW229001   5.234   6.620   4.554
 9368SOL     OW29002   5.525   3.038   1.369
 9368SOL    HW129003   5.588   3.017   1.444
 9368SOL    HW229004   5.464   2.961   1.353
 9369SOL     OW29005   0.351   2.516   5.644
 9369SOL    HW129006   0.291   2.529   5.723
 9369SOL    HW229007   0.380   2.420   5.640
 9370SOL     OW29008   5.844   5.493   1.947
 9370SOL    HW129009   5.819   5.475   2.042
 9370SOL    HW229010   5.761   5.514   1.895
 9371SOL     OW29011   2.219   0.116   0.848
 9371SOL    HW129012   2.152   0.175   0.804
 9371SOL    HW229013   2.272   0.068   0.779
 9372SOL     OW29014   5.210   5.626   0.531
 9372SOL    HW129015   5.162   5.708   0.562
 9372SOL    HW229016   5.308   5.644   0.524
 9373SOL     OW29017   4.745   2.870   4.863
 9373SOL    HW129018   4.789   2.844   4.777
 9373SOL    HW229019   4.682   2.798   4.890
 9374SOL     OW29020   4.830   4.158   0.066
 9374SOL    HW129021   4.887   4.118   7.015
 9374SOL    HW229022   4.878   4.235   0.108
 9375SOL     OW29023   6.414   6.392   3.855
 9375SOL    HW129024   6.496   6.352   3.813
 9375SOL    HW229025   6.407   6.488   3.828
 9376SOL     OW29026   2.795   3.415   1.978
 9376SOL    HW129027   2.787   3.505   2.022
 9376SOL    HW229028   2.704   3.375   1.969
 9377SOL     OW29029   0.053   4.286   3.679
 9377SOL    HW129030   0.067   4.191   3.653
 9377SOL    HW229031   6.999   4.325   3.627
 9378SOL     OW29032   4.116   6.142   1.504
 9378SOL    HW129033   4.210   6.113   1.522
 9378SOL    HW229034   4.068   6.072   1.451
 9379SOL     OW29035   4.460   4.779   5.102
 9379SOL    HW129036   4.421   4.690   5.076
 9379SOL    HW229037   4.461   4.839   5.022
 9380SOL     OW29038   0.088   5.637   5.484
 9380SOL    HW129039   0.040   5.569   5.539
 9380SOL    HW229040   0.119   5.712   5.543
 9381SOL     OW29041   0.713   1.138   0.120
 9381SOL    HW129042   0.742   1.182   0.035
 9381SOL    HW229043   0.742   1.043   0.120
 9382SOL     OW29044   6.062   2.150   2.157
 9382SOL    HW129045   6.053   2.052   2.136
 9382SOL    HW229046   6.128   2.191   2.094
 9383SOL     OW29047   6.892   5.727   6.947
 9383SOL    HW129048   6.832   5.694   7.020
 9383SOL    HW229049   6.878   5.672   6.865
 9384SOL     OW29050   3.264   6.866   2.368
 9384SOL    HW129051   3.320   6.914   2.301
 9384SOL    HW229052   3.321   6.807   2.424
 9385SOL     OW29053   4.298   6.638   3.281
 9385SOL    HW129054   4.315   6.660   3.377
 9385SOL    HW229055   4.274   6.721   3.231
 9386SOL     OW29056   3.331   6.617   4.757
 9386SOL    HW129057   3.364   6.579   4.844
 9386SOL    HW229058   3.405   6.666   4.711
 9387SOL     OW29059   4.691   5.953   0.714
 9387SOL    HW129060   4.704   5.866   0.761
 9387SOL    HW229061   4.741   6.025   0.762
 9388SOL     OW29062   6.445   0.246   1.410
 9388SOL    HW129063   6.509   0.315   1.376
 9388SOL    HW229064   6.456   0.236   1.509
 9389SOL     OW29065   3.185   1.193   1.291
 9389SOL    HW129066   3.141   1.115   1.247
 9389SOL    HW229067   3.131   1.276   1.275
 9390SOL     OW29068   3.776   6.558   0.794
 9390SOL    HW129069   3.823   6.575   0.707
 9390SOL    HW229070   3.814   6.618   0.864
 9391SOL     OW29071   5.576   0.385   3.908
 9391SOL    HW129072   5.619   0.303   3.947
 9391SOL    HW229073   5.483   0.394   3.943
 9392SOL     OW29074   0.736   0.075   5.057
 9392SOL    HW129075   0.775   0.058   4.967
 9392SOL    HW229076   0.675   7.021   5.082
 9393SOL     OW29077   4.865   1.574   5.405
 9393SOL    HW129078   4.801   1.528   5.466
 9393SOL    HW229079   4.955   1.578   5.449
 9394SOL     OW29080   6.350   1.610   2.402
 9394SOL    HW129081   6.388   1.546   2.335
 9394SOL    HW229082   6.367   1.575   2.494
 9395SOL     OW29083   1.653   3.026   0.106
 9395SOL    HW129084   1.609   3.008   0.194
 9395SOL    HW229085   1.739   2.974   0.101
 9396SOL     OW29086   0.372   1.180   5.203
 9396SOL    HW129087   0.427   1.168   5.121
 9396SOL    HW229088   0.427   1.161   5.284
 9397SOL     OW29089   1.698   2.202   1.036
 9397SOL    HW129090   1.769   2.152   0.988
 9397SOL    HW229091   1.621   2.141   1.056
 9398SOL     OW29092   2.299   1.987   1.210
 9398SOL    HW129093   2.219   1.995   1.269
 9398SOL    HW229094   2.271   1.959   1.118
 9399SOL     OW29095   0.084   0.874   5.616
 9399SOL    HW129096   0.014   0.908   5.552
 9399SOL    HW229097   0.157   0.830   5.565
 9400SOL     OW29098   3.996   1.433   3.952
 9400SOL    HW129099   4.086   1.474   3.965
 9400SOL    HW229100   3.936   1.498   3.905
 9401SOL     OW29101   4.276   6.888   4.081
 9401SOL    HW129102   4.301   6.973   4.036
 9401SOL    HW229103   4.207   6.841   4.026
 9402SOL     OW29104   2.380   4.621   6.518
 9402SOL    HW129105   2.405   4.633   6.422
 9402SOL    HW229106   2.308   4.553   6.526
 9403SOL     OW29107   6.311   0.292   3.428
 9403SOL    HW129108   6.239   0.311   3.495
 9403SOL    HW229109   6.364   0.213   3.458
 9404SOL     OW29110   2.135   4.639   4.833
 9404SOL    HW129111   2.217   4.602   4.876
 9404SOL    HW229112   2.054   4.603   4.880
 9405SOL     OW29113   0.201   0.729   1.128
 9405SOL    HW129114   0.298   0.726   1.106
 9405SOL    HW229115   0.148   0.735   1.043
 9406SOL     OW29116   6.439   1.727   5.126
 9406SOL    HW129117   6.454   1.811   5.178
 9406SOL    HW229118   6.487   1.733   5.039
 9407SOL     OW29119   3.278   5.548   3.793
 9407SOL    HW129120   3.304   5.518   3.885
 9407SOL    HW229121   3.350   5.606   3.755
 9408SOL     OW29122   3.556   1.565   0.164
 9408SOL    HW129123   3.602   1.539   0.079
 9408SOL    HW229124   3.595   1.513   0.240
 9409SOL     OW29125   6.329   4.002   3.657
 9409SOL    HW129126   6.292   3.912   3.681
 9409SOL    HW229127   6.422   4.010   3.694
 9410SOL     OW29128   4.265   6.909   2.267
 9410SOL    HW129129   4.220   6.926   2.354
 9410SOL    HW229130   4.204   6.934   2.191
 9411SOL     OW29131   5.046   4.429   2.446
 9411SOL    HW129132   5.114   4.502   2.453
 9411SOL    HW229133   5.085   4.344   2.480
 9412SOL     OW29134   6.941   1.830   3.239
 9412SOL    HW129135   6.872   1.796   3.303
 9412SOL    HW229136   0.001   1.861   3.289
 9413SOL     OW29137   4.387   5.555   3.722
 9413SOL    HW129138   4.402   5.599   3.633
 9413SOL    HW229139   4.475   5.537   3.766
 9414SOL     OW29140   2.315   0.478   2.029
 9414SOL    HW129141   2.411   0.502   2.047
 9414SOL    HW229142   2.310   0.423   1.946
 9415SOL     OW29143   1.087   6.842   2.242
 9415SOL    HW129144   1.085   6.927   2.189
 9415SOL    HW229145   1.026   6.775   2.200
 9416SOL     OW29146   1.430   1.743   1.480
 9416SOL    HW129147   1.465   1.829   1.518
 9416SOL    HW229148   1.408   1.680   1.554
 9417SOL     OW29149   0.966   0.506   4.233
 9417SOL    HW129150   0.908   0.584   4.258
 9417SOL    HW229151   1.062   0.533   4.238
 9418SOL     OW29152   4.249   4.322   0.506
 9418SOL    HW129153   4.241   4.226   0.476
 9418SOL    HW229154   4.327   4.331   0.568
 9419SOL     OW29155   2.663   5.847   3.850
 9419SOL    HW129156   2.656   5.753   3.884
 9419SOL    HW229157   2.759   5.875   3.847
 9420SOL     OW29158   1.184   0.502   2.763
 9420SOL    HW129159   1.164   0.543   2.852
 9420SOL    HW229160   1.266   0.544   2.724
 9421SOL     OW29161   1.659   4.519   5.570
 9421SOL    HW129162   1.661   4.421   5.588
 9421SOL    HW229163   1.597   4.538   5.494
 9422SOL     OW29164   3.646   1.120   3.214
 9422SOL    HW129165   3.723   1.085   3.161
 9422SOL    HW229166   3.572   1.146   3.153
 9423SOL     OW29167   4.602   0.441   5.092
 9423SOL    HW129168   4.556   0.449   5.004
 9423SOL    HW229169   4.565   0.509   5.156
 9424SOL     OW29170   3.020   5.642   3.375
 9424SOL    HW129171   3.017   5.642   3.475
 9424SOL    HW229172   2.977   5.725   3.340
 9425SOL     OW29173   0.129   5.905   2.326
 9425SOL    HW129174   0.142   5.855   2.240
 9425SOL    HW229175   0.118   5.839   2.401
 9426SOL     OW29176   3.482   6.024   0.922
 9426SOL    HW129177   3.389   6.059   0.915
 9426SOL    HW229178   3.483   5.941   0.977
 9427SOL     OW29179   2.784   5.189   4.406
 9427SOL    HW129180   2.875   5.158   4.378
 9427SOL    HW229181   2.783   5.204   4.505
 9428SOL     OW29182   4.277   6.200   2.239
 9428SOL    HW129183   4.242   6.236   2.153
 9428SOL    HW229184   4.282   6.273   2.307
 9429SOL     OW29185   0.466   3.699   2.947
 9429SOL    HW129186   0.371   3.692   2.975
 9429SOL    HW229187   0.498   3.609   2.916
 9430SOL     OW29188   6.407   6.751   1.655
 9430SOL    HW129189   6.421   6.849   1.664
 9430SOL    HW229190   6.327   6.733   1.598
 9431SOL     OW29191   6.236   4.513   0.607
 9431SOL    HW129192   6.303   4.515   0.533
 9431SOL    HW229193   6.180   4.596   0.604
 9432SOL     OW29194   6.251   6.490   3.425
 9432SOL    HW129195   6.275   6.467   3.331
 9432SOL    HW229196   6.243   6.590   3.434
 9433SOL     OW29197   2.471   5.448   4.722
 9433SOL    HW129198   2.428   5.366   4.685
 9433SOL    HW229199   2.407   5.525   4.717
 9434SOL     OW29200   6.143   4.713   3.665
 9434SOL    HW129201   6.060   4.658   3.650
 9434SOL    HW229202   6.118   4.799   3.709
 9435SOL     OW29203   2.721   2.444   6.186
 9435SOL    HW129204   2.795   2.424   6.121
 9435SOL    HW229205   2.760   2.489   6.266
 9436SOL     OW29206   3.519   2.109   5.341
 9436SOL    HW129207   3.469   2.180   5.391
 9436SOL    HW229208   3.464   2.080   5.262
 9437SOL     OW29209   0.503   6.010   4.487
 9437SOL    HW129210   0.448   6.092   4.470
 9437SOL    HW229211   0.564   6.027   4.565
 9438SOL     OW29212   0.140   6.477   1.835
 9438SOL    HW129213   0.184   6.392   1.806
 9438SOL    HW229214   0.102   6.465   1.927
 9439SOL     OW29215   1.640   2.926   1.958
 9439SOL    HW129216   1.706   2.958   1.891
 9439SOL    HW229217   1.686   2.874   2.030
 9440SOL     OW29218   3.223   6.359   3.499
 9440SOL    HW129219   3.297   6.423   3.521
 9440SOL    HW229220   3.233   6.328   3.404
 9441SOL     OW29221   1.067   5.506   5.882
 9441SOL    HW129222   1.101   5.595   5.852
 9441SOL    HW229223   0.980   5.518   5.929
 9442SOL     OW29224   1.014   2.012   1.206
 9442SOL    HW129225   0.956   1.950   1.153
 9442SOL    HW229226   1.076   1.959   1.263
 9443SOL     OW29227   1.271   1.971   0.848
 9443SOL    HW129228   1.172   1.961   0.835
 9443SOL    HW229229   1.310   1.881   0.866
 9444SOL     OW29230   1.165   3.839   5.058
 9444SOL    HW129231   1.106   3.772   5.103
 9444SOL    HW229232   1.202   3.902   5.127
 9445SOL     OW29233   5.534   1.799   2.010
 9445SOL    HW129234   5.447   1.848   2.006
 9445SOL    HW229235   5.586   1.832   2.089
 9446SOL     OW29236   5.150   4.972   0.415
 9446SOL    HW129237   5.176   4.950   0.510
 9446SOL    HW229238   5.233   4.979   0.359
 9447SOL     OW29239   5.477   0.961   1.615
 9447SOL    HW129240   5.440   0.936   1.705
 9447SOL    HW229241   5.549   1.030   1.626
 9448SOL     OW29242   6.222   6.682   0.559
 9448SOL    HW129243   6.299   6.732   0.519
 9448SOL    HW229244   6.250   6.641   0.646
 9449SOL     OW29245   5.630   5.461   4.842
 9449SOL    HW129246   5.634   5.509   4.754
 9449SOL    HW229247   5.604   5.525   4.914
 9450SOL     OW29248   2.054   6.143   3.917
 9450SOL    HW129249   1.977   6.180   3.968
 9450SOL    HW229250   2.033   6.050   3.887
 9451SOL     OW29251   4.129   3.310   4.697
 9451SOL    HW129252   4.136   3.406   4.667
 9451SOL    HW229253   4.118   3.307   4.796
 9452SOL     OW29254   3.786   4.676   0.645
 9452SOL    HW129255   3.867   4.630   0.681
 9452SOL    HW229256   3.775   4.653   0.548
 9453SOL     OW29257   3.342   6.451   1.000
 9453SOL    HW129258   3.242   6.453   1.004
 9453SOL    HW229259   3.374   6.515   0.930
 9454SOL     OW29260   2.307   1.719   5.670
 9454SOL    HW129261   2.325   1.814   5.643
 9454SOL    HW229262   2.332   1.658   5.595
 9455SOL     OW29263   1.958   2.133   1.715
 9455SOL    HW129264   2.043   2.094   1.751
 9455SOL    HW229265   1.973   2.229   1.692
 9456SOL     OW29266   1.370   2.916   0.462
 9456SOL    HW129267   1.284   2.946   0.420
 9456SOL    HW229268   1.447   2.954   0.411
 9457SOL     OW29269   5.892   3.670   0.291
 9457SOL    HW129270   5.945   3.751   0.318
 9457SOL    HW229271   5.945   3.587   0.310
 9458SOL     OW29272   1.135   5.896   4.084
 9458SOL    HW129273   1.142   5.945   4.171
 9458SOL    HW229274   1.168   5.954   4.010
 9459SOL     OW29275   3.968   6.186   0.387
 9459SOL    HW129276   3.980   6.261   0.452
 9459SOL    HW229277   4.015   6.104   0.422
 9460SOL     OW29278   1.591   3.706   5.373
 9460SOL    HW129279   1.638   3.794   5.372
 9460SOL    HW229280   1.632   3.647   5.442
 9461SOL     OW29281   1.404   0.445   2.282
 9461SOL    HW129282   1.381   0.531   2.326
 9461SOL    HW229283   1.422   0.376   2.352
 9462SOL     OW29284   0.468   3.377   3.708
 9462SOL    HW129285   0.540   3.316   3.741
 9462SOL    HW229286   0.508   3.449   3.652
 9463SOL     OW29287   4.889   2.053   6.116
 9463SOL    HW129288   4.818   2.099   6.063
 9463SOL    HW229289   4.859   1.961   6.140
 9464SOL     OW29290   3.847   6.752   6.177
 9464SOL    HW129291   3.805   6.800   6.254
 9464SOL    HW229292   3.776   6.704   6.125
 9465SOL     OW29293   4.285   6.380   4.209
 9465SOL    HW129294   4.379   6.414   4.214
 9465SOL    HW229295   4.284   6.281   4.227
 9466SOL     OW29296   3.611   1.758   6.808
 9466SOL    HW129297   3.596   1.718   6.718
 9466SOL    HW229298   3.627   1.857   6.799
 9467SOL     OW29299   1.159   3.086   2.446
 9467SOL    HW129300   1.119   3.084   2.355
 9467SOL    HW229301   1.246   3.133   2.443
 9468SOL     OW29302   0.213   2.846   6.287
 9468SOL    HW129303   0.165   2.808   6.209
 9468SOL    HW229304   0.159   2.830   6.370
 9469SOL     OW29305   0.325   4.280   2.392
 9469SOL    HW129306   0.230   4.282   2.423
 9469SOL    HW229307   0.386   4.266   2.470
 9470SOL     OW29308   6.312   3.860   1.793
 9470SOL    HW129309   6.303   3.950   1.834
 9470SOL    HW229310   6.227   3.809   1.806
 9471SOL     OW29311   6.977   2.640   5.662
 9471SOL    HW129312   6.936   2.681   5.580
 9471SOL    HW229313   0.055   2.657   5.662
 9472SOL     OW29314   6.365   2.242   5.174
 9472SOL    HW129315   6.410   2.210   5.090
 9472SOL    HW229316   6.434   2.268   5.241
 9473SOL     OW29317   3.151   4.744   6.089
 9473SOL    HW129318   3.147   4.644   6.088
 9473SOL    HW229319   3.230   4.775   6.036
 9474SOL     OW29320   3.873   5.695   4.365
 9474SOL    HW129321   3.907   5.754   4.291
 9474SOL    HW229322   3.948   5.638   4.399
 9475SOL     OW29323   2.671   3.291   1.542
 9475SOL    HW129324   2.764   3.311   1.575
 9475SOL    HW229325   2.609   3.283   1.620
 9476SOL     OW29326   2.650   3.355   5.597
 9476SOL    HW129327   2.646   3.257   5.617
 9476SOL    HW229328   2.646   3.369   5.498
 9477SOL     OW29329   1.169   2.330   0.453
 9477SOL    HW129330   1.205   2.384   0.529
 9477SOL    HW229331   1.104   2.384   0.400
 9478SOL     OW29332   5.741   3.571   6.750
 9478SOL    HW129333   5.679   3.575   6.828
 9478SOL    HW229334   5.808   3.646   6.757
 9479SOL     OW29335   5.570   4.936   4.950
 9479SOL    HW129336   5.655   4.902   4.910
 9479SOL    HW229337   5.590   4.984   5.036
 9480SOL     OW29338   0.033   3.603   6.082
 9480SOL    HW129339   6.964   3.630   6.118
 9480SOL    HW229340   0.096   3.586   6.158
 9481SOL     OW29341   0.939   2.811   3.557
 9481SOL    HW129342   0.934   2.728   3.613
 9481SOL    HW229343   0.853   2.862   3.566
 9482SOL     OW29344   4.388   1.470   2.323
 9482SOL    HW129345   4.292   1.447   2.308
 9482SOL    HW229346   4.404   1.486   2.421
 9483SOL     OW29347   2.029   1.058   0.585
 9483SOL    HW129348   1.974   1.012   0.516
 9483SOL    HW229349   1.998   1.153   0.595
 9484SOL     OW29350   6.558   0.139   3.096
 9484SOL    HW129351   6.594   0.120   3.187
 9484SOL    HW229352   6.525   0.053   3.055
 9485SOL     OW29353   0.333   6.888   3.294
 9485SOL    HW129354   0.407   6.859   3.233
 9485SOL    HW229355   0.370   6.947   3.366
 9486SOL     OW29356   2.958   0.140   2.222
 9486SOL    HW129357   3.029   0.209   2.215
 9486SOL    HW229358   2.903   0.156   2.304
 9487SOL     OW29359   3.282   2.959   3.316
 9487SOL    HW129360   3.357   2.978   3.253
 9487SOL    HW229361   3.319   2.947   3.409
 9488SOL     OW29362   1.970   0.307   1.700
 9488SOL    HW129363   2.028   0.307   1.618
 9488SOL    HW229364   1.954   0.402   1.728
 9489SOL     OW29365   2.970   4.935   0.761
 9489SOL    HW129366   2.912   4.880   0.820
 9489SOL    HW229367   3.031   4.875   0.709
 9490SOL     OW29368   4.690   1.739   0.402
 9490SOL    HW129369   4.731   1.794   0.329
 9490SOL    HW229370   4.754   1.669   0.432
 9491SOL     OW29371   5.961   6.063   6.224
 9491SOL    HW129372   6.050   6.028   6.254
 9491SOL    HW229373   5.961   6.163   6.228
 9492SOL     OW29374   2.426   5.730   1.155
 9492SOL    HW129375   2.514   5.682   1.147
 9492SOL    HW229376   2.363   5.674   1.208
 9493SOL     OW29377   4.927   5.759   2.578
 9493SOL    HW129378   4.919   5.661   2.597
 9493SOL    HW229379   5.022   5.788   2.587
 9494SOL     OW29380   3.575   3.044   6.522
 9494SOL    HW129381   3.515   3.088   6.455
 9494SOL    HW229382   3.589   3.106   6.599
 9495SOL     OW29383   5.253   2.713   4.453
 9495SOL    HW129384   5.280   2.785   4.517
 9495SOL    HW229385   5.321   2.640   4.453
 9496SOL     OW29386   6.822   4.226   6.798
 9496SOL    HW129387   6.837   4.214   6.896
 9496SOL    HW229388   6.768   4.149   6.763
 9497SOL     OW29389   1.104   6.057   6.169
 9497SOL    HW129390   1.017   6.107   6.169
 9497SOL    HW229391   1.148   6.068   6.080
 9498SOL     OW29392   4.483   6.578   6.491
 9498SOL    HW129393   4.427   6.538   6.418
 9498SOL    HW229394   4.467   6.677   6.494
 9499SOL     OW29395   4.527   4.114   5.748
 9499SOL    HW129396   4.510   4.112   5.847
 9499SOL    HW229397   4.608   4.059   5.727
 9500SOL     OW29398   4.139   6.016   0.537
 9500SOL    HW129399   4.092   5.930   0.514
 9500SOL    HW229400   4.102   6.051   0.623
 9501SOL     OW29401   3.201   1.972   4.906
 9501SOL    HW129402   3.165   2.065   4.911
 9501SOL    HW229403   3.160   1.925   4.828
 9502SOL     OW29404   3.754   3.152   6.102
 9502SOL    HW129405   3.706   3.214   6.164
 9502SOL    HW229406   3.692   3.124   6.029
 9503SOL     OW29407   0.938   6.621   1.085
 9503SOL    HW129408   0.921   6.705   1.034
 9503SOL    HW229409   1.034   6.596   1.077
 9504SOL     OW29410   0.062   3.063   0.696
 9504SOL    HW129411   7.019   3.020   0.760
 9504SOL    HW229412   0.125   2.994   0.660
 9505SOL     OW29413   4.801   3.042   3.326
 9505SOL    HW129414   4.839   3.099   3.253
 9505SOL    HW229415   4.731   2.982   3.288
 9506SOL     OW29416   6.506   2.210   1.054
 9506SOL    HW129417   6.557   2.165   1.127
 9506SOL    HW229418   6.566   2.274   1.005
 9507SOL     OW29419   1.544   3.269   5.540
 9507SOL    HW129420   1.494   3.215   5.473
 9507SOL    HW229421   1.536   3.227   5.630
 9508SOL     OW29422   4.270   1.060   5.187
 9508SOL    HW129423   4.366   1.085   5.201
 9508SOL    HW229424   4.212   1.124   5.239
 9509SOL     OW29425   3.499   6.743   5.963
 9509SOL    HW129426   3.430   6.782   6.024
 9509SOL    HW229427   3.518   6.808   5.888
 9510SOL     OW29428   6.650   4.407   2.951
 9510SOL    HW129429   6.623   4.392   2.855
 9510SOL    HW229430   6.723   4.343   2.975
 9511SOL     OW29431   2.080   2.040   1.380
 9511SOL    HW129432   2.133   2.038   1.465
 9511SOL    HW229433   1.990   1.999   1.396
 9512SOL     OW29434   1.910   3.648   5.441
 9512SOL    HW129435   1.841   3.601   5.496
 9512SOL    HW229436   1.937   3.733   5.487
 9513SOL     OW29437   2.934   4.799   4.189
 9513SOL    HW129438   3.000   4.805   4.114
 9513SOL    HW229439   2.852   4.750   4.158
 9514SOL     OW29440   2.956   3.206   5.369
 9514SOL    HW129441   2.861   3.177   5.383
 9514SOL    HW229442   3.017   3.127   5.379
 9515SOL     OW29443   1.797   5.802   5.821
 9515SOL    HW129444   1.764   5.741   5.749
 9515SOL    HW229445   1.804   5.895   5.785
 9516SOL     OW29446   6.207   4.177   4.713
 9516SOL    HW129447   6.290   4.139   4.673
 9516SOL    HW229448   6.228   4.221   4.800
 9517SOL     OW29449   0.436   5.279   2.478
 9517SOL    HW129450   0.398   5.369   2.501
 9517SOL    HW229451   0.376   5.208   2.515
 9518SOL     OW29452   0.995   3.096   5.226
 9518SOL    HW129453   1.094   3.104   5.227
 9518SOL    HW229454   0.954   3.183   5.253
 9519SOL     OW29455   3.366   3.596   3.459
 9519SOL    HW129456   3.356   3.586   3.558
 9519SOL    HW229457   3.310   3.527   3.413
 9520SOL     OW29458   4.873   1.385   6.142
 9520SOL    HW129459   4.907   1.468   6.097
 9520SOL    HW229460   4.780   1.366   6.110
 9521SOL     OW29461   3.920   1.369   1.529
 9521SOL    HW129462   3.878   1.292   1.577
 9521SOL    HW229463   3.972   1.424   1.594
 9522SOL     OW29464   3.646   6.601   1.256
 9522SOL    HW129465   3.568   6.621   1.315
 9522SOL    HW229466   3.717   6.670   1.269
 9523SOL     OW29467   2.675   4.677   4.773
 9523SOL    HW129468   2.607   4.604   4.777
 9523SOL    HW229469   2.729   4.677   4.857
 9524SOL     OW29470   1.815   3.703   0.265
 9524SOL    HW129471   1.787   3.742   0.177
 9524SOL    HW229472   1.887   3.758   0.305
 9525SOL     OW29473   2.566   2.570   6.588
 9525SOL    HW129474   2.643   2.510   6.563
 9525SOL    HW229475   2.516   2.595   6.505
 9526SOL     OW29476   5.352   4.417   6.186
 9526SOL    HW129477   5.436   4.402   6.135
 9526SOL    HW229478   5.274   4.384   6.132
 9527SOL     OW29479   4.014   5.936   4.554
 9527SOL    HW129480   3.970   5.885   4.628
 9527SOL    HW229481   4.098   5.890   4.527
 9528SOL     OW29482   4.868   2.279   1.118
 9528SOL    HW129483   4.831   2.244   1.204
 9528SOL    HW229484   4.877   2.205   1.052
 9529SOL     OW29485   5.925   0.115   1.958
 9529SOL    HW129486   5.940   0.159   1.870
 9529SOL    HW229487   5.880   0.179   2.020
 9530SOL     OW29488   1.015   6.210   3.539
 9530SOL    HW129489   0.950   6.231   3.465
 9530SOL    HW229490   0.975   6.235   3.627
 9531SOL     OW29491   3.691   6.202   1.419
 9531SOL    HW129492   3.756   6.148   1.367
 9531SOL    HW229493   3.606   6.211   1.368
 9532SOL     OW29494   6.988   5.014   4.716
 9532SOL    HW129495   7.019   5.050   4.628
 9532SOL    HW229496   7.003   5.083   4.787
 9533SOL     OW29497   1.168   4.047   3.846
 9533SOL    HW129498   1.233   4.049   3.922
 9533SOL    HW229499   1.145   4.140   3.819
 9534SOL     OW29500   5.100   5.874   4.307
 9534SOL    HW129501   5.112   5.860   4.208
 9534SOL    HW229502   5.061   5.965   4.323
 9535SOL     OW29503   0.111   1.734   3.991
 9535SOL    HW129504   0.063   1.683   4.062
 9535SOL    HW229505   0.061   1.819   3.971
 9536SOL     OW29506   3.269   3.777   5.423
 9536SOL    HW129507   3.339   3.814   5.485
 9536SOL    HW229508   3.273   3.677   5.425
 9537SOL     OW29509   6.998   0.616   4.223
 9537SOL    HW129510   6.922   0.601   4.286
 9537SOL    HW229511   0.050   0.550   4.243
 9538SOL     OW29512   5.522   0.789   4.796
 9538SOL    HW129513   5.456   0.848   4.750
 9538SOL    HW229514   5.502   0.787   4.894
 9539SOL     OW29515   3.823   3.947   2.265
 9539SOL    HW129516   3.789   4.029   2.312
 9539SOL    HW229517   3.796   3.865   2.315
 9540SOL     OW29518   3.999   4.804   3.203
 9540SOL    HW129519   3.981   4.815   3.106
 9540SOL    HW229520   4.080   4.746   3.216
 9541SOL     OW29521   1.763   5.586   5.613
 9541SOL    HW129522   1.694   5.544   5.671
 9541SOL    HW229523   1.728   5.594   5.520
 9542SOL     OW29524   6.503   3.901   3.159
 9542SOL    HW129525   6.494   3.958   3.077
 9542SOL    HW229526   6.419   3.848   3.172
 9543SOL     OW29527   2.080   0.534   5.906
 9543SOL    HW129528   2.174   0.503   5.893
 9543SOL    HW229529   2.028   0.464   5.955
 9544SOL     OW29530   5.989   3.405   4.438
 9544SOL    HW129531   6.081   3.413   4.477
 9544SOL    HW229532   5.922   3.437   4.504
 9545SOL     OW29533   6.344   4.243   1.661
 9545SOL    HW129534   6.406   4.169   1.632
 9545SOL    HW229535   6.266   4.247   1.598
 9546SOL     OW29536   3.404   2.751   0.681
 9546SOL    HW129537   3.322   2.697   0.668
 9546SOL    HW229538   3.397   2.804   0.766
 9547SOL     OW29539   4.487   0.773   3.416
 9547SOL    HW129540   4.526   0.839   3.352
 9547SOL    HW229541   4.415   0.721   3.370
 9548SOL     OW29542   0.865   4.782   5.656
 9548SOL    HW129543   0.878   4.870   5.702
 9548SOL    HW229544   0.785   4.786   5.597
 9549SOL     OW29545   4.457   1.083   1.726
 9549SOL    HW129546   4.445   1.125   1.636
 9549SOL    HW229547   4.518   1.140   1.781
 9550SOL     OW29548   6.786   2.277   1.852
 9550SOL    HW129549   6.857   2.225   1.898
 9550SOL    HW229550   6.696   2.244   1.881
 9551SOL     OW29551   6.557   3.158   6.662
 9551SOL    HW129552   6.501   3.232   6.626
 9551SOL    HW229553   6.566   3.086   6.593
 9552SOL     OW29554   2.924   1.457   0.126
 9552SOL    HW129555   3.004   1.398   0.113
 9552SOL    HW229556   2.869   1.456   0.043
 9553SOL     OW29557   5.326   1.700   6.992
 9553SOL    HW129558   5.244   1.741   6.953
 9553SOL    HW229559   5.351   1.618   6.940
 9554SOL     OW29560   2.619   0.995   4.571
 9554SOL    HW129561   2.701   1.019   4.624
 9554SOL    HW229562   2.597   1.069   4.508
 9555SOL     OW29563   0.530   6.597   2.639
 9555SOL    HW129564   0.579   6.516   2.607
 9555SOL    HW229565   0.435   6.573   2.658
 9556SOL     OW29566   2.515   4.547   6.740
 9556SOL    HW129567   2.458   4.589   6.811
 9556SOL    HW229568   2.462   4.538   6.656
 9557SOL     OW29569   5.374   1.009   0.273
 9557SOL    HW129570   5.341   0.918   0.248
 9557SOL    HW229571   5.301   1.076   0.258
 9558SOL     OW29572   5.689   6.016   5.579
 9558SOL    HW129573   5.719   5.969   5.662
 9558SOL    HW229574   5.768   6.032   5.520
 9559SOL     OW29575   2.325   4.255   0.224
 9559SOL    HW129576   2.258   4.240   0.297
 9559SOL    HW229577   2.284   4.231   0.136
 9560SOL     OW29578   2.608   0.502   2.047
 9560SOL    HW129579   2.704   0.517   2.070
 9560SOL    HW229580   2.601   0.442   1.967
 9561SOL     OW29581   0.142   1.161   0.094
 9561SOL    HW129582   0.155   1.140   7.017
 9561SOL    HW229583   0.232   1.177   0.136
 9562SOL     OW29584   2.015   5.714   2.780
 9562SOL    HW129585   1.967   5.754   2.858
 9562SOL    HW229586   2.012   5.778   2.703
 9563SOL     OW29587   0.366   5.541   6.882
 9563SOL    HW129588   0.433   5.586   6.942
 9563SOL    HW229589   0.276   5.584   6.895
 9564SOL     OW29590   1.051   1.760   0.438
 9564SOL    HW129591   1.136   1.779   0.487
 9564SOL    HW229592   1.068   1.763   0.339
 9565SOL     OW29593   2.201   2.145   4.665
 9565SOL    HW129594   2.136   2.203   4.714
 9565SOL    HW229595   2.151   2.082   4.606
 9566SOL     OW29596   3.038   0.485   6.934
 9566SOL    HW129597   3.008   0.524   0.000
 9566SOL    HW229598   2.960   0.444   6.887
 9567SOL     OW29599   6.672   4.571   1.032
 9567SOL    HW129600   6.632   4.615   0.952
 9567SOL    HW229601   6.727   4.638   1.082
 9568SOL     OW29602   4.578   2.331   5.558
 9568SOL    HW129603   4.673   2.332   5.588
 9568SOL    HW229604   4.522   2.382   5.623
 9569SOL     OW29605   5.550   0.420   1.829
 9569SOL    HW129606   5.646   0.443   1.846
 9569SOL    HW229607   5.542   0.323   1.808
 9570SOL     OW29608   0.786   3.864   2.278
 9570SOL    HW129609   0.872   3.819   2.303
 9570SOL    HW229610   0.763   3.843   2.183
 9571SOL     OW29611   1.637   1.236   6.689
 9571SOL    HW129612   1.647   1.318   6.632
 9571SOL    HW229613   1.549   1.192   6.668
 9572SOL     OW29614   2.796   4.898   4.630
 9572SOL    HW129615   2.773   4.804   4.656
 9572SOL    HW229616   2.738   4.926   4.554
 9573SOL     OW29617   5.840   0.033   4.598
 9573SOL    HW129618   5.795   6.979   4.645
 9573SOL    HW229619   5.922   7.020   4.552
 9574SOL     OW29620   4.602   2.452   0.904
 9574SOL    HW129621   4.690   2.486   0.936
 9574SOL    HW229622   4.534   2.525   0.911
 9575SOL     OW29623   5.107   0.696   1.587
 9575SOL    HW129624   5.031   0.760   1.580
 9575SOL    HW229625   5.164   0.702   1.505
 9576SOL     OW29626   1.259   1.183   5.513
 9576SOL    HW129627   1.195   1.184   5.435
 9576SOL    HW229628   1.350   1.210   5.481
 9577SOL     OW29629   0.512   5.346   2.805
 9577SOL    HW129630   0.435   5.295   2.843
 9577SOL    HW229631   0.582   5.282   2.773
 9578SOL     OW29632   2.074   3.346   3.071
 9578SOL    HW129633   2.098   3.383   2.981
 9578SOL    HW229634   1.985   3.301   3.065
 9579SOL     OW29635   5.645   5.073   2.326
 9579SOL    HW129636   5.592   5.010   2.383
 9579SOL    HW229637   5.742   5.067   2.349
 9580SOL     OW29638   4.837   3.890   3.928
 9580SOL    HW129639   4.837   3.890   4.028
 9580SOL    HW229640   4.869   3.801   3.895
 9581SOL     OW29641   4.768   2.016   6.404
 9581SOL    HW129642   4.799   2.091   6.462
 9581SOL    HW229643   4.839   1.992   6.338
 9582SOL     OW29644   4.547   6.718   4.974
 9582SOL    HW129645   4.584   6.764   4.894
 9582SOL    HW229646   4.618   6.661   5.016
 9583SOL     OW29647   2.629   5.452   1.016
 9583SOL    HW129648   2.607   5.354   1.025
 9583SOL    HW229649   2.712   5.473   1.068
 9584SOL     OW29650   2.335   5.199   4.656
 9584SOL    HW129651   2.248   5.232   4.620
 9584SOL    HW229652   2.390   5.162   4.581
 9585SOL     OW29653   4.394   6.751   1.083
 9585SOL    HW129654   4.403   6.802   1.169
 9585SOL    HW229655   4.298   6.738   1.062
 9586SOL     OW29656   2.898   5.234   3.213
 9586SOL    HW129657   2.879   5.193   3.123
 9586SOL    HW229658   2.968   5.180   3.259
 9587SOL     OW29659   3.786   6.388   6.937
 9587SOL    HW129660   3.710   6.322   6.936
 9587SOL    HW229661   3.750   6.479   6.920
 9588SOL     OW29662   6.505   5.829   0.727
 9588SOL    HW129663   6.563   5.822   0.646
 9588SOL    HW229664   6.561   5.858   0.805
 9589SOL     OW29665   1.179   1.486   5.715
 9589SOL    HW129666   1.117   1.503   5.639
 9589SOL    HW229667   1.127   1.490   5.801
 9590SOL     OW29668   5.332   0.588   0.522
 9590SOL    HW129669   5.283   0.673   0.504
 9590SOL    HW229670   5.266   0.516   0.545
 9591SOL     OW29671   4.890   0.807   6.833
 9591SOL    HW129672   4.841   0.797   6.745
 9591SOL    HW229673   4.826   0.841   6.902
 9592SOL     OW29674   1.429   5.907   5.157
 9592SOL    HW129675   1.427   5.895   5.257
 9592SOL    HW229676   1.371   5.839   5.114
 9593SOL     OW29677   2.476   2.358   4.076
 9593SOL    HW129678   2.475   2.425   4.002
 9593SOL    HW229679   2.396   2.372   4.135
 9594SOL     OW29680   0.352   6.394   3.333
 9594SOL    HW129681   0.375   6.428   3.425
 9594SOL    HW229682   0.261   6.352   3.335
 9595SOL     OW29683   0.480   3.640   3.224
 9595SOL    HW129684   0.472   3.660   3.126
 9595SOL    HW229685   0.571   3.602   3.242
 9596SOL     OW29686   1.496   6.303   1.290
 9596SOL    HW129687   1.534   6.280   1.380
 9596SOL    HW229688   1.510   6.401   1.272
 9597SOL     OW29689   1.083   3.581   2.100
 9597SOL    HW129690   1.038   3.539   2.179
 9597SOL    HW229691   1.153   3.519   2.065
 9598SOL     OW29692   2.511   4.634   3.848
 9598SOL    HW129693   2.569   4.695   3.902
 9598SOL    HW229694   2.457   4.576   3.910
 9599SOL     OW29695   4.845   0.338   5.190
 9599SOL    HW129696   4.759   0.378   5.157
 9599SOL    HW229697   4.841   0.238   5.181
 9600SOL     OW29698   4.118   1.153   0.689
 9600SOL    HW129699   4.182   1.229   0.684
 9600SOL    HW229700   4.026   1.188   0.708
 9601SOL     OW29701   0.902   3.866   0.588
 9601SOL    HW129702   0.969   3.908   0.527
 9601SOL    HW229703   0.945   3.848   0.677
 9602SOL     OW29704   3.998   4.334   5.682
 9602SOL    HW129705   4.017   4.329   5.780
 9602SOL    HW229706   3.962   4.246   5.650
 9603SOL     OW29707   5.283   6.874   5.969
 9603SOL    HW129708   5.353   6.922   6.021
 9603SOL    HW229709   5.192   6.897   6.005
 9604SOL     OW29710   4.789   6.726   1.671
 9604SOL    HW129711   4.777   6.815   1.714
 9604SOL    HW229712   4.758   6.654   1.734
 9605SOL     OW29713   5.112   4.961   1.530
 9605SOL    HW129714   5.163   4.973   1.445
 9605SOL    HW229715   5.054   5.040   1.546
 9606SOL     OW29716   1.506   1.662   6.557
 9606SOL    HW129717   1.553   1.741   6.518
 9606SOL    HW229718   1.436   1.630   6.493
 9607SOL     OW29719   1.343   2.486   6.807
 9607SOL    HW129720   1.367   2.561   6.745
 9607SOL    HW229721   1.277   2.425   6.763
 9608SOL     OW29722   6.512   2.384   4.510
 9608SOL    HW129723   6.594   2.434   4.538
 9608SOL    HW229724   6.443   2.449   4.479
 9609SOL     OW29725   4.739   2.994   1.158
 9609SOL    HW129726   4.737   3.071   1.093
 9609SOL    HW229727   4.648   2.952   1.163
 9610SOL     OW29728   1.361   4.848   3.057
 9610SOL    HW129729   1.454   4.841   3.095
 9610SOL    HW229730   1.325   4.939   3.075
 9611SOL     OW29731   2.611   0.525   0.569
 9611SOL    HW129732   2.585   0.561   0.479
 9611SOL    HW229733   2.678   0.452   0.557
 9612SOL     OW29734   6.725   1.589   3.877
 9612SOL    HW129735   6.750   1.582   3.973
 9612SOL    HW229736   6.771   1.516   3.825
 9613SOL     OW29737   5.864   4.809   4.660
 9613SOL    HW129738   5.884   4.766   4.748
 9613SOL    HW229739   5.802   4.750   4.608
 9614SOL     OW29740   4.168   1.691   3.157
 9614SOL    HW129741   4.198   1.626   3.226
 9614SOL    HW229742   4.213   1.671   3.070
 9615SOL     OW29743   1.920   3.688   1.480
 9615SOL    HW129744   1.931   3.777   1.435
 9615SOL    HW229745   1.987   3.624   1.444
 9616SOL     OW29746   4.024   3.973   5.936
 9616SOL    HW129747   3.999   3.949   6.029
 9616SOL    HW229748   4.117   3.940   5.917
 9617SOL     OW29749   1.249   3.215   2.833
 9617SOL    HW129750   1.198   3.301   2.842
 9617SOL    HW229751   1.185   3.139   2.833
 9618SOL     OW29752   2.620   2.528   0.661
 9618SOL    HW129753   2.546   2.557   0.600
 9618SOL    HW229754   2.587   2.529   0.755
 9619SOL     OW29755   2.433   0.015   6.702
 9619SOL    HW129756   2.523   6.993   6.715
 9619SOL    HW229757   2.368   6.967   6.671
 9620SOL     OW29758   5.769   1.248   5.295
 9620SOL    HW129759   5.863   1.264   5.325
 9620SOL    HW229760   5.732   1.332   5.256
 9621SOL     OW29761   1.863   3.571   3.296
 9621SOL    HW129762   1.960   3.570   3.318
 9621SOL    HW229763   1.852   3.584   3.197
 9622SOL     OW29764   4.508   7.004   0.089
 9622SOL    HW129765   4.441   0.055   0.109
 9622SOL    HW229766   4.597   0.025   0.073
 9623SOL     OW29767   0.787   3.273   6.455
 9623SOL    HW129768   0.864   3.231   6.405
 9623SOL    HW229769   0.705   3.217   6.441
 9624SOL     OW29770   6.558   3.115   3.740
 9624SOL    HW129771   6.556   3.016   3.730
 9624SOL    HW229772   6.588   3.139   3.832
 9625SOL     OW29773   5.738   6.252   1.937
 9625SOL    HW129774   5.671   6.296   1.997
 9625SOL    HW229775   5.827   6.296   1.950
 9626SOL     OW29776   3.978   0.499   0.318
 9626SOL    HW129777   3.986   0.537   0.410
 9626SOL    HW229778   4.040   0.549   0.256
 9627SOL     OW29779   0.584   0.564   0.647
 9627SOL    HW129780   0.551   0.621   0.722
 9627SOL    HW229781   0.511   0.551   0.580
 9628SOL     OW29782   3.465   6.800   1.659
 9628SOL    HW129783   3.504   6.809   1.751
 9628SOL    HW229784   3.377   6.754   1.664
 9629SOL     OW29785   2.493   0.238   0.861
 9629SOL    HW129786   2.578   0.272   0.822
 9629SOL    HW229787   2.476   0.283   0.949
 9630SOL     OW29788   6.945   2.502   6.310
 9630SOL    HW129789   0.007   2.551   6.284
 9630SOL    HW229790   6.885   2.494   6.231
 9631SOL     OW29791   6.708   5.448   0.825
 9631SOL    HW129792   6.702   5.375   0.756
 9631SOL    HW229793   6.765   5.523   0.789
 9632SOL     OW29794   1.897   5.477   2.906
 9632SOL    HW129795   1.929   5.415   2.978
 9632SOL    HW229796   1.974   5.507   2.850
 9633SOL     OW29797   0.503   5.040   6.998
 9633SOL    HW129798   0.519   4.942   6.996
 9633SOL    HW229799   0.407   5.058   7.019
 9634SOL     OW29800   6.969   5.804   5.860
 9634SOL    HW129801   6.872   5.817   5.839
 9634SOL    HW229802   6.978   5.757   5.947
 9635SOL     OW29803   6.251   5.942   5.852
 9635SOL    HW129804   6.175   6.003   5.874
 9635SOL    HW229805   6.215   5.859   5.809
 9636SOL     OW29806   3.904   1.359   0.898
 9636SOL    HW129807   3.829   1.402   0.948
 9636SOL    HW229808   3.976   1.331   0.962
 9637SOL     OW29809   2.684   1.232   0.054
 9637SOL    HW129810   2.753   1.165   0.083
 9637SOL    HW229811   2.726   1.300   7.015
 9638SOL     OW29812   6.595   2.459   6.580
 9638SOL    HW129813   6.533   2.525   6.537
 9638SOL    HW229814   6.606   2.481   6.677
 9639SOL     OW29815   3.483   0.465   2.497
 9639SOL    HW129816   3.549   0.483   2.425
 9639SOL    HW229817   3.503   0.523   2.576
 9640SOL     OW29818   2.188   1.710   3.166
 9640SOL    HW129819   2.155   1.766   3.090
 9640SOL    HW229820   2.121   1.638   3.186
 9641SOL     OW29821   5.261   5.568   6.267
 9641SOL    HW129822   5.297   5.622   6.191
 9641SOL    HW229823   5.336   5.537   6.325
 9642SOL     OW29824   3.297   0.029   3.313
 9642SOL    HW129825   3.206   7.009   3.307
 9642SOL    HW229826   3.298   0.116   3.263
 9643SOL     OW29827   3.889   4.914   2.315
 9643SOL    HW129828   3.966   4.977   2.305
 9643SOL    HW229829   3.837   4.911   2.230
 9644SOL     OW29830   2.804   0.941   0.558
 9644SOL    HW129831   2.718   0.903   0.524
 9644SOL    HW229832   2.853   0.871   0.610
 9645SOL     OW29833   3.052   5.094   5.608
 9645SOL    HW129834   3.076   5.031   5.682
 9645SOL    HW229835   2.998   5.045   5.540
 9646SOL     OW29836   3.494   5.127   3.985
 9646SOL    HW129837   3.571   5.097   3.929
 9646SOL    HW229838   3.437   5.190   3.932
 9647SOL     OW29839   6.577   3.120   5.932
 9647SOL    HW129840   6.499   3.123   5.870
 9647SOL    HW229841   6.661   3.139   5.881
 9648SOL     OW29842   4.244   3.976   0.764
 9648SOL    HW129843   4.320   3.916   0.790
 9648SOL    HW229844   4.230   4.046   0.834
 9649SOL     OW29845   2.441   4.421   1.009
 9649SOL    HW129846   2.393   4.500   1.046
 9649SOL    HW229847   2.374   4.353   0.977
 9650SOL     OW29848   1.747   0.567   1.508
 9650SOL    HW129849   1.735   0.665   1.521
 9650SOL    HW229850   1.759   0.548   1.410
 9651SOL     OW29851   0.811   2.014   0.020
 9651SOL    HW129852   0.843   1.926   0.056
 9651SOL    HW229853   0.816   2.013   6.941
 9652SOL     OW29854   2.056   4.621   1.110
 9652SOL    HW129855   1.975   4.599   1.164
 9652SOL    HW229856   2.096   4.707   1.143
 9653SOL     OW29857   6.114   6.301   4.503
 9653SOL    HW129858   6.185   6.260   4.559
 9653SOL    HW229859   6.143   6.391   4.471
 9654SOL     OW29860   2.166   2.914   2.224
 9654SOL    HW129861   2.168   2.941   2.128
 9654SOL    HW229862   2.255   2.876   2.251
 9655SOL     OW29863   6.187   2.263   0.356
 9655SOL    HW129864   6.112   2.287   0.294
 9655SOL    HW229865   6.274   2.276   0.309
 9656SOL     OW29866   2.740   2.032   2.467
 9656SOL    HW129867   2.799   2.088   2.410
 9656SOL    HW229868   2.660   2.085   2.495
 9657SOL     OW29869   0.555   0.350   5.063
 9657SOL    HW129870   0.464   0.384   5.086
 9657SOL    HW229871   0.554   0.250   5.065
 9658SOL     OW29872   5.923   1.387   2.607
 9658SOL    HW129873   5.890   1.384   2.513
 9658SOL    HW229874   5.850   1.355   2.669
 9659SOL     OW29875   1.603   4.977   6.716
 9659SOL    HW129876   1.612   5.048   6.646
 9659SOL    HW229877   1.679   4.913   6.709
 9660SOL     OW29878   1.111   4.190   0.556
 9660SOL    HW129879   1.028   4.245   0.557
 9660SOL    HW229880   1.111   4.127   0.634
 9661SOL     OW29881   3.810   0.816   0.632
 9661SOL    HW129882   3.889   0.849   0.684
 9661SOL    HW229883   3.747   0.892   0.615
 9662SOL     OW29884   5.091   2.375   4.137
 9662SOL    HW129885   5.175   2.373   4.084
 9662SOL    HW229886   5.017   2.334   4.084
 9663SOL     OW29887   3.182   6.041   2.534
 9663SOL    HW129888   3.116   6.042   2.459
 9663SOL    HW229889   3.246   5.965   2.523
 9664SOL     OW29890   3.097   5.944   1.488
 9664SOL    HW129891   3.093   5.970   1.585
 9664SOL    HW229892   3.026   5.876   1.469
 9665SOL     OW29893   5.678   4.673   3.694
 9665SOL    HW129894   5.661   4.708   3.602
 9665SOL    HW229895   5.772   4.640   3.701
 9666SOL     OW29896   5.652   5.145   5.180
 9666SOL    HW129897   5.582   5.163   5.112
 9666SOL    HW229898   5.689   5.231   5.214
 9667SOL     OW29899   2.932   3.515   3.129
 9667SOL    HW129900   2.896   3.439   3.182
 9667SOL    HW229901   2.964   3.587   3.192
 9668SOL     OW29902   0.597   1.426   4.992
 9668SOL    HW129903   0.512   1.464   5.028
 9668SOL    HW229904   0.600   1.328   5.008
 9669SOL     OW29905   1.500   6.759   6.852
 9669SOL    HW129906   1.476   6.854   6.874
 9669SOL    HW229907   1.596   6.743   6.875
 9670SOL     OW29908   6.400   3.804   6.819
 9670SOL    HW129909   6.363   3.882   6.770
 9670SOL    HW229910   6.420   3.730   6.754
 9671SOL     OW29911   6.894   1.768   7.019
 9671SOL    HW129912   6.901   1.753   6.921
 9671SOL    HW229913   6.965   1.833   0.028
 9672SOL     OW29914   0.341   6.630   6.035
 9672SOL    HW129915   0.416   6.591   5.982
 9672SOL    HW229916   0.269   6.661   5.973
 9673SOL     OW29917   1.980   2.394   5.472
 9673SOL    HW129918   2.056   2.330   5.459
 9673SOL    HW229919   1.903   2.346   5.515
 9674SOL     OW29920   2.762   6.467   2.344
 9674SOL    HW129921   2.726   6.450   2.252
 9674SOL    HW229922   2.854   6.428   2.352
 9675SOL     OW29923   6.671   2.566   2.188
 9675SOL    HW129924   6.697   2.618   2.270
 9675SOL    HW229925   6.741   2.497   2.170
 9676SOL     OW29926   6.842   2.940   4.405
 9676SOL    HW129927   6.888   2.989   4.331
 9676SOL    HW229928   6.802   3.005   4.469
 9677SOL     OW29929   1.941   3.556   5.772
 9677SOL    HW129930   1.905   3.543   5.864
 9677SOL    HW229931   1.956   3.654   5.756
 9678SOL     OW29932   3.804   3.603   3.371
 9678SOL    HW129933   3.716   3.596   3.326
 9678SOL    HW229934   3.855   3.681   3.333
 9679SOL     OW29935   0.280   3.728   1.329
 9679SOL    HW129936   0.283   3.761   1.423
 9679SOL    HW229937   0.279   3.628   1.329
 9680SOL     OW29938   4.561   5.387   2.590
 9680SOL    HW129939   4.506   5.314   2.550
 9680SOL    HW229940   4.652   5.352   2.612
 9681SOL     OW29941   1.047   0.836   4.140
 9681SOL    HW129942   1.008   0.920   4.178
 9681SOL    HW229943   1.118   0.802   4.202
 9682SOL     OW29944   0.676   4.277   2.145
 9682SOL    HW129945   0.743   4.214   2.185
 9682SOL    HW229946   0.584   4.247   2.168
 9683SOL     OW29947   4.287   0.047   4.807
 9683SOL    HW129948   4.357   0.050   4.878
 9683SOL    HW229949   4.238   6.981   4.813
 9684SOL     OW29950   1.375   4.180   3.164
 9684SOL    HW129951   1.443   4.107   3.158
 9684SOL    HW229952   1.344   4.189   3.259
 9685SOL     OW29953   1.698   1.467   6.571
 9685SOL    HW129954   1.729   1.478   6.477
 9685SOL    HW229955   1.647   1.548   6.600
 9686SOL     OW29956   5.783   2.365   2.370
 9686SOL    HW129957   5.874   2.406   2.372
 9686SOL    HW229958   5.751   2.359   2.276
 9687SOL     OW29959   3.272   1.461   4.724
 9687SOL    HW129960   3.198   1.466   4.791
 9687SOL    HW229961   3.233   1.442   4.633
 9688SOL     OW29962   5.506   2.020   4.229
 9688SOL    HW129963   5.528   2.117   4.232
 9688SOL    HW229964   5.461   1.993   4.314
 9689SOL     OW29965   3.216   5.134   6.062
 9689SOL    HW129966   3.189   5.226   6.091
 9689SOL    HW229967   3.219   5.073   6.142
 9690SOL     OW29968   6.368   3.547   0.195
 9690SOL    HW129969   6.433   3.474   0.172
 9690SOL    HW229970   6.348   3.544   0.293
 9691SOL     OW29971   1.422   4.238   0.997
 9691SOL    HW129972   1.455   4.265   1.088
 9691SOL    HW229973   1.414   4.138   0.993
 9692SOL     OW29974   3.480   5.652   0.676
 9692SOL    HW129975   3.448   5.744   0.695
 9692SOL    HW229976   3.407   5.586   0.694
 9693SOL     OW29977   5.801   5.558   1.159
 9693SOL    HW129978   5.817   5.628   1.229
 9693SOL    HW229979   5.731   5.495   1.192
 9694SOL     OW29980   1.084   0.980   0.263
 9694SOL    HW129981   1.070   1.078   0.270
 9694SOL    HW229982   0.997   0.933   0.279
 9695SOL     OW29983   6.091   4.587   6.985
 9695SOL    HW129984   6.017   4.590   6.918
 9695SOL    HW229985   6.128   4.680   6.998
 9696SOL     OW29986   3.915   4.206   6.915
 9696SOL    HW129987   3.852   4.136   6.951
 9696SOL    HW229988   3.954   4.258   6.991
 9697SOL     OW29989   0.074   5.999   6.698
 9697SOL    HW129990   0.070   6.081   6.754
 9697SOL    HW229991   0.133   6.015   6.619
 9698SOL     OW29992   4.934   1.531   5.728
 9698SOL    HW129993   5.026   1.519   5.690
 9698SOL    HW229994   4.871   1.470   5.682
 9699SOL     OW29995   1.419   2.219   6.292
 9699SOL    HW129996   1.350   2.153   6.262
 9699SOL    HW229997   1.406   2.239   6.389
 9700SOL     OW29998   3.631   2.919   3.720
 9700SOL    HW129999   3.717   2.881   3.753
 9700SOL    HW230000   3.649   2.988   3.650
 9701SOL     OW30001   4.113   4.799   3.828
 9701SOL    HW130002   4.148   4.755   3.745
 9701SOL    HW230003   4.065   4.883   3.803
 9702SOL     OW30004   5.507   0.438   6.924
 9702SOL    HW130005   5.421   0.458   6.970
 9702SOL    HW230006   5.584   0.460   6.984
 9703SOL     OW30007   2.568   5.931   4.800
 9703SOL    HW130008   2.532   6.017   4.835
 9703SOL    HW230009   2.653   5.909   4.848
 9704SOL     OW30010   3.118   1.270   4.209
 9704SOL    HW130011   3.049   1.245   4.277
 9704SOL    HW230012   3.075   1.325   4.137
 9705SOL     OW30013   3.259   4.088   0.412
 9705SOL    HW130014   3.315   4.112   0.491
 9705SOL    HW230015   3.315   4.092   0.329
 9706SOL     OW30016   6.919   1.983   3.663
 9706SOL    HW130017   6.889   1.889   3.646
 9706SOL    HW230018   7.011   1.982   3.701
 9707SOL     OW30019   2.851   5.430   1.190
 9707SOL    HW130020   2.830   5.332   1.196
 9707SOL    HW230021   2.892   5.460   1.276
 9708SOL     OW30022   1.906   1.778   1.457
 9708SOL    HW130023   1.840   1.836   1.504
 9708SOL    HW230024   1.879   1.682   1.466
 9709SOL     OW30025   1.507   6.320   3.914
 9709SOL    HW130026   1.478   6.309   4.009
 9709SOL    HW230027   1.430   6.355   3.860
 9710SOL     OW30028   1.533   0.062   3.959
 9710SOL    HW130029   1.543   0.148   3.908
 9710SOL    HW230030   1.563   0.076   4.053
 9711SOL     OW30031   2.030   3.022   6.583
 9711SOL    HW130032   2.124   3.039   6.612
 9711SOL    HW230033   2.018   3.053   6.488
 9712SOL     OW30034   5.184   3.789   4.871
 9712SOL    HW130035   5.105   3.790   4.933
 9712SOL    HW230036   5.199   3.695   4.839
 9713SOL     OW30037   0.551   5.734   3.469
 9713SOL    HW130038   0.626   5.669   3.481
 9713SOL    HW230039   0.550   5.798   3.546
 9714SOL     OW30040   2.654   1.859   2.219
 9714SOL    HW130041   2.681   1.908   2.302
 9714SOL    HW230042   2.652   1.922   2.142
 9715SOL     OW30043   5.857   5.640   6.387
 9715SOL    HW130044   5.943   5.679   6.355
 9715SOL    HW230045   5.789   5.712   6.399
 9716SOL     OW30046   3.340   0.663   5.649
 9716SOL    HW130047   3.367   0.644   5.743
 9716SOL    HW230048   3.398   0.611   5.586
 9717SOL     OW30049   6.111   5.148   3.317
 9717SOL    HW130050   6.207   5.123   3.321
 9717SOL    HW230051   6.080   5.177   3.407
 9718SOL     OW30052   6.224   2.280   1.984
 9718SOL    HW130053   6.148   2.336   1.951
 9718SOL    HW230054   6.289   2.338   2.033
 9719SOL     OW30055   0.332   1.420   6.967
 9719SOL    HW130056   0.243   1.438   7.008
 9719SOL    HW230057   0.382   1.354   0.002
 9720SOL     OW30058   0.789   0.911   0.838
 9720SOL    HW130059   0.797   0.819   0.799
 9720SOL    HW230060   0.835   0.913   0.927
 9721SOL     OW30061   0.585   2.168   3.630
 9721SOL    HW130062   0.581   2.168   3.530
 9721SOL    HW230063   0.587   2.073   3.663
 9722SOL     OW30064   0.148   0.172   4.426
 9722SOL    HW130065   0.055   0.206   4.435
 9722SOL    HW230066   0.171   0.162   4.330
 9723SOL     OW30067   6.628   1.036   4.188
 9723SOL    HW130068   6.664   0.957   4.239
 9723SOL    HW230069   6.700   1.105   4.179
 9724SOL     OW30070   3.853   2.883   1.708
 9724SOL    HW130071   3.850   2.982   1.722
 9724SOL    HW230072   3.796   2.837   1.777
 9725SOL     OW30073   3.902   3.000   5.791
 9725SOL    HW130074   3.985   2.952   5.819
 9725SOL    HW230075   3.838   3.002   5.867
 9726SOL     OW30076   5.067   6.117   4.972
 9726SOL    HW130077   4.990   6.123   5.035
 9726SOL    HW230078   5.146   6.078   5.020
 9727SOL     OW30079   0.277   0.865   6.609
 9727SOL    HW130080   0.348   0.855   6.539
 9727SOL    HW230081   0.255   0.775   6.647
 9728SOL     OW30082   3.096   5.872   6.097
 9728SOL    HW130083   3.044   5.955   6.117
 9728SOL    HW230084   3.148   5.884   6.013
 9729SOL     OW30085   3.438   5.293   2.240
 9729SOL    HW130086   3.404   5.300   2.146
 9729SOL    HW230087   3.537   5.286   2.239
 9730SOL     OW30088   5.202   3.803   2.940
 9730SOL    HW130089   5.198   3.733   3.011
 9730SOL    HW230090   5.110   3.830   2.914
 9731SOL     OW30091   5.302   4.360   0.692
 9731SOL    HW130092   5.307   4.437   0.756
 9731SOL    HW230093   5.214   4.315   0.701
 9732SOL     OW30094   5.058   6.294   4.742
 9732SOL    HW130095   5.074   6.254   4.833
 9732SOL    HW230096   5.138   6.279   4.685
 9733SOL     OW30097   4.862   4.629   4.159
 9733SOL    HW130098   4.894   4.545   4.203
 9733SOL    HW230099   4.787   4.667   4.212
 9734SOL     OW30100   6.349   2.403   5.903
 9734SOL    HW130101   6.289   2.398   5.982
 9734SOL    HW230102   6.294   2.412   5.820
 9735SOL     OW30103   3.314   4.951   1.134
 9735SOL    HW130104   3.243   4.939   1.203
 9735SOL    HW230105   3.312   4.873   1.071
 9736SOL     OW30106   3.785   1.794   1.987
 9736SOL    HW130107   3.688   1.777   1.966
 9736SOL    HW230108   3.812   1.883   1.951
 9737SOL     OW30109   4.369   1.500   4.695
 9737SOL    HW130110   4.458   1.507   4.650
 9737SOL    HW230111   4.299   1.545   4.639
 9738SOL     OW30112   2.556   0.523   2.356
 9738SOL    HW130113   2.555   0.497   2.259
 9738SOL    HW230114   2.463   0.545   2.385
 9739SOL     OW30115   4.979   4.357   2.794
 9739SOL    HW130116   5.009   4.264   2.817
 9739SOL    HW230117   4.970   4.411   2.877
 9740SOL     OW30118   6.689   3.192   3.248
 9740SOL    HW130119   6.706   3.226   3.341
 9740SOL    HW230120   6.641   3.105   3.253
 9741SOL     OW30121   3.840   2.071   2.563
 9741SOL    HW130122   3.796   2.064   2.652
 9741SOL    HW230123   3.771   2.093   2.493
 9742SOL     OW30124   3.630   1.409   2.912
 9742SOL    HW130125   3.562   1.380   2.979
 9742SOL    HW230126   3.594   1.396   2.820
 9743SOL     OW30127   1.203   1.159   5.981
 9743SOL    HW130128   1.158   1.143   5.893
 9743SOL    HW230129   1.295   1.196   5.965
 9744SOL     OW30130   2.437   0.146   1.372
 9744SOL    HW130131   2.477   0.227   1.329
 9744SOL    HW230132   2.436   0.070   1.307
 9745SOL     OW30133   0.936   0.987   4.343
 9745SOL    HW130134   0.926   1.017   4.438
 9745SOL    HW230135   0.845   0.976   4.302
 9746SOL     OW30136   6.031   0.035   4.824
 9746SOL    HW130137   6.073   6.966   4.830
 9746SOL    HW230138   6.000   0.052   4.731
 9747SOL     OW30139   6.470   0.330   6.178
 9747SOL    HW130140   6.484   0.255   6.242
 9747SOL    HW230141   6.489   0.298   6.085
 9748SOL     OW30142   1.826   4.723   4.624
 9748SOL    HW130143   1.856   4.718   4.529
 9748SOL    HW230144   1.847   4.636   4.670
 9749SOL     OW30145   0.729   4.721   4.956
 9749SOL    HW130146   0.800   4.691   4.893
 9749SOL    HW230147   0.671   4.788   4.910
 9750SOL     OW30148   2.607   5.307   2.552
 9750SOL    HW130149   2.655   5.340   2.471
 9750SOL    HW230150   2.577   5.212   2.537
 9751SOL     OW30151   1.590   1.879   0.448
 9751SOL    HW130152   1.633   1.820   0.517
 9751SOL    HW230153   1.586   1.973   0.483
 9752SOL     OW30154   3.057   6.550   6.230
 9752SOL    HW130155   3.046   6.646   6.256
 9752SOL    HW230156   3.062   6.542   6.131
 9753SOL     OW30157   0.229   0.318   6.716
 9753SOL    HW130158   0.266   0.316   6.809
 9753SOL    HW230159   0.282   0.257   6.657
 9754SOL     OW30160   0.212   3.322   6.656
 9754SOL    HW130161   0.306   3.354   6.654
 9754SOL    HW230162   0.150   3.400   6.657
 9755SOL     OW30163   4.268   5.787   4.547
 9755SOL    HW130164   4.239   5.709   4.493
 9755SOL    HW230165   4.368   5.797   4.541
 9756SOL     OW30166   4.320   3.175   6.099
 9756SOL    HW130167   4.234   3.195   6.146
 9756SOL    HW230168   4.300   3.145   6.005
 9757SOL     OW30169   5.754   0.905   4.230
 9757SOL    HW130170   5.740   0.975   4.300
 9757SOL    HW230171   5.666   0.868   4.202
 9758SOL     OW30172   3.296   0.378   0.536
 9758SOL    HW130173   3.340   0.305   0.588
 9758SOL    HW230174   3.334   0.466   0.565
 9759SOL     OW30175   2.940   5.809   2.067
 9759SOL    HW130176   2.853   5.791   2.114
 9759SOL    HW230177   3.009   5.746   2.101
 9760SOL     OW30178   4.852   3.725   6.444
 9760SOL    HW130179   4.850   3.648   6.508
 9760SOL    HW230180   4.854   3.689   6.350
 9761SOL     OW30181   5.066   5.572   3.053
 9761SOL    HW130182   4.989   5.610   3.104
 9761SOL    HW230183   5.087   5.631   2.975
 9762SOL     OW30184   3.575   1.231   2.430
 9762SOL    HW130185   3.488   1.238   2.382
 9762SOL    HW230186   3.649   1.260   2.370
 9763SOL     OW30187   2.216   2.028   1.710
 9763SOL    HW130188   2.294   2.077   1.747
 9763SOL    HW230189   2.247   1.944   1.666
 9764SOL     OW30190   1.180   2.754   4.130
 9764SOL    HW130191   1.191   2.655   4.125
 9764SOL    HW230192   1.193   2.784   4.225
 9765SOL     OW30193   0.264   1.402   5.440
 9765SOL    HW130194   0.188   1.468   5.440
 9765SOL    HW230195   0.348   1.449   5.465
 9766SOL     OW30196   2.995   0.618   1.603
 9766SOL    HW130197   2.937   0.594   1.681
 9766SOL    HW230198   2.948   0.597   1.518
 9767SOL     OW30199   4.256   0.252   5.210
 9767SOL    HW130200   4.273   0.324   5.143
 9767SOL    HW230201   4.160   0.256   5.240
 9768SOL     OW30202   4.614   1.915   2.958
 9768SOL    HW130203   4.532   1.924   3.014
 9768SOL    HW230204   4.591   1.934   2.862
 9769SOL     OW30205   0.084   2.512   0.449
 9769SOL    HW130206   0.066   2.504   0.351
 9769SOL    HW230207   0.023   2.451   0.500
 9770SOL     OW30208   0.409   3.189   4.457
 9770SOL    HW130209   0.407   3.289   4.457
 9770SOL    HW230210   0.318   3.154   4.476
 9771SOL     OW30211   1.853   6.349   3.966
 9771SOL    HW130212   1.756   6.336   3.943
 9771SOL    HW230213   1.874   6.447   3.964
 9772SOL     OW30214   5.832   6.325   1.282
 9772SOL    HW130215   5.864   6.360   1.370
 9772SOL    HW230216   5.868   6.384   1.209
 9773SOL     OW30217   5.337   5.292   3.840
 9773SOL    HW130218   5.246   5.307   3.880
 9773SOL    HW230219   5.340   5.202   3.796
 9774SOL     OW30220   6.416   6.107   4.183
 9774SOL    HW130221   6.483   6.092   4.256
 9774SOL    HW230222   6.420   6.203   4.154
 9775SOL     OW30223   2.880   1.492   4.557
 9775SOL    HW130224   2.867   1.568   4.493
 9775SOL    HW230225   2.973   1.456   4.548
 9776SOL     OW30226   0.632   4.590   4.526
 9776SOL    HW130227   0.581   4.530   4.465
 9776SOL    HW230228   0.630   4.553   4.619
 9777SOL     OW30229   4.904   5.807   6.133
 9777SOL    HW130230   4.932   5.743   6.062
 9777SOL    HW230231   4.828   5.863   6.099
 9778SOL     OW30232   2.963   0.694   4.606
 9778SOL    HW130233   2.995   0.755   4.534
 9778SOL    HW230234   2.863   0.689   4.603
 9779SOL     OW30235   3.411   2.141   6.749
 9779SOL    HW130236   3.489   2.099   6.796
 9779SOL    HW230237   3.401   2.101   6.658
 9780SOL     OW30238   1.892   3.198   1.357
 9780SOL    HW130239   1.885   3.214   1.456
 9780SOL    HW230240   1.824   3.131   1.329
 9781SOL     OW30241   0.185   0.422   4.222
 9781SOL    HW130242   0.274   0.455   4.190
 9781SOL    HW230243   0.184   0.421   4.322
 9782SOL     OW30244   5.650   0.433   0.707
 9782SOL    HW130245   5.702   0.355   0.672
 9782SOL    HW230246   5.663   0.512   0.647
 9783SOL     OW30247   6.176   6.902   3.874
 9783SOL    HW130248   6.115   6.953   3.813
 9783SOL    HW230249   6.146   6.913   3.968
 9784SOL     OW30250   4.834   0.613   4.670
 9784SOL    HW130251   4.834   0.515   4.648
 9784SOL    HW230252   4.743   0.640   4.699
 9785SOL     OW30253   1.303   1.828   0.555
 9785SOL    HW130254   1.347   1.849   0.643
 9785SOL    HW230255   1.353   1.873   0.481
 9786SOL     OW30256   1.613   0.228   3.435
 9786SOL    HW130257   1.616   0.316   3.388
 9786SOL    HW230258   1.589   0.156   3.371
 9787SOL     OW30259   6.154   3.746   0.873
 9787SOL    HW130260   6.103   3.798   0.942
 9787SOL    HW230261   6.237   3.796   0.848
 9788SOL     OW30262   0.005   0.128   6.452
 9788SOL    HW130263   0.056   0.085   6.526
 9788SOL    HW230264   0.006   0.069   6.371
 9789SOL     OW30265   2.019   4.464   4.166
 9789SOL    HW130266   1.957   4.387   4.181
 9789SOL    HW230267   2.091   4.463   4.236
 9790SOL     OW30268   0.686   0.868   3.758
 9790SOL    HW130269   0.603   0.917   3.783
 9790SOL    HW230270   0.730   0.832   3.840
 9791SOL     OW30271   1.366   2.154   0.370
 9791SOL    HW130272   1.315   2.073   0.342
 9791SOL    HW230273   1.302   2.230   0.384
 9792SOL     OW30274   4.711   5.306   2.883
 9792SOL    HW130275   4.702   5.232   2.816
 9792SOL    HW230276   4.785   5.367   2.856
 9793SOL     OW30277   5.098   6.021   2.118
 9793SOL    HW130278   5.140   5.958   2.183
 9793SOL    HW230279   5.076   5.971   2.034
 9794SOL     OW30280   3.614   4.370   6.976
 9794SOL    HW130281   3.591   4.333   0.045
 9794SOL    HW230282   3.569   4.315   6.905
 9795SOL     OW30283   2.144   4.789   3.009
 9795SOL    HW130284   2.223   4.848   2.991
 9795SOL    HW230285   2.121   4.794   3.107
 9796SOL     OW30286   4.062   5.198   6.356
 9796SOL    HW130287   4.118   5.280   6.364
 9796SOL    HW230288   3.994   5.196   6.429
 9797SOL     OW30289   6.215   3.271   5.064
 9797SOL    HW130290   6.160   3.240   5.142
 9797SOL    HW230291   6.312   3.274   5.091
 9798SOL     OW30292   3.268   1.242   1.692
 9798SOL    HW130293   3.244   1.170   1.627
 9798SOL    HW230294   3.331   1.206   1.760
 9799SOL     OW30295   3.963   3.835   3.305
 9799SOL    HW130296   3.941   3.887   3.222
 9799SOL    HW230297   3.952   3.894   3.385
 9800SOL     OW30298   4.227   6.466   0.474
 9800SOL    HW130299   4.199   6.561   0.456
 9800SOL    HW230300   4.234   6.416   0.388
 9801SOL     OW30301   5.807   5.075   1.637
 9801SOL    HW130302   5.865   5.061   1.718
 9801SOL    HW230303   5.785   4.986   1.596
 9802SOL     OW30304   0.737   6.191   2.151
 9802SOL    HW130305   0.723   6.204   2.053
 9802SOL    HW230306   0.651   6.206   2.199
 9803SOL     OW30307   5.460   0.248   6.305
 9803SOL    HW130308   5.523   0.326   6.308
 9803SOL    HW230309   5.405   0.247   6.388
 9804SOL     OW30310   5.121   5.857   4.025
 9804SOL    HW130311   5.133   5.774   3.972
 9804SOL    HW230312   5.177   5.930   3.986
 9805SOL     OW30313   3.614   4.363   0.419
 9805SOL    HW130314   3.589   4.355   0.515
 9805SOL    HW230315   3.698   4.416   0.410
 9806SOL     OW30316   0.521   1.239   3.085
 9806SOL    HW130317   0.533   1.271   2.991
 9806SOL    HW230318   0.430   1.265   3.117
 9807SOL     OW30319   1.972   3.956   0.962
 9807SOL    HW130320   2.071   3.971   0.971
 9807SOL    HW230321   1.941   3.898   1.038
 9808SOL     OW30322   2.711   2.058   2.841
 9808SOL    HW130323   2.633   2.079   2.782
 9808SOL    HW230324   2.771   1.993   2.794
 9809SOL     OW30325   0.502   0.205   4.034
 9809SOL    HW130326   0.529   0.291   4.078
 9809SOL    HW230327   0.478   0.138   4.103
 9810SOL     OW30328   5.022   1.595   2.846
 9810SOL    HW130329   4.976   1.665   2.901
 9810SOL    HW230330   4.979   1.590   2.756
 9811SOL     OW30331   1.371   0.186   2.800
 9811SOL    HW130332   1.395   0.181   2.897
 9811SOL    HW230333   1.336   0.278   2.779
 9812SOL     OW30334   5.992   2.751   6.653
 9812SOL    HW130335   6.003   2.663   6.606
 9812SOL    HW230336   5.933   2.739   6.733
 9813SOL     OW30337   6.319   4.304   0.215
 9813SOL    HW130338   6.224   4.320   0.190
 9813SOL    HW230339   6.323   4.266   0.307
 9814SOL     OW30340   6.496   1.418   5.702
 9814SOL    HW130341   6.552   1.451   5.626
 9814SOL    HW230342   6.438   1.492   5.736
 9815SOL     OW30343   0.219   5.433   2.118
 9815SOL    HW130344   0.264   5.349   2.147
 9815SOL    HW230345   0.134   5.445   2.169
 9816SOL     OW30346   0.034   2.130   5.267
 9816SOL    HW130347   7.012   2.147   5.356
 9816SOL    HW230348   0.133   2.131   5.277
 9817SOL     OW30349   2.197   2.134   0.304
 9817SOL    HW130350   2.255   2.191   0.363
 9817SOL    HW230351   2.175   2.049   0.353
 9818SOL     OW30352   0.389   0.397   2.498
 9818SOL    HW130353   0.443   0.468   2.453
 9818SOL    HW230354   0.350   0.336   2.428
 9819SOL     OW30355   6.058   1.156   5.033
 9819SOL    HW130356   6.153   1.147   5.004
 9819SOL    HW230357   6.049   1.129   5.129
 9820SOL     OW30358   3.286   0.822   6.689
 9820SOL    HW130359   3.351   0.788   6.621
 9820SOL    HW230360   3.295   0.921   6.696
 9821SOL     OW30361   4.536   4.303   6.636
 9821SOL    HW130362   4.523   4.240   6.560
 9821SOL    HW230363   4.539   4.252   6.722
 9822SOL     OW30364   3.070   6.753   3.834
 9822SOL    HW130365   3.146   6.700   3.873
 9822SOL    HW230366   3.090   6.850   3.842
 9823SOL     OW30367   4.030   5.795   2.845
 9823SOL    HW130368   3.993   5.881   2.881
 9823SOL    HW230369   4.125   5.809   2.816
 9824SOL     OW30370   1.653   6.179   5.393
 9824SOL    HW130371   1.708   6.106   5.434
 9824SOL    HW230372   1.557   6.168   5.420
 9825SOL     OW30373   0.398   6.274   4.493
 9825SOL    HW130374   0.451   6.352   4.461
 9825SOL    HW230375   0.391   6.276   4.593
 9826SOL     OW30376   1.426   6.125   5.027
 9826SOL    HW130377   1.421   6.047   5.088
 9826SOL    HW230378   1.454   6.206   5.078
 9827SOL     OW30379   1.409   4.798   1.594
 9827SOL    HW130380   1.439   4.742   1.516
 9827SOL    HW230381   1.383   4.889   1.562
 9828SOL     OW30382   4.950   2.220   4.339
 9828SOL    HW130383   4.868   2.223   4.396
 9828SOL    HW230384   4.958   2.304   4.286
 9829SOL     OW30385   5.653   3.892   5.590
 9829SOL    HW130386   5.630   3.933   5.678
 9829SOL    HW230387   5.576   3.904   5.527
 9830SOL     OW30388   5.789   0.825   3.341
 9830SOL    HW130389   5.855   0.818   3.415
 9830SOL    HW230390   5.809   0.756   3.271
 9831SOL     OW30391   0.734   4.799   1.108
 9831SOL    HW130392   0.815   4.821   1.161
 9831SOL    HW230393   0.668   4.874   1.116
 9832SOL     OW30394   5.482   5.879   5.346
 9832SOL    HW130395   5.577   5.909   5.352
 9832SOL    HW230396   5.422   5.959   5.342
 9833SOL     OW30397   3.509   2.875   4.336
 9833SOL    HW130398   3.573   2.859   4.411
 9833SOL    HW230399   3.559   2.877   4.250
 9834SOL     OW30400   3.271   5.882   5.884
 9834SOL    HW130401   3.328   5.963   5.873
 9834SOL    HW230402   3.242   5.849   5.794
 9835SOL     OW30403   3.510   2.948   3.968
 9835SOL    HW130404   3.518   2.884   3.892
 9835SOL    HW230405   3.594   3.003   3.973
 9836SOL     OW30406   6.508   2.860   6.551
 9836SOL    HW130407   6.607   2.867   6.564
 9836SOL    HW230408   6.487   2.780   6.495
 9837SOL     OW30409   6.389   0.552   4.649
 9837SOL    HW130410   6.331   0.497   4.709
 9837SOL    HW230411   6.428   0.628   4.701
 9838SOL     OW30412   0.218   5.953   1.117
 9838SOL    HW130413   0.170   5.925   1.034
 9838SOL    HW230414   0.313   5.977   1.095
 9839SOL     OW30415   3.730   6.650   3.870
 9839SOL    HW130416   3.800   6.685   3.808
 9839SOL    HW230417   3.691   6.726   3.922
 9840SOL     OW30418   6.242   2.169   5.686
 9840SOL    HW130419   6.170   2.136   5.624
 9840SOL    HW230420   6.226   2.266   5.706
 9841SOL     OW30421   6.846   5.683   2.320
 9841SOL    HW130422   6.819   5.740   2.243
 9841SOL    HW230423   6.771   5.677   2.386
 9842SOL     OW30424   4.299   0.436   0.333
 9842SOL    HW130425   4.249   0.481   0.407
 9842SOL    HW230426   4.391   0.475   0.327
 9843SOL     OW30427   0.364   0.152   0.591
 9843SOL    HW130428   0.423   0.209   0.647
 9843SOL    HW230429   0.302   0.210   0.538
 9844SOL     OW30430   5.786   1.020   4.690
 9844SOL    HW130431   5.722   0.952   4.725
 9844SOL    HW230432   5.756   1.053   4.601
 9845SOL     OW30433   1.079   3.381   2.276
 9845SOL    HW130434   1.170   3.356   2.309
 9845SOL    HW230435   1.010   3.337   2.334
 9846SOL     OW30436   5.769   2.050   2.973
 9846SOL    HW130437   5.757   2.041   2.875
 9846SOL    HW230438   5.837   2.121   2.993
 9847SOL     OW30439   3.996   3.540   6.801
 9847SOL    HW130440   4.096   3.536   6.800
 9847SOL    HW230441   3.965   3.631   6.774
 9848SOL     OW30442   2.729   3.890   6.230
 9848SOL    HW130443   2.792   3.822   6.193
 9848SOL    HW230444   2.777   3.977   6.243
 9849SOL     OW30445   1.601   1.735   2.211
 9849SOL    HW130446   1.637   1.643   2.224
 9849SOL    HW230447   1.634   1.794   2.286
 9850SOL     OW30448   2.010   0.822   4.048
 9850SOL    HW130449   2.053   0.769   4.121
 9850SOL    HW230450   1.931   0.871   4.084
 9851SOL     OW30451   3.535   6.018   3.773
 9851SOL    HW130452   3.440   5.994   3.791
 9851SOL    HW230453   3.594   5.940   3.796
 9852SOL     OW30454   2.267   0.643   6.508
 9852SOL    HW130455   2.364   0.661   6.494
 9852SOL    HW230456   2.238   0.682   6.596
 9853SOL     OW30457   0.350   3.943   3.527
 9853SOL    HW130458   0.402   3.905   3.603
 9853SOL    HW230459   0.252   3.939   3.548
 9854SOL     OW30460   6.261   3.754   0.008
 9854SOL    HW130461   6.324   3.752   6.951
 9854SOL    HW230462   6.272   3.670   0.062
 9855SOL     OW30463   0.430   6.447   0.699
 9855SOL    HW130464   0.472   6.538   0.691
 9855SOL    HW230465   0.352   6.452   0.762
 9856SOL     OW30466   4.490   4.450   3.133
 9856SOL    HW130467   4.461   4.360   3.102
 9856SOL    HW230468   4.519   4.445   3.229
 9857SOL     OW30469   4.308   6.790   5.758
 9857SOL    HW130470   4.308   6.755   5.664
 9857SOL    HW230471   4.264   6.880   5.759
 9858SOL     OW30472   6.730   5.597   2.792
 9858SOL    HW130473   6.778   5.661   2.853
 9858SOL    HW230474   6.633   5.618   2.792
 9859SOL     OW30475   0.452   6.916   2.858
 9859SOL    HW130476   0.404   6.981   2.916
 9859SOL    HW230477   0.393   6.838   2.839
 9860SOL     OW30478   1.152   3.767   3.447
 9860SOL    HW130479   1.164   3.667   3.450
 9860SOL    HW230480   1.130   3.801   3.538
 9861SOL     OW30481   4.021   2.192   4.337
 9861SOL    HW130482   4.031   2.196   4.238
 9861SOL    HW230483   3.925   2.176   4.360
 9862SOL     OW30484   1.183   2.955   6.368
 9862SOL    HW130485   1.137   2.870   6.394
 9862SOL    HW230486   1.253   2.935   6.298
 9863SOL     OW30487   3.994   5.941   1.733
 9863SOL    HW130488   3.956   5.849   1.722
 9863SOL    HW230489   4.079   5.935   1.785
 9864SOL     OW30490   3.042   6.066   5.138
 9864SOL    HW130491   3.002   6.030   5.054
 9864SOL    HW230492   2.972   6.070   5.209
 9865SOL     OW30493   2.417   4.786   6.242
 9865SOL    HW130494   2.322   4.817   6.239
 9865SOL    HW230495   2.465   4.834   6.316
 9866SOL     OW30496   0.712   5.708   5.338
 9866SOL    HW130497   0.618   5.740   5.343
 9866SOL    HW230498   0.729   5.670   5.247
 9867SOL     OW30499   5.190   1.375   2.659
 9867SOL    HW130500   5.126   1.451   2.664
 9867SOL    HW230501   5.264   1.397   2.596
 9868SOL     OW30502   2.384   4.983   3.147
 9868SOL    HW130503   2.310   5.042   3.180
 9868SOL    HW230504   2.386   4.986   3.047
 9869SOL     OW30505   5.951   1.699   2.724
 9869SOL    HW130506   5.878   1.752   2.682
 9869SOL    HW230507   5.962   1.728   2.819
 9870SOL     OW30508   2.186   2.868   2.710
 9870SOL    HW130509   2.229   2.942   2.761
 9870SOL    HW230510   2.109   2.831   2.762
 9871SOL     OW30511   5.913   5.227   3.118
 9871SOL    HW130512   5.977   5.220   3.195
 9871SOL    HW230513   5.822   5.248   3.152
 9872SOL     OW30514   0.552   6.477   4.397
 9872SOL    HW130515   0.483   6.516   4.336
 9872SOL    HW230516   0.586   6.548   4.459
 9873SOL     OW30517   0.414   0.597   5.060
 9873SOL    HW130518   0.365   0.676   5.097
 9873SOL    HW230519   0.512   0.618   5.055
 9874SOL     OW30520   6.871   2.179   4.135
 9874SOL    HW130521   6.842   2.224   4.050
 9874SOL    HW230522   6.809   2.204   4.209
 9875SOL     OW30523   5.642   5.807   0.694
 9875SOL    HW130524   5.686   5.863   0.624
 9875SOL    HW230525   5.654   5.850   0.784
 9876SOL     OW30526   0.821   0.365   2.670
 9876SOL    HW130527   0.896   0.330   2.727
 9876SOL    HW230528   0.847   0.454   2.632
 9877SOL     OW30529   1.730   5.787   5.035
 9877SOL    HW130530   1.639   5.824   5.048
 9877SOL    HW230531   1.795   5.863   5.024
 9878SOL     OW30532   4.614   4.260   0.609
 9878SOL    HW130533   4.594   4.197   0.534
 9878SOL    HW230534   4.676   4.332   0.577
 9879SOL     OW30535   5.636   5.461   4.346
 9879SOL    HW130536   5.587   5.546   4.330
 9879SOL    HW230537   5.733   5.474   4.328
 9880SOL     OW30538   2.583   1.345   0.707
 9880SOL    HW130539   2.555   1.414   0.641
 9880SOL    HW230540   2.553   1.255   0.676
 9881SOL     OW30541   6.448   0.503   2.692
 9881SOL    HW130542   6.365   0.500   2.636
 9881SOL    HW230543   6.424   0.489   2.788
 9882SOL     OW30544   3.155   3.836   4.609
 9882SOL    HW130545   3.092   3.873   4.676
 9882SOL    HW230546   3.111   3.835   4.519
 9883SOL     OW30547   0.990   5.318   2.626
 9883SOL    HW130548   0.896   5.293   2.600
 9883SOL    HW230549   1.023   5.255   2.696
 9884SOL     OW30550   3.553   2.774   5.400
 9884SOL    HW130551   3.512   2.865   5.398
 9884SOL    HW230552   3.491   2.708   5.358
 9885SOL     OW30553   4.978   2.117   5.150
 9885SOL    HW130554   4.957   2.148   5.057
 9885SOL    HW230555   4.951   2.188   5.215
 9886SOL     OW30556   2.416   6.006   1.193
 9886SOL    HW130557   2.433   5.907   1.195
 9886SOL    HW230558   2.322   6.022   1.163
 9887SOL     OW30559   3.987   1.588   6.993
 9887SOL    HW130560   4.009   1.491   6.978
 9887SOL    HW230561   4.030   1.620   0.057
 9888SOL     OW30562   6.075   6.847   4.171
 9888SOL    HW130563   6.159   6.870   4.219
 9888SOL    HW230564   6.040   6.760   4.206
 9889SOL     OW30565   6.488   5.983   2.240
 9889SOL    HW130566   6.432   5.930   2.176
 9889SOL    HW230567   6.540   5.921   2.298
 9890SOL     OW30568   1.674   3.077   3.189
 9890SOL    HW130569   1.611   3.155   3.193
 9890SOL    HW230570   1.768   3.109   3.200
 9891SOL     OW30571   3.668   0.093   1.954
 9891SOL    HW130572   3.714   0.026   1.897
 9891SOL    HW230573   3.718   0.180   1.952
 9892SOL     OW30574   1.909   5.878   2.969
 9892SOL    HW130575   1.901   5.977   2.986
 9892SOL    HW230576   1.922   5.831   3.055
 9893SOL     OW30577   5.438   4.867   4.722
 9893SOL    HW130578   5.454   4.930   4.646
 9893SOL    HW230579   5.482   4.902   4.804
 9894SOL     OW30580   4.961   3.409   5.916
 9894SOL    HW130581   5.043   3.433   5.864
 9894SOL    HW230582   4.983   3.408   6.014
 9895SOL     OW30583   5.417   2.862   5.959
 9895SOL    HW130584   5.353   2.931   5.925
 9895SOL    HW230585   5.435   2.795   5.888
 9896SOL     OW30586   3.608   4.179   6.548
 9896SOL    HW130587   3.574   4.193   6.455
 9896SOL    HW230588   3.541   4.215   6.614
 9897SOL     OW30589   1.110   0.963   2.900
 9897SOL    HW130590   1.016   0.996   2.897
 9897SOL    HW230591   1.136   0.928   2.810
 9898SOL     OW30592   0.436   5.455   6.633
 9898SOL    HW130593   0.446   5.359   6.659
 9898SOL    HW230594   0.421   5.510   6.715
 9899SOL     OW30595   3.534   4.883   0.820
 9899SOL    HW130596   3.542   4.871   0.721
 9899SOL    HW230597   3.539   4.980   0.842
 9900SOL     OW30598   2.746   5.536   3.461
 9900SOL    HW130599   2.773   5.440   3.468
 9900SOL    HW230600   2.807   5.584   3.399
 9901SOL     OW30601   2.850   1.382   6.429
 9901SOL    HW130602   2.807   1.316   6.367
 9901SOL    HW230603   2.832   1.475   6.395
 9902SOL     OW30604   4.121   4.546   6.732
 9902SOL    HW130605   4.174   4.509   6.809
 9902SOL    HW230606   4.074   4.471   6.685
 9903SOL     OW30607   3.133   1.329   0.797
 9903SOL    HW130608   3.047   1.280   0.811
 9903SOL    HW230609   3.115   1.425   0.779
 9904SOL     OW30610   6.406   6.083   1.663
 9904SOL    HW130611   6.365   6.066   1.752
 9904SOL    HW230612   6.440   5.997   1.625
 9905SOL     OW30613   2.123   6.772   6.892
 9905SOL    HW130614   2.087   6.680   6.882
 9905SOL    HW230615   2.196   6.772   6.961
 9906SOL     OW30616   2.933   3.737   6.577
 9906SOL    HW130617   2.961   3.780   6.492
 9906SOL    HW230618   2.834   3.720   6.575
 9907SOL     OW30619   1.136   6.838   2.898
 9907SOL    HW130620   1.145   6.795   2.987
 9907SOL    HW230621   1.204   6.911   2.889
 9908SOL     OW30622   0.029   3.024   6.094
 9908SOL    HW130623   0.069   2.932   6.096
 9908SOL    HW230624   6.961   3.022   6.140
 9909SOL     OW30625   2.188   6.031   2.900
 9909SOL    HW130626   2.122   5.956   2.914
 9909SOL    HW230627   2.279   5.992   2.885
 9910SOL     OW30628   0.998   5.562   0.459
 9910SOL    HW130629   0.989   5.541   0.361
 9910SOL    HW230630   0.911   5.542   0.505
 9911SOL     OW30631   2.852   4.748   1.740
 9911SOL    HW130632   2.843   4.818   1.810
 9911SOL    HW230633   2.825   4.659   1.777
 9912SOL     OW30634   6.159   6.460   0.343
 9912SOL    HW130635   6.159   6.481   0.441
 9912SOL    HW230636   6.155   6.546   0.291
 9913SOL     OW30637   6.641   1.850   1.657
 9913SOL    HW130638   6.543   1.836   1.643
 9913SOL    HW230639   6.691   1.771   1.624
 9914SOL     OW30640   1.984   5.612   3.548
 9914SOL    HW130641   1.986   5.532   3.608
 9914SOL    HW230642   2.073   5.658   3.550
 9915SOL     OW30643   6.182   4.945   4.274
 9915SOL    HW130644   6.273   4.985   4.258
 9915SOL    HW230645   6.113   5.015   4.262
 9916SOL     OW30646   1.602   3.270   1.415
 9916SOL    HW130647   1.561   3.180   1.429
 9916SOL    HW230648   1.531   3.341   1.420
 9917SOL     OW30649   1.890   4.237   4.483
 9917SOL    HW130650   1.830   4.250   4.562
 9917SOL    HW230651   1.979   4.277   4.502
 9918SOL     OW30652   2.544   1.822   4.054
 9918SOL    HW130653   2.577   1.914   4.036
 9918SOL    HW230654   2.466   1.825   4.116
 9919SOL     OW30655   0.738   5.827   1.505
 9919SOL    HW130656   0.714   5.822   1.602
 9919SOL    HW230657   0.670   5.882   1.457
 9920SOL     OW30658   3.625   0.580   3.079
 9920SOL    HW130659   3.616   0.608   2.983
 9920SOL    HW230660   3.552   0.622   3.133
 9921SOL     OW30661   4.550   0.171   2.542
 9921SOL    HW130662   4.542   0.073   2.525
 9921SOL    HW230663   4.631   0.207   2.497
 9922SOL     OW30664   6.216   2.664   2.124
 9922SOL    HW130665   6.174   2.646   2.036
 9922SOL    HW230666   6.173   2.745   2.165
 9923SOL     OW30667   5.685   6.992   6.216
 9923SOL    HW130668   5.615   0.030   6.177
 9923SOL    HW230669   5.662   6.971   6.311
 9924SOL     OW30670   5.849   6.907   3.999
 9924SOL    HW130671   5.839   6.810   3.974
 9924SOL    HW230672   5.891   6.913   4.089
 9925SOL     OW30673   4.003   2.168   5.015
 9925SOL    HW130674   4.067   2.243   5.000
 9925SOL    HW230675   3.933   2.197   5.080
 9926SOL     OW30676   1.505   1.244   5.984
 9926SOL    HW130677   1.518   1.214   6.078
 9926SOL    HW230678   1.582   1.302   5.957
 9927SOL     OW30679   2.298   4.237   4.329
 9927SOL    HW130680   2.263   4.194   4.413
 9927SOL    HW230681   2.260   4.329   4.320
 9928SOL     OW30682   6.563   3.361   3.074
 9928SOL    HW130683   6.621   3.316   3.142
 9928SOL    HW230684   6.578   3.320   2.985
 9929SOL     OW30685   1.086   4.858   5.286
 9929SOL    HW130686   1.158   4.815   5.232
 9929SOL    HW230687   1.124   4.890   5.373
 9930SOL     OW30688   6.766   6.493   6.847
 9930SOL    HW130689   6.744   6.405   6.805
 9930SOL    HW230690   6.827   6.478   6.925
 9931SOL     OW30691   1.230   4.012   6.928
 9931SOL    HW130692   1.155   3.947   6.915
 9931SOL    HW230693   1.245   4.027   0.005
 9932SOL     OW30694   2.036   1.669   1.062
 9932SOL    HW130695   1.952   1.719   1.086
 9932SOL    HW230696   2.017   1.609   0.985
 9933SOL     OW30697   1.811   1.672   3.286
 9933SOL    HW130698   1.892   1.614   3.295
 9933SOL    HW230699   1.836   1.767   3.300
 9934SOL     OW30700   4.671   0.436   5.587
 9934SOL    HW130701   4.663   0.348   5.634
 9934SOL    HW230702   4.688   0.508   5.654
 9935SOL     OW30703   3.502   2.659   6.868
 9935SOL    HW130704   3.553   2.614   6.794
 9935SOL    HW230705   3.524   2.756   6.869
 9936SOL     OW30706   4.740   6.103   0.494
 9936SOL    HW130707   4.739   6.031   0.563
 9936SOL    HW230708   4.727   6.063   0.403
 9937SOL     OW30709   1.110   0.117   5.192
 9937SOL    HW130710   1.047   0.083   5.262
 9937SOL    HW230711   1.059   0.162   5.120
 9938SOL     OW30712   1.367   1.748   3.318
 9938SOL    HW130713   1.404   1.801   3.395
 9938SOL    HW230714   1.431   1.752   3.242
 9939SOL     OW30715   3.220   3.807   0.547
 9939SOL    HW130716   3.286   3.827   0.474
 9939SOL    HW230717   3.153   3.881   0.552
 9940SOL     OW30718   6.054   1.235   2.990
 9940SOL    HW130719   6.135   1.179   2.976
 9940SOL    HW230720   6.049   1.265   3.085
 9941SOL     OW30721   6.054   3.119   0.662
 9941SOL    HW130722   6.059   3.118   0.562
 9941SOL    HW230723   6.043   3.213   0.694
 9942SOL     OW30724   5.321   4.600   2.962
 9942SOL    HW130725   5.296   4.687   3.003
 9942SOL    HW230726   5.317   4.528   3.031
 9943SOL     OW30727   1.505   4.532   5.357
 9943SOL    HW130728   1.407   4.548   5.349
 9943SOL    HW230729   1.554   4.586   5.289
 9944SOL     OW30730   2.031   5.386   6.854
 9944SOL    HW130731   2.085   5.347   6.780
 9944SOL    HW230732   2.093   5.424   6.923
 9945SOL     OW30733   6.035   3.229   5.420
 9945SOL    HW130734   5.976   3.241   5.500
 9945SOL    HW230735   6.006   3.290   5.347
 9946SOL     OW30736   6.045   1.586   0.926
 9946SOL    HW130737   6.140   1.611   0.909
 9946SOL    HW230738   6.017   1.516   0.860
 9947SOL     OW30739   0.015   0.299   3.427
 9947SOL    HW130740   0.018   0.284   3.329
 9947SOL    HW230741   6.941   0.306   3.457
 9948SOL     OW30742   4.967   1.248   5.224
 9948SOL    HW130743   4.885   1.304   5.215
 9948SOL    HW230744   4.941   1.153   5.239
 9949SOL     OW30745   6.827   3.143   2.582
 9949SOL    HW130746   6.887   3.073   2.544
 9949SOL    HW230747   6.771   3.182   2.509
 9950SOL     OW30748   5.077   4.349   6.539
 9950SOL    HW130749   5.130   4.268   6.513
 9950SOL    HW230750   5.006   4.323   6.605
 9951SOL     OW30751   6.552   2.290   2.586
 9951SOL    HW130752   6.649   2.304   2.602
 9951SOL    HW230753   6.499   2.349   2.647
 9952SOL     OW30754   1.502   4.698   1.356
 9952SOL    HW130755   1.484   4.604   1.383
 9952SOL    HW230756   1.450   4.720   1.274
 9953SOL     OW30757   6.407   4.095   5.303
 9953SOL    HW130758   6.356   4.180   5.293
 9953SOL    HW230759   6.496   4.114   5.344
 9954SOL     OW30760   4.388   2.444   1.753
 9954SOL    HW130761   4.462   2.475   1.812
 9954SOL    HW230762   4.326   2.520   1.733
 9955SOL     OW30763   6.078   4.610   2.387
 9955SOL    HW130764   6.148   4.575   2.451
 9955SOL    HW230765   6.057   4.539   2.320
 9956SOL     OW30766   1.628   4.696   3.384
 9956SOL    HW130767   1.676   4.608   3.377
 9956SOL    HW230768   1.604   4.728   3.292
 9957SOL     OW30769   5.654   6.797   0.812
 9957SOL    HW130770   5.638   6.886   0.771
 9957SOL    HW230771   5.657   6.806   0.912
 9958SOL     OW30772   6.269   6.392   5.402
 9958SOL    HW130773   6.324   6.471   5.428
 9958SOL    HW230774   6.186   6.424   5.355
 9959SOL     OW30775   5.960   5.403   7.014
 9959SOL    HW130776   5.942   5.327   0.056
 9959SOL    HW230777   6.055   5.399   6.984
 9960SOL     OW30778   6.324   0.420   6.463
 9960SOL    HW130779   6.387   0.353   6.502
 9960SOL    HW230780   6.373   0.506   6.447
 9961SOL     OW30781   2.875   6.925   6.962
 9961SOL    HW130782   2.887   6.958   0.035
 9961SOL    HW230783   2.962   6.893   6.926
 9962SOL     OW30784   4.335   1.161   2.067
 9962SOL    HW130785   4.386   1.247   2.065
 9962SOL    HW230786   4.274   1.157   1.988
 9963SOL     OW30787   0.403   0.519   6.423
 9963SOL    HW130788   0.460   0.441   6.399
 9963SOL    HW230789   0.307   0.492   6.422
 9964SOL     OW30790   4.817   5.532   5.181
 9964SOL    HW130791   4.812   5.433   5.174
 9964SOL    HW230792   4.727   5.569   5.204
 9965SOL     OW30793   1.932   5.080   5.088
 9965SOL    HW130794   1.948   5.119   4.997
 9965SOL    HW230795   1.911   5.154   5.152
 9966SOL     OW30796   1.787   4.232   1.839
 9966SOL    HW130797   1.699   4.208   1.879
 9966SOL    HW230798   1.821   4.317   1.880
 9967SOL     OW30799   6.648   0.759   2.253
 9967SOL    HW130800   6.674   0.798   2.164
 9967SOL    HW230801   6.670   0.662   2.255
 9968SOL     OW30802   4.325   6.029   6.625
 9968SOL    HW130803   4.380   5.945   6.630
 9968SOL    HW230804   4.385   6.108   6.629
 9969SOL     OW30805   0.892   6.828   2.726
 9969SOL    HW130806   0.976   6.830   2.779
 9969SOL    HW230807   0.835   6.752   2.757
 9970SOL     OW30808   0.514   3.460   1.630
 9970SOL    HW130809   0.610   3.469   1.653
 9970SOL    HW230810   0.503   3.458   1.531
 9971SOL     OW30811   0.364   5.591   5.833
 9971SOL    HW130812   0.444   5.532   5.821
 9971SOL    HW230813   0.287   5.536   5.865
 9972SOL     OW30814   3.046   4.758   5.714
 9972SOL    HW130815   3.089   4.811   5.787
 9972SOL    HW230816   2.948   4.750   5.733
 9973SOL     OW30817   3.418   2.082   2.692
 9973SOL    HW130818   3.325   2.065   2.727
 9973SOL    HW230819   3.414   2.101   2.594
 9974SOL     OW30820   0.729   3.766   3.002
 9974SOL    HW130821   0.745   3.851   3.050
 9974SOL    HW230822   0.631   3.751   2.991
 9975SOL     OW30823   1.494   4.820   7.006
 9975SOL    HW130824   1.574   4.850   0.037
 9975SOL    HW230825   1.517   4.736   6.955
 9976SOL     OW30826   4.517   5.520   4.766
 9976SOL    HW130827   4.524   5.463   4.684
 9976SOL    HW230828   4.445   5.588   4.753
 9977SOL     OW30829   3.860   6.976   5.813
 9977SOL    HW130830   3.765   6.952   5.793
 9977SOL    HW230831   3.917   6.957   5.734
 9978SOL     OW30832   6.373   3.212   0.087
 9978SOL    HW130833   6.449   3.274   0.109
 9978SOL    HW230834   6.395   3.162   0.003
 9979SOL     OW30835   3.382   4.080   3.950
 9979SOL    HW130836   3.290   4.043   3.960
 9979SOL    HW230837   3.409   4.126   4.035
 9980SOL     OW30838   0.583   0.132   6.941
 9980SOL    HW130839   0.639   0.072   6.998
 9980SOL    HW230840   0.515   0.079   6.892
 9981SOL     OW30841   5.544   1.269   1.361
 9981SOL    HW130842   5.529   1.185   1.415
 9981SOL    HW230843   5.458   1.296   1.318
 9982SOL     OW30844   2.726   0.765   5.654
 9982SOL    HW130845   2.667   0.787   5.576
 9982SOL    HW230846   2.707   0.671   5.684
 9983SOL     OW30847   0.551   2.455   2.003
 9983SOL    HW130848   0.506   2.544   1.992
 9983SOL    HW230849   0.642   2.469   2.042
 9984SOL     OW30850   1.622   4.697   0.858
 9984SOL    HW130851   1.569   4.685   0.774
 9984SOL    HW230852   1.562   4.727   0.931
 9985SOL     OW30853   5.710   4.513   6.236
 9985SOL    HW130854   5.648   4.445   6.196
 9985SOL    HW230855   5.681   4.605   6.210
 9986SOL     OW30856   5.733   4.222   0.059
 9986SOL    HW130857   5.797   4.146   0.074
 9986SOL    HW230858   5.785   4.307   0.049
 9987SOL     OW30859   4.934   1.649   0.840
 9987SOL    HW130860   4.999   1.680   0.909
 9987SOL    HW230861   4.978   1.649   0.750
 9988SOL     OW30862   5.459   6.632   4.223
 9988SOL    HW130863   5.392   6.693   4.266
 9988SOL    HW230864   5.452   6.541   4.265
 9989SOL     OW30865   6.561   5.170   1.728
 9989SOL    HW130866   6.535   5.259   1.692
 9989SOL    HW230867   6.654   5.174   1.766
 9990SOL     OW30868   0.328   6.321   2.846
 9990SOL    HW130869   0.404   6.307   2.782
 9990SOL    HW230870   0.360   6.307   2.940
 9991SOL     OW30871   2.114   3.246   2.041
 9991SOL    HW130872   2.015   3.259   2.038
 9991SOL    HW230873   2.160   3.330   2.011
 9992SOL     OW30874   1.997   3.972   0.328
 9992SOL    HW130875   2.061   4.029   0.381
 9992SOL    HW230876   1.907   3.976   0.370
 9993SOL     OW30877   3.754   0.236   4.503
 9993SOL    HW130878   3.842   0.241   4.456
 9993SOL    HW230879   3.697   0.314   4.475
 9994SOL     OW30880   5.692   4.728   5.555
 9994SOL    HW130881   5.726   4.807   5.504
 9994SOL    HW230882   5.593   4.735   5.566
 9995SOL     OW30883   3.978   1.657   6.059
 9995SOL    HW130884   3.932   1.663   5.971
 9995SOL    HW230885   4.077   1.667   6.046
 9996SOL     OW30886   2.745   4.575   1.312
 9996SOL    HW130887   2.701   4.506   1.370
 9996SOL    HW230888   2.801   4.635   1.369
 9997SOL     OW30889   5.470   0.389   2.912
 9997SOL    HW130890   5.472   0.382   3.012
 9997SOL    HW230891   5.541   0.330   2.873
 9998SOL     OW30892   5.479   3.840   2.319
 9998SOL    HW130893   5.559   3.875   2.273
 9998SOL    HW230894   5.481   3.867   2.416
 9999SOL     OW30895   0.768   0.290   4.841
 9999SOL    HW130896   0.797   0.195   4.848
 9999SOL    HW230897   0.687   0.296   4.781
10000SOL     OW30898   4.577   3.372   1.663
10000SOL    HW130899   4.550   3.276   1.656
10000SOL    HW230900   4.495   3.428   1.673
10001SOL     OW30901   3.879   6.473   1.275
10001SOL    HW130902   3.782   6.483   1.296
10001SOL    HW230903   3.893   6.392   1.218
10002SOL     OW30904   2.537   6.802   2.730
10002SOL    HW130905   2.524   6.887   2.782
10002SOL    HW230906   2.464   6.794   2.662
10003SOL     OW30907   0.950   1.499   3.014
10003SOL    HW130908   0.984   1.415   3.057
10003SOL    HW230909   0.850   1.495   3.007
10004SOL     OW30910   0.140   2.472   3.228
10004SOL    HW130911   0.211   2.476   3.298
10004SOL    HW230912   0.101   2.380   3.224
10005SOL     OW30913   2.169   6.050   2.510
10005SOL    HW130914   2.107   5.973   2.525
10005SOL    HW230915   2.211   6.076   2.597
10006SOL     OW30916   5.476   1.805   6.567
10006SOL    HW130917   5.406   1.763   6.625
10006SOL    HW230918   5.503   1.893   6.606
10007SOL     OW30919   1.870   5.051   3.311
10007SOL    HW130920   1.811   5.091   3.380
10007SOL    HW230921   1.852   5.095   3.222
10008SOL     OW30922   3.517   0.090   5.956
10008SOL    HW130923   3.530   0.045   6.044
10008SOL    HW230924   3.597   0.145   5.934
10009SOL     OW30925   1.242   5.560   1.625
10009SOL    HW130926   1.301   5.639   1.640
10009SOL    HW230927   1.150   5.591   1.600
10010SOL     OW30928   2.334   5.280   0.652
10010SOL    HW130929   2.306   5.195   0.696
10010SOL    HW230930   2.380   5.339   0.719
10011SOL     OW30931   3.141   3.304   6.896
10011SOL    HW130932   3.093   3.245   6.961
10011SOL    HW230933   3.129   3.269   6.803
10012SOL     OW30934   5.539   2.130   3.091
10012SOL    HW130935   5.474   2.141   3.016
10012SOL    HW230936   5.624   2.088   3.056
10013SOL     OW30937   7.001   5.967   5.574
10013SOL    HW130938   7.020   5.976   5.672
10013SOL    HW230939   6.935   5.894   5.558
10014SOL     OW30940   1.325   1.398   2.937
10014SOL    HW130941   1.359   1.331   2.871
10014SOL    HW230942   1.266   1.352   3.003
10015SOL     OW30943   3.983   0.820   0.114
10015SOL    HW130944   4.047   0.831   0.190
10015SOL    HW230945   3.990   0.726   0.078
10016SOL     OW30946   2.546   1.316   5.082
10016SOL    HW130947   2.529   1.397   5.137
10016SOL    HW230948   2.596   1.341   4.999
10017SOL     OW30949   3.303   1.637   3.188
10017SOL    HW130950   3.236   1.661   3.258
10017SOL    HW230951   3.354   1.719   3.161
10018SOL     OW30952   0.171   4.546   5.398
10018SOL    HW130953   0.081   4.588   5.389
10018SOL    HW230954   0.178   4.498   5.486
10019SOL     OW30955   0.377   1.806   2.669
10019SOL    HW130956   0.398   1.889   2.617
10019SOL    HW230957   0.456   1.745   2.667
10020SOL     OW30958   6.789   1.288   3.185
10020SOL    HW130959   6.698   1.251   3.168
10020SOL    HW230960   6.844   1.279   3.102
10021SOL     OW30961   2.309   4.013   1.915
10021SOL    HW130962   2.244   4.067   1.968
10021SOL    HW230963   2.283   3.916   1.918
10022SOL     OW30964   0.642   6.804   5.859
10022SOL    HW130965   0.562   6.864   5.859
10022SOL    HW230966   0.632   6.735   5.931
10023SOL     OW30967   1.252   1.437   4.698
10023SOL    HW130968   1.211   1.432   4.607
10023SOL    HW230969   1.347   1.407   4.694
10024SOL     OW30970   2.088   3.849   3.230
10024SOL    HW130971   2.121   3.855   3.324
10024SOL    HW230972   2.125   3.925   3.177
10025SOL     OW30973   0.497   2.652   1.292
10025SOL    HW130974   0.528   2.642   1.386
10025SOL    HW230975   0.417   2.713   1.289
10026SOL     OW30976   6.488   1.513   4.635
10026SOL    HW130977   6.518   1.473   4.548
10026SOL    HW230978   6.417   1.581   4.617
10027SOL     OW30979   3.455   1.182   5.867
10027SOL    HW130980   3.484   1.206   5.774
10027SOL    HW230981   3.359   1.155   5.865
10028SOL     OW30982   4.151   6.290   2.007
10028SOL    HW130983   4.075   6.327   2.062
10028SOL    HW230984   4.154   6.337   1.919
10029SOL     OW30985   6.999   4.882   3.930
10029SOL    HW130986   7.011   4.935   3.846
10029SOL    HW230987   0.051   4.813   3.936
10030SOL     OW30988   2.683   6.702   4.039
10030SOL    HW130989   2.723   6.709   3.948
10030SOL    HW230990   2.656   6.607   4.057
10031SOL     OW30991   1.778   6.653   3.787
10031SOL    HW130992   1.716   6.604   3.725
10031SOL    HW230993   1.757   6.751   3.785
10032SOL     OW30994   2.588   5.388   4.981
10032SOL    HW130995   2.555   5.452   4.912
10032SOL    HW230996   2.668   5.426   5.027
10033SOL     OW30997   1.989   1.513   4.634
10033SOL    HW130998   2.089   1.500   4.636
10033SOL    HW230999   1.964   1.556   4.547
10034SOL     OW31000   2.453   1.032   1.804
10034SOL    HW131001   2.448   0.934   1.823
10034SOL    HW231002   2.549   1.060   1.803
10035SOL     OW31003   0.569   2.664   2.285
10035SOL    HW131004   0.585   2.752   2.329
10035SOL    HW231005   0.506   2.675   2.208
10036SOL     OW31006   0.622   1.644   0.314
10036SOL    HW131007   0.639   1.632   0.216
10036SOL    HW231008   0.599   1.740   0.332
10037SOL     OW31009   6.178   0.901   6.056
10037SOL    HW131010   6.138   0.941   6.139
10037SOL    HW231011   6.197   0.973   5.990
10038SOL     OW31012   4.493   0.242   6.944
10038SOL    HW131013   4.550   0.160   6.955
10038SOL    HW231014   4.466   0.275   0.013
10039SOL     OW31015   0.087   4.476   1.050
10039SOL    HW131016   0.086   4.570   1.016
10039SOL    HW231017   0.049   4.415   0.980
10040SOL     OW31018   2.960   0.455   0.339
10040SOL    HW131019   2.975   0.366   0.381
10040SOL    HW231020   2.985   0.527   0.403
10041SOL     OW31021   5.786   4.467   5.898
10041SOL    HW131022   5.858   4.469   5.967
10041SOL    HW231023   5.797   4.384   5.842
10042SOL     OW31024   6.237   0.388   5.161
10042SOL    HW131025   6.222   0.331   5.080
10042SOL    HW231026   6.177   0.468   5.157
10043SOL     OW31027   0.710   0.375   3.085
10043SOL    HW131028   0.799   0.371   3.131
10043SOL    HW231029   0.643   0.416   3.147
10044SOL     OW31030   3.130   2.054   6.740
10044SOL    HW131031   3.080   2.141   6.730
10044SOL    HW231032   3.228   2.072   6.734
10045SOL     OW31033   3.960   0.043   4.640
10045SOL    HW131034   3.971   0.108   4.565
10045SOL    HW231035   3.867   0.049   4.676
10046SOL     OW31036   6.627   2.023   0.884
10046SOL    HW131037   6.641   2.067   0.795
10046SOL    HW231038   6.554   2.069   0.933
10047SOL     OW31039   0.912   2.549   3.019
10047SOL    HW131040   0.833   2.601   2.988
10047SOL    HW231041   0.882   2.459   3.050
10048SOL     OW31042   3.099   2.246   1.716
10048SOL    HW131043   3.043   2.312   1.768
10048SOL    HW231044   3.167   2.205   1.777
10049SOL     OW31045   1.118   5.323   4.594
10049SOL    HW131046   1.151   5.253   4.530
10049SOL    HW231047   1.036   5.290   4.639
10050SOL     OW31048   5.927   1.402   5.031
10050SOL    HW131049   5.856   1.393   4.962
10050SOL    HW231050   5.993   1.328   5.022
10051SOL     OW31051   6.106   1.906   0.655
10051SOL    HW131052   6.165   1.960   0.596
10051SOL    HW231053   6.037   1.860   0.600
10052SOL     OW31054   2.094   5.357   0.886
10052SOL    HW131055   2.060   5.384   0.795
10052SOL    HW231056   2.168   5.292   0.875
10053SOL     OW31057   2.970   6.317   3.401
10053SOL    HW131058   3.055   6.337   3.448
10053SOL    HW231059   2.904   6.390   3.418
10054SOL     OW31060   5.085   4.429   3.987
10054SOL    HW131061   5.031   4.350   4.017
10054SOL    HW231062   5.181   4.414   4.011
10055SOL     OW31063   5.007   2.672   6.979
10055SOL    HW131064   5.026   2.616   0.039
10055SOL    HW231065   4.914   2.710   6.986
10056SOL     OW31066   4.874   3.828   2.992
10056SOL    HW131067   4.842   3.846   3.085
10056SOL    HW231068   4.869   3.730   2.973
10057SOL     OW31069   2.125   2.469   2.796
10057SOL    HW131070   2.123   2.431   2.889
10057SOL    HW231071   2.203   2.433   2.746
10058SOL     OW31072   1.011   4.984   3.844
10058SOL    HW131073   0.959   4.948   3.922
10058SOL    HW231074   1.095   5.026   3.878
10059SOL     OW31075   4.442   6.257   1.808
10059SOL    HW131076   4.349   6.278   1.776
10059SOL    HW231077   4.501   6.240   1.729
10060SOL     OW31078   2.258   2.367   2.302
10060SOL    HW131079   2.314   2.372   2.385
10060SOL    HW231080   2.264   2.276   2.262
10061SOL     OW31081   0.141   1.741   5.535
10061SOL    HW131082   0.100   1.668   5.481
10061SOL    HW231083   0.138   1.717   5.632
10062SOL     OW31084   5.655   5.874   2.955
10062SOL    HW131085   5.560   5.851   2.932
10062SOL    HW231086   5.683   5.820   3.035
10063SOL     OW31087   0.967   2.717   2.312
10063SOL    HW131088   0.933   2.800   2.268
10063SOL    HW231089   1.062   2.730   2.340
10064SOL     OW31090   5.047   4.889   5.588
10064SOL    HW131091   4.996   4.804   5.579
10064SOL    HW231092   5.064   4.907   5.685
10065SOL     OW31093   0.358   0.290   2.744
10065SOL    HW131094   0.365   0.329   2.652
10065SOL    HW231095   0.449   0.267   2.777
10066SOL     OW31096   6.682   0.511   4.224
10066SOL    HW131097   6.613   0.550   4.162
10066SOL    HW231098   6.667   0.546   4.317
10067SOL     OW31099   4.756   6.599   3.061
10067SOL    HW131100   4.774   6.629   3.155
10067SOL    HW231101   4.674   6.645   3.027
10068SOL     OW31102   5.463   3.166   5.395
10068SOL    HW131103   5.487   3.242   5.455
10068SOL    HW231104   5.364   3.162   5.383
10069SOL     OW31105   4.755   1.334   4.486
10069SOL    HW131106   4.768   1.379   4.397
10069SOL    HW231107   4.755   1.235   4.473
10070SOL     OW31108   1.186   0.090   4.348
10070SOL    HW131109   1.204   7.013   4.337
10070SOL    HW231110   1.088   0.105   4.357
10071SOL     OW31111   4.763   4.677   5.119
10071SOL    HW131112   4.706   4.595   5.123
10071SOL    HW231113   4.721   4.750   5.172
10072SOL     OW31114   0.566   6.160   4.202
10072SOL    HW131115   0.548   6.062   4.215
10072SOL    HW231116   0.635   6.189   4.268
10073SOL     OW31117   6.745   6.880   6.512
10073SOL    HW131118   6.827   6.870   6.456
10073SOL    HW231119   6.745   6.811   6.584
10074SOL     OW31120   1.863   6.489   4.686
10074SOL    HW131121   1.901   6.415   4.631
10074SOL    HW231122   1.928   6.514   4.758
10075SOL     OW31123   1.008   2.516   4.455
10075SOL    HW131124   0.912   2.543   4.453
10075SOL    HW231125   1.058   2.576   4.519
10076SOL     OW31126   5.543   0.075   3.736
10076SOL    HW131127   5.589   0.079   3.825
10076SOL    HW231128   5.611   0.071   3.664
10077SOL     OW31129   2.750   1.185   5.593
10077SOL    HW131130   2.814   1.179   5.517
10077SOL    HW231131   2.657   1.172   5.560
10078SOL     OW31132   5.303   6.356   5.354
10078SOL    HW131133   5.386   6.372   5.407
10078SOL    HW231134   5.263   6.443   5.327
10079SOL     OW31135   0.613   3.140   6.055
10079SOL    HW131136   0.618   3.230   6.011
10079SOL    HW231137   0.553   3.080   6.001
10080SOL     OW31138   1.206   2.581   5.451
10080SOL    HW131139   1.197   2.669   5.404
10080SOL    HW231140   1.243   2.513   5.388
10081SOL     OW31141   0.583   0.950   0.474
10081SOL    HW131142   0.652   1.009   0.432
10081SOL    HW231143   0.573   0.867   0.420
10082SOL     OW31144   6.736   0.813   0.131
10082SOL    HW131145   6.826   0.839   0.166
10082SOL    HW231146   6.677   0.893   0.125
10083SOL     OW31147   5.778   1.293   4.816
10083SOL    HW131148   5.686   1.330   4.833
10083SOL    HW231149   5.770   1.208   4.764
10084SOL     OW31150   2.820   0.804   6.592
10084SOL    HW131151   2.883   0.746   6.645
10084SOL    HW231152   2.843   0.900   6.608
10085SOL     OW31153   0.847   5.705   2.808
10085SOL    HW131154   0.777   5.770   2.778
10085SOL    HW231155   0.828   5.676   2.901
10086SOL     OW31156   6.846   2.354   2.683
10086SOL    HW131157   6.879   2.301   2.605
10086SOL    HW231158   6.919   2.413   2.717
10087SOL     OW31159   1.920   0.264   3.500
10087SOL    HW131160   1.823   0.261   3.480
10087SOL    HW231161   1.971   0.224   3.424
10088SOL     OW31162   5.501   0.317   4.368
10088SOL    HW131163   5.402   0.317   4.357
10088SOL    HW231164   5.533   0.410   4.384
10089SOL     OW31165   2.339   2.708   2.320
10089SOL    HW131166   2.406   2.660   2.264
10089SOL    HW231167   2.332   2.665   2.409
10090SOL     OW31168   0.536   5.531   2.188
10090SOL    HW131169   0.452   5.482   2.165
10090SOL    HW231170   0.539   5.548   2.286
10091SOL     OW31171   0.899   1.225   4.548
10091SOL    HW131172   0.813   1.259   4.510
10091SOL    HW231173   0.967   1.217   4.475
10092SOL     OW31174   2.169   2.438   5.731
10092SOL    HW131175   2.212   2.487   5.655
10092SOL    HW231176   2.072   2.463   5.735
10093SOL     OW31177   6.893   6.802   5.603
10093SOL    HW131178   6.885   6.825   5.506
10093SOL    HW231179   6.834   6.862   5.657
10094SOL     OW31180   1.649   0.407   1.695
10094SOL    HW131181   1.684   0.455   1.615
10094SOL    HW231182   1.551   0.392   1.685
10095SOL     OW31183   0.491   2.510   5.084
10095SOL    HW131184   0.395   2.511   5.113
10095SOL    HW231185   0.542   2.578   5.138
10096SOL     OW31186   6.222   5.645   2.633
10096SOL    HW131187   6.161   5.714   2.597
10096SOL    HW231188   6.216   5.562   2.578
10097SOL     OW31189   1.300   2.570   5.872
10097SOL    HW131190   1.315   2.628   5.792
10097SOL    HW231191   1.237   2.617   5.935
10098SOL     OW31192   3.721   5.338   6.213
10098SOL    HW131193   3.625   5.363   6.223
10098SOL    HW231194   3.769   5.356   6.300
10099SOL     OW31195   0.775   3.732   4.051
10099SOL    HW131196   0.728   3.740   4.139
10099SOL    HW231197   0.727   3.786   3.982
10100SOL     OW31198   4.654   0.198   5.702
10100SOL    HW131199   4.608   0.217   5.789
10100SOL    HW231200   4.606   0.123   5.655
10101SOL     OW31201   6.965   4.451   2.285
10101SOL    HW131202   6.880   4.409   2.254
10101SOL    HW231203   0.018   4.428   2.220
10102SOL     OW31204   4.269   0.545   4.289
10102SOL    HW131205   4.279   0.455   4.331
10102SOL    HW231206   4.184   0.548   4.236
10103SOL     OW31207   0.282   2.841   0.639
10103SOL    HW131208   0.284   2.779   0.718
10103SOL    HW231209   0.373   2.875   0.621
10104SOL     OW31210   2.029   5.284   5.748
10104SOL    HW131211   1.942   5.300   5.701
10104SOL    HW231212   2.014   5.229   5.830
10105SOL     OW31213   3.876   0.621   6.875
10105SOL    HW131214   3.811   0.672   6.930
10105SOL    HW231215   3.847   0.526   6.868
10106SOL     OW31216   4.756   5.734   0.828
10106SOL    HW131217   4.763   5.645   0.783
10106SOL    HW231218   4.782   5.725   0.924
10107SOL     OW31219   5.743   1.194   6.387
10107SOL    HW131220   5.719   1.282   6.346
10107SOL    HW231221   5.769   1.130   6.315
10108SOL     OW31222   5.174   6.243   6.019
10108SOL    HW131223   5.209   6.336   6.034
10108SOL    HW231224   5.168   6.225   5.921
10109SOL     OW31225   5.146   6.011   3.702
10109SOL    HW131226   5.123   5.986   3.608
10109SOL    HW231227   5.213   5.946   3.738
10110SOL     OW31228   3.389   2.338   5.861
10110SOL    HW131229   3.449   2.418   5.853
10110SOL    HW231230   3.418   2.268   5.797
10111SOL     OW31231   6.908   2.651   1.495
10111SOL    HW131232   6.856   2.733   1.471
10111SOL    HW231233   6.847   2.582   1.534
10112SOL     OW31234   4.818   4.057   5.532
10112SOL    HW131235   4.721   4.074   5.515
10112SOL    HW231236   4.827   3.983   5.599
10113SOL     OW31237   2.962   7.007   1.076
10113SOL    HW131238   2.903   0.006   1.155
10113SOL    HW231239   2.997   6.914   1.082
10114SOL     OW31240   4.613   1.648   1.537
10114SOL    HW131241   4.707   1.679   1.554
10114SOL    HW231242   4.586   1.584   1.609
10115SOL     OW31243   1.340   1.708   4.749
10115SOL    HW131244   1.301   1.620   4.721
10115SOL    HW231245   1.287   1.782   4.707
10116SOL     OW31246   0.243   0.678   0.826
10116SOL    HW131247   0.178   0.704   0.755
10116SOL    HW231248   0.335   0.707   0.800
10117SOL     OW31249   4.109   6.841   6.126
10117SOL    HW131250   4.012   6.818   6.114
10117SOL    HW231251   4.118   6.902   6.204
10118SOL     OW31252   5.368   5.255   2.521
10118SOL    HW131253   5.324   5.167   2.540
10118SOL    HW231254   5.461   5.255   2.558
10119SOL     OW31255   1.932   0.095   6.580
10119SOL    HW131256   1.973   0.127   6.494
10119SOL    HW231257   1.962   0.154   6.655
10120SOL     OW31258   5.704   3.228   3.718
10120SOL    HW131259   5.764   3.149   3.722
10120SOL    HW231260   5.731   3.295   3.787
10121SOL     OW31261   5.956   4.560   4.073
10121SOL    HW131262   5.939   4.474   4.025
10121SOL    HW231263   5.869   4.606   4.091
10122SOL     OW31264   5.278   2.497   1.229
10122SOL    HW131265   5.321   2.449   1.305
10122SOL    HW231266   5.341   2.565   1.193
10123SOL     OW31267   0.427   6.455   0.418
10123SOL    HW131268   0.406   6.373   0.364
10123SOL    HW231269   0.414   6.436   0.515
10124SOL     OW31270   3.591   4.360   0.699
10124SOL    HW131271   3.523   4.308   0.752
10124SOL    HW231272   3.610   4.446   0.746
10125SOL     OW31273   2.471   0.780   6.724
10125SOL    HW131274   2.495   0.727   6.806
10125SOL    HW231275   2.526   0.749   6.647
10126SOL     OW31276   5.728   5.183   5.900
10126SOL    HW131277   5.816   5.172   5.854
10126SOL    HW231278   5.655   5.192   5.833
10127SOL     OW31279   3.992   4.905   5.250
10127SOL    HW131280   4.025   4.813   5.272
10127SOL    HW231281   3.912   4.926   5.306
10128SOL     OW31282   1.244   0.971   1.052
10128SOL    HW131283   1.266   0.951   1.148
10128SOL    HW231284   1.317   0.937   0.993
10129SOL     OW31285   5.573   2.744   2.945
10129SOL    HW131286   5.630   2.823   2.972
10129SOL    HW231287   5.602   2.712   2.855
10130SOL     OW31288   6.049   5.500   1.055
10130SOL    HW131289   5.962   5.519   1.101
10130SOL    HW231290   6.068   5.573   0.989
10131SOL     OW31291   0.682   0.356   0.052
10131SOL    HW131292   0.611   0.353   0.123
10131SOL    HW231293   0.652   0.302   6.994
10132SOL     OW31294   2.770   6.618   2.770
10132SOL    HW131295   2.679   6.658   2.784
10132SOL    HW231296   2.805   6.646   2.681
10133SOL     OW31297   6.281   4.459   2.535
10133SOL    HW131298   6.346   4.497   2.602
10133SOL    HW231299   6.226   4.388   2.579
10134SOL     OW31300   0.611   1.591   1.687
10134SOL    HW131301   0.603   1.684   1.649
10134SOL    HW231302   0.690   1.587   1.748
10135SOL     OW31303   3.335   6.336   2.790
10135SOL    HW131304   3.335   6.271   2.867
10135SOL    HW231305   3.361   6.288   2.706
10136SOL     OW31306   6.295   6.610   2.756
10136SOL    HW131307   6.240   6.692   2.771
10136SOL    HW231308   6.241   6.543   2.706
10137SOL     OW31309   5.669   4.675   4.467
10137SOL    HW131310   5.699   4.718   4.382
10137SOL    HW231311   5.569   4.670   4.468
10138SOL     OW31312   5.590   2.987   6.147
10138SOL    HW131313   5.612   2.918   6.217
10138SOL    HW231314   5.539   2.944   6.073
10139SOL     OW31315   4.066   3.173   3.271
10139SOL    HW131316   4.025   3.210   3.355
10139SOL    HW231317   4.040   3.078   3.260
10140SOL     OW31318   1.029   4.760   4.223
10140SOL    HW131319   1.063   4.681   4.172
10140SOL    HW231320   0.929   4.762   4.217
10141SOL     OW31321   2.079   0.650   3.666
10141SOL    HW131322   2.067   0.581   3.595
10141SOL    HW231323   2.176   0.655   3.691
10142SOL     OW31324   5.375   5.601   4.283
10142SOL    HW131325   5.441   5.668   4.248
10142SOL    HW231326   5.354   5.622   4.378
10143SOL     OW31327   4.558   6.435   1.354
10143SOL    HW131328   4.462   6.409   1.366
10143SOL    HW231329   4.574   6.460   1.258
10144SOL     OW31330   2.956   5.135   2.728
10144SOL    HW131331   2.934   5.079   2.649
10144SOL    HW231332   3.053   5.161   2.724
10145SOL     OW31333   2.651   7.007   6.484
10145SOL    HW131334   2.624   0.081   6.505
10145SOL    HW231335   2.573   6.960   6.443
10146SOL     OW31336   4.446   4.607   3.713
10146SOL    HW131337   4.472   4.574   3.803
10146SOL    HW231338   4.353   4.644   3.716
10147SOL     OW31339   5.134   5.385   4.776
10147SOL    HW131340   5.152   5.472   4.823
10147SOL    HW231341   5.072   5.329   4.831
10148SOL     OW31342   6.062   5.741   0.897
10148SOL    HW131343   6.025   5.777   0.811
10148SOL    HW231344   6.107   5.815   0.947
10149SOL     OW31345   3.807   2.664   1.524
10149SOL    HW131346   3.830   2.760   1.537
10149SOL    HW231347   3.736   2.656   1.454
10150SOL     OW31348   5.536   4.036   0.963
10150SOL    HW131349   5.577   4.054   1.052
10150SOL    HW231350   5.443   4.002   0.976
10151SOL     OW31351   0.557   5.106   6.217
10151SOL    HW131352   0.609   5.046   6.278
10151SOL    HW231353   0.549   5.197   6.257
10152SOL     OW31354   0.435   5.558   4.157
10152SOL    HW131355   0.510   5.608   4.114
10152SOL    HW231356   0.469   5.510   4.238
10153SOL     OW31357   5.590   5.310   3.936
10153SOL    HW131358   5.575   5.267   4.026
10153SOL    HW231359   5.506   5.304   3.882
10154SOL     OW31360   6.457   5.768   5.515
10154SOL    HW131361   6.469   5.712   5.434
10154SOL    HW231362   6.429   5.711   5.593
10155SOL     OW31363   4.156   1.189   5.730
10155SOL    HW131364   4.071   1.155   5.691
10155SOL    HW231365   4.191   1.123   5.796
10156SOL     OW31366   5.717   0.246   2.132
10156SOL    HW131367   5.746   0.214   2.223
10156SOL    HW231368   5.741   0.342   2.122
10157SOL     OW31369   5.222   0.503   3.749
10157SOL    HW131370   5.212   0.412   3.709
10157SOL    HW231371   5.151   0.564   3.712
10158SOL     OW31372   4.899   3.179   5.769
10158SOL    HW131373   4.921   3.274   5.791
10158SOL    HW231374   4.956   3.149   5.692
10159SOL     OW31375   1.144   0.697   6.575
10159SOL    HW131376   1.142   0.692   6.675
10159SOL    HW231377   1.226   0.747   6.546
10160SOL     OW31378   0.426   6.759   3.829
10160SOL    HW131379   0.384   6.848   3.841
10160SOL    HW231380   0.523   6.764   3.853
10161SOL     OW31381   2.762   5.457   5.156
10161SOL    HW131382   2.802   5.520   5.222
10161SOL    HW231383   2.810   5.369   5.161
10162SOL     OW31384   2.344   2.084   5.938
10162SOL    HW131385   2.412   2.014   5.963
10162SOL    HW231386   2.384   2.146   5.871
10163SOL     OW31387   0.621   3.257   5.381
10163SOL    HW131388   0.566   3.340   5.370
10163SOL    HW231389   0.717   3.279   5.368
10164SOL     OW31390   1.787   2.491   6.357
10164SOL    HW131391   1.820   2.398   6.372
10164SOL    HW231392   1.734   2.520   6.437
10165SOL     OW31393   6.883   2.194   3.438
10165SOL    HW131394   6.949   2.268   3.452
10165SOL    HW231395   6.898   2.122   3.506
10166SOL     OW31396   0.686   0.830   2.280
10166SOL    HW131397   0.681   0.930   2.287
10166SOL    HW231398   0.730   0.793   2.361
10167SOL     OW31399   5.109   0.442   0.551
10167SOL    HW131400   5.053   0.416   0.630
10167SOL    HW231401   5.064   0.517   0.502
10168SOL     OW31402   6.781   4.261   5.084
10168SOL    HW131403   6.755   4.224   5.174
10168SOL    HW231404   6.740   4.351   5.072
10169SOL     OW31405   6.603   4.341   4.727
10169SOL    HW131406   6.554   4.381   4.649
10169SOL    HW231407   6.646   4.413   4.781
10170SOL     OW31408   1.537   4.352   4.994
10170SOL    HW131409   1.566   4.320   5.084
10170SOL    HW231410   1.606   4.327   4.926
10171SOL     OW31411   6.247   2.807   5.962
10171SOL    HW131412   6.170   2.760   6.004
10171SOL    HW231413   6.319   2.821   6.030
10172SOL     OW31414   5.273   0.533   5.007
10172SOL    HW131415   5.308   0.467   5.074
10172SOL    HW231416   5.175   0.518   4.994
10173SOL     OW31417   1.695   2.602   2.681
10173SOL    HW131418   1.781   2.551   2.677
10173SOL    HW231419   1.695   2.674   2.611
10174SOL     OW31420   6.558   4.635   1.396
10174SOL    HW131421   6.561   4.593   1.487
10174SOL    HW231422   6.543   4.564   1.327
10175SOL     OW31423   5.693   2.315   5.539
10175SOL    HW131424   5.673   2.245   5.608
10175SOL    HW231425   5.617   2.380   5.535
10176SOL     OW31426   2.994   3.002   0.824
10176SOL    HW131427   2.926   2.936   0.790
10176SOL    HW231428   2.957   3.048   0.905
10177SOL     OW31429   0.849   6.922   5.289
10177SOL    HW131430   0.794   6.989   5.239
10177SOL    HW231431   0.882   6.852   5.225
10178SOL     OW31432   5.550   2.904   4.957
10178SOL    HW131433   5.619   2.836   4.981
10178SOL    HW231434   5.582   2.960   4.881
10179SOL     OW31435   0.097   3.560   0.608
10179SOL    HW131436   0.063   3.466   0.617
10179SOL    HW231437   0.062   3.600   0.523
10180SOL     OW31438   1.834   6.319   6.233
10180SOL    HW131439   1.913   6.318   6.295
10180SOL    HW231440   1.751   6.303   6.285
10181SOL     OW31441   6.193   3.689   2.027
10181SOL    HW131442   6.221   3.594   2.044
10181SOL    HW231443   6.094   3.697   2.039
10182SOL     OW31444   4.125   1.282   1.072
10182SOL    HW131445   4.061   1.282   1.149
10182SOL    HW231446   4.129   1.190   1.032
10183SOL     OW31447   1.676   1.440   5.849
10183SOL    HW131448   1.752   1.494   5.814
10183SOL    HW231449   1.600   1.444   5.785
10184SOL     OW31450   4.705   0.060   6.879
10184SOL    HW131451   4.735   6.991   6.847
10184SOL    HW231452   4.781   0.105   6.927
10185SOL     OW31453   4.308   1.185   0.431
10185SOL    HW131454   4.229   1.199   0.373
10185SOL    HW231455   4.390   1.175   0.375
10186SOL     OW31456   4.914   2.344   2.551
10186SOL    HW131457   4.894   2.341   2.649
10186SOL    HW231458   4.953   2.257   2.522
10187SOL     OW31459   0.115   2.569   2.192
10187SOL    HW131460   0.109   2.582   2.291
10187SOL    HW231461   0.079   2.479   2.168
10188SOL     OW31462   4.052   5.780   0.093
10188SOL    HW131463   4.115   5.706   0.114
10188SOL    HW231464   4.093   5.841   0.024
10189SOL     OW31465   0.911   6.690   4.710
10189SOL    HW131466   0.973   6.614   4.689
10189SOL    HW231467   0.889   6.690   4.807
10190SOL     OW31468   5.646   3.064   7.002
10190SOL    HW131469   5.716   3.082   6.933
10190SOL    HW231470   5.572   3.010   6.962
10191SOL     OW31471   6.523   4.495   6.880
10191SOL    HW131472   6.428   4.497   6.848
10191SOL    HW231473   6.536   4.414   6.938
10192SOL     OW31474   3.575   1.821   0.347
10192SOL    HW131475   3.553   1.750   0.280
10192SOL    HW231476   3.668   1.807   0.381
10193SOL     OW31477   5.127   4.183   0.792
10193SOL    HW131478   5.043   4.217   0.832
10193SOL    HW231479   5.165   4.110   0.849
10194SOL     OW31480   5.027   2.492   4.848
10194SOL    HW131481   4.950   2.458   4.793
10194SOL    HW231482   4.997   2.505   4.942
10195SOL     OW31483   6.097   4.939   2.574
10195SOL    HW131484   6.162   4.868   2.548
10195SOL    HW231485   6.004   4.907   2.557
10196SOL     OW31486   0.982   1.365   4.770
10196SOL    HW131487   0.954   1.306   4.695
10196SOL    HW231488   1.077   1.395   4.755
10197SOL     OW31489   5.262   0.869   6.943
10197SOL    HW131490   5.360   0.849   6.943
10197SOL    HW231491   5.228   0.870   6.849
10198SOL     OW31492   4.566   6.919   2.456
10198SOL    HW131493   4.515   6.838   2.483
10198SOL    HW231494   4.531   6.954   2.369
10199SOL     OW31495   0.739   2.177   5.857
10199SOL    HW131496   0.745   2.164   5.758
10199SOL    HW231497   0.686   2.102   5.897
10200SOL     OW31498   5.485   2.578   2.347
10200SOL    HW131499   5.396   2.538   2.370
10200SOL    HW231500   5.509   2.554   2.253
10201SOL     OW31501   1.813   3.652   0.986
10201SOL    HW131502   1.900   3.646   0.937
10201SOL    HW231503   1.801   3.571   1.043
10202SOL     OW31504   5.360   0.168   3.117
10202SOL    HW131505   5.420   0.243   3.145
10202SOL    HW231506   5.292   0.152   3.189
10203SOL     OW31507   0.287   3.169   5.270
10203SOL    HW131508   0.225   3.142   5.196
10203SOL    HW231509   0.381   3.150   5.243
10204SOL     OW31510   4.770   4.478   6.412
10204SOL    HW131511   4.738   4.507   6.502
10204SOL    HW231512   4.691   4.450   6.356
10205SOL     OW31513   6.839   1.717   6.736
10205SOL    HW131514   6.751   1.761   6.719
10205SOL    HW231515   6.826   1.618   6.745
10206SOL     OW31516   2.176   2.101   4.330
10206SOL    HW131517   2.218   2.018   4.295
10206SOL    HW231518   2.084   2.080   4.365
10207SOL     OW31519   2.146   2.310   6.459
10207SOL    HW131520   2.135   2.396   6.510
10207SOL    HW231521   2.061   2.289   6.412
10208SOL     OW31522   6.521   0.238   5.891
10208SOL    HW131523   6.443   0.187   5.856
10208SOL    HW231524   6.551   0.305   5.824
10209SOL     OW31525   6.944   6.556   5.490
10209SOL    HW131526   6.885   6.475   5.493
10209SOL    HW231527   6.918   6.620   5.562
10210SOL     OW31528   3.416   0.407   1.627
10210SOL    HW131529   3.376   0.448   1.709
10210SOL    HW231530   3.381   0.314   1.617
10211SOL     OW31531   5.591   5.585   6.230
10211SOL    HW131532   5.555   5.504   6.184
10211SOL    HW231533   5.690   5.574   6.245
10212SOL     OW31534   0.455   0.331   0.236
10212SOL    HW131535   0.356   0.346   0.234
10212SOL    HW231536   0.498   0.397   0.297
10213SOL     OW31537   6.832   3.211   1.463
10213SOL    HW131538   6.766   3.248   1.528
10213SOL    HW231539   6.838   3.270   1.383
10214SOL     OW31540   1.240   2.477   0.675
10214SOL    HW131541   1.225   2.460   0.772
10214SOL    HW231542   1.301   2.556   0.664
10215SOL     OW31543   3.497   3.805   2.369
10215SOL    HW131544   3.421   3.788   2.432
10215SOL    HW231545   3.573   3.846   2.419
10216SOL     OW31546   0.564   6.399   1.754
10216SOL    HW131547   0.511   6.411   1.838
10216SOL    HW231548   0.660   6.380   1.778
10217SOL     OW31549   3.818   1.449   5.295
10217SOL    HW131550   3.815   1.456   5.395
10217SOL    HW231551   3.741   1.499   5.256
10218SOL     OW31552   0.986   2.736   2.686
10218SOL    HW131553   0.967   2.769   2.593
10218SOL    HW231554   1.024   2.644   2.681
10219SOL     OW31555   6.490   6.207   2.704
10219SOL    HW131556   6.511   6.204   2.802
10219SOL    HW231557   6.532   6.288   2.663
10220SOL     OW31558   3.495   3.038   0.041
10220SOL    HW131559   3.502   3.137   0.052
10220SOL    HW231560   3.399   3.012   0.036
10221SOL     OW31561   1.121   5.634   2.855
10221SOL    HW131562   1.030   5.635   2.813
10221SOL    HW231563   1.182   5.697   2.805
10222SOL     OW31564   2.958   3.481   3.604
10222SOL    HW131565   3.002   3.569   3.590
10222SOL    HW231566   2.908   3.454   3.521
10223SOL     OW31567   2.884   6.837   0.471
10223SOL    HW131568   2.927   6.768   0.530
10223SOL    HW231569   2.888   6.807   0.376
10224SOL     OW31570   7.012   3.455   3.425
10224SOL    HW131571   0.034   3.465   3.515
10224SOL    HW231572   0.061   3.435   3.357
10225SOL     OW31573   2.225   3.786   5.812
10225SOL    HW131574   2.304   3.817   5.759
10225SOL    HW231575   2.255   3.719   5.881
10226SOL     OW31576   4.345   4.525   6.285
10226SOL    HW131577   4.290   4.586   6.341
10226SOL    HW231578   4.291   4.493   6.207
10227SOL     OW31579   5.307   3.882   0.888
10227SOL    HW131580   5.291   3.889   0.790
10227SOL    HW231581   5.356   3.798   0.909
10228SOL     OW31582   5.460   0.011   0.094
10228SOL    HW131583   5.478   0.078   0.022
10228SOL    HW231584   5.543   6.978   0.110
10229SOL     OW31585   0.260   2.076   4.884
10229SOL    HW131586   0.291   2.146   4.819
10229SOL    HW231587   0.161   2.063   4.874
10230SOL     OW31588   5.690   5.807   1.676
10230SOL    HW131589   5.603   5.759   1.674
10230SOL    HW231590   5.677   5.899   1.715
10231SOL     OW31591   0.217   4.029   2.066
10231SOL    HW131592   0.164   4.083   2.001
10231SOL    HW231593   0.181   3.936   2.070
10232SOL     OW31594   4.612   4.756   2.325
10232SOL    HW131595   4.653   4.734   2.237
10232SOL    HW231596   4.595   4.854   2.331
10233SOL     OW31597   3.450   3.291   6.433
10233SOL    HW131598   3.453   3.347   6.516
10233SOL    HW231599   3.523   3.318   6.371
10234SOL     OW31600   0.829   0.728   2.077
10234SOL    HW131601   0.788   0.739   2.168
10234SOL    HW231602   0.826   0.816   2.028
10235SOL     OW31603   0.931   0.332   3.235
10235SOL    HW131604   0.946   0.377   3.323
10235SOL    HW231605   0.902   0.237   3.251
10236SOL     OW31606   1.011   0.272   2.850
10236SOL    HW131607   1.069   0.352   2.868
10236SOL    HW231608   0.969   0.242   2.936
10237SOL     OW31609   6.881   3.912   5.872
10237SOL    HW131610   6.917   3.822   5.849
10237SOL    HW231611   6.833   3.950   5.792
10238SOL     OW31612   2.922   0.040   0.665
10238SOL    HW131613   2.827   0.029   0.695
10238SOL    HW231614   2.944   6.991   0.597
10239SOL     OW31615   1.112   2.475   5.029
10239SOL    HW131616   1.186   2.477   4.962
10239SOL    HW231617   1.051   2.553   5.013
10240SOL     OW31618   1.785   6.187   1.580
10240SOL    HW131619   1.778   6.282   1.550
10240SOL    HW231620   1.701   6.161   1.629
10241SOL     OW31621   4.267   3.766   1.765
10241SOL    HW131622   4.211   3.724   1.835
10241SOL    HW231623   4.246   3.864   1.759
10242SOL     OW31624   0.827   3.770   1.434
10242SOL    HW131625   0.728   3.783   1.431
10242SOL    HW231626   0.859   3.740   1.344
10243SOL     OW31627   3.712   5.247   2.248
10243SOL    HW131628   3.708   5.217   2.152
10243SOL    HW231629   3.806   5.274   2.270
10244SOL     OW31630   2.019   5.778   1.370
10244SOL    HW131631   1.979   5.690   1.347
10244SOL    HW231632   1.976   5.813   1.454
10245SOL     OW31633   6.514   4.024   1.488
10245SOL    HW131634   6.434   3.966   1.508
10245SOL    HW231635   6.597   3.970   1.498
10246SOL     OW31636   3.741   3.144   3.547
10246SOL    HW131637   3.707   3.229   3.588
10246SOL    HW231638   3.836   3.156   3.519
10247SOL     OW31639   0.454   3.459   4.411
10247SOL    HW131640   0.522   3.494   4.347
10247SOL    HW231641   0.476   3.491   4.503
10248SOL     OW31642   1.148   1.153   4.450
10248SOL    HW131643   1.220   1.221   4.437
10248SOL    HW231644   1.154   1.083   4.378
10249SOL     OW31645   2.597   4.395   6.122
10249SOL    HW131646   2.556   4.316   6.077
10249SOL    HW231647   2.618   4.465   6.054
10250SOL     OW31648   3.143   2.687   0.426
10250SOL    HW131649   3.227   2.687   0.372
10250SOL    HW231650   3.071   2.638   0.376
10251SOL     OW31651   1.040   0.684   5.090
10251SOL    HW131652   1.139   0.690   5.093
10251SOL    HW231653   1.008   0.619   5.160
10252SOL     OW31654   5.198   3.713   6.050
10252SOL    HW131655   5.256   3.666   6.116
10252SOL    HW231656   5.177   3.652   5.974
10253SOL     OW31657   3.768   5.881   0.509
10253SOL    HW131658   3.677   5.902   0.475
10253SOL    HW231659   3.765   5.868   0.608
10254SOL     OW31660   6.506   1.459   6.757
10254SOL    HW131661   6.430   1.414   6.710
10254SOL    HW231662   6.589   1.450   6.701
10255SOL     OW31663   4.045   4.536   1.694
10255SOL    HW131664   4.040   4.611   1.628
10255SOL    HW231665   4.037   4.448   1.646
10256SOL     OW31666   2.255   1.421   4.703
10256SOL    HW131667   2.342   1.446   4.745
10256SOL    HW231668   2.221   1.337   4.745
10257SOL     OW31669   3.477   6.239   3.412
10257SOL    HW131670   3.402   6.217   3.349
10257SOL    HW231671   3.556   6.270   3.360
10258SOL     OW31672   3.245   1.598   2.302
10258SOL    HW131673   3.243   1.506   2.264
10258SOL    HW231674   3.319   1.650   2.261
10259SOL     OW31675   1.836   3.967   3.734
10259SOL    HW131676   1.813   3.894   3.669
10259SOL    HW231677   1.753   4.016   3.760
10260SOL     OW31678   0.512   0.248   3.767
10260SOL    HW131679   0.492   0.344   3.749
10260SOL    HW231680   0.502   0.230   3.865
10261SOL     OW31681   6.890   3.976   1.679
10261SOL    HW131682   6.891   4.050   1.612
10261SOL    HW231683   6.810   3.986   1.738
10262SOL     OW31684   4.660   0.938   6.577
10262SOL    HW131685   4.732   0.870   6.568
10262SOL    HW231686   4.580   0.896   6.620
10263SOL     OW31687   5.432   6.958   2.992
10263SOL    HW131688   5.412   0.022   3.041
10263SOL    HW231689   5.517   6.967   2.941
10264SOL     OW31690   6.625   1.078   5.997
10264SOL    HW131691   6.546   1.086   5.935
10264SOL    HW231692   6.674   0.993   5.977
10265SOL     OW31693   2.020   0.625   2.760
10265SOL    HW131694   1.980   0.701   2.709
10265SOL    HW231695   1.999   0.636   2.858
10266SOL     OW31696   2.568   3.838   1.646
10266SOL    HW131697   2.664   3.810   1.648
10266SOL    HW231698   2.559   3.933   1.678
10267SOL     OW31699   6.463   0.954   0.946
10267SOL    HW131700   6.466   0.874   0.885
10267SOL    HW231701   6.391   0.941   1.014
10268SOL     OW31702   3.577   5.622   2.651
10268SOL    HW131703   3.501   5.653   2.593
10268SOL    HW231704   3.630   5.553   2.602
10269SOL     OW31705   2.563   1.607   6.831
10269SOL    HW131706   2.656   1.572   6.829
10269SOL    HW231707   2.559   1.687   6.891
10270SOL     OW31708   2.775   0.333   3.581
10270SOL    HW131709   2.692   0.320   3.527
10270SOL    HW231710   2.771   0.276   3.663
10271SOL     OW31711   2.283   0.976   0.091
10271SOL    HW131712   2.322   1.067   0.078
10271SOL    HW231713   2.356   0.909   0.096
10272SOL     OW31714   5.655   6.774   5.261
10272SOL    HW131715   5.699   6.780   5.171
10272SOL    HW231716   5.681   6.689   5.305
10273SOL     OW31717   2.010   5.233   3.047
10273SOL    HW131718   2.040   5.193   3.135
10273SOL    HW231719   1.910   5.232   3.043
10274SOL     OW31720   0.800   3.996   5.285
10274SOL    HW131721   0.756   3.966   5.200
10274SOL    HW231722   0.801   4.096   5.289
10275SOL     OW31723   0.545   0.887   1.840
10275SOL    HW131724   0.590   0.887   1.750
10275SOL    HW231725   0.452   0.920   1.831
10276SOL     OW31726   3.401   4.736   5.184
10276SOL    HW131727   3.433   4.674   5.256
10276SOL    HW231728   3.301   4.740   5.185
10277SOL     OW31729   0.389   5.440   3.845
10277SOL    HW131730   0.481   5.410   3.871
10277SOL    HW231731   0.325   5.416   3.918
10278SOL     OW31732   6.106   0.112   4.298
10278SOL    HW131733   6.116   0.056   4.215
10278SOL    HW231734   6.042   0.186   4.280
10279SOL     OW31735   1.096   4.583   3.961
10279SOL    HW131736   1.158   4.660   3.943
10279SOL    HW231737   1.003   4.617   3.972
10280SOL     OW31738   6.310   5.643   0.781
10280SOL    HW131739   6.372   5.719   0.758
10280SOL    HW231740   6.225   5.679   0.817
10281SOL     OW31741   5.806   0.088   4.981
10281SOL    HW131742   5.885   0.082   4.921
10281SOL    HW231743   5.749   0.165   4.953
10282SOL     OW31744   5.052   2.380   2.984
10282SOL    HW131745   5.042   2.283   3.007
10282SOL    HW231746   5.139   2.414   3.021
10283SOL     OW31747   0.235   2.652   0.853
10283SOL    HW131748   0.145   2.623   0.886
10283SOL    HW231749   0.256   2.607   0.766
10284SOL     OW31750   0.917   4.919   5.101
10284SOL    HW131751   0.829   4.872   5.102
10284SOL    HW231752   0.971   4.889   5.179
10285SOL     OW31753   6.936   6.643   6.465
10285SOL    HW131754   6.845   6.621   6.499
10285SOL    HW231755   6.947   6.607   6.373
10286SOL     OW31756   3.032   0.875   1.739
10286SOL    HW131757   3.013   0.795   1.682
10286SOL    HW231758   2.949   0.905   1.785
10287SOL     OW31759   7.007   6.109   2.617
10287SOL    HW131760   6.929   6.057   2.581
10287SOL    HW231761   0.043   6.049   2.674
10288SOL     OW31762   3.815   6.134   4.517
10288SOL    HW131763   3.717   6.127   4.538
10288SOL    HW231764   3.865   6.062   4.565
10289SOL     OW31765   4.061   6.448   6.577
10289SOL    HW131766   4.124   6.477   6.649
10289SOL    HW231767   4.070   6.509   6.498
10290SOL     OW31768   3.474   3.202   2.530
10290SOL    HW131769   3.482   3.249   2.442
10290SOL    HW231770   3.509   3.261   2.603
10291SOL     OW31771   3.532   1.990   2.169
10291SOL    HW131772   3.560   2.065   2.109
10291SOL    HW231773   3.600   1.977   2.241
10292SOL     OW31774   0.107   0.438   5.698
10292SOL    HW131775   0.130   0.359   5.755
10292SOL    HW231776   0.166   0.439   5.617
10293SOL     OW31777   1.705   3.066   5.681
10293SOL    HW131778   1.666   3.010   5.608
10293SOL    HW231779   1.749   3.147   5.642
10294SOL     OW31780   1.242   6.724   1.586
10294SOL    HW131781   1.164   6.783   1.567
10294SOL    HW231782   1.316   6.779   1.625
10295SOL     OW31783   2.430   1.537   0.827
10295SOL    HW131784   2.368   1.550   0.904
10295SOL    HW231785   2.463   1.443   0.826
10296SOL     OW31786   6.491   2.893   4.919
10296SOL    HW131787   6.549   2.953   4.974
10296SOL    HW231788   6.420   2.949   4.874
10297SOL     OW31789   4.739   1.031   1.152
10297SOL    HW131790   4.704   1.104   1.093
10297SOL    HW231791   4.666   0.966   1.171
10298SOL     OW31792   1.228   1.294   1.897
10298SOL    HW131793   1.219   1.293   1.996
10298SOL    HW231794   1.312   1.343   1.872
10299SOL     OW31795   5.637   0.019   2.864
10299SOL    HW131796   5.673   0.109   2.887
10299SOL    HW231797   5.657   7.019   2.768
10300SOL     OW31798   1.303   3.226   0.664
10300SOL    HW131799   1.366   3.304   0.658
10300SOL    HW231800   1.293   3.199   0.760
10301SOL     OW31801   4.392   1.632   0.078
10301SOL    HW131802   4.467   1.567   0.063
10301SOL    HW231803   4.397   1.705   0.009
10302SOL     OW31804   3.233   5.768   5.619
10302SOL    HW131805   3.294   5.715   5.560
10302SOL    HW231806   3.148   5.717   5.633
10303SOL     OW31807   0.679   4.419   5.519
10303SOL    HW131808   0.630   4.486   5.574
10303SOL    HW231809   0.617   4.380   5.451
10304SOL     OW31810   5.219   5.492   0.920
10304SOL    HW131811   5.313   5.486   0.954
10304SOL    HW231812   5.192   5.404   0.881
10305SOL     OW31813   2.696   3.504   5.332
10305SOL    HW131814   2.711   3.478   5.236
10305SOL    HW231815   2.618   3.567   5.338
10306SOL     OW31816   3.829   0.920   1.463
10306SOL    HW131817   3.806   0.910   1.366
10306SOL    HW231818   3.808   0.834   1.511
10307SOL     OW31819   1.795   6.330   4.909
10307SOL    HW131820   1.840   6.379   4.834
10307SOL    HW231821   1.835   6.359   4.996
10308SOL     OW31822   2.552   4.548   1.804
10308SOL    HW131823   2.635   4.514   1.849
10308SOL    HW231824   2.566   4.643   1.776
10309SOL     OW31825   0.431   0.883   4.876
10309SOL    HW131826   0.461   0.793   4.845
10309SOL    HW231827   0.455   0.895   4.972
10310SOL     OW31828   3.226   4.067   6.202
10310SOL    HW131829   3.191   4.024   6.285
10310SOL    HW231830   3.151   4.107   6.151
10311SOL     OW31831   5.264   6.493   0.099
10311SOL    HW131832   5.226   6.586   0.105
10311SOL    HW231833   5.232   6.449   0.015
10312SOL     OW31834   2.731   6.976   2.142
10312SOL    HW131835   2.743   0.053   2.160
10312SOL    HW231836   2.816   6.928   2.162
10313SOL     OW31837   5.090   6.449   3.329
10313SOL    HW131838   5.107   6.544   3.353
10313SOL    HW231839   5.089   6.438   3.230
10314SOL     OW31840   0.705   6.725   0.632
10314SOL    HW131841   0.610   6.726   0.663
10314SOL    HW231842   0.709   6.758   0.538
10315SOL     OW31843   4.790   4.587   3.900
10315SOL    HW131844   4.834   4.600   3.988
10315SOL    HW231845   4.794   4.672   3.847
10316SOL     OW31846   1.255   2.165   0.018
10316SOL    HW131847   1.336   2.219   7.015
10316SOL    HW231848   1.191   2.222   0.070
10317SOL     OW31849   4.238   6.102   4.281
10317SOL    HW131850   4.310   6.033   4.286
10317SOL    HW231851   4.175   6.079   4.206
10318SOL     OW31852   6.119   0.038   6.957
10318SOL    HW131853   6.157   6.993   0.002
10318SOL    HW231854   6.053   0.097   7.003
10319SOL     OW31855   0.969   4.370   4.465
10319SOL    HW131856   1.000   4.463   4.485
10319SOL    HW231857   0.920   4.370   4.378
10320SOL     OW31858   7.012   6.876   2.975
10320SOL    HW131859   6.933   6.935   2.961
10320SOL    HW231860   7.014   6.806   2.903
10321SOL     OW31861   5.850   2.506   2.986
10321SOL    HW131862   5.758   2.488   3.018
10321SOL    HW231863   5.853   2.596   2.942
10322SOL     OW31864   4.564   4.469   5.164
10322SOL    HW131865   4.594   4.374   5.173
10322SOL    HW231866   4.476   4.472   5.116
10323SOL     OW31867   0.898   4.600   6.160
10323SOL    HW131868   0.951   4.682   6.183
10323SOL    HW231869   0.961   4.525   6.139
10324SOL     OW31870   2.917   3.352   2.912
10324SOL    HW131871   2.915   3.424   2.982
10324SOL    HW231872   2.959   3.270   2.950
10325SOL     OW31873   6.064   6.179   5.224
10325SOL    HW131874   6.126   6.256   5.243
10325SOL    HW231875   6.062   6.161   5.126
10326SOL     OW31876   5.069   3.887   6.874
10326SOL    HW131877   4.988   3.847   6.831
10326SOL    HW231878   5.120   3.940   6.806
10327SOL     OW31879   1.391   5.487   6.801
10327SOL    HW131880   1.375   5.583   6.781
10327SOL    HW231881   1.440   5.445   6.725
10328SOL     OW31882   5.951   2.386   2.718
10328SOL    HW131883   5.854   2.404   2.702
10328SOL    HW231884   5.961   2.335   2.803
10329SOL     OW31885   3.409   2.171   1.860
10329SOL    HW131886   3.505   2.159   1.884
10329SOL    HW231887   3.402   2.198   1.764
10330SOL     OW31888   4.986   6.769   2.010
10330SOL    HW131889   5.029   6.826   1.940
10330SOL    HW231890   5.001   6.809   2.100
10331SOL     OW31891   5.168   5.797   5.628
10331SOL    HW131892   5.149   5.699   5.632
10331SOL    HW231893   5.242   5.820   5.692
10332SOL     OW31894   2.282   1.459   6.545
10332SOL    HW131895   2.300   1.486   6.450
10332SOL    HW231896   2.256   1.539   6.598
10333SOL     OW31897   1.565   3.638   4.182
10333SOL    HW131898   1.604   3.646   4.274
10333SOL    HW231899   1.566   3.543   4.153
10334SOL     OW31900   3.551   1.279   4.071
10334SOL    HW131901   3.502   1.318   4.149
10334SOL    HW231902   3.636   1.236   4.102
10335SOL     OW31903   2.037   3.526   4.186
10335SOL    HW131904   2.005   3.433   4.168
10335SOL    HW231905   2.057   3.571   4.099
10336SOL     OW31906   6.045   6.754   3.306
10336SOL    HW131907   5.968   6.725   3.249
10336SOL    HW231908   6.121   6.785   3.248
10337SOL     OW31909   5.999   6.409   0.031
10337SOL    HW131910   5.950   6.429   6.966
10337SOL    HW231911   6.015   6.494   0.081
10338SOL     OW31912   0.543   6.222   1.545
10338SOL    HW131913   0.449   6.210   1.515
10338SOL    HW231914   0.546   6.289   1.619
10339SOL     OW31915   5.275   2.539   6.166
10339SOL    HW131916   5.241   2.493   6.084
10339SOL    HW231917   5.213   2.614   6.190
10340SOL     OW31918   3.112   3.963   6.436
10340SOL    HW131919   3.158   3.973   6.524
10340SOL    HW231920   3.123   3.869   6.403
10341SOL     OW31921   3.231   4.959   3.384
10341SOL    HW131922   3.155   4.945   3.320
10341SOL    HW231923   3.305   5.008   3.338
10342SOL     OW31924   0.725   1.549   3.675
10342SOL    HW131925   0.696   1.519   3.584
10342SOL    HW231926   0.809   1.501   3.701
10343SOL     OW31927   4.179   5.605   1.858
10343SOL    HW131928   4.130   5.630   1.775
10343SOL    HW231929   4.273   5.580   1.835
10344SOL     OW31930   4.848   6.752   6.552
10344SOL    HW131931   4.909   6.675   6.568
10344SOL    HW231932   4.869   6.825   6.616
10345SOL     OW31933   1.244   4.327   5.111
10345SOL    HW131934   1.318   4.392   5.091
10345SOL    HW231935   1.282   4.246   5.156
10346SOL     OW31936   0.704   5.846   0.516
10346SOL    HW131937   0.661   5.797   0.592
10346SOL    HW231938   0.712   5.943   0.539
10347SOL     OW31939   6.948   2.039   5.047
10347SOL    HW131940   6.881   1.976   5.088
10347SOL    HW231941   6.991   2.093   5.120
10348SOL     OW31942   0.239   5.086   1.577
10348SOL    HW131943   0.208   5.177   1.550
10348SOL    HW231944   0.331   5.071   1.541
10349SOL     OW31945   6.672   0.042   6.721
10349SOL    HW131946   6.751   0.092   6.757
10349SOL    HW231947   6.683   0.030   6.622
10350SOL     OW31948   3.798   0.478   6.248
10350SOL    HW131949   3.830   0.383   6.239
10350SOL    HW231950   3.712   0.479   6.299
10351SOL     OW31951   4.863   6.095   5.917
10351SOL    HW131952   4.783   6.035   5.911
10351SOL    HW231953   4.934   6.061   5.855
10352SOL     OW31954   4.742   5.091   6.174
10352SOL    HW131955   4.667   5.095   6.240
10352SOL    HW231956   4.733   5.008   6.118
10353SOL     OW31957   0.561   3.650   4.904
10353SOL    HW131958   0.658   3.645   4.926
10353SOL    HW231959   0.514   3.569   4.938
10354SOL     OW31960   5.145   1.440   1.187
10354SOL    HW131961   5.045   1.441   1.186
10354SOL    HW231962   5.179   1.371   1.124
10355SOL     OW31963   0.985   4.392   2.967
10355SOL    HW131964   0.988   4.327   3.043
10355SOL    HW231965   1.017   4.347   2.884
10356SOL     OW31966   0.535   3.087   5.147
10356SOL    HW131967   0.597   3.093   5.069
10356SOL    HW231968   0.579   3.126   5.228
10357SOL     OW31969   2.860   3.250   6.024
10357SOL    HW131970   2.906   3.260   5.936
10357SOL    HW231971   2.841   3.340   6.062
10358SOL     OW31972   1.130   0.612   2.251
10358SOL    HW131973   1.138   0.611   2.151
10358SOL    HW231974   1.036   0.594   2.277
10359SOL     OW31975   1.315   1.558   0.587
10359SOL    HW131976   1.307   1.511   0.499
10359SOL    HW231977   1.328   1.656   0.571
10360SOL     OW31978   0.132   4.417   3.905
10360SOL    HW131979   0.119   4.367   3.818
10360SOL    HW231980   0.174   4.356   3.972
10361SOL     OW31981   2.846   5.588   0.243
10361SOL    HW131982   2.841   5.669   0.185
10361SOL    HW231983   2.940   5.575   0.275
10362SOL     OW31984   1.022   4.504   5.838
10362SOL    HW131985   1.110   4.457   5.845
10362SOL    HW231986   1.033   4.587   5.784
10363SOL     OW31987   5.303   0.562   4.493
10363SOL    HW131988   5.274   0.466   4.495
10363SOL    HW231989   5.401   0.568   4.513
10364SOL     OW31990   1.378   3.915   0.581
10364SOL    HW131991   1.422   3.881   0.498
10364SOL    HW231992   1.359   3.839   0.643
10365SOL     OW31993   5.325   5.137   6.970
10365SOL    HW131994   5.376   5.201   6.914
10365SOL    HW231995   5.265   5.081   6.912
10366SOL     OW31996   4.615   6.991   3.768
10366SOL    HW131997   4.546   0.022   3.716
10366SOL    HW231998   4.697   0.026   3.778
10367SOL     OW31999   6.141   1.562   3.102
10367SOL    HW132000   6.234   1.597   3.104
10367SOL    HW232001   6.113   1.548   3.007
10368SOL     OW32002   2.213   0.272   1.083
10368SOL    HW132003   2.219   0.204   1.010
10368SOL    HW232004   2.290   0.334   1.077
10369SOL     OW32005   4.917   2.874   6.648
10369SOL    HW132006   4.981   2.915   6.583
10369SOL    HW232007   4.909   2.776   6.630
10370SOL     OW32008   2.638   0.425   5.116
10370SOL    HW132009   2.575   0.349   5.125
10370SOL    HW232010   2.661   0.461   5.207
10371SOL     OW32011   4.665   6.876   5.778
10371SOL    HW132012   4.617   6.914   5.699
10371SOL    HW232013   4.649   6.777   5.783
10372SOL     OW32014   0.352   0.646   4.127
10372SOL    HW132015   0.366   0.717   4.196
10372SOL    HW232016   0.352   0.687   4.036
10373SOL     OW32017   1.348   6.156   5.458
10373SOL    HW132018   1.322   6.245   5.496
10373SOL    HW232019   1.280   6.126   5.391
10374SOL     OW32020   3.405   1.392   3.099
10374SOL    HW132021   3.351   1.319   3.141
10374SOL    HW232022   3.350   1.475   3.094
10375SOL     OW32023   0.001   2.280   0.825
10375SOL    HW132024   6.978   2.369   0.813
10375SOL    HW232025   0.000   2.255   0.921
10376SOL     OW32026   5.871   0.365   4.036
10376SOL    HW132027   5.892   0.461   4.014
10376SOL    HW232028   5.911   0.306   3.966
10377SOL     OW32029   6.920   6.518   3.308
10377SOL    HW132030   6.849   6.548   3.371
10377SOL    HW232031   6.974   6.597   3.278
10378SOL     OW32032   6.184   6.425   5.717
10378SOL    HW132033   6.237   6.390   5.794
10378SOL    HW232034   6.203   6.369   5.635
10379SOL     OW32035   4.294   1.168   3.980
10379SOL    HW132036   4.197   1.146   3.978
10379SOL    HW232037   4.347   1.090   3.947
10380SOL     OW32038   3.370   0.816   4.688
10380SOL    HW132039   3.308   0.742   4.714
10380SOL    HW232040   3.371   0.825   4.589
10381SOL     OW32041   3.402   5.574   5.097
10381SOL    HW132042   3.330   5.524   5.049
10381SOL    HW232043   3.363   5.654   5.143
10382SOL     OW32044   6.848   5.136   1.791
10382SOL    HW132045   6.927   5.084   1.759
10382SOL    HW232046   6.880   5.222   1.833
10383SOL     OW32047   5.621   3.560   1.249
10383SOL    HW132048   5.670   3.476   1.227
10383SOL    HW232049   5.529   3.537   1.280
10384SOL     OW32050   5.244   1.343   6.640
10384SOL    HW132051   5.338   1.377   6.640
10384SOL    HW232052   5.181   1.419   6.652
10385SOL     OW32053   6.869   3.199   6.659
10385SOL    HW132054   6.776   3.167   6.641
10385SOL    HW232055   6.903   3.157   6.743
10386SOL     OW32056   0.185   1.940   6.155
10386SOL    HW132057   0.274   1.984   6.144
10386SOL    HW232058   0.142   1.930   6.065
10387SOL     OW32059   1.620   3.748   3.064
10387SOL    HW132060   1.709   3.709   3.038
10387SOL    HW232061   1.567   3.767   2.981
10388SOL     OW32062   1.528   4.599   2.132
10388SOL    HW132063   1.549   4.627   2.038
10388SOL    HW232064   1.553   4.673   2.195
10389SOL     OW32065   1.532   5.355   3.161
10389SOL    HW132066   1.470   5.326   3.234
10389SOL    HW232067   1.526   5.454   3.151
10390SOL     OW32068   2.166   3.319   3.325
10390SOL    HW132069   2.177   3.409   3.367
10390SOL    HW232070   2.141   3.331   3.228
10391SOL     OW32071   3.270   5.279   4.355
10391SOL    HW132072   3.332   5.347   4.316
10391SOL    HW232073   3.322   5.214   4.411
10392SOL     OW32074   0.007   5.646   6.073
10392SOL    HW132075   0.089   5.673   6.123
10392SOL    HW232076   6.962   5.603   6.135
10393SOL     OW32077   1.427   1.695   4.149
10393SOL    HW132078   1.465   1.651   4.230
10393SOL    HW232079   1.332   1.667   4.137
10394SOL     OW32080   3.290   6.860   0.846
10394SOL    HW132081   3.253   6.840   0.936
10394SOL    HW232082   3.330   6.951   0.846
10395SOL     OW32083   1.257   0.240   3.501
10395SOL    HW132084   1.234   0.157   3.450
10395SOL    HW232085   1.346   0.230   3.543
10396SOL     OW32086   0.524   0.673   4.738
10396SOL    HW132087   0.513   0.738   4.663
10396SOL    HW232088   0.491   0.583   4.709
10397SOL     OW32089   4.796   2.962   2.451
10397SOL    HW132090   4.809   2.991   2.545
10397SOL    HW232091   4.782   2.863   2.448
10398SOL     OW32092   6.925   2.230   2.443
10398SOL    HW132093   7.014   2.193   2.471
10398SOL    HW232094   6.937   2.289   2.364
10399SOL     OW32095   6.803   2.810   5.842
10399SOL    HW132096   6.756   2.768   5.920
10399SOL    HW232097   6.881   2.754   5.816
10400SOL     OW32098   1.955   5.192   2.414
10400SOL    HW132099   1.908   5.248   2.482
10400SOL    HW232100   1.944   5.095   2.437
10401SOL     OW32101   1.279   5.995   1.109
10401SOL    HW132102   1.283   5.998   1.209
10401SOL    HW232103   1.329   6.073   1.072
10402SOL     OW32104   1.162   2.278   4.455
10402SOL    HW132105   1.101   2.200   4.445
10402SOL    HW232106   1.108   2.361   4.471
10403SOL     OW32107   5.571   1.312   3.556
10403SOL    HW132108   5.532   1.360   3.477
10403SOL    HW232109   5.595   1.379   3.627
10404SOL     OW32110   6.567   0.226   4.534
10404SOL    HW132111   6.565   0.258   4.439
10404SOL    HW232112   6.605   0.134   4.537
10405SOL     OW32113   3.545   0.031   6.518
10405SOL    HW132114   3.525   0.128   6.507
10405SOL    HW232115   3.622   0.019   6.581
10406SOL     OW32116   1.113   6.254   4.584
10406SOL    HW132117   1.204   6.230   4.616
10406SOL    HW232118   1.056   6.172   4.579
10407SOL     OW32119   3.380   0.567   6.999
10407SOL    HW132120   3.350   0.515   6.919
10407SOL    HW232121   3.406   0.504   0.051
10408SOL     OW32122   3.034   0.507   2.724
10408SOL    HW132123   3.072   0.442   2.790
10408SOL    HW232124   2.944   0.538   2.755
10409SOL     OW32125   0.441   4.890   1.754
10409SOL    HW132126   0.394   4.965   1.802
10409SOL    HW232127   0.522   4.862   1.806
10410SOL     OW32128   5.458   5.729   0.488
10410SOL    HW132129   5.507   5.702   0.405
10410SOL    HW232130   5.524   5.745   0.561
10411SOL     OW32131   2.326   4.999   2.075
10411SOL    HW132132   2.263   4.997   2.152
10411SOL    HW232133   2.373   4.911   2.068
10412SOL     OW32134   0.515   3.765   6.243
10412SOL    HW132135   0.500   3.677   6.287
10412SOL    HW232136   0.614   3.781   6.234
10413SOL     OW32137   6.519   0.773   4.771
10413SOL    HW132138   6.449   0.808   4.833
10413SOL    HW232139   6.604   0.759   4.821
10414SOL     OW32140   5.710   5.382   5.323
10414SOL    HW132141   5.775   5.454   5.300
10414SOL    HW232142   5.630   5.422   5.367
10415SOL     OW32143   7.017   4.760   3.114
10415SOL    HW132144   0.030   4.839   3.063
10415SOL    HW232145   6.966   4.700   3.053
10416SOL     OW32146   4.954   0.360   0.116
10416SOL    HW132147   4.968   0.300   0.038
10416SOL    HW232148   4.912   0.446   0.085
10417SOL     OW32149   4.912   4.535   4.505
10417SOL    HW132150   4.924   4.444   4.464
10417SOL    HW232151   4.860   4.525   4.590
10418SOL     OW32152   5.684   2.927   0.254
10418SOL    HW132153   5.687   2.976   0.166
10418SOL    HW232154   5.658   2.990   0.327
10419SOL     OW32155   0.873   0.056   4.838
10419SOL    HW132156   0.960   0.046   4.886
10419SOL    HW232157   0.875   0.002   4.753
10420SOL     OW32158   6.296   4.135   4.073
10420SOL    HW132159   6.333   4.167   4.160
10420SOL    HW232160   6.286   4.212   4.011
10421SOL     OW32161   6.996   3.313   4.037
10421SOL    HW132162   6.994   3.412   4.048
10421SOL    HW232163   7.020   3.291   3.942
10422SOL     OW32164   5.707   3.226   6.062
10422SOL    HW132165   5.668   3.148   6.110
10422SOL    HW232166   5.795   3.199   6.022
10423SOL     OW32167   2.790   5.705   1.643
10423SOL    HW132168   2.754   5.679   1.732
10423SOL    HW232169   2.714   5.722   1.580
10424SOL     OW32170   4.686   0.611   2.316
10424SOL    HW132171   4.697   0.685   2.382
10424SOL    HW232172   4.663   0.649   2.227
10425SOL     OW32173   0.404   4.519   1.137
10425SOL    HW132174   0.322   4.464   1.155
10425SOL    HW232175   0.423   4.577   1.217
10426SOL     OW32176   6.482   2.546   0.135
10426SOL    HW132177   6.546   2.622   0.141
10426SOL    HW232178   6.415   2.552   0.209
10427SOL     OW32179   6.132   0.458   3.601
10427SOL    HW132180   6.214   0.497   3.559
10427SOL    HW232181   6.058   0.526   3.598
10428SOL     OW32182   1.713   0.695   5.158
10428SOL    HW132183   1.689   0.603   5.128
10428SOL    HW232184   1.701   0.703   5.256
10429SOL     OW32185   2.016   4.917   1.796
10429SOL    HW132186   2.009   4.991   1.863
10429SOL    HW232187   2.085   4.939   1.728
10430SOL     OW32188   3.547   1.540   4.413
10430SOL    HW132189   3.534   1.549   4.511
10430SOL    HW232190   3.482   1.473   4.377
10431SOL     OW32191   4.626   2.164   3.442
10431SOL    HW132192   4.655   2.211   3.525
10431SOL    HW232193   4.691   2.092   3.419
10432SOL     OW32194   1.811   4.511   1.199
10432SOL    HW132195   1.795   4.606   1.225
10432SOL    HW232196   1.751   4.486   1.123
10433SOL     OW32197   3.061   6.659   4.423
10433SOL    HW132198   3.085   6.737   4.480
10433SOL    HW232199   3.132   6.644   4.355
10434SOL     OW32200   4.283   1.748   0.804
10434SOL    HW132201   4.239   1.677   0.749
10434SOL    HW232202   4.236   1.835   0.788
10435SOL     OW32203   2.627   1.184   1.541
10435SOL    HW132204   2.662   1.249   1.473
10435SOL    HW232205   2.636   1.091   1.505
10436SOL     OW32206   1.519   3.950   5.070
10436SOL    HW132207   1.600   3.901   5.104
10436SOL    HW232208   1.504   3.926   4.974
10437SOL     OW32209   6.697   0.123   5.189
10437SOL    HW132210   6.768   0.155   5.251
10437SOL    HW232211   6.630   0.196   5.173
10438SOL     OW32212   6.772   6.232   6.776
10438SOL    HW132213   6.856   6.222   6.829
10438SOL    HW232214   6.793   6.238   6.679
10439SOL     OW32215   5.780   5.209   5.535
10439SOL    HW132216   5.822   5.124   5.504
10439SOL    HW232217   5.769   5.271   5.457
10440SOL     OW32218   5.932   2.527   1.579
10440SOL    HW132219   5.923   2.593   1.504
10440SOL    HW232220   5.841   2.499   1.610
10441SOL     OW32221   5.396   1.603   5.571
10441SOL    HW132222   5.495   1.596   5.579
10441SOL    HW232223   5.354   1.523   5.612
10442SOL     OW32224   2.787   0.497   5.975
10442SOL    HW132225   2.833   0.581   6.001
10442SOL    HW232226   2.802   0.427   6.045
10443SOL     OW32227   0.789   1.226   6.880
10443SOL    HW132228   0.873   1.273   6.851
10443SOL    HW232229   0.716   1.245   6.815
10444SOL     OW32230   4.450   5.666   3.467
10444SOL    HW132231   4.519   5.734   3.441
10444SOL    HW232232   4.363   5.688   3.422
10445SOL     OW32233   1.379   3.335   3.657
10445SOL    HW132234   1.312   3.304   3.724
10445SOL    HW232235   1.462   3.366   3.704
10446SOL     OW32236   3.121   4.700   5.232
10446SOL    HW132237   3.050   4.635   5.207
10446SOL    HW232238   3.151   4.683   5.325
10447SOL     OW32239   1.725   1.930   3.068
10447SOL    HW132240   1.732   1.860   2.997
10447SOL    HW232241   1.688   2.014   3.028
10448SOL     OW32242   0.642   5.105   2.128
10448SOL    HW132243   0.652   5.178   2.196
10448SOL    HW232244   0.674   5.137   2.039
10449SOL     OW32245   3.882   5.199   4.391
10449SOL    HW132246   3.832   5.196   4.304
10449SOL    HW232247   3.846   5.129   4.453
10450SOL     OW32248   0.548   2.488   4.536
10450SOL    HW132249   0.458   2.443   4.531
10450SOL    HW232250   0.569   2.531   4.449
10451SOL     OW32251   2.026   2.230   4.848
10451SOL    HW132252   1.979   2.318   4.859
10451SOL    HW232253   2.030   2.183   4.937
10452SOL     OW32254   6.789   2.572   4.284
10452SOL    HW132255   6.834   2.492   4.325
10452SOL    HW232256   6.856   2.625   4.233
10453SOL     OW32257   3.114   5.986   4.028
10453SOL    HW132258   3.170   6.059   4.067
10453SOL    HW232259   3.020   5.997   4.059
10454SOL     OW32260   6.637   2.041   6.918
10454SOL    HW132261   6.659   1.984   6.998
10454SOL    HW232262   6.716   2.098   6.895
10455SOL     OW32263   0.840   6.131   2.837
10455SOL    HW132264   0.900   6.204   2.870
10455SOL    HW232265   0.765   6.118   2.901
10456SOL     OW32266   1.043   5.507   6.327
10456SOL    HW132267   1.069   5.509   6.424
10456SOL    HW232268   1.081   5.426   6.284
10457SOL     OW32269   4.478   1.453   1.172
10457SOL    HW132270   4.467   1.384   1.244
10457SOL    HW232271   4.453   1.414   1.084
10458SOL     OW32272   1.820   0.023   6.870
10458SOL    HW132273   1.914   0.016   6.903
10458SOL    HW232274   1.821   0.057   6.776
10459SOL     OW32275   5.630   6.100   0.977
10459SOL    HW132276   5.564   6.084   0.904
10459SOL    HW232277   5.583   6.094   1.066
10460SOL     OW32278   6.528   1.200   6.953
10460SOL    HW132279   6.446   1.258   6.951
10460SOL    HW232280   6.534   1.148   6.868
10461SOL     OW32281   6.660   4.254   5.679
10461SOL    HW132282   6.686   4.161   5.705
10461SOL    HW232283   6.716   4.285   5.602
10462SOL     OW32284   4.227   3.548   0.037
10462SOL    HW132285   4.132   3.521   0.053
10462SOL    HW232286   4.246   3.634   0.083
10463SOL     OW32287   4.594   2.906   5.245
10463SOL    HW132288   4.576   2.952   5.332
10463SOL    HW232289   4.529   2.831   5.233
10464SOL     OW32290   6.106   4.768   1.965
10464SOL    HW132291   6.039   4.837   1.993
10464SOL    HW232292   6.197   4.810   1.960
10465SOL     OW32293   5.156   4.120   0.504
10465SOL    HW132294   5.139   4.164   0.592
10465SOL    HW232295   5.195   4.186   0.440
10466SOL     OW32296   6.473   3.881   5.649
10466SOL    HW132297   6.426   3.826   5.580
10466SOL    HW232298   6.407   3.931   5.704
10467SOL     OW32299   0.575   3.687   6.607
10467SOL    HW132300   0.557   3.686   6.705
10467SOL    HW232301   0.542   3.773   6.568
10468SOL     OW32302   1.626   4.405   3.673
10468SOL    HW132303   1.527   4.412   3.661
10468SOL    HW232304   1.653   4.456   3.755
10469SOL     OW32305   1.595   0.554   4.293
10469SOL    HW132306   1.516   0.610   4.321
10469SOL    HW232307   1.634   0.508   4.373
10470SOL     OW32308   2.510   4.102   1.746
10470SOL    HW132309   2.457   4.046   1.811
10470SOL    HW232310   2.569   4.165   1.797
10471SOL     OW32311   1.762   4.576   5.830
10471SOL    HW132312   1.773   4.675   5.839
10471SOL    HW232313   1.703   4.556   5.751
10472SOL     OW32314   4.247   5.435   5.790
10472SOL    HW132315   4.335   5.411   5.749
10472SOL    HW232316   4.174   5.426   5.722
10473SOL     OW32317   5.792   5.914   0.481
10473SOL    HW132318   5.870   5.875   0.433
10473SOL    HW232319   5.720   5.936   0.416
10474SOL     OW32320   6.191   5.690   5.144
10474SOL    HW132321   6.215   5.621   5.212
10474SOL    HW232322   6.101   5.670   5.107
10475SOL     OW32323   6.745   6.126   1.668
10475SOL    HW132324   6.706   6.195   1.729
10475SOL    HW232325   6.728   6.151   1.573
10476SOL     OW32326   5.247   6.349   1.492
10476SOL    HW132327   5.320   6.352   1.424
10476SOL    HW232328   5.217   6.254   1.503
10477SOL     OW32329   0.033   5.681   3.346
10477SOL    HW132330   6.976   5.714   3.400
10477SOL    HW232331   0.117   5.688   3.401
10478SOL     OW32332   0.004   1.585   0.275
10478SOL    HW132333   0.033   1.651   0.345
10478SOL    HW232334   0.024   1.492   0.307
10479SOL     OW32335   0.380   4.769   2.776
10479SOL    HW132336   0.413   4.675   2.769
10479SOL    HW232337   0.407   4.821   2.696
10480SOL     OW32338   2.594   1.254   3.373
10480SOL    HW132339   2.649   1.314   3.316
10480SOL    HW232340   2.653   1.207   3.439
10481SOL     OW32341   5.845   0.410   1.888
10481SOL    HW132342   5.867   0.495   1.934
10481SOL    HW232343   5.891   0.406   1.800
10482SOL     OW32344   4.652   4.305   4.548
10482SOL    HW132345   4.737   4.253   4.540
10482SOL    HW232346   4.603   4.276   4.631
10483SOL     OW32347   6.527   1.083   6.704
10483SOL    HW132348   6.536   1.152   6.633
10483SOL    HW232349   6.540   0.992   6.664
10484SOL     OW32350   5.962   0.432   1.652
10484SOL    HW132351   6.032   0.496   1.619
10484SOL    HW232352   5.896   0.415   1.579
10485SOL     OW32353   5.839   3.286   5.594
10485SOL    HW132354   5.783   3.286   5.677
10485SOL    HW232355   5.811   3.361   5.535
10486SOL     OW32356   6.344   2.787   2.899
10486SOL    HW132357   6.274   2.716   2.896
10486SOL    HW232358   6.370   2.813   2.806
10487SOL     OW32359   3.935   6.998   2.755
10487SOL    HW132360   3.995   6.964   2.683
10487SOL    HW232361   3.977   0.056   2.800
10488SOL     OW32362   4.075   3.834   0.015
10488SOL    HW132363   4.083   3.928   0.051
10488SOL    HW232364   4.026   3.836   6.949
10489SOL     OW32365   1.638   5.524   5.391
10489SOL    HW132366   1.570   5.451   5.405
10489SOL    HW232367   1.687   5.508   5.305
10490SOL     OW32368   6.018   0.340   4.626
10490SOL    HW132369   5.920   0.331   4.609
10490SOL    HW232370   6.067   0.335   4.540
10491SOL     OW32371   6.721   5.776   5.206
10491SOL    HW132372   6.799   5.740   5.257
10491SOL    HW232373   6.747   5.790   5.111
10492SOL     OW32374   4.445   3.738   5.962
10492SOL    HW132375   4.355   3.714   6.000
10492SOL    HW232376   4.517   3.705   6.023
10493SOL     OW32377   3.617   1.246   0.194
10493SOL    HW132378   3.680   1.304   0.245
10493SOL    HW232379   3.664   1.207   0.114
10494SOL     OW32380   5.537   1.415   5.349
10494SOL    HW132381   5.462   1.479   5.332
10494SOL    HW232382   5.615   1.466   5.387
10495SOL     OW32383   0.813   0.830   0.119
10495SOL    HW132384   0.876   0.754   0.133
10495SOL    HW232385   0.847   0.887   0.044
10496SOL     OW32386   6.887   0.265   5.370
10496SOL    HW132387   6.920   0.278   5.276
10496SOL    HW232388   6.853   0.352   5.406
10497SOL     OW32389   2.257   1.095   6.602
10497SOL    HW132390   2.333   1.122   6.662
10497SOL    HW232391   2.186   1.052   6.657
10498SOL     OW32392   3.207   5.316   5.723
10498SOL    HW132393   3.285   5.300   5.783
10498SOL    HW232394   3.152   5.232   5.716
10499SOL     OW32395   3.592   6.231   2.571
10499SOL    HW132396   3.613   6.134   2.560
10499SOL    HW232397   3.500   6.250   2.535
10500SOL     OW32398   2.229   1.565   6.305
10500SOL    HW132399   2.139   1.605   6.290
10500SOL    HW232400   2.299   1.637   6.304
10501SOL     OW32401   1.502   3.287   3.235
10501SOL    HW132402   1.418   3.272   3.287
10501SOL    HW232403   1.558   3.357   3.280
10502SOL     OW32404   2.991   6.620   5.178
10502SOL    HW132405   3.050   6.541   5.161
10502SOL    HW232406   2.904   6.589   5.216
10503SOL     OW32407   2.578   3.343   6.741
10503SOL    HW132408   2.513   3.317   6.812
10503SOL    HW232409   2.544   3.314   6.652
10504SOL     OW32410   1.925   2.969   0.477
10504SOL    HW132411   1.996   2.900   0.488
10504SOL    HW232412   1.896   3.002   0.567
10505SOL     OW32413   0.296   5.703   0.438
10505SOL    HW132414   0.257   5.623   0.484
10505SOL    HW232415   0.254   5.714   0.348
10506SOL     OW32416   6.685   5.470   6.082
10506SOL    HW132417   6.603   5.436   6.036
10506SOL    HW232418   6.758   5.402   6.073
10507SOL     OW32419   2.986   1.063   3.785
10507SOL    HW132420   2.971   0.993   3.855
10507SOL    HW232421   3.043   1.024   3.712
10508SOL     OW32422   5.280   5.735   3.292
10508SOL    HW132423   5.265   5.795   3.214
10508SOL    HW232424   5.367   5.686   3.280
10509SOL     OW32425   1.989   1.052   5.264
10509SOL    HW132426   2.067   1.044   5.201
10509SOL    HW232427   1.912   1.000   5.228
10510SOL     OW32428   5.580   0.898   6.226
10510SOL    HW132429   5.596   0.815   6.171
10510SOL    HW232430   5.488   0.933   6.205
10511SOL     OW32431   6.731   2.676   1.738
10511SOL    HW132432   6.822   2.675   1.779
10511SOL    HW232433   6.696   2.770   1.737
10512SOL     OW32434   2.093   0.038   6.885
10512SOL    HW132435   2.119   6.963   6.874
10512SOL    HW232436   2.149   0.095   6.825
10513SOL     OW32437   6.971   2.533   0.858
10513SOL    HW132438   6.951   2.569   0.949
10513SOL    HW232439   6.926   2.590   0.789
10514SOL     OW32440   1.963   2.849   1.688
10514SOL    HW132441   1.990   2.776   1.750
10514SOL    HW232442   1.888   2.902   1.729
10515SOL     OW32443   6.932   3.748   4.812
10515SOL    HW132444   6.954   3.731   4.716
10515SOL    HW232445   6.986   3.825   4.845
10516SOL     OW32446   2.735   6.677   0.011
10516SOL    HW132447   2.771   6.760   6.990
10516SOL    HW232448   2.687   6.624   6.962
10517SOL     OW32449   0.608   2.507   3.664
10517SOL    HW132450   0.601   2.502   3.565
10517SOL    HW232451   0.588   2.417   3.704
10518SOL     OW32452   0.650   6.515   3.079
10518SOL    HW132453   0.601   6.593   3.116
10518SOL    HW232454   0.585   6.443   3.056
10519SOL     OW32455   3.969   3.176   4.926
10519SOL    HW132456   4.030   3.161   5.004
10519SOL    HW232457   3.995   3.117   4.850
10520SOL     OW32458   3.024   4.993   6.765
10520SOL    HW132459   2.937   5.039   6.781
10520SOL    HW232460   3.026   4.907   6.816
10521SOL     OW32461   6.636   5.472   1.948
10521SOL    HW132462   6.581   5.550   1.979
10521SOL    HW232463   6.666   5.419   2.026
10522SOL     OW32464   6.188   6.863   2.820
10522SOL    HW132465   6.133   6.859   2.903
10522SOL    HW232466   6.247   6.943   2.823
10523SOL     OW32467   5.651   6.389   6.614
10523SOL    HW132468   5.619   6.358   6.703
10523SOL    HW232469   5.668   6.309   6.556
10524SOL     OW32470   4.922   1.391   4.702
10524SOL    HW132471   4.965   1.479   4.680
10524SOL    HW232472   4.854   1.368   4.633
10525SOL     OW32473   1.653   0.446   5.054
10525SOL    HW132474   1.573   0.413   5.105
10525SOL    HW232475   1.712   0.369   5.031
10526SOL     OW32476   4.444   5.166   2.489
10526SOL    HW132477   4.437   5.111   2.572
10526SOL    HW232478   4.440   5.107   2.409
10527SOL     OW32479   1.933   2.945   4.064
10527SOL    HW132480   1.884   2.902   3.989
10527SOL    HW232481   1.904   2.905   4.151
10528SOL     OW32482   5.585   4.062   6.374
10528SOL    HW132483   5.509   4.125   6.392
10528SOL    HW232484   5.554   3.990   6.312
10529SOL     OW32485   0.053   5.602   5.228
10529SOL    HW132486   0.055   5.508   5.193
10529SOL    HW232487   0.077   5.602   5.325
10530SOL     OW32488   1.292   1.678   5.061
10530SOL    HW132489   1.334   1.687   4.970
10530SOL    HW232490   1.264   1.583   5.075
10531SOL     OW32491   2.816   2.282   4.385
10531SOL    HW132492   2.756   2.359   4.366
10531SOL    HW232493   2.868   2.259   4.303
10532SOL     OW32494   3.613   3.466   4.696
10532SOL    HW132495   3.704   3.446   4.659
10532SOL    HW232496   3.552   3.493   4.622
10533SOL     OW32497   3.424   1.011   6.418
10533SOL    HW132498   3.443   0.916   6.442
10533SOL    HW232499   3.490   1.071   6.464
10534SOL     OW32500   5.736   4.227   2.177
10534SOL    HW132501   5.714   4.309   2.123
10534SOL    HW232502   5.829   4.237   2.214
10535SOL     OW32503   0.012   1.211   1.507
10535SOL    HW132504   0.095   1.159   1.489
10535SOL    HW232505   7.009   1.266   1.426
10536SOL     OW32506   5.752   5.867   2.550
10536SOL    HW132507   5.792   5.810   2.478
10536SOL    HW232508   5.725   5.808   2.626
10537SOL     OW32509   6.276   5.169   1.232
10537SOL    HW132510   6.296   5.233   1.306
10537SOL    HW232511   6.338   5.185   1.156
10538SOL     OW32512   4.197   3.389   6.595
10538SOL    HW132513   4.151   3.301   6.581
10538SOL    HW232514   4.240   3.390   6.686
10539SOL     OW32515   1.311   3.200   5.339
10539SOL    HW132516   1.314   3.178   5.242
10539SOL    HW232517   1.272   3.123   5.390
10540SOL     OW32518   3.358   1.228   0.888
10540SOL    HW132519   3.268   1.247   0.847
10540SOL    HW232520   3.363   1.133   0.917
10541SOL     OW32521   2.997   2.383   1.477
10541SOL    HW132522   2.988   2.304   1.537
10541SOL    HW232523   2.981   2.467   1.529
10542SOL     OW32524   2.172   2.475   0.214
10542SOL    HW132525   2.075   2.455   0.212
10542SOL    HW232526   2.219   2.421   0.144
10543SOL     OW32527   2.765   0.540   4.037
10543SOL    HW132528   2.797   0.453   4.000
10543SOL    HW232529   2.843   0.591   4.074
10544SOL     OW32530   0.343   1.895   1.140
10544SOL    HW132531   0.249   1.861   1.149
10544SOL    HW232532   0.343   1.995   1.147
10545SOL     OW32533   3.867   1.034   3.054
10545SOL    HW132534   3.958   1.059   3.086
10545SOL    HW232535   3.872   0.948   3.002
10546SOL     OW32536   4.590   0.976   4.852
10546SOL    HW132537   4.675   0.984   4.904
10546SOL    HW232538   4.563   1.067   4.818
10547SOL     OW32539   4.734   6.050   2.076
10547SOL    HW132540   4.796   6.024   2.151
10547SOL    HW232541   4.649   6.087   2.115
10548SOL     OW32542   4.584   4.348   5.606
10548SOL    HW132543   4.585   4.268   5.666
10548SOL    HW232544   4.489   4.374   5.587
10549SOL     OW32545   0.228   1.153   2.232
10549SOL    HW132546   0.191   1.062   2.253
10549SOL    HW232547   0.238   1.205   2.316
10550SOL     OW32548   4.667   0.116   4.911
10550SOL    HW132549   4.750   0.161   4.944
10550SOL    HW232550   4.685   0.018   4.898
10551SOL     OW32551   1.982   2.919   6.121
10551SOL    HW132552   1.951   2.829   6.154
10551SOL    HW232553   1.944   2.935   6.030
10552SOL     OW32554   3.232   0.999   5.590
10552SOL    HW132555   3.238   0.900   5.602
10552SOL    HW232556   3.148   1.032   5.634
10553SOL     OW32557   2.650   4.785   6.635
10553SOL    HW132558   2.590   4.730   6.694
10553SOL    HW232559   2.694   4.726   6.568
10554SOL     OW32560   6.220   3.559   6.065
10554SOL    HW132561   6.194   3.558   6.162
10554SOL    HW232562   6.288   3.487   6.048
10555SOL     OW32563   3.572   2.443   1.012
10555SOL    HW132564   3.477   2.460   0.984
10555SOL    HW232565   3.572   2.391   1.097
10556SOL     OW32566   2.311   5.155   4.140
10556SOL    HW132567   2.254   5.100   4.080
10556SOL    HW232568   2.407   5.130   4.126
10557SOL     OW32569   5.318   1.605   2.916
10557SOL    HW132570   5.219   1.603   2.900
10557SOL    HW232571   5.353   1.511   2.918
10558SOL     OW32572   6.040   5.710   6.197
10558SOL    HW132573   6.084   5.636   6.147
10558SOL    HW232574   6.103   5.787   6.204
10559SOL     OW32575   4.207   2.916   1.441
10559SOL    HW132576   4.269   2.838   1.434
10559SOL    HW232577   4.179   2.928   1.537
10560SOL     OW32578   0.089   2.146   4.266
10560SOL    HW132579   0.156   2.096   4.210
10560SOL    HW232580   0.004   2.156   4.215
10561SOL     OW32581   1.800   4.038   6.503
10561SOL    HW132582   1.740   4.071   6.430
10561SOL    HW232583   1.894   4.066   6.484
10562SOL     OW32584   4.747   1.838   0.950
10562SOL    HW132585   4.795   1.754   0.926
10562SOL    HW232586   4.663   1.844   0.896
10563SOL     OW32587   1.716   2.257   2.379
10563SOL    HW132588   1.646   2.248   2.450
10563SOL    HW232589   1.681   2.313   2.304
10564SOL     OW32590   0.179   1.681   2.543
10564SOL    HW132591   0.248   1.713   2.607
10564SOL    HW232592   0.121   1.612   2.587
10565SOL     OW32593   5.301   2.243   5.160
10565SOL    HW132594   5.364   2.221   5.234
10565SOL    HW232595   5.239   2.316   5.189
10566SOL     OW32596   4.852   5.579   0.013
10566SOL    HW132597   4.950   5.565   0.028
10566SOL    HW232598   4.802   5.497   0.041
10567SOL     OW32599   2.174   5.465   5.227
10567SOL    HW132600   2.179   5.505   5.135
10567SOL    HW232601   2.265   5.432   5.253
10568SOL     OW32602   3.809   0.358   3.960
10568SOL    HW132603   3.875   0.286   3.941
10568SOL    HW232604   3.716   0.322   3.950
10569SOL     OW32605   6.493   1.864   4.035
10569SOL    HW132606   6.484   1.792   3.967
10569SOL    HW232607   6.545   1.940   3.996
10570SOL     OW32608   0.928   2.990   1.739
10570SOL    HW132609   0.855   2.931   1.704
10570SOL    HW232610   1.002   2.994   1.672
10571SOL     OW32611   6.942   6.896   4.605
10571SOL    HW132612   6.874   6.926   4.671
10571SOL    HW232613   6.901   6.829   4.543
10572SOL     OW32614   6.399   3.819   2.726
10572SOL    HW132615   6.359   3.830   2.635
10572SOL    HW232616   6.338   3.766   2.784
10573SOL     OW32617   6.505   4.790   5.447
10573SOL    HW132618   6.418   4.778   5.495
10573SOL    HW232619   6.567   4.716   5.473
10574SOL     OW32620   0.717   2.294   2.655
10574SOL    HW132621   0.692   2.388   2.629
10574SOL    HW232622   0.635   2.238   2.660
10575SOL     OW32623   0.136   0.223   5.905
10575SOL    HW132624   0.038   0.204   5.913
10575SOL    HW232625   0.177   0.157   5.843
10576SOL     OW32626   0.554   5.887   3.691
10576SOL    HW132627   0.519   5.807   3.740
10576SOL    HW232628   0.483   5.957   3.686
10577SOL     OW32629   0.157   3.180   5.541
10577SOL    HW132630   0.191   3.250   5.603
10577SOL    HW232631   0.215   3.175   5.460
10578SOL     OW32632   5.212   0.901   5.096
10578SOL    HW132633   5.180   0.869   5.007
10578SOL    HW232634   5.307   0.871   5.109
10579SOL     OW32635   5.664   6.650   1.300
10579SOL    HW132636   5.741   6.609   1.252
10579SOL    HW232637   5.589   6.666   1.235
10580SOL     OW32638   1.004   5.857   0.520
10580SOL    HW132639   1.047   5.769   0.544
10580SOL    HW232640   0.937   5.843   0.448
10581SOL     OW32641   4.237   2.219   2.763
10581SOL    HW132642   4.327   2.219   2.720
10581SOL    HW232643   4.245   2.258   2.855
10582SOL     OW32644   3.464   4.015   6.868
10582SOL    HW132645   3.515   3.939   6.828
10582SOL    HW232646   3.399   3.980   6.935
10583SOL     OW32647   4.846   0.550   1.416
10583SOL    HW132648   4.820   0.481   1.483
10583SOL    HW232649   4.866   0.636   1.463
10584SOL     OW32650   5.422   6.606   1.512
10584SOL    HW132651   5.339   6.581   1.561
10584SOL    HW232652   5.458   6.692   1.548
10585SOL     OW32653   3.016   4.139   6.814
10585SOL    HW132654   3.042   4.144   6.910
10585SOL    HW232655   3.000   4.231   6.778
10586SOL     OW32656   5.096   2.154   1.738
10586SOL    HW132657   5.106   2.245   1.700
10586SOL    HW232658   5.027   2.103   1.686
10587SOL     OW32659   0.350   3.737   0.655
10587SOL    HW132660   0.274   3.674   0.669
10587SOL    HW232661   0.332   3.823   0.703
10588SOL     OW32662   1.726   5.467   3.557
10588SOL    HW132663   1.806   5.527   3.555
10588SOL    HW232664   1.650   5.514   3.602
10589SOL     OW32665   6.019   0.819   4.302
10589SOL    HW132666   5.930   0.865   4.308
10589SOL    HW232667   6.091   0.888   4.296
10590SOL     OW32668   0.626   0.120   4.360
10590SOL    HW132669   0.554   0.068   4.313
10590SOL    HW232670   0.712   0.071   4.353
10591SOL     OW32671   1.332   2.434   1.394
10591SOL    HW132672   1.370   2.527   1.393
10591SOL    HW232673   1.401   2.370   1.427
10592SOL     OW32674   5.198   1.521   6.057
10592SOL    HW132675   5.210   1.524   6.156
10592SOL    HW232676   5.110   1.562   6.032
10593SOL     OW32677   1.724   3.690   2.382
10593SOL    HW132678   1.727   3.782   2.421
10593SOL    HW232679   1.707   3.696   2.284
10594SOL     OW32680   1.503   1.311   4.745
10594SOL    HW132681   1.580   1.374   4.744
10594SOL    HW232682   1.519   1.237   4.680
10595SOL     OW32683   1.428   5.664   4.929
10595SOL    HW132684   1.483   5.582   4.941
10595SOL    HW232685   1.452   5.708   4.842
10596SOL     OW32686   2.678   1.139   1.070
10596SOL    HW132687   2.712   1.049   1.041
10596SOL    HW232688   2.734   1.210   1.029
10597SOL     OW32689   1.677   0.790   3.928
10597SOL    HW132690   1.729   0.706   3.913
10597SOL    HW232691   1.716   0.840   4.005
10598SOL     OW32692   2.879   0.687   0.638
10598SOL    HW132693   2.924   0.603   0.667
10598SOL    HW232694   2.780   0.678   0.649
10599SOL     OW32695   4.502   0.193   6.182
10599SOL    HW132696   4.411   0.190   6.142
10599SOL    HW232697   4.563   0.133   6.130
10600SOL     OW32698   1.935   2.955   5.381
10600SOL    HW132699   2.003   2.988   5.316
10600SOL    HW232700   1.962   2.979   5.474
10601SOL     OW32701   4.440   6.244   5.114
10601SOL    HW132702   4.351   6.248   5.069
10601SOL    HW232703   4.478   6.336   5.121
10602SOL     OW32704   4.878   2.403   2.123
10602SOL    HW132705   4.904   2.500   2.127
10602SOL    HW232706   4.865   2.377   2.027
10603SOL     OW32707   0.532   5.414   5.147
10603SOL    HW132708   0.517   5.317   5.169
10603SOL    HW232709   0.498   5.471   5.222
10604SOL     OW32710   0.435   4.547   6.649
10604SOL    HW132711   0.336   4.539   6.637
10604SOL    HW232712   0.455   4.584   6.739
10605SOL     OW32713   1.197   4.642   0.407
10605SOL    HW132714   1.223   4.600   0.494
10605SOL    HW232715   1.159   4.573   0.346
10606SOL     OW32716   1.545   1.124   1.977
10606SOL    HW132717   1.582   1.090   2.063
10606SOL    HW232718   1.513   1.047   1.921
10607SOL     OW32719   5.564   4.104   6.902
10607SOL    HW132720   5.619   4.178   6.942
10607SOL    HW232721   5.472   4.137   6.885
10608SOL     OW32722   5.556   6.111   2.558
10608SOL    HW132723   5.619   6.185   2.533
10608SOL    HW232724   5.601   6.023   2.548
10609SOL     OW32725   3.821   6.754   3.234
10609SOL    HW132726   3.830   6.799   3.145
10609SOL    HW232727   3.888   6.681   3.241
10610SOL     OW32728   2.279   4.930   5.184
10610SOL    HW132729   2.341   4.924   5.105
10610SOL    HW232730   2.195   4.881   5.164
10611SOL     OW32731   4.664   2.173   6.006
10611SOL    HW132732   4.569   2.191   5.982
10611SOL    HW232733   4.688   2.224   6.089
10612SOL     OW32734   2.212   0.289   1.507
10612SOL    HW132735   2.292   0.229   1.509
10612SOL    HW232736   2.189   0.311   1.412
10613SOL     OW32737   1.300   6.595   0.264
10613SOL    HW132738   1.363   6.535   0.214
10613SOL    HW232739   1.299   6.569   0.361
10614SOL     OW32740   0.491   1.163   2.809
10614SOL    HW132741   0.469   1.072   2.844
10614SOL    HW232742   0.503   1.158   2.709
10615SOL     OW32743   0.418   6.108   5.838
10615SOL    HW132744   0.369   6.192   5.816
10615SOL    HW232745   0.353   6.039   5.871
10616SOL     OW32746   3.635   5.410   1.710
10616SOL    HW132747   3.593   5.322   1.730
10616SOL    HW232748   3.564   5.481   1.710
10617SOL     OW32749   6.206   2.084   6.511
10617SOL    HW132750   6.246   2.019   6.576
10617SOL    HW232751   6.267   2.096   6.434
10618SOL     OW32752   6.890   4.066   0.863
10618SOL    HW132753   6.855   4.159   0.867
10618SOL    HW232754   6.914   4.035   0.956
10619SOL     OW32755   0.368   3.498   3.924
10619SOL    HW132756   0.429   3.458   3.856
10619SOL    HW232757   0.343   3.428   3.991
10620SOL     OW32758   1.660   5.013   3.740
10620SOL    HW132759   1.678   4.915   3.730
10620SOL    HW232760   1.647   5.035   3.837
10621SOL     OW32761   3.608   1.009   0.596
10621SOL    HW132762   3.549   1.056   0.531
10621SOL    HW232763   3.553   0.948   0.654
10622SOL     OW32764   4.324   2.116   0.677
10622SOL    HW132765   4.362   2.173   0.750
10622SOL    HW232766   4.358   2.148   0.589
10623SOL     OW32767   6.854   1.547   4.157
10623SOL    HW132768   6.782   1.497   4.205
10623SOL    HW232769   6.873   1.633   4.205
10624SOL     OW32770   2.482   1.727   3.749
10624SOL    HW132771   2.516   1.742   3.842
10624SOL    HW232772   2.416   1.798   3.726
10625SOL     OW32773   0.843   2.898   1.451
10625SOL    HW132774   0.908   2.972   1.435
10625SOL    HW232775   0.892   2.811   1.460
10626SOL     OW32776   0.423   2.128   3.112
10626SOL    HW132777   0.422   2.215   3.062
10626SOL    HW232778   0.452   2.055   3.051
10627SOL     OW32779   3.351   5.616   4.389
10627SOL    HW132780   3.265   5.603   4.339
10627SOL    HW232781   3.428   5.593   4.329
10628SOL     OW32782   0.197   0.115   5.416
10628SOL    HW132783   0.173   0.065   5.333
10628SOL    HW232784   0.117   0.117   5.477
10629SOL     OW32785   3.204   4.446   6.838
10629SOL    HW132786   3.148   4.470   6.759
10629SOL    HW232787   3.241   4.529   6.879
10630SOL     OW32788   5.624   1.421   1.632
10630SOL    HW132789   5.649   1.324   1.640
10630SOL    HW232790   5.550   1.431   1.566
10631SOL     OW32791   1.606   0.046   4.205
10631SOL    HW132792   1.627   6.987   4.262
10631SOL    HW232793   1.541   0.105   4.253
10632SOL     OW32794   6.820   2.930   0.329
10632SOL    HW132795   6.883   2.890   0.395
10632SOL    HW232796   6.841   3.027   0.317
10633SOL     OW32797   1.781   4.773   6.747
10633SOL    HW132798   1.865   4.794   6.796
10633SOL    HW232799   1.731   4.701   6.795
10634SOL     OW32800   3.343   6.245   2.515
10634SOL    HW132801   3.313   6.297   2.435
10634SOL    HW232802   3.284   6.164   2.526
10635SOL     OW32803   0.950   0.457   1.300
10635SOL    HW132804   0.916   0.550   1.319
10635SOL    HW232805   1.041   0.463   1.260
10636SOL     OW32806   5.049   1.798   6.963
10636SOL    HW132807   4.967   1.839   7.001
10636SOL    HW232808   5.111   1.771   0.016
10637SOL     OW32809   3.454   3.457   6.654
10637SOL    HW132810   3.505   3.465   6.740
10637SOL    HW232811   3.459   3.543   6.605
10638SOL     OW32812   6.789   1.339   5.270
10638SOL    HW132813   6.802   1.379   5.360
10638SOL    HW232814   6.717   1.388   5.221
10639SOL     OW32815   3.421   1.846   4.443
10639SOL    HW132816   3.412   1.941   4.473
10639SOL    HW232817   3.493   1.802   4.496
10640SOL     OW32818   4.925   6.324   0.807
10640SOL    HW132819   4.922   6.233   0.848
10640SOL    HW232820   4.969   6.388   0.871
10641SOL     OW32821   3.654   6.618   6.923
10641SOL    HW132822   3.638   6.711   6.889
10641SOL    HW232823   3.578   6.559   6.895
10642SOL     OW32824   0.373   6.044   2.178
10642SOL    HW132825   0.344   5.980   2.249
10642SOL    HW232826   0.403   6.130   2.220
10643SOL     OW32827   3.534   3.565   6.093
10643SOL    HW132828   3.581   3.576   6.006
10643SOL    HW232829   3.439   3.538   6.077
10644SOL     OW32830   4.167   1.238   5.383
10644SOL    HW132831   4.218   1.312   5.339
10644SOL    HW232832   4.084   1.274   5.424
10645SOL     OW32833   1.843   0.837   3.283
10645SOL    HW132834   1.845   0.829   3.184
10645SOL    HW232835   1.831   0.932   3.310
10646SOL     OW32836   6.656   4.783   6.592
10646SOL    HW132837   6.638   4.860   6.652
10646SOL    HW232838   6.731   4.728   6.629
10647SOL     OW32839   6.491   6.137   1.262
10647SOL    HW132840   6.419   6.079   1.300
10647SOL    HW232841   6.516   6.104   1.171
10648SOL     OW32842   4.522   3.683   6.323
10648SOL    HW132843   4.456   3.757   6.310
10648SOL    HW232844   4.517   3.650   6.417
10649SOL     OW32845   6.558   4.730   6.327
10649SOL    HW132846   6.575   4.769   6.417
10649SOL    HW232847   6.573   4.632   6.330
10650SOL     OW32848   1.791   0.464   5.724
10650SOL    HW132849   1.750   0.376   5.747
10650SOL    HW232850   1.873   0.478   5.779
10651SOL     OW32851   1.347   0.507   5.734
10651SOL    HW132852   1.445   0.528   5.731
10651SOL    HW232853   1.300   0.558   5.662
10652SOL     OW32854   5.002   6.908   0.447
10652SOL    HW132855   4.915   6.864   0.469
10652SOL    HW232856   5.006   6.997   0.493
10653SOL     OW32857   6.136   4.203   3.600
10653SOL    HW132858   6.183   4.290   3.582
10653SOL    HW232859   6.203   4.135   3.629
10654SOL     OW32860   4.993   0.087   1.565
10654SOL    HW132861   5.054   0.009   1.545
10654SOL    HW232862   4.923   0.092   1.494
10655SOL     OW32863   3.099   5.875   1.001
10655SOL    HW132864   3.132   5.800   0.944
10655SOL    HW232865   3.004   5.896   0.977
10656SOL     OW32866   0.270   3.339   5.969
10656SOL    HW132867   0.362   3.365   5.999
10656SOL    HW232868   0.216   3.310   6.048
10657SOL     OW32869   6.043   0.409   0.066
10657SOL    HW132870   6.071   0.398   0.161
10657SOL    HW232871   5.969   0.345   0.045
10658SOL     OW32872   6.977   5.981   3.927
10658SOL    HW132873   0.036   5.975   3.987
10658SOL    HW232874   6.937   5.890   3.916
10659SOL     OW32875   5.686   1.388   1.139
10659SOL    HW132876   5.777   1.348   1.148
10659SOL    HW232877   5.627   1.352   1.212
10660SOL     OW32878   4.215   5.130   5.031
10660SOL    HW132879   4.154   5.050   5.026
10660SOL    HW232880   4.310   5.099   5.028
10661SOL     OW32881   7.000   0.713   2.097
10661SOL    HW132882   6.932   0.786   2.085
10661SOL    HW232883   7.002   0.655   2.016
10662SOL     OW32884   0.704   2.463   0.435
10662SOL    HW132885   0.682   2.394   0.367
10662SOL    HW232886   0.779   2.432   0.492
10663SOL     OW32887   0.992   2.402   2.495
10663SOL    HW132888   0.972   2.304   2.486
10663SOL    HW232889   0.939   2.453   2.428
10664SOL     OW32890   2.005   5.273   6.456
10664SOL    HW132891   1.950   5.355   6.437
10664SOL    HW232892   2.015   5.220   6.372
10665SOL     OW32893   5.694   2.015   6.581
10665SOL    HW132894   5.760   2.089   6.567
10665SOL    HW232895   5.628   2.014   6.507
10666SOL     OW32896   0.206   5.979   0.672
10666SOL    HW132897   0.294   6.003   0.713
10666SOL    HW232898   0.211   5.994   0.573
10667SOL     OW32899   3.411   2.294   5.547
10667SOL    HW132900   3.336   2.227   5.555
10667SOL    HW232901   3.379   2.374   5.496
10668SOL     OW32902   1.251   6.919   6.343
10668SOL    HW132903   1.307   6.998   6.369
10668SOL    HW232904   1.268   6.844   6.406
10669SOL     OW32905   2.148   5.559   6.307
10669SOL    HW132906   2.241   5.523   6.298
10669SOL    HW232907   2.092   5.528   6.229
10670SOL     OW32908   5.895   3.989   5.453
10670SOL    HW132909   5.802   3.961   5.477
10670SOL    HW232910   5.904   4.087   5.465
10671SOL     OW32911   2.291   2.807   3.413
10671SOL    HW132912   2.235   2.885   3.442
10671SOL    HW232913   2.232   2.730   3.389
10672SOL     OW32914   6.867   2.719   0.691
10672SOL    HW132915   6.774   2.740   0.658
10672SOL    HW232916   6.932   2.734   0.617
10673SOL     OW32917   3.187   3.976   3.345
10673SOL    HW132918   3.284   3.955   3.333
10673SOL    HW232919   3.137   3.954   3.262
10674SOL     OW32920   3.890   1.534   2.641
10674SOL    HW132921   3.791   1.542   2.641
10674SOL    HW232922   3.931   1.625   2.638
10675SOL     OW32923   1.410   1.874   5.435
10675SOL    HW132924   1.439   1.965   5.464
10675SOL    HW232925   1.407   1.813   5.514
10676SOL     OW32926   6.321   0.897   6.914
10676SOL    HW132927   6.378   0.830   6.865
10676SOL    HW232928   6.287   0.965   6.849
10677SOL     OW32929   4.872   0.608   6.352
10677SOL    HW132930   4.904   0.629   6.260
10677SOL    HW232931   4.949   0.579   6.409
10678SOL     OW32932   2.372   5.603   4.010
10678SOL    HW132933   2.328   5.625   3.923
10678SOL    HW232934   2.413   5.512   4.005
10679SOL     OW32935   6.046   5.208   4.086
10679SOL    HW132936   6.096   5.284   4.044
10679SOL    HW232937   5.957   5.198   4.040
10680SOL     OW32938   0.307   2.465   3.436
10680SOL    HW132939   0.406   2.447   3.438
10680SOL    HW232940   0.288   2.545   3.494
10681SOL     OW32941   0.711   3.014   6.868
10681SOL    HW132942   0.789   3.036   6.809
10681SOL    HW232943   0.690   3.093   6.926
10682SOL     OW32944   6.137   2.204   3.614
10682SOL    HW132945   6.154   2.110   3.644
10682SOL    HW232946   6.175   2.217   3.523
10683SOL     OW32947   0.634   0.391   4.199
10683SOL    HW132948   0.696   0.326   4.241
10683SOL    HW232949   0.599   0.454   4.270
10684SOL     OW32950   5.235   6.197   0.813
10684SOL    HW132951   5.224   6.297   0.811
10684SOL    HW232952   5.166   6.156   0.752
10685SOL     OW32953   6.635   2.320   3.495
10685SOL    HW132954   6.710   2.257   3.473
10685SOL    HW232955   6.637   2.397   3.432
10686SOL     OW32956   5.770   4.388   1.393
10686SOL    HW132957   5.714   4.393   1.476
10686SOL    HW232958   5.787   4.293   1.370
10687SOL     OW32959   0.383   5.195   1.047
10687SOL    HW132960   0.447   5.215   1.121
10687SOL    HW232961   0.289   5.203   1.080
10688SOL     OW32962   1.983   5.156   1.333
10688SOL    HW132963   1.931   5.091   1.277
10688SOL    HW232964   2.034   5.218   1.273
10689SOL     OW32965   0.154   0.821   1.618
10689SOL    HW132966   0.086   0.844   1.687
10689SOL    HW232967   0.136   0.873   1.535
10690SOL     OW32968   3.617   0.505   2.791
10690SOL    HW132969   3.689   0.460   2.739
10690SOL    HW232970   3.596   0.593   2.750
10691SOL     OW32971   5.219   1.753   1.549
10691SOL    HW132972   5.147   1.725   1.612
10691SOL    HW232973   5.196   1.723   1.457
10692SOL     OW32974   5.778   6.459   4.057
10692SOL    HW132975   5.779   6.536   3.993
10692SOL    HW232976   5.698   6.403   4.040
10693SOL     OW32977   4.274   2.280   4.383
10693SOL    HW132978   4.184   2.238   4.382
10693SOL    HW232979   4.297   2.312   4.291
10694SOL     OW32980   3.002   6.373   0.188
10694SOL    HW132981   2.983   6.290   0.239
10694SOL    HW232982   3.064   6.431   0.241
10695SOL     OW32983   5.946   2.967   5.730
10695SOL    HW132984   5.886   2.887   5.727
10695SOL    HW232985   6.039   2.941   5.705
10696SOL     OW32986   6.809   0.615   1.104
10696SOL    HW132987   6.717   0.633   1.138
10696SOL    HW232988   6.817   0.647   1.009
10697SOL     OW32989   3.337   6.156   2.985
10697SOL    HW132990   3.318   6.223   3.057
10697SOL    HW232991   3.292   6.070   3.007
10698SOL     OW32992   3.863   6.815   3.696
10698SOL    HW132993   3.815   6.886   3.644
10698SOL    HW232994   3.908   6.751   3.633
10699SOL     OW32995   6.994   4.028   3.180
10699SOL    HW132996   6.911   4.083   3.171
10699SOL    HW232997   6.974   3.942   3.226
10700SOL     OW32998   0.736   2.868   3.230
10700SOL    HW132999   0.706   2.838   3.140
10700SOL    HW233000   0.788   2.794   3.274
10701SOL     OW33001   2.573   6.641   1.626
10701SOL    HW133002   2.618   6.625   1.714
10701SOL    HW233003   2.474   6.643   1.639
10702SOL     OW33004   4.781   1.665   1.261
10702SOL    HW133005   4.840   1.742   1.236
10702SOL    HW233006   4.685   1.692   1.247
10703SOL     OW33007   3.332   4.110   4.549
10703SOL    HW133008   3.240   4.100   4.589
10703SOL    HW233009   3.365   4.022   4.518
10704SOL     OW33010   5.409   5.005   1.357
10704SOL    HW133011   5.474   5.068   1.315
10704SOL    HW233012   5.434   4.991   1.453
10705SOL     OW33013   1.285   3.091   0.103
10705SOL    HW133014   1.345   3.023   0.060
10705SOL    HW233015   1.195   3.090   0.058
10706SOL     OW33016   3.020   3.462   0.245
10706SOL    HW133017   3.061   3.510   0.167
10706SOL    HW233018   3.058   3.371   0.252
10707SOL     OW33019   6.470   0.659   6.737
10707SOL    HW133020   6.563   0.654   6.775
10707SOL    HW233021   6.471   0.717   6.656
10708SOL     OW33022   4.274   3.207   1.346
10708SOL    HW133023   4.278   3.118   1.389
10708SOL    HW233024   4.202   3.262   1.389
10709SOL     OW33025   0.795   1.204   5.854
10709SOL    HW133026   0.802   1.114   5.898
10709SOL    HW233027   0.852   1.270   5.903
10710SOL     OW33028   6.695   6.601   3.481
10710SOL    HW133029   6.622   6.533   3.491
10710SOL    HW233030   6.711   6.647   3.568
10711SOL     OW33031   1.903   4.296   5.280
10711SOL    HW133032   1.978   4.362   5.284
10711SOL    HW233033   1.900   4.245   5.366
10712SOL     OW33034   3.855   2.155   5.662
10712SOL    HW133035   3.871   2.102   5.745
10712SOL    HW233036   3.781   2.220   5.677
10713SOL     OW33037   2.648   0.317   0.248
10713SOL    HW133038   2.700   0.253   0.304
10713SOL    HW233039   2.560   0.276   0.223
10714SOL     OW33040   5.034   5.445   4.491
10714SOL    HW133041   5.088   5.459   4.574
10714SOL    HW233042   4.968   5.520   4.482
10715SOL     OW33043   5.722   6.954   2.610
10715SOL    HW133044   5.811   7.000   2.606
10715SOL    HW233045   5.690   6.934   2.518
10716SOL     OW33046   6.371   2.071   2.604
10716SOL    HW133047   6.336   2.060   2.511
10716SOL    HW233048   6.440   2.143   2.606
10717SOL     OW33049   0.249   6.786   0.863
10717SOL    HW133050   0.218   6.852   0.930
10717SOL    HW233051   0.174   6.762   0.802
10718SOL     OW33052   0.697   4.764   5.430
10718SOL    HW133053   0.771   4.730   5.371
10718SOL    HW233054   0.625   4.696   5.435
10719SOL     OW33055   3.769   6.455   3.415
10719SOL    HW133056   3.815   6.393   3.479
10719SOL    HW233057   3.835   6.520   3.378
10720SOL     OW33058   1.477   3.165   5.814
10720SOL    HW133059   1.573   3.139   5.798
10720SOL    HW233060   1.430   3.089   5.859
10721SOL     OW33061   5.392   0.888   4.416
10721SOL    HW133062   5.427   0.803   4.455
10721SOL    HW233063   5.317   0.867   4.352
10722SOL     OW33064   0.665   4.977   0.646
10722SOL    HW133065   0.656   4.881   0.622
10722SOL    HW233066   0.603   4.998   0.722
10723SOL     OW33067   0.078   4.930   6.154
10723SOL    HW133068   0.121   4.931   6.245
10723SOL    HW233069   7.003   4.903   6.163
10724SOL     OW33070   3.848   6.571   5.747
10724SOL    HW133071   3.850   6.597   5.651
10724SOL    HW233072   3.936   6.591   5.790
10725SOL     OW33073   6.488   0.338   5.103
10725SOL    HW133074   6.491   0.273   5.028
10725SOL    HW233075   6.393   0.366   5.119
10726SOL     OW33076   6.858   0.523   3.720
10726SOL    HW133077   6.859   0.521   3.820
10726SOL    HW233078   6.844   0.431   3.685
10727SOL     OW33079   5.321   5.869   5.831
10727SOL    HW133080   5.282   5.909   5.913
10727SOL    HW233081   5.384   5.796   5.856
10728SOL     OW33082   5.053   5.947   4.722
10728SOL    HW133083   5.019   6.038   4.696
10728SOL    HW233084   5.142   5.957   4.766
10729SOL     OW33085   6.645   3.452   4.291
10729SOL    HW133086   6.662   3.483   4.197
10729SOL    HW233087   6.617   3.356   4.290
10730SOL     OW33088   0.914   6.243   4.064
10730SOL    HW133089   0.990   6.229   4.127
10730SOL    HW233090   0.862   6.323   4.092
10731SOL     OW33091   5.024   4.078   5.370
10731SOL    HW133092   5.022   4.172   5.335
10731SOL    HW233093   4.942   4.062   5.425
10732SOL     OW33094   5.622   6.039   2.189
10732SOL    HW133095   5.644   6.121   2.242
10732SOL    HW233096   5.581   6.065   2.102
10733SOL     OW33097   0.684   1.634   6.003
10733SOL    HW133098   0.741   1.693   5.945
10733SOL    HW233099   0.654   1.687   6.083
10734SOL     OW33100   0.358   0.838   4.314
10734SOL    HW133101   0.261   0.863   4.310
10734SOL    HW233102   0.399   0.875   4.397
10735SOL     OW33103   0.498   0.787   2.110
10735SOL    HW133104   0.517   0.819   2.017
10735SOL    HW233105   0.572   0.817   2.171
10736SOL     OW33106   5.437   5.918   4.470
10736SOL    HW133107   5.518   5.872   4.506
10736SOL    HW233108   5.355   5.874   4.505
10737SOL     OW33109   5.855   0.986   0.365
10737SOL    HW133110   5.922   1.054   0.337
10737SOL    HW233111   5.884   0.944   0.451
10738SOL     OW33112   0.682   6.352   2.557
10738SOL    HW133113   0.761   6.294   2.577
10738SOL    HW233114   0.709   6.422   2.491
10739SOL     OW33115   5.201   2.767   4.042
10739SOL    HW133116   5.172   2.713   4.121
10739SOL    HW233117   5.265   2.838   4.071
10740SOL     OW33118   3.226   1.198   6.369
10740SOL    HW133119   3.289   1.131   6.406
10740SOL    HW233120   3.181   1.247   6.444
10741SOL     OW33121   2.337   2.781   3.710
10741SOL    HW133122   2.319   2.791   3.612
10741SOL    HW233123   2.370   2.867   3.747
10742SOL     OW33124   6.916   0.249   2.552
10742SOL    HW133125   6.848   0.322   2.541
10742SOL    HW233126   6.968   0.263   2.636
10743SOL     OW33127   3.879   2.619   6.023
10743SOL    HW133128   3.923   2.534   5.993
10743SOL    HW233129   3.943   2.695   6.009
10744SOL     OW33130   1.784   1.455   0.927
10744SOL    HW133131   1.754   1.472   0.833
10744SOL    HW233132   1.884   1.462   0.932
10745SOL     OW33133   3.910   5.515   2.304
10745SOL    HW133134   3.974   5.491   2.231
10745SOL    HW233135   3.930   5.608   2.336
10746SOL     OW33136   2.833   5.306   5.511
10746SOL    HW133137   2.924   5.270   5.489
10746SOL    HW233138   2.764   5.248   5.467
10747SOL     OW33139   6.875   0.159   4.926
10747SOL    HW133140   6.952   0.188   4.869
10747SOL    HW233141   6.896   0.176   5.022
10748SOL     OW33142   3.655   6.047   2.131
10748SOL    HW133143   3.636   6.098   2.047
10748SOL    HW233144   3.753   6.034   2.141
10749SOL     OW33145   5.222   2.491   2.237
10749SOL    HW133146   5.218   2.416   2.171
10749SOL    HW233147   5.144   2.553   2.222
10750SOL     OW33148   3.688   1.869   3.999
10750SOL    HW133149   3.614   1.845   4.061
10750SOL    HW233150   3.650   1.892   3.909
10751SOL     OW33151   5.712   6.102   3.673
10751SOL    HW133152   5.653   6.021   3.675
10751SOL    HW233153   5.706   6.144   3.582
10752SOL     OW33154   6.882   6.321   6.541
10752SOL    HW133155   6.842   6.253   6.480
10752SOL    HW233156   6.971   6.350   6.507
10753SOL     OW33157   4.738   6.869   4.842
10753SOL    HW133158   4.804   6.916   4.783
10753SOL    HW233159   4.749   6.770   4.833
10754SOL     OW33160   6.323   5.747   1.747
10754SOL    HW133161   6.404   5.743   1.689
10754SOL    HW233162   6.245   5.709   1.698
10755SOL     OW33163   0.717   1.388   2.293
10755SOL    HW133164   0.619   1.400   2.277
10755SOL    HW233165   0.760   1.477   2.305
10756SOL     OW33166   0.944   6.725   6.927
10756SOL    HW133167   0.871   6.715   6.860
10756SOL    HW233168   0.991   6.812   6.914
10757SOL     OW33169   6.999   2.315   2.187
10757SOL    HW133170   6.996   2.345   2.092
10757SOL    HW233171   0.030   2.230   2.193
10758SOL     OW33172   0.249   1.515   1.178
10758SOL    HW133173   0.330   1.542   1.127
10758SOL    HW233174   0.246   1.564   1.265
10759SOL     OW33175   3.609   5.244   5.570
10759SOL    HW133176   3.538   5.175   5.578
10759SOL    HW233177   3.601   5.291   5.482
10760SOL     OW33178   1.170   4.669   6.582
10760SOL    HW133179   1.073   4.689   6.590
10760SOL    HW233180   1.223   4.754   6.586
10761SOL     OW33181   1.678   0.982   6.761
10761SOL    HW133182   1.684   1.080   6.740
10761SOL    HW233183   1.604   0.967   6.826
10762SOL     OW33184   1.632   5.463   1.053
10762SOL    HW133185   1.557   5.401   1.076
10762SOL    HW233186   1.707   5.411   1.012
10763SOL     OW33187   5.293   1.229   1.913
10763SOL    HW133188   5.343   1.283   1.981
10763SOL    HW233189   5.216   1.283   1.879
10764SOL     OW33190   5.151   6.865   4.088
10764SOL    HW133191   5.061   6.847   4.048
10764SOL    HW233192   5.185   6.782   4.133
10765SOL     OW33193   0.336   2.673   2.093
10765SOL    HW133194   0.318   2.769   2.116
10765SOL    HW233195   0.262   2.616   2.129
10766SOL     OW33196   3.529   5.404   6.906
10766SOL    HW133197   3.509   5.306   6.908
10766SOL    HW233198   3.444   5.455   6.890
10767SOL     OW33199   0.894   5.560   6.873
10767SOL    HW133200   0.979   5.609   6.896
10767SOL    HW233201   0.841   5.614   6.808
10768SOL     OW33202   6.263   6.528   6.955
10768SOL    HW133203   6.171   6.547   6.919
10768SOL    HW233204   6.288   6.434   6.933
10769SOL     OW33205   3.009   3.994   4.837
10769SOL    HW133206   2.923   4.035   4.809
10769SOL    HW233207   2.994   3.933   4.915
10770SOL     OW33208   4.501   0.659   4.365
10770SOL    HW133209   4.421   0.604   4.342
10770SOL    HW233210   4.484   0.755   4.342
10771SOL     OW33211   5.119   6.339   5.552
10771SOL    HW133212   5.077   6.430   5.557
10771SOL    HW233213   5.183   6.336   5.475
10772SOL     OW33214   4.949   3.533   4.045
10772SOL    HW133215   4.963   3.600   4.119
10772SOL    HW233216   5.005   3.452   4.062
10773SOL     OW33217   0.779   3.670   0.176
10773SOL    HW133218   0.832   3.631   0.101
10773SOL    HW233219   0.832   3.664   0.261
10774SOL     OW33220   6.684   2.902   1.090
10774SOL    HW133221   6.668   2.852   1.176
10774SOL    HW233222   6.635   2.989   1.093
10775SOL     OW33223   1.863   4.482   6.205
10775SOL    HW133224   1.886   4.444   6.116
10775SOL    HW233225   1.907   4.427   6.277
10776SOL     OW33226   0.162   3.722   3.522
10776SOL    HW133227   0.063   3.731   3.531
10776SOL    HW233228   0.187   3.731   3.426
10777SOL     OW33229   0.697   6.667   1.916
10777SOL    HW133230   0.740   6.634   1.832
10777SOL    HW233231   0.617   6.611   1.937
10778SOL     OW33232   4.809   6.705   3.323
10778SOL    HW133233   4.888   6.766   3.338
10778SOL    HW233234   4.734   6.732   3.384
10779SOL     OW33235   5.574   2.638   5.267
10779SOL    HW133236   5.610   2.679   5.351
10779SOL    HW233237   5.608   2.688   5.188
10780SOL     OW33238   1.046   5.816   4.770
10780SOL    HW133239   1.120   5.868   4.812
10780SOL    HW233240   1.085   5.740   4.718
10781SOL     OW33241   6.208   2.907   5.640
10781SOL    HW133242   6.281   2.931   5.576
10781SOL    HW233243   6.217   2.962   5.723
10782SOL     OW33244   1.815   3.220   4.706
10782SOL    HW133245   1.774   3.134   4.674
10782SOL    HW233246   1.751   3.268   4.765
10783SOL     OW33247   1.551   4.016   4.277
10783SOL    HW133248   1.482   4.085   4.294
10783SOL    HW233249   1.623   4.023   4.347
10784SOL     OW33250   4.709   5.836   3.518
10784SOL    HW133251   4.739   5.931   3.518
10784SOL    HW233252   4.785   5.777   3.492
10785SOL     OW33253   1.624   5.686   1.921
10785SOL    HW133254   1.709   5.640   1.895
10785SOL    HW233255   1.555   5.618   1.945
10786SOL     OW33256   4.903   1.296   2.336
10786SOL    HW133257   4.829   1.356   2.368
10786SOL    HW233258   4.922   1.226   2.405
10787SOL     OW33259   3.197   1.480   3.637
10787SOL    HW133260   3.209   1.461   3.539
10787SOL    HW233261   3.282   1.462   3.685
10788SOL     OW33262   1.399   2.699   6.625
10788SOL    HW133263   1.369   2.709   6.530
10788SOL    HW233264   1.445   2.783   6.654
10789SOL     OW33265   0.095   2.553   2.803
10789SOL    HW133266   0.159   2.578   2.877
10789SOL    HW233267   0.082   2.454   2.803
10790SOL     OW33268   6.890   3.375   4.711
10790SOL    HW133269   6.894   3.280   4.742
10790SOL    HW233270   6.794   3.403   4.701
10791SOL     OW33271   2.249   2.818   3.124
10791SOL    HW133272   2.167   2.874   3.111
10791SOL    HW233273   2.289   2.837   3.213
10792SOL     OW33274   3.211   0.974   1.921
10792SOL    HW133275   3.298   0.989   1.874
10792SOL    HW233276   3.147   0.931   1.858
10793SOL     OW33277   3.851   2.190   3.473
10793SOL    HW133278   3.901   2.157   3.553
10793SOL    HW233279   3.855   2.121   3.401
10794SOL     OW33280   4.896   2.923   0.238
10794SOL    HW133281   4.892   2.926   0.138
10794SOL    HW233282   4.970   2.862   0.267
10795SOL     OW33283   6.109   2.596   3.348
10795SOL    HW133284   6.037   2.528   3.360
10795SOL    HW233285   6.113   2.624   3.252
10796SOL     OW33286   6.865   2.151   6.832
10796SOL    HW133287   6.955   2.134   6.873
10796SOL    HW233288   6.877   2.176   6.735
10797SOL     OW33289   5.558   4.993   6.749
10797SOL    HW133290   5.632   5.047   6.789
10797SOL    HW233291   5.575   4.980   6.652
10798SOL     OW33292   2.836   5.882   0.439
10798SOL    HW133293   2.796   5.813   0.500
10798SOL    HW233294   2.936   5.881   0.450
10799SOL     OW33295   1.985   0.744   3.041
10799SOL    HW133296   2.070   0.775   3.000
10799SOL    HW233297   1.989   0.645   3.055
10800SOL     OW33298   0.975   0.199   5.514
10800SOL    HW133299   0.935   0.140   5.584
10800SOL    HW233300   0.937   0.175   5.424
10801SOL     OW33301   2.567   6.078   6.960
10801SOL    HW133302   2.533   6.099   0.031
10801SOL    HW233303   2.541   5.984   6.935
10802SOL     OW33304   1.036   4.969   3.395
10802SOL    HW133305   1.032   4.895   3.329
10802SOL    HW233306   1.130   4.983   3.425
10803SOL     OW33307   0.623   4.180   4.339
10803SOL    HW133308   0.564   4.260   4.330
10803SOL    HW233309   0.668   4.182   4.429
10804SOL     OW33310   5.238   5.272   6.021
10804SOL    HW133311   5.269   5.312   5.935
10804SOL    HW233312   5.284   5.184   6.036
10805SOL     OW33313   5.974   5.864   6.606
10805SOL    HW133314   5.926   5.815   6.678
10805SOL    HW233315   5.908   5.899   6.540
10806SOL     OW33316   6.607   3.089   5.082
10806SOL    HW133317   6.657   3.036   5.151
10806SOL    HW233318   6.574   3.173   5.124
10807SOL     OW33319   4.395   2.714   5.255
10807SOL    HW133320   4.348   2.636   5.212
10807SOL    HW233321   4.363   2.723   5.349
10808SOL     OW33322   0.684   2.442   1.200
10808SOL    HW133323   0.642   2.370   1.144
10808SOL    HW233324   0.615   2.511   1.222
10809SOL     OW33325   0.763   0.811   3.107
10809SOL    HW133326   0.711   0.772   3.031
10809SOL    HW233327   0.712   0.889   3.145
10810SOL     OW33328   2.006   1.758   6.274
10810SOL    HW133329   2.017   1.773   6.372
10810SOL    HW233330   1.909   1.745   6.253
10811SOL     OW33331   4.393   5.166   6.121
10811SOL    HW133332   4.432   5.147   6.212
10811SOL    HW233333   4.294   5.178   6.129
10812SOL     OW33334   6.706   3.217   2.352
10812SOL    HW133335   6.702   3.276   2.272
10812SOL    HW233336   6.674   3.125   2.327
10813SOL     OW33337   2.769   5.993   2.452
10813SOL    HW133338   2.707   6.054   2.501
10813SOL    HW233339   2.720   5.910   2.424
10814SOL     OW33340   1.949   5.989   4.261
10814SOL    HW133341   2.012   5.915   4.283
10814SOL    HW233342   1.866   5.980   4.316
10815SOL     OW33343   5.521   2.695   6.139
10815SOL    HW133344   5.474   2.762   6.082
10815SOL    HW233345   5.456   2.627   6.171
10816SOL     OW33346   2.146   2.702   1.199
10816SOL    HW133347   2.177   2.615   1.237
10816SOL    HW233348   2.075   2.685   1.131
10817SOL     OW33349   3.918   1.175   1.856
10817SOL    HW133350   3.980   1.231   1.802
10817SOL    HW233351   3.824   1.205   1.841
10818SOL     OW33352   4.710   3.407   5.615
10818SOL    HW133353   4.713   3.330   5.677
10818SOL    HW233354   4.660   3.381   5.532
10819SOL     OW33355   2.029   3.335   4.857
10819SOL    HW133356   2.023   3.287   4.770
10819SOL    HW233357   2.009   3.272   4.932
10820SOL     OW33358   0.567   6.182   5.037
10820SOL    HW133359   0.532   6.224   5.121
10820SOL    HW233360   0.627   6.105   5.061
10821SOL     OW33361   6.920   0.571   6.367
10821SOL    HW133362   6.840   0.510   6.369
10821SOL    HW233363   7.003   0.516   6.362
10822SOL     OW33364   0.073   5.471   5.854
10822SOL    HW133365   7.005   5.468   5.809
10822SOL    HW233366   0.067   5.525   5.938
10823SOL     OW33367   2.759   2.343   0.192
10823SOL    HW133368   2.677   2.342   0.136
10823SOL    HW233369   2.815   2.263   0.171
10824SOL     OW33370   5.129   1.655   4.568
10824SOL    HW133371   5.136   1.742   4.616
10824SOL    HW233372   5.218   1.630   4.529
10825SOL     OW33373   4.212   1.758   2.266
10825SOL    HW133374   4.301   1.729   2.303
10825SOL    HW233375   4.155   1.795   2.339
10826SOL     OW33376   0.320   3.360   0.675
10826SOL    HW133377   0.370   3.321   0.598
10826SOL    HW233378   0.258   3.431   0.642
10827SOL     OW33379   6.956   3.156   4.853
10827SOL    HW133380   0.019   3.129   4.805
10827SOL    HW233381   6.939   3.093   4.929
10828SOL     OW33382   3.274   4.665   6.981
10828SOL    HW133383   3.265   4.635   0.055
10828SOL    HW233384   3.352   4.727   6.973
10829SOL     OW33385   1.754   3.509   1.340
10829SOL    HW133386   1.796   3.563   1.413
10829SOL    HW233387   1.725   3.420   1.375
10830SOL     OW33388   6.363   0.704   3.454
10830SOL    HW133389   6.427   0.657   3.514
10830SOL    HW233390   6.413   0.767   3.394
10831SOL     OW33391   5.149   3.052   2.300
10831SOL    HW133392   5.051   3.051   2.280
10831SOL    HW233393   5.196   2.984   2.244
10832SOL     OW33394   1.521   2.834   2.392
10832SOL    HW133395   1.582   2.834   2.472
10832SOL    HW233396   1.514   2.928   2.357
10833SOL     OW33397   3.218   0.340   4.818
10833SOL    HW133398   3.224   0.294   4.906
10833SOL    HW233399   3.154   0.291   4.759
10834SOL     OW33400   6.566   2.550   5.871
10834SOL    HW133401   6.479   2.502   5.885
10834SOL    HW233402   6.563   2.598   5.784
10835SOL     OW33403   0.555   1.022   0.738
10835SOL    HW133404   0.635   0.995   0.790
10835SOL    HW233405   0.570   1.003   0.641
10836SOL     OW33406   0.174   1.093   1.112
10836SOL    HW133407   0.143   1.146   1.034
10836SOL    HW233408   0.269   1.065   1.098
10837SOL     OW33409   1.533   5.151   0.524
10837SOL    HW133410   1.507   5.174   0.618
10837SOL    HW233411   1.534   5.052   0.513
10838SOL     OW33412   6.256   6.539   1.145
10838SOL    HW133413   6.228   6.458   1.197
10838SOL    HW233414   6.277   6.613   1.209
10839SOL     OW33415   2.463   1.242   6.441
10839SOL    HW133416   2.424   1.151   6.429
10839SOL    HW233417   2.408   1.292   6.508
10840SOL     OW33418   0.894   0.666   3.699
10840SOL    HW133419   0.978   0.706   3.734
10840SOL    HW233420   0.815   0.716   3.735
10841SOL     OW33421   4.310   4.392   6.933
10841SOL    HW133422   4.374   4.468   6.943
10841SOL    HW233423   4.271   4.369   0.002
10842SOL     OW33424   6.005   1.649   2.262
10842SOL    HW133425   5.925   1.665   2.319
10842SOL    HW233426   6.062   1.578   2.304
10843SOL     OW33427   1.309   2.063   1.469
10843SOL    HW133428   1.374   2.108   1.408
10843SOL    HW233429   1.265   2.132   1.527
10844SOL     OW33430   4.473   6.437   3.217
10844SOL    HW133431   4.416   6.398   3.290
10844SOL    HW233432   4.434   6.524   3.187
10845SOL     OW33433   2.422   3.498   1.104
10845SOL    HW133434   2.469   3.497   1.192
10845SOL    HW233435   2.374   3.411   1.091
10846SOL     OW33436   2.992   1.603   2.095
10846SOL    HW133437   3.009   1.701   2.084
10846SOL    HW233438   3.076   1.558   2.125
10847SOL     OW33439   5.241   2.223   4.907
10847SOL    HW133440   5.285   2.139   4.876
10847SOL    HW233441   5.250   2.232   5.006
10848SOL     OW33442   2.492   0.210   6.496
10848SOL    HW133443   2.471   0.153   6.576
10848SOL    HW233444   2.407   0.239   6.453
10849SOL     OW33445   0.361   4.554   4.929
10849SOL    HW133446   0.415   4.471   4.942
10849SOL    HW233447   0.403   4.630   4.979
10850SOL     OW33448   6.169   1.019   3.293
10850SOL    HW133449   6.145   0.970   3.210
10850SOL    HW233450   6.141   1.115   3.285
10851SOL     OW33451   5.111   2.990   0.625
10851SOL    HW133452   5.123   2.929   0.703
10851SOL    HW233453   5.093   2.936   0.542
10852SOL     OW33454   6.074   1.744   5.690
10852SOL    HW133455   6.026   1.793   5.763
10852SOL    HW233456   6.160   1.790   5.670
10853SOL     OW33457   1.511   6.597   5.587
10853SOL    HW133458   1.491   6.568   5.680
10853SOL    HW233459   1.568   6.679   5.588
10854SOL     OW33460   5.795   6.643   0.183
10854SOL    HW133461   5.703   6.607   0.169
10854SOL    HW233462   5.834   6.671   0.096
10855SOL     OW33463   0.500   6.000   6.831
10855SOL    HW133464   0.430   6.008   6.902
10855SOL    HW233465   0.547   5.912   6.841
10856SOL     OW33466   4.150   0.022   6.313
10856SOL    HW133467   4.242   0.001   6.279
10856SOL    HW233468   4.142   0.121   6.326
10857SOL     OW33469   6.080   6.763   4.824
10857SOL    HW133470   6.046   6.710   4.901
10857SOL    HW233471   6.035   6.734   4.740
10858SOL     OW33472   1.747   2.630   1.473
10858SOL    HW133473   1.808   2.553   1.457
10858SOL    HW233474   1.680   2.606   1.543
10859SOL     OW33475   2.176   4.989   2.325
10859SOL    HW133476   2.187   5.085   2.352
10859SOL    HW233477   2.178   4.931   2.406
10860SOL     OW33478   5.678   1.430   2.362
10860SOL    HW133479   5.592   1.387   2.391
10860SOL    HW233480   5.734   1.363   2.314
10861SOL     OW33481   2.627   4.750   1.142
10861SOL    HW133482   2.685   4.767   1.062
10861SOL    HW233483   2.673   4.688   1.205
10862SOL     OW33484   3.749   4.660   5.490
10862SOL    HW133485   3.842   4.629   5.511
10862SOL    HW233486   3.742   4.758   5.506
10863SOL     OW33487   0.182   0.439   4.509
10863SOL    HW133488   0.177   0.345   4.543
10863SOL    HW233489   0.132   0.500   4.571
10864SOL     OW33490   2.853   3.460   2.349
10864SOL    HW133491   2.851   3.393   2.275
10864SOL    HW233492   2.826   3.415   2.434
10865SOL     OW33493   3.729   2.141   2.300
10865SOL    HW133494   3.679   2.176   2.221
10865SOL    HW233495   3.821   2.115   2.273
10866SOL     OW33496   0.443   3.434   5.027
10866SOL    HW133497   0.456   3.464   5.122
10866SOL    HW233498   0.361   3.476   4.989
10867SOL     OW33499   5.345   3.154   0.528
10867SOL    HW133500   5.317   3.236   0.577
10867SOL    HW233501   5.294   3.075   0.562
10868SOL     OW33502   6.723   0.462   6.186
10868SOL    HW133503   6.635   0.413   6.189
10868SOL    HW233504   6.798   0.396   6.189
10869NA      NA33505   6.822   1.611   0.142
10870NA      NA33506   5.017   4.590   4.797
10871NA      NA33507   1.284   4.720   2.854
10872NA      NA33508   6.582   3.529   3.551
10873NA      NA33509   4.296   2.320   5.204
10874NA      NA33510   2.635   3.562   6.837
10875NA      NA33511   1.393   5.280   0.341
10876NA      NA33512   4.326   4.843   1.967
10877NA      NA33513   5.663   3.668   1.031
10878NA      NA33514   3.733   1.848   0.776
10879NA      NA33515   4.928   6.184   1.402
10880NA      NA33516   2.609   6.324   4.256
10881NA      NA33517   3.457   5.800   2.960
10882NA      NA33518   4.725   5.056   5.673
   7.02063   7.02063   7.02063
