Generated by trjconv : CNT in water t= 190.00000
33518
    1C        C    1   2.843   2.766   4.747
    1C        C    2   2.897   2.714   4.866
    1C        C    3   2.843   2.768   4.984
    1C        C    4   2.846   2.768   4.260
    1C        C    5   2.897   2.719   4.382
    1C        C    6   2.843   2.766   4.504
    1C        C    7   3.016   2.641   4.626
    1C        C    8   2.898   2.720   4.625
    1C        C    9   3.075   2.599   4.747
    1C        C   10   3.009   2.628   4.869
    1C        C   11   3.181   2.491   4.979
    1C        C   12   3.059   2.560   4.981
    1C        C   13   2.850   2.764   3.772
    1C        C   14   2.899   2.718   3.897
    1C        C   15   2.846   2.768   4.017
    1C        C   16   3.016   2.640   4.141
    1C        C   17   2.900   2.720   4.138
    1C        C   18   3.081   2.609   4.263
    1C        C   19   3.016   2.643   4.383
    1C        C   20   3.207   2.548   4.505
    1C        C   21   3.078   2.605   4.505
    1C        C   22   3.275   2.524   4.626
    1C        C   23   3.205   2.542   4.747
    1C        C   24   3.411   2.482   4.868
    1C        C   25   3.270   2.504   4.867
    1C        C   26   3.486   2.478   4.986
    1C        C   27   2.851   2.766   3.283
    1C        C   28   2.901   2.718   3.406
    1C        C   29   2.848   2.764   3.528
    1C        C   30   3.020   2.639   3.652
    1C        C   31   2.903   2.718   3.649
    1C        C   32   3.078   2.601   3.775
    1C        C   33   3.017   2.639   3.897
    1C        C   34   3.204   2.542   4.018
    1C        C   35   3.076   2.601   4.019
    1C        C   36   3.277   2.530   4.139
    1C        C   37   3.213   2.557   4.262
    1C        C   38   3.416   2.501   4.384
    1C        C   39   3.278   2.529   4.384
    1C        C   40   3.487   2.494   4.505
    1C        C   41   3.414   2.497   4.626
    1C        C   42   3.628   2.483   4.746
    1C        C   43   3.486   2.482   4.747
    1C        C   44   3.705   2.486   4.865
    1C        C   45   3.624   2.471   4.979
    1C        C   46   2.835   2.748   2.796
    1C        C   47   2.893   2.706   2.918
    1C        C   48   2.844   2.757   3.041
    1C        C   49   3.016   2.630   3.164
    1C        C   50   2.901   2.713   3.162
    1C        C   51   3.076   2.594   3.286
    1C        C   52   3.015   2.634   3.407
    1C        C   53   3.208   2.544   3.532
    1C        C   54   3.079   2.601   3.529
    1C        C   55   3.275   2.521   3.654
    1C        C   56   3.206   2.541   3.775
    1C        C   57   3.413   2.495   3.895
    1C        C   58   3.274   2.518   3.897
    1C        C   59   3.484   2.493   4.016
    1C        C   60   3.416   2.506   4.139
    1C        C   61   3.627   2.499   4.260
    1C        C   62   3.486   2.493   4.261
    1C        C   63   3.698   2.511   4.382
    1C        C   64   3.629   2.500   4.504
    1C        C   65   3.836   2.538   4.620
    1C        C   66   3.700   2.501   4.626
    1C        C   67   3.903   2.566   4.741
    1C        C   68   3.838   2.534   4.862
    1C        C   69   4.048   2.588   4.981
    1C        C   70   3.920   2.532   4.975
    1C        C   71   2.827   2.735   2.310
    1C        C   72   2.885   2.694   2.432
    1C        C   73   2.829   2.741   2.553
    1C        C   74   3.002   2.616   2.675
    1C        C   75   2.886   2.698   2.675
    1C        C   76   3.068   2.584   2.796
    1C        C   77   3.010   2.627   2.917
    1C        C   78   3.203   2.543   3.038
    1C        C   79   3.072   2.595   3.039
    1C        C   80   3.271   2.524   3.160
    1C        C   81   3.207   2.541   3.286
    1C        C   82   3.413   2.498   3.403
    1C        C   83   3.273   2.520   3.409
    1C        C   84   3.484   2.495   3.525
    1C        C   85   3.414   2.498   3.649
    1C        C   86   3.624   2.498   3.770
    1C        C   87   3.483   2.494   3.772
    1C        C   88   3.694   2.510   3.893
    1C        C   89   3.625   2.504   4.016
    1C        C   90   3.832   2.552   4.137
    1C        C   91   3.697   2.511   4.138
    1C        C   92   3.899   2.577   4.258
    1C        C   93   3.835   2.545   4.380
    1C        C   94   4.029   2.637   4.501
    1C        C   95   3.906   2.568   4.500
    1C        C   96   4.089   2.677   4.622
    1C        C   97   4.029   2.631   4.742
    1C        C   98   4.190   2.764   4.869
    1C        C   99   4.097   2.656   4.865
    1C        C  100   4.206   2.851   4.978
    1C        C  101   2.824   2.729   2.068
    1C        C  102   2.984   2.588   2.193
    1C        C  103   2.871   2.675   2.188
    1C        C  104   3.058   2.564   2.312
    1C        C  105   3.000   2.613   2.431
    1C        C  106   3.194   2.526   2.552
    1C        C  107   3.064   2.582   2.553
    1C        C  108   3.268   2.513   2.672
    1C        C  109   3.199   2.530   2.794
    1C        C  110   3.410   2.497   2.915
    1C        C  111   3.269   2.514   2.916
    1C        C  112   3.481   2.495   3.037
    1C        C  113   3.410   2.503   3.159
    1C        C  114   3.624   2.501   3.279
    1C        C  115   3.482   2.495   3.281
    1C        C  116   3.692   2.511   3.402
    1C        C  117   3.625   2.501   3.526
    1C        C  118   3.833   2.539   3.646
    1C        C  119   3.695   2.507   3.648
    1C        C  120   3.896   2.568   3.769
    1C        C  121   3.830   2.548   3.892
    1C        C  122   4.021   2.644   4.013
    1C        C  123   3.895   2.579   4.013
    1C        C  124   4.083   2.678   4.135
    1C        C  125   4.025   2.641   4.258
    1C        C  126   4.201   2.763   4.379
    1C        C  127   4.089   2.676   4.379
    1C        C  128   4.244   2.821   4.501
    1C        C  129   4.196   2.770   4.623
    1C        C  130   4.329   2.930   4.743
    1C        C  131   4.243   2.817   4.747
    1C        C  132   4.360   3.001   4.861
    1C        C  133   4.291   2.960   4.976
    1C        C  134   3.170   2.469   2.081
    1C        C  135   3.035   2.506   2.087
    1C        C  136   3.258   2.473   2.190
    1C        C  137   3.188   2.507   2.308
    1C        C  138   3.400   2.481   2.428
    1C        C  139   3.260   2.500   2.430
    1C        C  140   3.477   2.484   2.547
    1C        C  141   3.407   2.492   2.670
    1C        C  142   3.619   2.497   2.790
    1C        C  143   3.478   2.489   2.792
    1C        C  144   3.691   2.503   2.911
    1C        C  145   3.622   2.496   3.035
    1C        C  146   3.831   2.535   3.155
    1C        C  147   3.694   2.502   3.156
    1C        C  148   3.897   2.563   3.277
    1C        C  149   3.829   2.544   3.400
    1C        C  150   4.022   2.631   3.523
    1C        C  151   3.897   2.564   3.523
    1C        C  152   4.081   2.672   3.644
    1C        C  153   4.018   2.639   3.767
    1C        C  154   4.188   2.768   3.888
    1C        C  155   4.076   2.682   3.888
    1C        C  156   4.242   2.813   4.011
    1C        C  157   4.195   2.764   4.135
    1C        C  158   4.338   2.922   4.253
    1C        C  159   4.251   2.810   4.256
    1C        C  160   4.376   2.983   4.374
    1C        C  161   4.330   2.933   4.498
    1C        C  162   4.437   3.114   4.615
    1C        C  163   4.369   2.990   4.621
    1C        C  164   4.467   3.181   4.735
    1C        C  165   4.437   3.119   4.858
    1C        C  166   4.511   3.320   4.972
    1C        C  167   4.478   3.185   4.975
    1C        C  168   3.478   2.433   2.077
    1C        C  169   3.398   2.455   2.190
    1C        C  170   3.616   2.470   2.307
    1C        C  171   3.474   2.465   2.309
    1C        C  172   3.690   2.494   2.425
    1C        C  173   3.618   2.489   2.546
    1C        C  174   3.826   2.539   2.665
    1C        C  175   3.690   2.504   2.667
    1C        C  176   3.893   2.561   2.788
    1C        C  177   3.828   2.538   2.911
    1C        C  178   4.022   2.626   3.032
    1C        C  179   3.897   2.561   3.033
    1C        C  180   4.082   2.664   3.154
    1C        C  181   4.022   2.627   3.276
    1C        C  182   4.193   2.751   3.398
    1C        C  183   4.082   2.664   3.399
    1C        C  184   4.243   2.804   3.519
    1C        C  185   4.193   2.758   3.642
    1C        C  186   4.333   2.917   3.765
    1C        C  187   4.244   2.807   3.764
    1C        C  188   4.367   2.982   3.885
    1C        C  189   4.330   2.923   4.008
    1C        C  190   4.443   3.104   4.127
    1C        C  191   4.373   2.981   4.130
    1C        C  192   4.467   3.173   4.248
    1C        C  193   4.440   3.109   4.371
    1C        C  194   4.503   3.313   4.488
    1C        C  195   4.464   3.178   4.492
    1C        C  196   4.516   3.384   4.609
    1C        C  197   4.509   3.317   4.733
    1C        C  198   4.559   3.530   4.846
    1C        C  199   4.538   3.388   4.853
    1C        C  200   4.583   3.617   4.956
    1C        C  201   3.616   2.410   2.076
    1C        C  202   3.826   2.512   2.181
    1C        C  203   3.691   2.463   2.187
    1C        C  204   3.899   2.538   2.300
    1C        C  205   3.828   2.522   2.421
    1C        C  206   4.018   2.621   2.541
    1C        C  207   3.894   2.555   2.542
    1C        C  208   4.077   2.664   2.662
    1C        C  209   4.017   2.627   2.785
    1C        C  210   4.190   2.749   2.907
    1C        C  211   4.079   2.661   2.907
    1C        C  212   4.241   2.799   3.029
    1C        C  213   4.192   2.753   3.153
    1C        C  214   4.331   2.911   3.272
    1C        C  215   4.244   2.800   3.276
    1C        C  216   4.370   2.971   3.394
    1C        C  217   4.333   2.914   3.517
    1C        C  218   4.429   3.101   3.636
    1C        C  219   4.372   2.972   3.640
    1C        C  220   4.456   3.170   3.757
    1C        C  221   4.434   3.106   3.881
    1C        C  222   4.498   3.306   3.999
    1C        C  223   4.466   3.169   4.004
    1C        C  224   4.511   3.378   4.120
    1C        C  225   4.501   3.310   4.243
    1C        C  226   4.513   3.523   4.364
    1C        C  227   4.514   3.381   4.364
    1C        C  228   4.515   3.595   4.485
    1C        C  229   4.521   3.525   4.607
    1C        C  230   4.506   3.741   4.723
    1C        C  231   4.535   3.602   4.725
    1C        C  232   4.494   3.819   4.840
    1C        C  233   4.544   3.752   4.953
    1C        C  234   4.014   2.615   2.061
    1C        C  235   3.893   2.546   2.063
    1C        C  236   4.082   2.652   2.178
    1C        C  237   4.024   2.605   2.298
    1C        C  238   4.198   2.733   2.418
    1C        C  239   4.084   2.649   2.419
    1C        C  240   4.249   2.785   2.539
    1C        C  241   4.193   2.744   2.662
    1C        C  242   4.332   2.905   2.785
    1C        C  243   4.243   2.796   2.784
    1C        C  244   4.374   2.964   2.907
    1C        C  245   4.333   2.907   3.030
    1C        C  246   4.441   3.091   3.147
    1C        C  247   4.376   2.966   3.150
    1C        C  248   4.466   3.159   3.269
    1C        C  249   4.432   3.098   3.392
    1C        C  250   4.492   3.302   3.512
    1C        C  251   4.455   3.166   3.514
    1C        C  252   4.504   3.373   3.633
    1C        C  253   4.495   3.305   3.757
    1C        C  254   4.522   3.518   3.876
    1C        C  255   4.515   3.377   3.877
    1C        C  256   4.517   3.588   3.998
    1C        C  257   4.517   3.519   4.121
    1C        C  258   4.489   3.731   4.241
    1C        C  259   4.517   3.593   4.241
    1C        C  260   4.468   3.801   4.362
    1C        C  261   4.486   3.734   4.484
    1C        C  262   4.427   3.942   4.604
    1C        C  263   4.477   3.809   4.603
    1C        C  264   4.397   4.010   4.724
    1C        C  265   4.425   3.942   4.844
    1C        C  266   4.320   4.132   4.961
    1C        C  267   4.401   4.018   4.959
    1C        C  268   4.259   2.780   2.060
    1C        C  269   4.198   2.733   2.177
    1C        C  270   4.345   2.890   2.297
    1C        C  271   4.254   2.780   2.297
    1C        C  272   4.379   2.954   2.418
    1C        C  273   4.338   2.895   2.540
    1C        C  274   4.442   3.081   2.660
    1C        C  275   4.377   2.956   2.661
    1C        C  276   4.474   3.149   2.780
    1C        C  277   4.445   3.086   2.902
    1C        C  278   4.506   3.291   3.024
    1C        C  279   4.469   3.154   3.024
    1C        C  280   4.509   3.364   3.145
    1C        C  281   4.499   3.296   3.268
    1C        C  282   4.516   3.510   3.389
    1C        C  283   4.512   3.369   3.389
    1C        C  284   4.516   3.583   3.509
    1C        C  285   4.518   3.513   3.632
    1C        C  286   4.491   3.726   3.752
    1C        C  287   4.516   3.587   3.753
    1C        C  288   4.472   3.794   3.874
    1C        C  289   4.490   3.727   3.997
    1C        C  290   4.422   3.930   4.116
    1C        C  291   4.472   3.798   4.118
    1C        C  292   4.393   3.997   4.238
    1C        C  293   4.415   3.932   4.361
    1C        C  294   4.327   4.128   4.478
    1C        C  295   4.394   4.004   4.481
    1C        C  296   4.281   4.187   4.598
    1C        C  297   4.327   4.134   4.721
    1C        C  298   4.198   4.310   4.841
    1C        C  299   4.286   4.197   4.842
    1C        C  300   4.172   4.405   4.944
    1C        C  301   4.348   2.887   2.061
    1C        C  302   4.469   3.071   2.177
    1C        C  303   4.395   2.949   2.178
    1C        C  304   4.480   3.146   2.298
    1C        C  305   4.443   3.079   2.417
    1C        C  306   4.503   3.285   2.537
    1C        C  307   4.467   3.148   2.538
    1C        C  308   4.521   3.357   2.658
    1C        C  309   4.501   3.288   2.779
    1C        C  310   4.521   3.499   2.900
    1C        C  311   4.517   3.358   2.901
    1C        C  312   4.513   3.573   3.020
    1C        C  313   4.513   3.506   3.144
    1C        C  314   4.486   3.718   3.261
    1C        C  315   4.508   3.579   3.265
    1C        C  316   4.473   3.789   3.383
    1C        C  317   4.493   3.723   3.506
    1C        C  318   4.425   3.924   3.627
    1C        C  319   4.474   3.792   3.628
    1C        C  320   4.398   3.989   3.749
    1C        C  321   4.430   3.929   3.873
    1C        C  322   4.316   4.112   3.990
    1C        C  323   4.393   3.993   3.993
    1C        C  324   4.273   4.168   4.112
    1C        C  325   4.321   4.118   4.235
    1C        C  326   4.186   4.284   4.355
    1C        C  327   4.284   4.183   4.355
    1C        C  328   4.138   4.340   4.475
    1C        C  329   4.190   4.294   4.598
    1C        C  330   4.025   4.435   4.714
    1C        C  331   4.140   4.352   4.717
    1C        C  332   3.968   4.493   4.829
    1C        C  333   4.054   4.480   4.939
    1C        C  334   4.561   3.267   2.067
    1C        C  335   4.537   3.129   2.065
    1C        C  336   4.536   3.353   2.175
    1C        C  337   4.517   3.283   2.296
    1C        C  338   4.528   3.497   2.412
    1C        C  339   4.523   3.356   2.417
    1C        C  340   4.523   3.567   2.534
    1C        C  341   4.522   3.498   2.657
    1C        C  342   4.493   3.710   2.772
    1C        C  343   4.520   3.571   2.778
    1C        C  344   4.476   3.780   2.893
    1C        C  345   4.493   3.713   3.016
    1C        C  346   4.422   3.914   3.138
    1C        C  347   4.475   3.784   3.137
    1C        C  348   4.396   3.984   3.258
    1C        C  349   4.428   3.923   3.382
    1C        C  350   4.312   4.102   3.500
    1C        C  351   4.391   3.985   3.504
    1C        C  352   4.272   4.162   3.622
    1C        C  353   4.318   4.106   3.743
    1C        C  354   4.174   4.263   3.865
    1C        C  355   4.272   4.161   3.865
    1C        C  356   4.123   4.314   3.986
    1C        C  357   4.174   4.270   4.110
    1C        C  358   4.015   4.407   4.229
    1C        C  359   4.127   4.322   4.233
    1C        C  360   3.951   4.444   4.350
    1C        C  361   4.017   4.414   4.471
    1C        C  362   3.829   4.515   4.592
    1C        C  363   3.959   4.460   4.591
    1C        C  364   3.760   4.547   4.711
    1C        C  365   3.836   4.543   4.830
    1C        C  366   3.626   4.590   4.948
    1C        C  367   3.764   4.570   4.947
    1C        C  368   4.507   3.566   2.052
    1C        C  369   4.526   3.493   2.170
    1C        C  370   4.504   3.708   2.286
    1C        C  371   4.521   3.568   2.290
    1C        C  372   4.487   3.778   2.408
    1C        C  373   4.504   3.707   2.529
    1C        C  374   4.425   3.907   2.647
    1C        C  375   4.482   3.778   2.649
    1C        C  376   4.398   3.976   2.767
    1C        C  377   4.428   3.913   2.890
    1C        C  378   4.314   4.090   3.011
    1C        C  379   4.392   3.973   3.012
    1C        C  380   4.272   4.153   3.131
    1C        C  381   4.317   4.101   3.254
    1C        C  382   4.178   4.262   3.375
    1C        C  383   4.272   4.156   3.376
    1C        C  384   4.126   4.312   3.496
    1C        C  385   4.175   4.265   3.620
    1C        C  386   4.007   4.393   3.740
    1C        C  387   4.121   4.309   3.743
    1C        C  388   3.949   4.431   3.863
    1C        C  389   4.011   4.401   3.986
    1C        C  390   3.820   4.490   4.109
    1C        C  391   3.954   4.445   4.107
    1C        C  392   3.749   4.508   4.230
    1C        C  393   3.818   4.491   4.352
    1C        C  394   3.614   4.546   4.474
    1C        C  395   3.754   4.526   4.473
    1C        C  396   3.544   4.556   4.597
    1C        C  397   3.620   4.563   4.716
    1C        C  398   3.407   4.543   4.841
    1C        C  399   3.545   4.569   4.836
    1C        C  400   3.337   4.505   4.956
    1C        C  401   4.503   3.705   2.046
    1C        C  402   4.459   3.917   2.168
    1C        C  403   4.492   3.779   2.165
    1C        C  404   4.415   3.980   2.286
    1C        C  405   4.441   3.911   2.407
    1C        C  406   4.329   4.098   2.524
    1C        C  407   4.402   3.977   2.526
    1C        C  408   4.277   4.149   2.645
    1C        C  409   4.318   4.093   2.768
    1C        C  410   4.174   4.250   2.886
    1C        C  411   4.271   4.148   2.889
    1C        C  412   4.126   4.304   3.008
    1C        C  413   4.173   4.253   3.131
    1C        C  414   4.002   4.379   3.252
    1C        C  415   4.120   4.302   3.253
    1C        C  416   3.943   4.417   3.375
    1C        C  417   4.007   4.388   3.497
    1C        C  418   3.816   4.484   3.619
    1C        C  419   3.945   4.427   3.618
    1C        C  420   3.750   4.509   3.741
    1C        C  421   3.817   4.483   3.863
    1C        C  422   3.613   4.529   3.987
    1C        C  423   3.751   4.503   3.986
    1C        C  424   3.542   4.536   4.109
    1C        C  425   3.611   4.537   4.232
    1C        C  426   3.399   4.549   4.355
    1C        C  427   3.541   4.553   4.354
    1C        C  428   3.331   4.536   4.478
    1C        C  429   3.404   4.543   4.600
    1C        C  430   3.192   4.510   4.720
    1C        C  431   3.332   4.536   4.721
    1C        C  432   3.122   4.494   4.843
    1C        C  433   3.198   4.494   4.960
    1C        C  434   4.389   4.121   2.054
    1C        C  435   4.451   3.996   2.053
    1C        C  436   4.300   4.159   2.160
    1C        C  437   4.332   4.095   2.283
    1C        C  438   4.178   4.247   2.401
    1C        C  439   4.284   4.153   2.403
    1C        C  440   4.122   4.296   2.521
    1C        C  441   4.177   4.249   2.643
    1C        C  442   4.005   4.376   2.766
    1C        C  443   4.120   4.295   2.764
    1C        C  444   3.942   4.414   2.887
    1C        C  445   4.008   4.381   3.007
    1C        C  446   3.811   4.463   3.129
    1C        C  447   3.943   4.415   3.128
    1C        C  448   3.747   4.490   3.252
    1C        C  449   3.815   4.476   3.375
    1C        C  450   3.608   4.526   3.497
    1C        C  451   3.747   4.501   3.497
    1C        C  452   3.541   4.535   3.620
    1C        C  453   3.611   4.535   3.743
    1C        C  454   3.400   4.536   3.863
    1C        C  455   3.542   4.541   3.866
    1C        C  456   3.332   4.527   3.987
    1C        C  457   3.401   4.535   4.111
    1C        C  458   3.195   4.489   4.235
    1C        C  459   3.332   4.524   4.234
    1C        C  460   3.125   4.483   4.357
    1C        C  461   3.193   4.509   4.479
    1C        C  462   2.993   4.431   4.603
    1C        C  463   3.122   4.490   4.600
    1C        C  464   2.932   4.393   4.725
    1C        C  465   2.990   4.439   4.846
    1C        C  466   2.797   4.336   4.960
    1C        C  467   2.905   4.426   4.960
    1C        C  468   4.119   4.278   2.042
    1C        C  469   4.183   4.242   2.161
    1C        C  470   4.005   4.370   2.275
    1C        C  471   4.124   4.293   2.279
    1C        C  472   3.940   4.400   2.397
    1C        C  473   4.003   4.373   2.520
    1C        C  474   3.810   4.457   2.643
    1C        C  475   3.942   4.406   2.643
    1C        C  476   3.744   4.487   2.764
    1C        C  477   3.814   4.472   2.886
    1C        C  478   3.604   4.514   3.009
    1C        C  479   3.743   4.489   3.007
    1C        C  480   3.537   4.528   3.132
    1C        C  481   3.609   4.523   3.253
    1C        C  482   3.396   4.530   3.376
    1C        C  483   3.537   4.531   3.375
    1C        C  484   3.327   4.529   3.500
    1C        C  485   3.400   4.540   3.621
    1C        C  486   3.190   4.499   3.744
    1C        C  487   3.328   4.530   3.742
    1C        C  488   3.127   4.473   3.868
    1C        C  489   3.196   4.492   3.990
    1C        C  490   3.001   4.409   4.114
    1C        C  491   3.128   4.470   4.112
    1C        C  492   2.940   4.377   4.238
    1C        C  493   3.000   4.418   4.360
    1C        C  494   2.821   4.306   4.482
    1C        C  495   2.934   4.391   4.482
    1C        C  496   2.769   4.254   4.603
    1C        C  497   2.816   4.309   4.724
    1C        C  498   2.664   4.161   4.843
    1C        C  499   2.751   4.272   4.843
    1C        C  500   2.590   4.114   4.952
    1C        C  501   4.004   4.357   2.035
    1C        C  502   3.813   4.458   2.154
    1C        C  503   3.941   4.399   2.152
    1C        C  504   3.745   4.481   2.275
    1C        C  505   3.809   4.452   2.398
    1C        C  506   3.604   4.505   2.521
    1C        C  507   3.742   4.475   2.520
    1C        C  508   3.532   4.517   2.642
    1C        C  509   3.605   4.514   2.763
    1C        C  510   3.395   4.527   2.885
    1C        C  511   3.536   4.525   2.886
    1C        C  512   3.324   4.519   3.006
    1C        C  513   3.395   4.528   3.128
    1C        C  514   3.193   4.482   3.255
    1C        C  515   3.329   4.518   3.252
    1C        C  516   3.122   4.468   3.376
    1C        C  517   3.190   4.495   3.497
    1C        C  518   3.001   4.409   3.624
    1C        C  519   3.127   4.473   3.621
    1C        C  520   2.940   4.375   3.746
    1C        C  521   3.001   4.409   3.869
    1C        C  522   2.828   4.289   3.993
    1C        C  523   2.940   4.375   3.991
    1C        C  524   2.779   4.242   4.117
    1C        C  525   2.829   4.291   4.240
    1C        C  526   2.688   4.136   4.361
    1C        C  527   2.773   4.248   4.362
    1C        C  528   2.646   4.078   4.483
    1C        C  529   2.684   4.142   4.604
    1C        C  530   2.576   3.960   4.730
    1C        C  531   2.633   4.090   4.725
    1C        C  532   2.542   3.900   4.855
    1C        C  533   2.519   3.993   4.961
    1C        C  534   3.614   4.551   2.039
    1C        C  535   3.746   4.502   2.039
    1C        C  536   3.535   4.532   2.156
    1C        C  537   3.605   4.505   2.277
    1C        C  538   3.393   4.509   2.397
    1C        C  539   3.534   4.508   2.399
    1C        C  540   3.321   4.504   2.519
    1C        C  541   3.390   4.513   2.642
    1C        C  542   3.184   4.479   2.765
    1C        C  543   3.322   4.509   2.765
    1C        C  544   3.119   4.460   2.889
    1C        C  545   3.186   4.487   3.010
    1C        C  546   2.991   4.411   3.137
    1C        C  547   3.121   4.466   3.134
    1C        C  548   2.932   4.370   3.258
    1C        C  549   2.995   4.406   3.380
    1C        C  550   2.827   4.282   3.505
    1C        C  551   2.938   4.369   3.503
    1C        C  552   2.776   4.234   3.628
    1C        C  553   2.829   4.287   3.748
    1C        C  554   2.693   4.126   3.872
    1C        C  555   2.780   4.236   3.870
    1C        C  556   2.652   4.070   3.996
    1C        C  557   2.693   4.130   4.117
    1C        C  558   2.594   3.944   4.243
    1C        C  559   2.652   4.073   4.240
    1C        C  560   2.564   3.882   4.366
    1C        C  561   2.585   3.951   4.487
    1C        C  562   2.526   3.750   4.616
    1C        C  563   2.557   3.888   4.610
    1C        C  564   2.517   3.680   4.738
    1C        C  565   2.525   3.758   4.857
    1C        C  566   2.533   3.547   4.974
    1C        C  567   2.518   3.686   4.977
    1C        C  568   3.323   4.482   2.036
    1C        C  569   3.394   4.510   2.154
    1C        C  570   3.183   4.473   2.278
    1C        C  571   3.321   4.510   2.275
    1C        C  572   3.113   4.455   2.399
    1C        C  573   3.182   4.481   2.520
    1C        C  574   2.987   4.401   2.648
    1C        C  575   3.115   4.461   2.643
    1C        C  576   2.928   4.362   2.770
    1C        C  577   2.992   4.399   2.891
    1C        C  578   2.822   4.280   3.016
    1C        C  579   2.931   4.370   3.015
    1C        C  580   2.774   4.226   3.137
    1C        C  581   2.826   4.276   3.259
    1C        C  582   2.692   4.118   3.382
    1C        C  583   2.777   4.231   3.383
    1C        C  584   2.653   4.061   3.505
    1C        C  585   2.691   4.121   3.627
    1C        C  586   2.591   3.938   3.755
    1C        C  587   2.653   4.065   3.751
    1C        C  588   2.568   3.874   3.878
    1C        C  589   2.594   3.941   4.000
    1C        C  590   2.532   3.739   4.126
    1C        C  591   2.569   3.875   4.122
    1C        C  592   2.519   3.674   4.251
    1C        C  593   2.527   3.746   4.373
    1C        C  594   2.512   3.535   4.496
    1C        C  595   2.517   3.676   4.496
    1C        C  596   2.517   3.463   4.618
    1C        C  597   2.516   3.538   4.738
    1C        C  598   2.530   3.326   4.858
    1C        C  599   2.525   3.467   4.860
    1C        C  600   2.533   3.249   4.975
    1C        C  601   3.189   4.449   2.038
    1C        C  602   2.982   4.393   2.160
    1C        C  603   3.115   4.445   2.157
    1C        C  604   2.923   4.356   2.284
    1C        C  605   2.986   4.394   2.404
    1C        C  606   2.813   4.275   2.527
    1C        C  607   2.927   4.358   2.527
    1C        C  608   2.767   4.223   2.650
    1C        C  609   2.822   4.269   2.772
    1C        C  610   2.685   4.113   2.895
    1C        C  611   2.773   4.224   2.896
    1C        C  612   2.647   4.055   3.018
    1C        C  613   2.687   4.115   3.140
    1C        C  614   2.594   3.925   3.266
    1C        C  615   2.653   4.053   3.262
    1C        C  616   2.569   3.864   3.391
    1C        C  617   2.597   3.932   3.511
    1C        C  618   2.531   3.732   3.637
    1C        C  619   2.567   3.868   3.634
    1C        C  620   2.514   3.665   3.761
    1C        C  621   2.526   3.739   3.880
    1C        C  622   2.518   3.529   4.009
    1C        C  623   2.519   3.670   4.003
    1C        C  624   2.515   3.460   4.132
    1C        C  625   2.513   3.533   4.253
    1C        C  626   2.545   3.324   4.378
    1C        C  627   2.519   3.463   4.375
    1C        C  628   2.559   3.253   4.500
    1C        C  629   2.543   3.324   4.621
    1C        C  630   2.595   3.115   4.743
    1C        C  631   2.553   3.251   4.741
    1C        C  632   2.622   3.049   4.867
    1C        C  633   2.563   3.112   4.981
    1C        C  634   2.784   4.301   2.051
    1C        C  635   2.889   4.393   2.050
    1C        C  636   2.748   4.228   2.165
    1C        C  637   2.806   4.275   2.285
    1C        C  638   2.673   4.111   2.408
    1C        C  639   2.755   4.226   2.408
    1C        C  640   2.635   4.053   2.532
    1C        C  641   2.680   4.112   2.652
    1C        C  642   2.587   3.923   2.775
    1C        C  643   2.642   4.053   2.775
    1C        C  644   2.562   3.858   2.898
    1C        C  645   2.588   3.926   3.019
    1C        C  646   2.528   3.725   3.146
    1C        C  647   2.569   3.860   3.143
    1C        C  648   2.518   3.657   3.269
    1C        C  649   2.532   3.727   3.391
    1C        C  650   2.521   3.520   3.517
    1C        C  651   2.522   3.661   3.515
    1C        C  652   2.522   3.453   3.641
    1C        C  653   2.510   3.524   3.763
    1C        C  654   2.540   3.318   3.890
    1C        C  655   2.515   3.457   3.887
    1C        C  656   2.561   3.250   4.013
    1C        C  657   2.540   3.320   4.134
    1C        C  658   2.614   3.123   4.256
    1C        C  659   2.563   3.255   4.257
    1C        C  660   2.643   3.059   4.379
    1C        C  661   2.605   3.120   4.501
    1C        C  662   2.712   2.937   4.624
    1C        C  663   2.629   3.051   4.622
    1C        C  664   2.757   2.879   4.745
    1C        C  665   2.707   2.934   4.866
    1C        C  666   2.744   2.866   4.982
    1C        C  667   2.680   4.024   2.052
    1C        C  668   2.685   4.102   2.168
    1C        C  669   2.583   3.914   2.291
    1C        C  670   2.638   4.045   2.289
    1C        C  671   2.555   3.851   2.414
    1C        C  672   2.577   3.925   2.533
    1C        C  673   2.519   3.720   2.656
    1C        C  674   2.557   3.856   2.655
    1C        C  675   2.508   3.650   2.779
    1C        C  676   2.530   3.720   2.899
    1C        C  677   2.511   3.514   3.032
    1C        C  678   2.519   3.654   3.024
    1C        C  679   2.511   3.442   3.154
    1C        C  680   2.511   3.516   3.275
    1C        C  681   2.538   3.305   3.401
    1C        C  682   2.520   3.445   3.397
    1C        C  683   2.555   3.239   3.525
    1C        C  684   2.545   3.313   3.644
    1C        C  685   2.609   3.116   3.770
    1C        C  686   2.559   3.248   3.769
    1C        C  687   2.643   3.055   3.893
    1C        C  688   2.612   3.119   4.015
    1C        C  689   2.718   2.934   4.139
    1C        C  690   2.644   3.054   4.136
    1C        C  691   2.759   2.879   4.262
    1C        C  692   2.719   2.941   4.383
    1C        C  693   2.760   2.880   4.504
    1C        C  694   2.627   3.895   2.056
    1C        C  695   2.520   3.707   2.173
    1C        C  696   2.572   3.838   2.172
    1C        C  697   2.510   3.638   2.296
    1C        C  698   2.530   3.712   2.415
    1C        C  699   2.496   3.504   2.542
    1C        C  700   2.510   3.645   2.537
    1C        C  701   2.508   3.435   2.665
    1C        C  702   2.505   3.509   2.785
    1C        C  703   2.537   3.304   2.910
    1C        C  704   2.513   3.443   2.910
    1C        C  705   2.554   3.234   3.032
    1C        C  706   2.539   3.304   3.154
    1C        C  707   2.603   3.104   3.278
    1C        C  708   2.557   3.238   3.278
    1C        C  709   2.635   3.045   3.403
    1C        C  710   2.606   3.107   3.526
    1C        C  711   2.720   2.932   3.650
    1C        C  712   2.639   3.047   3.650
    1C        C  713   2.760   2.873   3.772
    1C        C  714   2.718   2.935   3.891
    1C        C  715   2.758   2.879   4.015
    1C        C  716   2.451   3.496   2.063
    1C        C  717   2.486   3.631   2.060
    1C        C  718   2.466   3.420   2.184
    1C        C  719   2.487   3.498   2.301
    1C        C  720   2.515   3.288   2.427
    1C        C  721   2.494   3.428   2.423
    1C        C  722   2.536   3.219   2.548
    1C        C  723   2.529   3.295   2.667
    1C        C  724   2.596   3.096   2.791
    1C        C  725   2.554   3.231   2.790
    1C        C  726   2.624   3.032   2.914
    1C        C  727   2.595   3.100   3.035
    1C        C  728   2.709   2.921   3.160
    1C        C  729   2.627   3.036   3.157
    1C        C  730   2.757   2.871   3.283
    1C        C  731   2.712   2.927   3.405
    1C        C  732   2.758   2.873   3.527
    1C        C  733   2.493   3.195   2.075
    1C        C  734   2.485   3.279   2.188
    1C        C  735   2.578   3.082   2.307
    1C        C  736   2.522   3.212   2.308
    1C        C  737   2.604   3.013   2.428
    1C        C  738   2.578   3.085   2.547
    1C        C  739   2.697   2.910   2.672
    1C        C  740   2.623   3.030   2.669
    1C        C  741   2.739   2.852   2.794
    1C        C  742   2.700   2.913   2.915
    1C        C  743   2.753   2.865   3.037
    1C        C  744   2.544   3.066   2.075
    1C        C  745   2.682   2.893   2.189
    1C        C  746   2.612   3.016   2.186
    1C        C  747   2.730   2.839   2.310
    1C        C  748   2.687   2.899   2.430
    1C        C  749   2.733   2.845   2.552
    1C        C  750   2.737   2.838   2.072
    1C        C  751   3.665   2.301   1.990
    1C        O  752   3.705   2.194   2.044
    1C        O  753   3.691   2.307   1.852
    1C        C  754   4.604   3.051   1.958
    1C        O  755   4.608   3.086   1.837
    1C        O  756   4.720   2.985   1.999
    1C        C  757   4.440   4.222   1.958
    1C        O  758   4.549   4.284   1.967
    1C        O  759   4.394   4.210   1.826
    1C        C  760   3.588   4.661   1.944
    1C        O  761   3.637   4.776   1.958
    1C        O  762   3.584   4.636   1.806
    1C        C  763   2.869   4.517   1.972
    1C        O  764   2.895   4.525   1.849
    1C        O  765   2.807   4.629   2.028
    1C        C  766   2.342   3.460   1.969
    1C        O  767   2.370   3.449   1.847
    1C        O  768   2.207   3.491   1.991
    1C        C  769   4.697   3.593   5.046
    1C        O  770   4.684   3.553   5.165
    1C        O  771   4.834   3.599   5.016
    1C        C  772   4.267   4.447   5.050
    1C        O  773   4.236   4.436   5.172
    1C        O  774   4.361   4.550   5.042
    1C        C  775   4.145   2.519   5.069
    1C        O  776   4.234   2.444   5.019
    1C        O  777   4.209   2.596   5.168
    1C        C  778   2.884   4.534   5.059
    1C        O  779   2.790   4.616   5.043
    1C        O  780   2.939   4.525   5.188
    1C        C  781   2.462   3.041   5.064
    1C        O  782   2.344   3.009   5.033
    1C        O  783   2.485   3.017   5.199
    1C        C  784   2.380   4.017   5.004
    1C        O  785   2.292   4.053   4.921
    1C        O  786   2.337   4.018   5.137
    1C        C  787   2.938   2.415   2.023
    1C        O  788   2.911   2.428   1.900
    1C        O  789   2.905   2.297   2.090
    1C        C  790   3.170   2.359   5.045
    1C        O  791   3.120   2.264   4.979
    1C        O  792   3.143   2.342   5.181
    1C        H  793   4.255   3.044   5.032
    1C        H  794   4.146   2.830   5.064
    1C        H  795   4.468   3.133   5.068
    1C        H  796   4.479   3.378   5.056
    1C        H  797   4.553   3.803   5.047
    1C        H  798   4.443   3.990   5.053
    1C        H  799   4.262   4.148   5.049
    1C        H  800   4.016   4.522   5.030
    1C        H  801   3.815   4.607   5.033
    1C        H  802   3.586   4.627   5.041
    1C        H  803   3.390   4.455   5.035
    1C        H  804   3.156   4.456   5.051
    1C        H  805   3.911   2.451   5.045
    1C        H  806   3.677   2.471   5.072
    1C        H  807   3.026   2.593   5.077
    1C        H  808   3.438   2.478   5.082
    1C        H  809   2.887   2.743   5.078
    1C        H  810   2.667   2.856   5.056
    1C        H  811   2.534   3.300   5.070
    1C        H  812   2.618   3.521   5.033
    1C        H  813   2.466   3.724   5.062
    1C        H  814   2.557   4.185   5.024
    1C        H  815   2.771   4.291   5.053
    1C        H  816   2.693   2.869   1.979
    1C        H  817   2.870   2.701   1.976
    1C        H  818   3.216   2.470   1.985
    1C        H  819   3.429   2.431   1.981
    1C        H  820   3.878   2.481   1.979
    1C        H  821   4.056   2.640   1.966
    1C        H  822   4.268   2.714   1.977
    1C        H  823   4.409   2.894   1.974
    1C        H  824   4.620   3.307   1.987
    1C        H  825   4.509   3.518   1.957
    1C        H  826   4.535   3.751   1.955
    1C        H  827   3.761   4.434   1.958
    1C        H  828   3.993   4.414   1.945
    1C        H  829   4.171   4.268   1.949
    1C        H  830   4.532   3.986   1.984
    1C        H  831   2.590   3.859   1.962
    1C        H  832   2.762   4.032   1.983
    1C        H  833   2.717   4.300   1.967
    1C        H  834   3.378   4.428   1.963
    1C        H  835   3.147   4.408   1.948
    1C        H  836   2.502   2.996   2.006
    1C        H  837   2.441   3.225   1.986
    1C        H  838   2.465   3.682   1.968
    2V3OU   H29  839   2.804   3.547   1.984
    2V3OU   C27  840   2.785   3.501   2.084
    2V3OU   H27  841   2.731   3.566   2.158
    2V3OU   H28  842   2.723   3.409   2.072
    2V3OU   O11  843   2.912   3.470   2.143
    2V3OU   C15  844   2.926   3.394   2.257
    2V3OU   C13  845   3.054   3.368   2.312
    2V3OU   C14  846   3.080   3.264   2.401
    2V3OU   C16  847   2.977   3.182   2.446
    2V3OU    H6  848   2.991   3.105   2.523
    2V3OU   C12  849   3.215   3.229   2.449
    2V3OU    O2  850   3.243   3.121   2.506
    2V3OU   C10  851   3.329   3.307   2.398
    2V3OU    C8  852   3.459   3.267   2.428
    2V3OU   O10  853   3.497   3.151   2.489
    2V3OU   H26  854   3.414   3.111   2.519
    2V3OU    C6  855   3.564   3.349   2.377
    2V3OU    C5  856   3.536   3.463   2.302
    2V3OU    C4  857   3.704   3.297   2.381
    2V3OU    H4  858   3.722   3.232   2.472
    2V3OU    H5  859   3.712   3.232   2.289
    2V3OU    C2  860   3.817   3.400   2.386
    2V3OU    O6  861   3.800   3.475   2.507
    2V3OU   H21  862   3.760   3.558   2.477
    2V3OU    C3  863   3.782   3.494   2.271
    2V3OU    H2  864   3.870   3.563   2.268
    2V3OU    H3  865   3.781   3.437   2.174
    2V3OU   C25  866   3.950   3.324   2.380
    2V3OU    O7  867   4.005   3.295   2.274
    2V3OU   C26  868   4.028   3.291   2.506
    2V3OU   H22  869   4.071   3.386   2.547
    2V3OU   H23  870   4.112   3.220   2.483
    2V3OU    O8  871   3.964   3.207   2.599
    2V3OU   H24  872   3.935   3.265   2.671
    2V3OU    C1  873   3.648   3.562   2.288
    2V3OU    H1  874   3.624   3.616   2.192
    2V3OU    O3  875   3.657   3.653   2.399
    2V3OU   C19  876   3.620   3.790   2.385
    2V3OU    H9  877   3.520   3.804   2.335
    2V3OU    O4  878   3.714   3.848   2.298
    2V3OU   C20  879   3.845   3.873   2.350
    2V3OU   H10  880   3.895   3.771   2.359
    2V3OU   C24  881   3.608   3.859   2.521
    2V3OU   H16  882   3.536   3.800   2.584
    2V3OU   H17  883   3.568   3.960   2.493
    2V3OU   C23  884   3.745   3.880   2.585
    2V3OU   H15  885   3.784   3.776   2.614
    2V3OU    N1  886   3.733   3.957   2.707
    2V3OU   H19  887   3.810   3.919   2.760
    2V3OU   H20  888   3.647   3.937   2.754
    2V3OU   C21  889   3.847   3.943   2.486
    2V3OU   H11  890   3.949   3.929   2.534
    2V3OU    O5  891   3.829   4.084   2.476
    2V3OU   H18  892   3.776   4.111   2.553
    2V3OU   C22  893   3.917   3.948   2.240
    2V3OU   H12  894   3.866   4.045   2.214
    2V3OU   H13  895   3.904   3.892   2.144
    2V3OU   H14  896   4.025   3.962   2.269
    2V3OU   C11  897   3.159   3.469   2.292
    2V3OU    O1  898   3.132   3.586   2.255
    2V3OU    C9  899   3.295   3.420   2.321
    2V3OU    C7  900   3.400   3.498   2.272
    2V3OU    O9  901   3.388   3.619   2.207
    2V3OU   H25  902   3.293   3.631   2.195
    2V3OU   C17  903   2.824   3.313   2.311
    2V3OU    H7  904   2.722   3.339   2.282
    2V3OU   C18  905   2.848   3.210   2.401
    2V3OU    H8  906   2.768   3.171   2.465
    3SOL     OW  907   3.270   4.806   0.738
    3SOL    HW1  908   3.286   4.875   0.809
    3SOL    HW2  909   3.341   4.736   0.743
    4SOL     OW  910   6.707   6.366   1.626
    4SOL    HW1  911   6.668   6.305   1.696
    4SOL    HW2  912   6.806   6.370   1.638
    5SOL     OW  913   4.201   1.733   2.757
    5SOL    HW1  914   4.152   1.647   2.745
    5SOL    HW2  915   4.168   1.779   2.840
    6SOL     OW  916   4.425   1.500   1.116
    6SOL    HW1  917   4.498   1.450   1.068
    6SOL    HW2  918   4.362   1.538   1.050
    7SOL     OW  919   6.553   3.768   2.125
    7SOL    HW1  920   6.603   3.695   2.171
    7SOL    HW2  921   6.584   3.856   2.161
    8SOL     OW  922   2.704   0.009   6.317
    8SOL    HW1  923   2.745   6.947   6.353
    8SOL    HW2  924   2.759   0.042   6.240
    9SOL     OW  925   6.751   5.617   6.291
    9SOL    HW1  926   6.705   5.540   6.247
    9SOL    HW2  927   6.775   5.591   6.385
   10SOL     OW  928   0.932   5.178   6.028
   10SOL    HW1  929   0.960   5.153   5.936
   10SOL    HW2  930   0.925   5.096   6.085
   11SOL     OW  931   2.913   0.010   6.959
   11SOL    HW1  932   2.861   6.969   6.902
   11SOL    HW2  933   3.010   0.003   6.935
   12SOL     OW  934   3.856   6.240   4.179
   12SOL    HW1  935   3.803   6.268   4.100
   12SOL    HW2  936   3.821   6.152   4.213
   13SOL     OW  937   3.401   5.426   3.786
   13SOL    HW1  938   3.353   5.483   3.853
   13SOL    HW2  939   3.336   5.391   3.719
   14SOL     OW  940   5.129   5.285   6.507
   14SOL    HW1  941   5.221   5.278   6.468
   14SOL    HW2  942   5.129   5.351   6.582
   15SOL     OW  943   1.082   5.789   0.976
   15SOL    HW1  944   1.167   5.830   0.941
   15SOL    HW2  945   1.083   5.789   1.076
   16SOL     OW  946   5.823   3.173   5.505
   16SOL    HW1  947   5.816   3.261   5.551
   16SOL    HW2  948   5.768   3.174   5.421
   17SOL     OW  949   5.356   6.217   5.578
   17SOL    HW1  950   5.302   6.166   5.511
   17SOL    HW2  951   5.299   6.242   5.656
   18SOL     OW  952   3.029   1.128   5.843
   18SOL    HW1  953   3.123   1.103   5.821
   18SOL    HW2  954   2.987   1.057   5.899
   19SOL     OW  955   0.509   6.875   3.205
   19SOL    HW1  956   0.598   6.876   3.250
   19SOL    HW2  957   0.474   6.781   3.203
   20SOL     OW  958   5.208   2.415   4.588
   20SOL    HW1  959   5.157   2.436   4.671
   20SOL    HW2  960   5.275   2.344   4.607
   21SOL     OW  961   3.190   2.037   2.393
   21SOL    HW1  962   3.115   2.097   2.365
   21SOL    HW2  963   3.234   1.999   2.312
   22SOL     OW  964   2.118   6.874   0.065
   22SOL    HW1  965   2.212   6.841   0.054
   22SOL    HW2  966   2.056   6.796   0.066
   23SOL     OW  967   4.640   6.646   3.398
   23SOL    HW1  968   4.584   6.571   3.434
   23SOL    HW2  969   4.689   6.689   3.474
   24SOL     OW  970   4.883   0.946   3.165
   24SOL    HW1  971   4.897   1.008   3.087
   24SOL    HW2  972   4.877   0.999   3.249
   25SOL     OW  973   3.030   6.808   5.054
   25SOL    HW1  974   2.955   6.810   4.987
   25SOL    HW2  975   2.992   6.820   5.146
   26SOL     OW  976   6.348   0.983   0.503
   26SOL    HW1  977   6.337   0.961   0.600
   26SOL    HW2  978   6.270   1.037   0.472
   27SOL     OW  979   0.582   1.722   1.856
   27SOL    HW1  980   0.653   1.694   1.921
   27SOL    HW2  981   0.625   1.762   1.775
   28SOL     OW  982   3.590   1.322   6.896
   28SOL    HW1  983   3.625   1.267   6.972
   28SOL    HW2  984   3.503   1.283   6.865
   29SOL     OW  985   5.090   2.997   1.784
   29SOL    HW1  986   5.017   3.060   1.811
   29SOL    HW2  987   5.173   3.050   1.763
   30SOL     OW  988   3.199   0.772   4.392
   30SOL    HW1  989   3.294   0.762   4.361
   30SOL    HW2  990   3.165   0.862   4.368
   31SOL     OW  991   0.668   2.349   5.540
   31SOL    HW1  992   0.659   2.336   5.639
   31SOL    HW2  993   0.754   2.308   5.509
   32SOL     OW  994   0.112   1.754   3.078
   32SOL    HW1  995   0.021   1.781   3.047
   32SOL    HW2  996   0.152   1.692   3.010
   33SOL     OW  997   2.302   3.572   6.996
   33SOL    HW1  998   2.383   3.583   0.031
   33SOL    HW2  999   2.223   3.550   0.031
   34SOL     OW 1000   2.217   1.588   3.052
   34SOL    HW1 1001   2.276   1.666   3.031
   34SOL    HW2 1002   2.273   1.511   3.081
   35SOL     OW 1003   3.317   2.738   6.740
   35SOL    HW1 1004   3.362   2.824   6.716
   35SOL    HW2 1005   3.271   2.701   6.659
   36SOL     OW 1006   6.467   0.657   5.766
   36SOL    HW1 1007   6.438   0.719   5.839
   36SOL    HW2 1008   6.409   0.575   5.768
   37SOL     OW 1009   1.076   0.283   0.526
   37SOL    HW1 1010   1.100   0.199   0.574
   37SOL    HW2 1011   1.000   0.265   0.464
   38SOL     OW 1012   0.147   4.414   2.171
   38SOL    HW1 1013   0.226   4.355   2.155
   38SOL    HW2 1014   0.063   4.361   2.157
   39SOL     OW 1015   6.760   5.102   6.809
   39SOL    HW1 1016   6.848   5.148   6.799
   39SOL    HW2 1017   6.748   5.036   6.735
   40SOL     OW 1018   5.322   1.877   1.464
   40SOL    HW1 1019   5.224   1.865   1.475
   40SOL    HW2 1020   5.358   1.935   1.538
   41SOL     OW 1021   6.669   0.087   4.022
   41SOL    HW1 1022   6.579   0.123   4.044
   41SOL    HW2 1023   6.733   0.111   4.095
   42SOL     OW 1024   2.524   5.647   5.266
   42SOL    HW1 1025   2.471   5.629   5.183
   42SOL    HW2 1026   2.471   5.706   5.327
   43SOL     OW 1027   5.401   6.470   5.382
   43SOL    HW1 1028   5.347   6.404   5.330
   43SOL    HW2 1029   5.350   6.556   5.390
   44SOL     OW 1030   5.901   1.823   6.497
   44SOL    HW1 1031   5.868   1.914   6.475
   44SOL    HW2 1032   5.915   1.816   6.596
   45SOL     OW 1033   3.409   6.711   3.123
   45SOL    HW1 1034   3.507   6.726   3.107
   45SOL    HW2 1035   3.367   6.675   3.041
   46SOL     OW 1036   1.219   3.195   3.686
   46SOL    HW1 1037   1.299   3.136   3.682
   46SOL    HW2 1038   1.243   3.282   3.729
   47SOL     OW 1039   4.682   4.843   1.012
   47SOL    HW1 1040   4.761   4.820   0.954
   47SOL    HW2 1041   4.713   4.902   1.087
   48SOL     OW 1042   6.758   2.724   5.993
   48SOL    HW1 1043   6.738   2.716   5.895
   48SOL    HW2 1044   6.835   2.788   6.006
   49SOL     OW 1045   4.804   4.070   1.943
   49SOL    HW1 1046   4.757   4.028   1.866
   49SOL    HW2 1047   4.752   4.150   1.974
   50SOL     OW 1048   6.439   2.662   5.650
   50SOL    HW1 1049   6.386   2.744   5.675
   50SOL    HW2 1050   6.453   2.661   5.551
   51SOL     OW 1051   3.284   6.296   2.426
   51SOL    HW1 1052   3.207   6.323   2.484
   51SOL    HW2 1053   3.257   6.301   2.330
   52SOL     OW 1054   5.233   2.324   3.163
   52SOL    HW1 1055   5.303   2.368   3.218
   52SOL    HW2 1056   5.151   2.381   3.162
   53SOL     OW 1057   3.951   6.905   4.703
   53SOL    HW1 1058   4.021   6.951   4.649
   53SOL    HW2 1059   3.862   6.918   4.660
   54SOL     OW 1060   3.528   4.779   1.084
   54SOL    HW1 1061   3.555   4.829   1.002
   54SOL    HW2 1062   3.510   4.844   1.158
   55SOL     OW 1063   3.225   1.611   6.162
   55SOL    HW1 1064   3.271   1.699   6.176
   55SOL    HW2 1065   3.221   1.591   6.064
   56SOL     OW 1066   0.203   0.393   1.151
   56SOL    HW1 1067   0.275   0.325   1.161
   56SOL    HW2 1068   0.188   0.413   1.054
   57SOL     OW 1069   5.268   0.359   0.457
   57SOL    HW1 1070   5.173   0.390   0.461
   57SOL    HW2 1071   5.323   0.411   0.522
   58SOL     OW 1072   6.482   6.769   5.846
   58SOL    HW1 1073   6.487   6.863   5.878
   58SOL    HW2 1074   6.530   6.760   5.759
   59SOL     OW 1075   1.361   1.267   5.633
   59SOL    HW1 1076   1.285   1.328   5.609
   59SOL    HW2 1077   1.365   1.192   5.567
   60SOL     OW 1078   5.487   1.010   5.747
   60SOL    HW1 1079   5.573   0.977   5.708
   60SOL    HW2 1080   5.435   0.933   5.783
   61SOL     OW 1081   5.174   2.033   5.110
   61SOL    HW1 1082   5.118   2.008   5.188
   61SOL    HW2 1083   5.117   2.072   5.038
   62SOL     OW 1084   6.572   1.229   3.140
   62SOL    HW1 1085   6.619   1.177   3.069
   62SOL    HW2 1086   6.630   1.305   3.168
   63SOL     OW 1087   5.603   1.611   3.873
   63SOL    HW1 1088   5.635   1.523   3.906
   63SOL    HW2 1089   5.677   1.659   3.826
   64SOL     OW 1090   0.358   3.860   6.110
   64SOL    HW1 1091   0.337   3.843   6.207
   64SOL    HW2 1092   0.279   3.836   6.054
   65SOL     OW 1093   6.830   4.585   5.311
   65SOL    HW1 1094   6.811   4.500   5.263
   65SOL    HW2 1095   6.781   4.585   5.398
   66SOL     OW 1096   3.766   0.849   5.915
   66SOL    HW1 1097   3.764   0.776   5.846
   66SOL    HW2 1098   3.787   0.810   6.004
   67SOL     OW 1099   5.317   4.382   5.755
   67SOL    HW1 1100   5.335   4.473   5.717
   67SOL    HW2 1101   5.297   4.390   5.853
   68SOL     OW 1102   5.595   0.740   6.756
   68SOL    HW1 1103   5.579   0.654   6.804
   68SOL    HW2 1104   5.578   0.817   6.818
   69SOL     OW 1105   0.899   3.647   6.453
   69SOL    HW1 1106   0.807   3.643   6.415
   69SOL    HW2 1107   0.965   3.617   6.383
   70SOL     OW 1108   5.661   5.208   4.093
   70SOL    HW1 1109   5.758   5.209   4.069
   70SOL    HW2 1110   5.638   5.293   4.140
   71SOL     OW 1111   4.282   1.363   3.135
   71SOL    HW1 1112   4.192   1.372   3.090
   71SOL    HW2 1113   4.348   1.328   3.069
   72SOL     OW 1114   2.391   6.076   4.701
   72SOL    HW1 1115   2.451   6.061   4.779
   72SOL    HW2 1116   2.409   6.167   4.662
   73SOL     OW 1117   3.346   0.814   0.792
   73SOL    HW1 1118   3.422   0.877   0.780
   73SOL    HW2 1119   3.283   0.822   0.714
   74SOL     OW 1120   5.556   6.548   6.376
   74SOL    HW1 1121   5.609   6.581   6.454
   74SOL    HW2 1122   5.466   6.517   6.406
   75SOL     OW 1123   3.838   0.003   6.871
   75SOL    HW1 1124   3.879   7.002   6.959
   75SOL    HW2 1125   3.896   6.990   6.797
   76SOL     OW 1126   2.425   2.521   0.916
   76SOL    HW1 1127   2.466   2.447   0.862
   76SOL    HW2 1128   2.497   2.577   0.955
   77SOL     OW 1129   6.179   6.292   3.552
   77SOL    HW1 1130   6.116   6.215   3.564
   77SOL    HW2 1131   6.225   6.312   3.638
   78SOL     OW 1132   5.690   0.326   6.150
   78SOL    HW1 1133   5.606   0.374   6.126
   78SOL    HW2 1134   5.757   0.391   6.187
   79SOL     OW 1135   3.223   6.625   0.316
   79SOL    HW1 1136   3.181   6.682   0.245
   79SOL    HW2 1137   3.226   6.676   0.402
   80SOL     OW 1138   5.398   2.276   3.772
   80SOL    HW1 1139   5.498   2.281   3.771
   80SOL    HW2 1140   5.368   2.227   3.853
   81SOL     OW 1141   2.253   0.389   3.433
   81SOL    HW1 1142   2.301   0.422   3.515
   81SOL    HW2 1143   2.290   0.300   3.406
   82SOL     OW 1144   6.522   5.162   0.729
   82SOL    HW1 1145   6.453   5.162   0.657
   82SOL    HW2 1146   6.514   5.078   0.783
   83SOL     OW 1147   0.564   0.652   0.691
   83SOL    HW1 1148   0.547   0.620   0.598
   83SOL    HW2 1149   0.582   0.750   0.689
   84SOL     OW 1150   5.335   3.326   3.674
   84SOL    HW1 1151   5.417   3.277   3.703
   84SOL    HW2 1152   5.345   3.355   3.579
   85SOL     OW 1153   2.071   1.791   4.548
   85SOL    HW1 1154   2.142   1.724   4.527
   85SOL    HW2 1155   2.005   1.750   4.612
   86SOL     OW 1156   6.872   0.585   5.099
   86SOL    HW1 1157   6.780   0.566   5.064
   86SOL    HW2 1158   6.936   0.518   5.063
   87SOL     OW 1159   5.310   3.664   0.583
   87SOL    HW1 1160   5.286   3.666   0.486
   87SOL    HW2 1161   5.227   3.649   0.637
   88SOL     OW 1162   3.727   1.722   6.087
   88SOL    HW1 1163   3.748   1.810   6.045
   88SOL    HW2 1164   3.739   1.649   6.019
   89SOL     OW 1165   0.887   2.218   5.422
   89SOL    HW1 1166   0.981   2.224   5.456
   89SOL    HW2 1167   0.869   2.296   5.362
   90SOL     OW 1168   4.072   6.171   2.801
   90SOL    HW1 1169   4.005   6.232   2.846
   90SOL    HW2 1170   4.066   6.183   2.702
   91SOL     OW 1171   4.721   4.390   5.078
   91SOL    HW1 1172   4.735   4.299   5.037
   91SOL    HW2 1173   4.689   4.453   5.008
   92SOL     OW 1174   3.488   3.928   0.201
   92SOL    HW1 1175   3.436   4.012   0.208
   92SOL    HW2 1176   3.586   3.948   0.211
   93SOL     OW 1177   2.667   3.794   6.456
   93SOL    HW1 1178   2.651   3.745   6.542
   93SOL    HW2 1179   2.721   3.737   6.394
   94SOL     OW 1180   2.782   6.164   5.991
   94SOL    HW1 1181   2.855   6.126   5.935
   94SOL    HW2 1182   2.720   6.218   5.934
   95SOL     OW 1183   1.217   0.649   2.973
   95SOL    HW1 1184   1.198   0.687   2.882
   95SOL    HW2 1185   1.186   0.713   3.043
   96SOL     OW 1186   2.908   0.373   5.278
   96SOL    HW1 1187   2.915   0.288   5.331
   96SOL    HW2 1188   2.963   0.365   5.195
   97SOL     OW 1189   1.925   3.018   5.785
   97SOL    HW1 1190   1.951   2.954   5.713
   97SOL    HW2 1191   1.986   3.098   5.781
   98SOL     OW 1192   6.552   3.575   0.734
   98SOL    HW1 1193   6.537   3.611   0.642
   98SOL    HW2 1194   6.498   3.627   0.799
   99SOL     OW 1195   4.338   3.601   1.151
   99SOL    HW1 1196   4.246   3.639   1.147
   99SOL    HW2 1197   4.342   3.532   1.223
  100SOL     OW 1198   6.940   6.821   4.799
  100SOL    HW1 1199   6.917   6.884   4.724
  100SOL    HW2 1200   6.873   6.747   4.802
  101SOL     OW 1201   1.556   5.692   2.327
  101SOL    HW1 1202   1.551   5.689   2.427
  101SOL    HW2 1203   1.545   5.599   2.290
  102SOL     OW 1204   4.006   0.215   2.750
  102SOL    HW1 1205   4.020   0.170   2.838
  102SOL    HW2 1206   4.030   0.151   2.676
  103SOL     OW 1207   2.862   1.054   2.315
  103SOL    HW1 1208   2.862   1.010   2.226
  103SOL    HW2 1209   2.909   1.142   2.309
  104SOL     OW 1210   0.446   5.256   2.694
  104SOL    HW1 1211   0.348   5.245   2.710
  104SOL    HW2 1212   0.489   5.296   2.775
  105SOL     OW 1213   6.940   2.709   6.740
  105SOL    HW1 1214   6.874   2.715   6.666
  105SOL    HW2 1215   6.960   2.801   6.775
  106SOL     OW 1216   3.785   6.375   5.028
  106SOL    HW1 1217   3.851   6.361   5.101
  106SOL    HW2 1218   3.692   6.376   5.066
  107SOL     OW 1219   2.263   1.701   1.863
  107SOL    HW1 1220   2.353   1.718   1.823
  107SOL    HW2 1221   2.219   1.625   1.816
  108SOL     OW 1222   3.783   5.481   5.679
  108SOL    HW1 1223   3.767   5.451   5.773
  108SOL    HW2 1224   3.696   5.485   5.630
  109SOL     OW 1225   6.952   0.788   1.382
  109SOL    HW1 1226   7.016   0.859   1.412
  109SOL    HW2 1227   6.992   0.739   1.305
  110SOL     OW 1228   3.234   5.558   5.361
  110SOL    HW1 1229   3.166   5.529   5.427
  110SOL    HW2 1230   3.252   5.484   5.296
  111SOL     OW 1231   2.488   1.488   4.174
  111SOL    HW1 1232   2.416   1.424   4.201
  111SOL    HW2 1233   2.455   1.582   4.184
  112SOL     OW 1234   4.865   0.201   6.250
  112SOL    HW1 1235   4.794   0.132   6.260
  112SOL    HW2 1236   4.876   0.224   6.153
  113SOL     OW 1237   6.047   5.833   3.065
  113SOL    HW1 1238   6.024   5.815   2.970
  113SOL    HW2 1239   6.131   5.786   3.090
  114SOL     OW 1240   1.146   0.628   1.340
  114SOL    HW1 1241   1.153   0.528   1.340
  114SOL    HW2 1242   1.077   0.656   1.274
  115SOL     OW 1243   4.078   1.462   3.475
  115SOL    HW1 1244   4.102   1.550   3.515
  115SOL    HW2 1245   3.978   1.453   3.474
  116SOL     OW 1246   5.754   5.074   1.607
  116SOL    HW1 1247   5.802   5.108   1.688
  116SOL    HW2 1248   5.815   5.076   1.528
  117SOL     OW 1249   1.308   1.824   0.664
  117SOL    HW1 1250   1.259   1.737   0.660
  117SOL    HW2 1251   1.400   1.812   0.628
  118SOL     OW 1252   1.644   1.052   3.439
  118SOL    HW1 1253   1.549   1.081   3.450
  118SOL    HW2 1254   1.699   1.128   3.404
  119SOL     OW 1255   0.549   1.034   0.050
  119SOL    HW1 1256   0.530   1.017   6.976
  119SOL    HW2 1257   0.642   1.005   0.072
  120SOL     OW 1258   6.424   6.813   0.348
  120SOL    HW1 1259   6.460   6.779   0.261
  120SOL    HW2 1260   6.385   6.737   0.400
  121SOL     OW 1261   2.202   3.481   6.308
  121SOL    HW1 1262   2.196   3.400   6.249
  121SOL    HW2 1263   2.157   3.558   6.263
  122SOL     OW 1264   1.923   4.319   6.324
  122SOL    HW1 1265   1.976   4.326   6.408
  122SOL    HW2 1266   1.938   4.229   6.282
  123SOL     OW 1267   0.263   1.419   2.011
  123SOL    HW1 1268   0.286   1.514   2.029
  123SOL    HW2 1269   0.309   1.388   1.928
  124SOL     OW 1270   4.830   3.253   0.944
  124SOL    HW1 1271   4.776   3.194   0.883
  124SOL    HW2 1272   4.915   3.279   0.898
  125SOL     OW 1273   3.502   1.791   1.543
  125SOL    HW1 1274   3.461   1.865   1.596
  125SOL    HW2 1275   3.593   1.819   1.513
  126SOL     OW 1276   2.772   3.656   1.115
  126SOL    HW1 1277   2.679   3.686   1.138
  126SOL    HW2 1278   2.772   3.557   1.103
  127SOL     OW 1279   0.879   5.205   6.569
  127SOL    HW1 1280   0.808   5.140   6.595
  127SOL    HW2 1281   0.842   5.273   6.505
  128SOL     OW 1282   4.982   3.127   1.127
  128SOL    HW1 1283   4.949   3.042   1.166
  128SOL    HW2 1284   4.912   3.167   1.068
  129SOL     OW 1285   2.413   2.897   6.064
  129SOL    HW1 1286   2.415   2.960   5.986
  129SOL    HW2 1287   2.422   2.949   6.149
  130SOL     OW 1288   0.661   1.681   3.909
  130SOL    HW1 1289   0.640   1.693   4.006
  130SOL    HW2 1290   0.747   1.631   3.899
  131SOL     OW 1291   5.116   2.021   3.671
  131SOL    HW1 1292   5.073   1.968   3.743
  131SOL    HW2 1293   5.049   2.085   3.632
  132SOL     OW 1294   2.258   2.310   1.411
  132SOL    HW1 1295   2.232   2.390   1.465
  132SOL    HW2 1296   2.332   2.334   1.348
  133SOL     OW 1297   4.611   6.421   3.979
  133SOL    HW1 1298   4.652   6.441   3.890
  133SOL    HW2 1299   4.634   6.493   4.044
  134SOL     OW 1300   6.425   1.674   2.439
  134SOL    HW1 1301   6.391   1.738   2.509
  134SOL    HW2 1302   6.518   1.647   2.461
  135SOL     OW 1303   5.691   3.789   3.584
  135SOL    HW1 1304   5.719   3.885   3.584
  135SOL    HW2 1305   5.734   3.741   3.508
  136SOL     OW 1306   3.419   3.758   5.497
  136SOL    HW1 1307   3.444   3.742   5.592
  136SOL    HW2 1308   3.471   3.697   5.438
  137SOL     OW 1309   5.516   1.705   4.610
  137SOL    HW1 1310   5.487   1.618   4.570
  137SOL    HW2 1311   5.469   1.718   4.698
  138SOL     OW 1312   0.831   4.288   3.177
  138SOL    HW1 1313   0.849   4.385   3.161
  138SOL    HW2 1314   0.735   4.275   3.199
  139SOL     OW 1315   2.147   6.856   4.705
  139SOL    HW1 1316   2.072   6.897   4.653
  139SOL    HW2 1317   2.194   6.788   4.649
  140SOL     OW 1318   0.705   5.526   2.656
  140SOL    HW1 1319   0.726   5.453   2.591
  140SOL    HW2 1320   0.651   5.489   2.732
  141SOL     OW 1321   6.290   3.229   4.990
  141SOL    HW1 1322   6.226   3.152   4.994
  141SOL    HW2 1323   6.259   3.302   5.051
  142SOL     OW 1324   1.745   4.275   0.467
  142SOL    HW1 1325   1.723   4.249   0.373
  142SOL    HW2 1326   1.840   4.251   0.486
  143SOL     OW 1327   5.995   4.537   1.239
  143SOL    HW1 1328   6.041   4.477   1.304
  143SOL    HW2 1329   5.905   4.562   1.274
  144SOL     OW 1330   1.242   6.469   5.911
  144SOL    HW1 1331   1.323   6.472   5.970
  144SOL    HW2 1332   1.162   6.446   5.965
  145SOL     OW 1333   0.051   5.967   0.144
  145SOL    HW1 1334   0.074   5.992   0.237
  145SOL    HW2 1335   6.975   5.979   0.129
  146SOL     OW 1336   4.772   0.038   6.528
  146SOL    HW1 1337   4.734   0.009   6.440
  146SOL    HW2 1338   4.871   0.049   6.519
  147SOL     OW 1339   6.400   3.927   0.058
  147SOL    HW1 1340   6.354   4.002   0.011
  147SOL    HW2 1341   6.487   3.959   0.095
  148SOL     OW 1342   0.113   5.265   6.389
  148SOL    HW1 1343   0.184   5.286   6.457
  148SOL    HW2 1344   0.038   5.215   6.433
  149SOL     OW 1345   2.922   1.780   4.218
  149SOL    HW1 1346   2.842   1.729   4.250
  149SOL    HW2 1347   2.922   1.871   4.259
  150SOL     OW 1348   5.650   5.758   6.799
  150SOL    HW1 1349   5.619   5.708   6.879
  150SOL    HW2 1350   5.647   5.698   6.719
  151SOL     OW 1351   3.228   2.229   1.237
  151SOL    HW1 1352   3.210   2.188   1.326
  151SOL    HW2 1353   3.267   2.159   1.176
  152SOL     OW 1354   1.651   0.702   2.819
  152SOL    HW1 1355   1.660   0.798   2.792
  152SOL    HW2 1356   1.669   0.694   2.918
  153SOL     OW 1357   2.762   0.554   1.778
  153SOL    HW1 1358   2.767   0.640   1.829
  153SOL    HW2 1359   2.775   0.477   1.841
  154SOL     OW 1360   0.682   2.069   2.531
  154SOL    HW1 1361   0.763   2.115   2.495
  154SOL    HW2 1362   0.652   2.115   2.615
  155SOL     OW 1363   6.501   1.690   2.995
  155SOL    HW1 1364   6.570   1.715   3.062
  155SOL    HW2 1365   6.449   1.611   3.027
  156SOL     OW 1366   0.459   2.083   0.635
  156SOL    HW1 1367   0.422   1.992   0.655
  156SOL    HW2 1368   0.411   2.122   0.556
  157SOL     OW 1369   5.702   2.879   1.193
  157SOL    HW1 1370   5.728   2.919   1.105
  157SOL    HW2 1371   5.647   2.945   1.245
  158SOL     OW 1372   2.104   5.912   2.590
  158SOL    HW1 1373   2.127   5.957   2.504
  158SOL    HW2 1374   2.010   5.878   2.586
  159SOL     OW 1375   4.206   4.735   2.117
  159SOL    HW1 1376   4.198   4.652   2.173
  159SOL    HW2 1377   4.287   4.729   2.059
  160SOL     OW 1378   5.948   5.233   0.348
  160SOL    HW1 1379   5.956   5.141   0.311
  160SOL    HW2 1380   5.894   5.290   0.285
  161SOL     OW 1381   1.764   5.964   4.206
  161SOL    HW1 1382   1.769   6.012   4.118
  161SOL    HW2 1383   1.851   5.976   4.255
  162SOL     OW 1384   3.807   6.013   6.998
  162SOL    HW1 1385   3.714   6.009   0.012
  162SOL    HW2 1386   3.840   6.107   6.999
  163SOL     OW 1387   5.485   5.841   0.697
  163SOL    HW1 1388   5.531   5.874   0.779
  163SOL    HW2 1389   5.539   5.768   0.655
  164SOL     OW 1390   6.284   4.508   0.312
  164SOL    HW1 1391   6.270   4.411   0.331
  164SOL    HW2 1392   6.357   4.518   0.243
  165SOL     OW 1393   5.208   3.190   1.316
  165SOL    HW1 1394   5.134   3.194   1.248
  165SOL    HW2 1395   5.209   3.100   1.359
  166SOL     OW 1396   6.978   4.917   3.304
  166SOL    HW1 1397   0.052   4.908   3.279
  166SOL    HW2 1398   6.970   4.972   3.387
  167SOL     OW 1399   5.096   2.778   0.382
  167SOL    HW1 1400   5.188   2.748   0.357
  167SOL    HW2 1401   5.075   2.749   0.476
  168SOL     OW 1402   2.612   2.991   1.240
  168SOL    HW1 1403   2.608   3.039   1.152
  168SOL    HW2 1404   2.545   3.032   1.303
  169SOL     OW 1405   4.688   1.038   1.551
  169SOL    HW1 1406   4.703   0.975   1.627
  169SOL    HW2 1407   4.596   1.076   1.557
  170SOL     OW 1408   1.395   1.196   3.503
  170SOL    HW1 1409   1.390   1.260   3.580
  170SOL    HW2 1410   1.365   1.105   3.533
  171SOL     OW 1411   3.871   4.186   6.730
  171SOL    HW1 1412   3.808   4.111   6.753
  171SOL    HW2 1413   3.820   4.271   6.724
  172SOL     OW 1414   6.049   1.714   3.802
  172SOL    HW1 1415   6.133   1.678   3.843
  172SOL    HW2 1416   6.044   1.813   3.816
  173SOL     OW 1417   6.943   1.884   4.476
  173SOL    HW1 1418   6.961   1.865   4.379
  173SOL    HW2 1419   6.915   1.980   4.486
  174SOL     OW 1420   3.643   5.317   3.765
  174SOL    HW1 1421   3.651   5.288   3.669
  174SOL    HW2 1422   3.571   5.386   3.773
  175SOL     OW 1423   2.437   0.195   1.676
  175SOL    HW1 1424   2.393   0.174   1.589
  175SOL    HW2 1425   2.463   0.291   1.678
  176SOL     OW 1426   1.329   4.623   0.824
  176SOL    HW1 1427   1.343   4.655   0.730
  176SOL    HW2 1428   1.334   4.523   0.825
  177SOL     OW 1429   5.971   3.431   2.801
  177SOL    HW1 1430   5.939   3.337   2.791
  177SOL    HW2 1431   5.914   3.478   2.869
  178SOL     OW 1432   2.327   2.487   6.874
  178SOL    HW1 1433   2.314   2.579   6.911
  178SOL    HW2 1434   2.388   2.435   6.933
  179SOL     OW 1435   2.788   1.227   5.876
  179SOL    HW1 1436   2.884   1.198   5.870
  179SOL    HW2 1437   2.731   1.150   5.902
  180SOL     OW 1438   1.720   6.607   0.292
  180SOL    HW1 1439   1.742   6.676   0.362
  180SOL    HW2 1440   1.621   6.594   0.288
  181SOL     OW 1441   3.253   2.468   6.454
  181SOL    HW1 1442   3.195   2.517   6.520
  181SOL    HW2 1443   3.266   2.374   6.485
  182SOL     OW 1444   3.317   1.469   4.344
  182SOL    HW1 1445   3.249   1.528   4.301
  182SOL    HW2 1446   3.361   1.518   4.419
  183SOL     OW 1447   3.577   2.122   3.277
  183SOL    HW1 1448   3.542   2.159   3.363
  183SOL    HW2 1449   3.675   2.144   3.270
  184SOL     OW 1450   1.782   6.444   4.211
  184SOL    HW1 1451   1.730   6.483   4.287
  184SOL    HW2 1452   1.734   6.362   4.178
  185SOL     OW 1453   0.380   1.525   6.439
  185SOL    HW1 1454   0.311   1.497   6.372
  185SOL    HW2 1455   0.453   1.457   6.441
  186SOL     OW 1456   5.580   0.930   4.463
  186SOL    HW1 1457   5.494   0.895   4.425
  186SOL    HW2 1458   5.618   0.999   4.401
  187SOL     OW 1459   4.268   0.048   3.513
  187SOL    HW1 1460   4.322   0.128   3.487
  187SOL    HW2 1461   4.252   0.049   3.612
  188SOL     OW 1462   0.334   1.598   2.551
  188SOL    HW1 1463   0.374   1.522   2.500
  188SOL    HW2 1464   0.375   1.602   2.642
  189SOL     OW 1465   1.985   5.506   1.570
  189SOL    HW1 1466   1.935   5.550   1.645
  189SOL    HW2 1467   1.997   5.572   1.495
  190SOL     OW 1468   5.091   2.116   4.418
  190SOL    HW1 1469   5.035   2.199   4.423
  190SOL    HW2 1470   5.038   2.038   4.451
  191SOL     OW 1471   5.644   6.301   6.915
  191SOL    HW1 1472   5.596   6.368   6.858
  191SOL    HW2 1473   5.675   6.225   6.858
  192SOL     OW 1474   0.603   6.053   2.072
  192SOL    HW1 1475   0.669   6.095   2.135
  192SOL    HW2 1476   0.516   6.039   2.120
  193SOL     OW 1477   4.793   2.754   5.570
  193SOL    HW1 1478   4.842   2.749   5.657
  193SOL    HW2 1479   4.850   2.712   5.498
  194SOL     OW 1480   3.981   1.051   2.952
  194SOL    HW1 1481   3.926   0.977   2.915
  194SOL    HW2 1482   3.940   1.086   3.036
  195SOL     OW 1483   1.792   0.269   4.706
  195SOL    HW1 1484   1.885   0.256   4.670
  195SOL    HW2 1485   1.765   0.364   4.695
  196SOL     OW 1486   2.745   0.238   0.333
  196SOL    HW1 1487   2.704   0.278   0.416
  196SOL    HW2 1488   2.675   0.187   0.283
  197SOL     OW 1489   2.914   0.124   1.558
  197SOL    HW1 1490   2.995   0.125   1.616
  197SOL    HW2 1491   2.941   0.102   1.464
  198SOL     OW 1492   4.583   0.678   2.827
  198SOL    HW1 1493   4.623   0.739   2.896
  198SOL    HW2 1494   4.643   0.600   2.814
  199SOL     OW 1495   6.864   2.060   3.773
  199SOL    HW1 1496   6.947   2.084   3.724
  199SOL    HW2 1497   6.885   2.048   3.870
  200SOL     OW 1498   1.525   3.600   0.651
  200SOL    HW1 1499   1.460   3.569   0.582
  200SOL    HW2 1500   1.618   3.580   0.621
  201SOL     OW 1501   0.037   6.983   6.118
  201SOL    HW1 1502   6.971   6.960   6.077
  201SOL    HW2 1503   0.041   6.945   6.211
  202SOL     OW 1504   3.786   1.211   0.072
  202SOL    HW1 1505   3.881   1.208   0.104
  202SOL    HW2 1506   3.725   1.209   0.151
  203SOL     OW 1507   5.974   2.638   5.351
  203SOL    HW1 1508   5.910   2.711   5.329
  203SOL    HW2 1509   5.923   2.553   5.366
  204SOL     OW 1510   1.136   0.332   4.660
  204SOL    HW1 1511   1.067   0.401   4.640
  204SOL    HW2 1512   1.169   0.345   4.754
  205SOL     OW 1513   0.374   2.384   3.003
  205SOL    HW1 1514   0.296   2.370   2.942
  205SOL    HW2 1515   0.447   2.430   2.953
  206SOL     OW 1516   0.492   4.585   0.788
  206SOL    HW1 1517   0.392   4.577   0.786
  206SOL    HW2 1518   0.530   4.508   0.840
  207SOL     OW 1519   6.287   1.657   3.890
  207SOL    HW1 1520   6.382   1.657   3.859
  207SOL    HW2 1521   6.283   1.679   3.987
  208SOL     OW 1522   6.799   4.312   5.537
  208SOL    HW1 1523   6.896   4.297   5.554
  208SOL    HW2 1524   6.750   4.225   5.542
  209SOL     OW 1525   0.324   5.482   4.036
  209SOL    HW1 1526   0.310   5.495   4.134
  209SOL    HW2 1527   0.406   5.531   4.007
  210SOL     OW 1528   4.780   1.392   0.682
  210SOL    HW1 1529   4.871   1.426   0.703
  210SOL    HW2 1530   4.712   1.462   0.704
  211SOL     OW 1531   1.640   6.513   2.383
  211SOL    HW1 1532   1.578   6.437   2.401
  211SOL    HW2 1533   1.734   6.485   2.403
  212SOL     OW 1534   1.311   3.759   1.579
  212SOL    HW1 1535   1.351   3.846   1.548
  212SOL    HW2 1536   1.341   3.740   1.672
  213SOL     OW 1537   2.858   0.076   0.670
  213SOL    HW1 1538   2.899   0.166   0.684
  213SOL    HW2 1539   2.858   0.026   0.756
  214SOL     OW 1540   3.635   5.351   2.705
  214SOL    HW1 1541   3.717   5.294   2.699
  214SOL    HW2 1542   3.661   5.445   2.727
  215SOL     OW 1543   2.807   3.734   0.573
  215SOL    HW1 1544   2.811   3.815   0.515
  215SOL    HW2 1545   2.788   3.762   0.668
  216SOL     OW 1546   1.057   5.803   3.211
  216SOL    HW1 1547   0.972   5.852   3.231
  216SOL    HW2 1548   1.114   5.801   3.293
  217SOL     OW 1549   0.960   2.900   4.063
  217SOL    HW1 1550   0.982   2.816   4.113
  217SOL    HW2 1551   0.863   2.922   4.074
  218SOL     OW 1552   1.074   3.322   4.428
  218SOL    HW1 1553   1.085   3.277   4.339
  218SOL    HW2 1554   1.156   3.307   4.483
  219SOL     OW 1555   4.128   0.425   0.258
  219SOL    HW1 1556   4.206   0.488   0.254
  219SOL    HW2 1557   4.161   0.333   0.277
  220SOL     OW 1558   3.126   0.032   1.711
  220SOL    HW1 1559   3.163   0.105   1.769
  220SOL    HW2 1560   3.049   7.011   1.758
  221SOL     OW 1561   6.011   3.973   0.940
  221SOL    HW1 1562   6.075   4.026   0.884
  221SOL    HW2 1563   6.019   4.002   1.036
  222SOL     OW 1564   1.387   4.790   5.385
  222SOL    HW1 1565   1.440   4.838   5.455
  222SOL    HW2 1566   1.373   4.695   5.412
  223SOL     OW 1567   6.526   3.355   6.451
  223SOL    HW1 1568   6.457   3.389   6.387
  223SOL    HW2 1569   6.526   3.412   6.533
  224SOL     OW 1570   2.627   1.757   5.917
  224SOL    HW1 1571   2.627   1.786   6.013
  224SOL    HW2 1572   2.663   1.664   5.911
  225SOL     OW 1573   4.930   3.814   6.661
  225SOL    HW1 1574   4.932   3.853   6.569
  225SOL    HW2 1575   4.851   3.753   6.670
  226SOL     OW 1576   1.051   1.429   5.732
  226SOL    HW1 1577   0.958   1.441   5.768
  226SOL    HW2 1578   1.054   1.461   5.637
  227SOL     OW 1579   0.700   4.079   1.454
  227SOL    HW1 1580   0.604   4.107   1.456
  227SOL    HW2 1581   0.741   4.094   1.544
  228SOL     OW 1582   2.552   0.019   3.577
  228SOL    HW1 1583   2.494   6.982   3.521
  228SOL    HW2 1584   2.635   0.042   3.527
  229SOL     OW 1585   6.237   6.345   6.102
  229SOL    HW1 1586   6.305   6.297   6.047
  229SOL    HW2 1587   6.211   6.430   6.055
  230SOL     OW 1588   3.699   4.880   3.514
  230SOL    HW1 1589   3.785   4.828   3.516
  230SOL    HW2 1590   3.666   4.886   3.420
  231SOL     OW 1591   6.080   1.476   6.795
  231SOL    HW1 1592   6.144   1.546   6.828
  231SOL    HW2 1593   6.094   1.391   6.845
  232SOL     OW 1594   0.463   3.250   6.692
  232SOL    HW1 1595   0.512   3.208   6.615
  232SOL    HW2 1596   0.397   3.185   6.728
  233SOL     OW 1597   3.544   1.262   2.992
  233SOL    HW1 1598   3.607   1.221   2.925
  233SOL    HW2 1599   3.461   1.207   2.996
  234SOL     OW 1600   5.215   0.644   6.156
  234SOL    HW1 1601   5.271   0.703   6.214
  234SOL    HW2 1602   5.160   0.701   6.094
  235SOL     OW 1603   4.738   2.813   1.758
  235SOL    HW1 1604   4.725   2.868   1.840
  235SOL    HW2 1605   4.668   2.741   1.754
  236SOL     OW 1606   5.834   2.805   6.939
  236SOL    HW1 1607   5.794   2.827   6.850
  236SOL    HW2 1608   5.932   2.821   6.936
  237SOL     OW 1609   6.867   4.561   1.972
  237SOL    HW1 1610   6.769   4.581   1.979
  237SOL    HW2 1611   6.882   4.486   1.909
  238SOL     OW 1612   5.504   0.789   0.544
  238SOL    HW1 1613   5.553   0.773   0.459
  238SOL    HW2 1614   5.441   0.866   0.533
  239SOL     OW 1615   1.080   4.830   6.416
  239SOL    HW1 1616   0.999   4.813   6.472
  239SOL    HW2 1617   1.056   4.886   6.337
  240SOL     OW 1618   6.516   2.668   3.176
  240SOL    HW1 1619   6.451   2.721   3.231
  240SOL    HW2 1620   6.566   2.604   3.235
  241SOL     OW 1621   2.858   2.270   4.927
  241SOL    HW1 1622   2.951   2.257   4.962
  241SOL    HW2 1623   2.801   2.310   4.999
  242SOL     OW 1624   3.929   3.941   4.287
  242SOL    HW1 1625   3.877   3.856   4.280
  242SOL    HW2 1626   4.021   3.921   4.321
  243SOL     OW 1627   4.512   1.046   6.583
  243SOL    HW1 1628   4.428   1.079   6.541
  243SOL    HW2 1629   4.494   1.022   6.679
  244SOL     OW 1630   6.216   3.459   5.538
  244SOL    HW1 1631   6.214   3.361   5.517
  244SOL    HW2 1632   6.218   3.471   5.637
  245SOL     OW 1633   5.027   2.332   4.159
  245SOL    HW1 1634   5.048   2.410   4.218
  245SOL    HW2 1635   5.092   2.258   4.176
  246SOL     OW 1636   5.131   2.084   3.290
  246SOL    HW1 1637   5.160   2.179   3.299
  246SOL    HW2 1638   5.131   2.041   3.380
  247SOL     OW 1639   2.846   1.500   0.045
  247SOL    HW1 1640   2.884   1.541   0.128
  247SOL    HW2 1641   2.758   1.459   0.065
  248SOL     OW 1642   4.061   1.484   2.722
  248SOL    HW1 1643   4.085   1.387   2.730
  248SOL    HW2 1644   4.004   1.498   2.641
  249SOL     OW 1645   4.314   0.619   4.528
  249SOL    HW1 1646   4.257   0.538   4.520
  249SOL    HW2 1647   4.298   0.663   4.617
  250SOL     OW 1648   5.071   3.380   0.350
  250SOL    HW1 1649   5.078   3.280   0.350
  250SOL    HW2 1650   5.016   3.410   0.428
  251SOL     OW 1651   4.769   3.718   5.596
  251SOL    HW1 1652   4.756   3.619   5.599
  251SOL    HW2 1653   4.736   3.759   5.681
  252SOL     OW 1654   0.003   6.011   5.223
  252SOL    HW1 1655   6.945   5.974   5.175
  252SOL    HW2 1656   0.019   5.958   5.306
  253SOL     OW 1657   2.827   4.923   6.471
  253SOL    HW1 1658   2.789   5.006   6.431
  253SOL    HW2 1659   2.815   4.847   6.407
  254SOL     OW 1660   6.095   1.996   3.851
  254SOL    HW1 1661   6.158   2.073   3.857
  254SOL    HW2 1662   6.001   2.028   3.863
  255SOL     OW 1663   1.486   4.835   5.137
  255SOL    HW1 1664   1.455   4.926   5.111
  255SOL    HW2 1665   1.434   4.804   5.217
  256SOL     OW 1666   6.221   3.832   6.278
  256SOL    HW1 1667   6.194   3.758   6.217
  256SOL    HW2 1668   6.229   3.798   6.372
  257SOL     OW 1669   5.009   0.559   3.958
  257SOL    HW1 1670   4.972   0.501   4.031
  257SOL    HW2 1671   5.062   0.503   3.895
  258SOL     OW 1672   2.404   5.092   5.074
  258SOL    HW1 1673   2.403   5.187   5.042
  258SOL    HW2 1674   2.313   5.052   5.063
  259SOL     OW 1675   6.494   2.143   2.892
  259SOL    HW1 1676   6.485   2.239   2.865
  259SOL    HW2 1677   6.405   2.098   2.882
  260SOL     OW 1678   4.254   0.047   1.705
  260SOL    HW1 1679   4.204   0.132   1.688
  260SOL    HW2 1680   4.210   7.020   1.781
  261SOL     OW 1681   6.558   3.145   0.341
  261SOL    HW1 1682   6.619   3.099   0.407
  261SOL    HW2 1683   6.520   3.077   0.279
  262SOL     OW 1684   0.554   3.625   6.963
  262SOL    HW1 1685   0.539   3.537   6.917
  262SOL    HW2 1686   0.541   3.700   6.898
  263SOL     OW 1687   2.370   0.659   4.647
  263SOL    HW1 1688   2.308   0.733   4.624
  263SOL    HW2 1689   2.332   0.605   4.722
  264SOL     OW 1690   5.773   3.151   6.986
  264SOL    HW1 1691   5.695   3.129   6.928
  264SOL    HW2 1692   5.744   3.152   0.060
  265SOL     OW 1693   5.233   6.489   2.818
  265SOL    HW1 1694   5.190   6.435   2.890
  265SOL    HW2 1695   5.305   6.436   2.774
  266SOL     OW 1696   3.173   2.555   5.951
  266SOL    HW1 1697   3.266   2.521   5.968
  266SOL    HW2 1698   3.166   2.584   5.855
  267SOL     OW 1699   0.858   1.467   6.449
  267SOL    HW1 1700   0.837   1.403   6.524
  267SOL    HW2 1701   0.836   1.424   6.362
  268SOL     OW 1702   3.941   1.406   6.304
  268SOL    HW1 1703   3.886   1.457   6.238
  268SOL    HW2 1704   3.886   1.388   6.386
  269SOL     OW 1705   1.675   3.535   1.252
  269SOL    HW1 1706   1.639   3.486   1.173
  269SOL    HW2 1707   1.721   3.619   1.222
  270SOL     OW 1708   1.306   6.686   0.497
  270SOL    HW1 1709   1.330   6.783   0.487
  270SOL    HW2 1710   1.228   6.676   0.558
  271SOL     OW 1711   6.742   1.698   6.907
  271SOL    HW1 1712   6.744   1.774   6.843
  271SOL    HW2 1713   6.706   1.729   6.995
  272SOL     OW 1714   3.763   5.351   4.195
  272SOL    HW1 1715   3.700   5.415   4.151
  272SOL    HW2 1716   3.800   5.393   4.278
  273SOL     OW 1717   2.346   4.365   4.260
  273SOL    HW1 1718   2.444   4.350   4.251
  273SOL    HW2 1719   2.329   4.432   4.333
  274SOL     OW 1720   3.939   1.926   3.244
  274SOL    HW1 1721   3.910   1.830   3.237
  274SOL    HW2 1722   4.028   1.930   3.290
  275SOL     OW 1723   6.296   5.165   3.716
  275SOL    HW1 1724   6.344   5.231   3.657
  275SOL    HW2 1725   6.261   5.212   3.797
  276SOL     OW 1726   6.529   6.447   2.699
  276SOL    HW1 1727   6.490   6.516   2.761
  276SOL    HW2 1728   6.559   6.368   2.752
  277SOL     OW 1729   1.750   4.179   0.176
  277SOL    HW1 1730   1.820   4.230   0.125
  277SOL    HW2 1731   1.683   4.143   0.113
  278SOL     OW 1732   0.045   4.963   1.862
  278SOL    HW1 1733   0.087   4.880   1.898
  278SOL    HW2 1734   6.991   4.938   1.802
  279SOL     OW 1735   5.751   3.565   4.245
  279SOL    HW1 1736   5.768   3.655   4.285
  279SOL    HW2 1737   5.838   3.522   4.222
  280SOL     OW 1738   2.986   6.697   3.536
  280SOL    HW1 1739   2.967   6.701   3.438
  280SOL    HW2 1740   3.057   6.762   3.559
  281SOL     OW 1741   2.698   4.306   1.638
  281SOL    HW1 1742   2.772   4.252   1.678
  281SOL    HW2 1743   2.715   4.317   1.540
  282SOL     OW 1744   3.066   1.360   6.025
  282SOL    HW1 1745   3.027   1.291   6.086
  282SOL    HW2 1746   3.142   1.320   5.974
  283SOL     OW 1747   6.345   1.822   6.447
  283SOL    HW1 1748   6.386   1.812   6.356
  283SOL    HW2 1749   6.263   1.766   6.453
  284SOL     OW 1750   1.424   4.305   3.536
  284SOL    HW1 1751   1.392   4.220   3.495
  284SOL    HW2 1752   1.430   4.295   3.635
  285SOL     OW 1753   5.950   4.896   4.702
  285SOL    HW1 1754   5.921   4.925   4.611
  285SOL    HW2 1755   5.924   4.801   4.717
  286SOL     OW 1756   3.333   5.785   6.185
  286SOL    HW1 1757   3.427   5.806   6.209
  286SOL    HW2 1758   3.328   5.758   6.088
  287SOL     OW 1759   0.912   3.850   0.671
  287SOL    HW1 1760   0.964   3.794   0.607
  287SOL    HW2 1761   0.909   3.804   0.760
  288SOL     OW 1762   3.569   1.416   6.483
  288SOL    HW1 1763   3.486   1.463   6.511
  288SOL    HW2 1764   3.578   1.420   6.384
  289SOL     OW 1765   0.819   4.165   5.313
  289SOL    HW1 1766   0.779   4.256   5.297
  289SOL    HW2 1767   0.771   4.098   5.256
  290SOL     OW 1768   5.989   2.117   4.690
  290SOL    HW1 1769   5.896   2.115   4.726
  290SOL    HW2 1770   6.044   2.048   4.736
  291SOL     OW 1771   1.696   2.214   4.468
  291SOL    HW1 1772   1.745   2.165   4.396
  291SOL    HW2 1773   1.750   2.293   4.496
  292SOL     OW 1774   1.235   2.921   3.463
  292SOL    HW1 1775   1.205   2.909   3.368
  292SOL    HW2 1776   1.187   2.999   3.503
  293SOL     OW 1777   4.339   6.074   2.498
  293SOL    HW1 1778   4.283   6.125   2.564
  293SOL    HW2 1779   4.402   6.137   2.453
  294SOL     OW 1780   1.361   5.445   6.550
  294SOL    HW1 1781   1.334   5.538   6.577
  294SOL    HW2 1782   1.282   5.385   6.551
  295SOL     OW 1783   3.502   1.686   3.482
  295SOL    HW1 1784   3.548   1.762   3.434
  295SOL    HW2 1785   3.431   1.648   3.423
  296SOL     OW 1786   3.859   2.166   3.220
  296SOL    HW1 1787   3.920   2.222   3.165
  296SOL    HW2 1788   3.898   2.074   3.231
  297SOL     OW 1789   2.547   4.615   3.538
  297SOL    HW1 1790   2.550   4.715   3.533
  297SOL    HW2 1791   2.606   4.576   3.467
  298SOL     OW 1792   3.512   5.997   1.528
  298SOL    HW1 1793   3.574   6.072   1.504
  298SOL    HW2 1794   3.501   5.937   1.449
  299SOL     OW 1795   5.363   3.102   6.256
  299SOL    HW1 1796   5.343   3.068   6.348
  299SOL    HW2 1797   5.450   3.064   6.225
  300SOL     OW 1798   6.650   0.839   2.666
  300SOL    HW1 1799   6.641   0.754   2.718
  300SOL    HW2 1800   6.661   0.817   2.569
  301SOL     OW 1801   4.700   3.366   1.393
  301SOL    HW1 1802   4.741   3.410   1.313
  301SOL    HW2 1803   4.769   3.352   1.464
  302SOL     OW 1804   1.012   0.677   3.433
  302SOL    HW1 1805   0.920   0.706   3.407
  302SOL    HW2 1806   1.023   0.579   3.414
  303SOL     OW 1807   5.820   0.628   2.226
  303SOL    HW1 1808   5.913   0.593   2.224
  303SOL    HW2 1809   5.772   0.598   2.143
  304SOL     OW 1810   2.516   0.309   3.912
  304SOL    HW1 1811   2.520   0.406   3.936
  304SOL    HW2 1812   2.596   0.262   3.950
  305SOL     OW 1813   0.580   3.657   0.319
  305SOL    HW1 1814   0.591   3.610   0.232
  305SOL    HW2 1815   0.637   3.740   0.320
  306SOL     OW 1816   1.678   1.297   3.642
  306SOL    HW1 1817   1.692   1.205   3.678
  306SOL    HW2 1818   1.733   1.362   3.694
  307SOL     OW 1819   4.742   6.747   0.815
  307SOL    HW1 1820   4.652   6.707   0.836
  307SOL    HW2 1821   4.786   6.773   0.901
  308SOL     OW 1822   6.403   3.604   5.109
  308SOL    HW1 1823   6.357   3.646   5.031
  308SOL    HW2 1824   6.391   3.662   5.190
  309SOL     OW 1825   3.696   4.538   6.371
  309SOL    HW1 1826   3.694   4.440   6.388
  309SOL    HW2 1827   3.725   4.555   6.277
  310SOL     OW 1828   6.460   6.500   5.922
  310SOL    HW1 1829   6.526   6.468   5.989
  310SOL    HW2 1830   6.482   6.593   5.894
  311SOL     OW 1831   6.181   5.518   1.482
  311SOL    HW1 1832   6.146   5.511   1.389
  311SOL    HW2 1833   6.269   5.564   1.481
  312SOL     OW 1834   4.614   1.500   5.745
  312SOL    HW1 1835   4.620   1.589   5.700
  312SOL    HW2 1836   4.594   1.513   5.842
  313SOL     OW 1837   2.969   4.195   1.751
  313SOL    HW1 1838   3.025   4.169   1.672
  313SOL    HW2 1839   2.977   4.293   1.767
  314SOL     OW 1840   3.339   5.130   6.865
  314SOL    HW1 1841   3.337   5.208   6.928
  314SOL    HW2 1842   3.254   5.079   6.873
  315SOL     OW 1843   0.853   3.215   3.308
  315SOL    HW1 1844   0.888   3.198   3.400
  315SOL    HW2 1845   0.762   3.257   3.314
  316SOL     OW 1846   2.350   2.457   3.952
  316SOL    HW1 1847   2.276   2.405   3.910
  316SOL    HW2 1848   2.431   2.399   3.960
  317SOL     OW 1849   1.103   0.354   1.347
  317SOL    HW1 1850   1.073   0.367   1.442
  317SOL    HW2 1851   1.031   0.306   1.296
  318SOL     OW 1852   0.877   6.275   6.687
  318SOL    HW1 1853   0.884   6.334   6.768
  318SOL    HW2 1854   0.797   6.216   6.697
  319SOL     OW 1855   0.014   0.924   3.147
  319SOL    HW1 1856   6.993   0.868   3.077
  319SOL    HW2 1857   0.049   1.009   3.105
  320SOL     OW 1858   5.513   2.339   6.768
  320SOL    HW1 1859   5.431   2.287   6.791
  320SOL    HW2 1860   5.501   2.434   6.796
  321SOL     OW 1861   2.783   1.432   1.675
  321SOL    HW1 1862   2.836   1.488   1.739
  321SOL    HW2 1863   2.802   1.463   1.581
  322SOL     OW 1864   3.343   3.682   4.759
  322SOL    HW1 1865   3.293   3.681   4.673
  322SOL    HW2 1866   3.300   3.618   4.823
  323SOL     OW 1867   0.598   3.350   6.910
  323SOL    HW1 1868   0.566   3.281   6.975
  323SOL    HW2 1869   0.576   3.319   6.817
  324SOL     OW 1870   2.240   2.926   3.775
  324SOL    HW1 1871   2.186   2.850   3.738
  324SOL    HW2 1872   2.325   2.891   3.814
  325SOL     OW 1873   1.883   3.126   1.971
  325SOL    HW1 1874   1.940   3.052   1.937
  325SOL    HW2 1875   1.935   3.211   1.973
  326SOL     OW 1876   1.802   5.570   6.413
  326SOL    HW1 1877   1.874   5.570   6.345
  326SOL    HW2 1878   1.778   5.476   6.436
  327SOL     OW 1879   1.597   5.411   3.908
  327SOL    HW1 1880   1.585   5.424   3.810
  327SOL    HW2 1881   1.549   5.327   3.937
  328SOL     OW 1882   3.167   5.218   2.155
  328SOL    HW1 1883   3.180   5.178   2.246
  328SOL    HW2 1884   3.241   5.187   2.095
  329SOL     OW 1885   3.045   3.988   4.338
  329SOL    HW1 1886   3.068   3.935   4.256
  329SOL    HW2 1887   3.122   4.047   4.362
  330SOL     OW 1888   3.332   6.505   1.745
  330SOL    HW1 1889   3.381   6.534   1.663
  330SOL    HW2 1890   3.297   6.586   1.793
  331SOL     OW 1891   4.413   4.859   6.758
  331SOL    HW1 1892   4.403   4.952   6.723
  331SOL    HW2 1893   4.510   4.835   6.760
  332SOL     OW 1894   3.468   2.113   4.314
  332SOL    HW1 1895   3.413   2.193   4.337
  332SOL    HW2 1896   3.442   2.037   4.374
  333SOL     OW 1897   3.288   6.929   6.591
  333SOL    HW1 1898   3.291   6.892   6.683
  333SOL    HW2 1899   3.344   7.012   6.586
  334SOL     OW 1900   2.505   0.243   0.808
  334SOL    HW1 1901   2.419   0.191   0.805
  334SOL    HW2 1902   2.491   0.327   0.859
  335SOL     OW 1903   3.747   6.413   4.363
  335SOL    HW1 1904   3.817   6.389   4.295
  335SOL    HW2 1905   3.763   6.507   4.395
  336SOL     OW 1906   2.260   1.005   4.117
  336SOL    HW1 1907   2.349   0.988   4.158
  336SOL    HW2 1908   2.231   1.099   4.134
  337SOL     OW 1909   0.063   3.686   0.837
  337SOL    HW1 1910   0.130   3.620   0.870
  337SOL    HW2 1911   0.109   3.770   0.809
  338SOL     OW 1912   2.811   2.409   0.820
  338SOL    HW1 1913   2.892   2.350   0.829
  338SOL    HW2 1914   2.738   2.358   0.776
  339SOL     OW 1915   3.813   6.631   4.537
  339SOL    HW1 1916   3.908   6.602   4.539
  339SOL    HW2 1917   3.770   6.610   4.624
  340SOL     OW 1918   4.891   4.248   4.748
  340SOL    HW1 1919   4.805   4.293   4.723
  340SOL    HW2 1920   4.872   4.167   4.803
  341SOL     OW 1921   6.410   6.916   4.164
  341SOL    HW1 1922   6.328   6.862   4.180
  341SOL    HW2 1923   6.386   7.000   4.116
  342SOL     OW 1924   5.696   3.918   0.213
  342SOL    HW1 1925   5.657   3.827   0.198
  342SOL    HW2 1926   5.629   3.976   0.259
  343SOL     OW 1927   1.865   6.009   0.888
  343SOL    HW1 1928   1.812   5.985   0.969
  343SOL    HW2 1929   1.874   5.929   0.829
  344SOL     OW 1930   1.755   5.233   1.622
  344SOL    HW1 1931   1.704   5.309   1.662
  344SOL    HW2 1932   1.852   5.257   1.616
  345SOL     OW 1933   6.529   1.196   5.506
  345SOL    HW1 1934   6.464   1.128   5.539
  345SOL    HW2 1935   6.517   1.281   5.558
  346SOL     OW 1936   1.910   0.713   1.828
  346SOL    HW1 1937   1.885   0.717   1.925
  346SOL    HW2 1938   1.996   0.761   1.814
  347SOL     OW 1939   3.965   6.589   6.513
  347SOL    HW1 1940   3.896   6.537   6.562
  347SOL    HW2 1941   3.922   6.663   6.463
  348SOL     OW 1942   5.043   5.165   1.159
  348SOL    HW1 1943   4.964   5.123   1.205
  348SOL    HW2 1944   5.107   5.094   1.131
  349SOL     OW 1945   6.620   4.349   2.050
  349SOL    HW1 1946   6.633   4.301   1.964
  349SOL    HW2 1947   6.572   4.436   2.033
  350SOL     OW 1948   3.667   3.240   1.736
  350SOL    HW1 1949   3.678   3.159   1.794
  350SOL    HW2 1950   3.757   3.281   1.720
  351SOL     OW 1951   2.383   2.146   0.355
  351SOL    HW1 1952   2.304   2.197   0.389
  351SOL    HW2 1953   2.420   2.192   0.275
  352SOL     OW 1954   3.642   6.929   4.654
  352SOL    HW1 1955   3.556   6.937   4.603
  352SOL    HW2 1956   3.660   7.016   4.701
  353SOL     OW 1957   2.673   0.130   0.965
  353SOL    HW1 1958   2.630   0.162   0.880
  353SOL    HW2 1959   2.702   0.036   0.953
  354SOL     OW 1960   4.517   2.299   0.282
  354SOL    HW1 1961   4.584   2.301   0.356
  354SOL    HW2 1962   4.563   2.315   0.195
  355SOL     OW 1963   6.931   3.057   3.126
  355SOL    HW1 1964   6.893   2.973   3.087
  355SOL    HW2 1965   0.009   3.053   3.122
  356SOL     OW 1966   4.488   5.611   4.558
  356SOL    HW1 1967   4.586   5.629   4.560
  356SOL    HW2 1968   4.470   5.532   4.499
  357SOL     OW 1969   6.714   0.001   5.634
  357SOL    HW1 1970   6.715   0.017   5.535
  357SOL    HW2 1971   6.809   7.019   5.668
  358SOL     OW 1972   5.288   0.272   1.974
  358SOL    HW1 1973   5.386   0.268   1.993
  358SOL    HW2 1974   5.237   0.246   2.055
  359SOL     OW 1975   1.735   2.080   2.668
  359SOL    HW1 1976   1.833   2.068   2.652
  359SOL    HW2 1977   1.713   2.052   2.762
  360SOL     OW 1978   2.555   6.372   6.254
  360SOL    HW1 1979   2.593   6.279   6.253
  360SOL    HW2 1980   2.542   6.402   6.349
  361SOL     OW 1981   5.316   5.505   2.764
  361SOL    HW1 1982   5.251   5.429   2.752
  361SOL    HW2 1983   5.409   5.469   2.771
  362SOL     OW 1984   3.433   3.737   0.636
  362SOL    HW1 1985   3.486   3.657   0.608
  362SOL    HW2 1986   3.495   3.813   0.656
  363SOL     OW 1987   4.403   5.120   3.730
  363SOL    HW1 1988   4.478   5.130   3.664
  363SOL    HW2 1989   4.321   5.164   3.694
  364SOL     OW 1990   0.275   5.727   5.485
  364SOL    HW1 1991   0.247   5.706   5.391
  364SOL    HW2 1992   0.247   5.653   5.546
  365SOL     OW 1993   4.831   5.624   2.312
  365SOL    HW1 1994   4.845   5.602   2.408
  365SOL    HW2 1995   4.734   5.617   2.290
  366SOL     OW 1996   5.723   1.065   0.385
  366SOL    HW1 1997   5.640   1.105   0.425
  366SOL    HW2 1998   5.803   1.110   0.425
  367SOL     OW 1999   5.128   2.834   0.910
  367SOL    HW1 2000   5.162   2.886   0.988
  367SOL    HW2 2001   5.179   2.748   0.902
  368SOL     OW 2002   0.663   3.982   4.714
  368SOL    HW1 2003   0.742   3.921   4.721
  368SOL    HW2 2004   0.627   3.999   4.806
  369SOL     OW 2005   6.442   4.764   1.658
  369SOL    HW1 2006   6.522   4.781   1.601
  369SOL    HW2 2007   6.441   4.667   1.685
  370SOL     OW 2008   3.373   1.858   5.653
  370SOL    HW1 2009   3.336   1.829   5.564
  370SOL    HW2 2010   3.431   1.938   5.640
  371SOL     OW 2011   2.434   3.586   6.386
  371SOL    HW1 2012   2.350   3.531   6.380
  371SOL    HW2 2013   2.410   3.681   6.404
  372SOL     OW 2014   6.605   0.783   5.051
  372SOL    HW1 2015   6.618   0.828   4.963
  372SOL    HW2 2016   6.508   0.788   5.078
  373SOL     OW 2017   6.389   6.432   5.380
  373SOL    HW1 2018   6.316   6.434   5.447
  373SOL    HW2 2019   6.379   6.351   5.321
  374SOL     OW 2020   4.391   6.878   2.545
  374SOL    HW1 2021   4.350   6.812   2.607
  374SOL    HW2 2022   4.434   6.951   2.598
  375SOL     OW 2023   0.147   4.991   3.763
  375SOL    HW1 2024   0.218   4.926   3.789
  375SOL    HW2 2025   0.076   4.994   3.834
  376SOL     OW 2026   1.828   3.254   3.930
  376SOL    HW1 2027   1.876   3.341   3.911
  376SOL    HW2 2028   1.760   3.238   3.858
  377SOL     OW 2029   6.120   2.822   1.960
  377SOL    HW1 2030   6.096   2.728   1.936
  377SOL    HW2 2031   6.176   2.862   1.888
  378SOL     OW 2032   3.519   2.445   5.460
  378SOL    HW1 2033   3.526   2.381   5.384
  378SOL    HW2 2034   3.433   2.430   5.510
  379SOL     OW 2035   6.146   4.206   1.789
  379SOL    HW1 2036   6.102   4.293   1.766
  379SOL    HW2 2037   6.226   4.192   1.729
  380SOL     OW 2038   2.726   1.753   1.850
  380SOL    HW1 2039   2.648   1.691   1.842
  380SOL    HW2 2040   2.811   1.700   1.849
  381SOL     OW 2041   2.008   4.611   1.740
  381SOL    HW1 2042   1.963   4.560   1.667
  381SOL    HW2 2043   1.977   4.576   1.829
  382SOL     OW 2044   4.895   5.684   6.475
  382SOL    HW1 2045   4.991   5.658   6.485
  382SOL    HW2 2046   4.877   5.768   6.527
  383SOL     OW 2047   6.233   3.169   6.197
  383SOL    HW1 2048   6.227   3.072   6.220
  383SOL    HW2 2049   6.312   3.184   6.137
  384SOL     OW 2050   0.956   3.879   4.680
  384SOL    HW1 2051   1.033   3.926   4.723
  384SOL    HW2 2052   0.970   3.780   4.686
  385SOL     OW 2053   4.709   6.210   0.024
  385SOL    HW1 2054   4.710   6.307   7.022
  385SOL    HW2 2055   4.619   6.171   0.003
  386SOL     OW 2056   3.813   6.962   5.206
  386SOL    HW1 2057   3.836   6.964   5.109
  386SOL    HW2 2058   3.894   6.937   5.259
  387SOL     OW 2059   0.137   6.195   3.448
  387SOL    HW1 2060   0.175   6.165   3.361
  387SOL    HW2 2061   0.037   6.186   3.446
  388SOL     OW 2062   0.738   2.121   4.420
  388SOL    HW1 2063   0.654   2.146   4.467
  388SOL    HW2 2064   0.807   2.093   4.487
  389SOL     OW 2065   4.227   4.040   1.685
  389SOL    HW1 2066   4.215   3.972   1.757
  389SOL    HW2 2067   4.280   4.117   1.720
  390SOL     OW 2068   3.333   1.101   0.100
  390SOL    HW1 2069   3.401   1.139   0.162
  390SOL    HW2 2070   3.302   1.172   0.037
  391SOL     OW 2071   2.174   4.144   5.294
  391SOL    HW1 2072   2.085   4.171   5.257
  391SOL    HW2 2073   2.230   4.106   5.221
  392SOL     OW 2074   1.721   3.024   2.288
  392SOL    HW1 2075   1.673   3.111   2.280
  392SOL    HW2 2076   1.804   3.037   2.342
  393SOL     OW 2077   1.603   5.574   0.487
  393SOL    HW1 2078   1.629   5.567   0.584
  393SOL    HW2 2079   1.621   5.488   0.441
  394SOL     OW 2080   0.824   2.926   6.532
  394SOL    HW1 2081   0.846   3.005   6.474
  394SOL    HW2 2082   0.811   2.957   6.626
  395SOL     OW 2083   5.153   4.370   2.023
  395SOL    HW1 2084   5.207   4.286   2.030
  395SOL    HW2 2085   5.188   4.425   1.947
  396SOL     OW 2086   2.183   2.027   2.318
  396SOL    HW1 2087   2.234   2.099   2.270
  396SOL    HW2 2088   2.242   1.947   2.329
  397SOL     OW 2089   5.361   1.250   5.677
  397SOL    HW1 2090   5.349   1.159   5.715
  397SOL    HW2 2091   5.452   1.258   5.637
  398SOL     OW 2092   1.050   6.273   4.575
  398SOL    HW1 2093   0.952   6.253   4.579
  398SOL    HW2 2094   1.083   6.253   4.482
  399SOL     OW 2095   6.410   5.708   4.303
  399SOL    HW1 2096   6.500   5.696   4.345
  399SOL    HW2 2097   6.422   5.723   4.204
  400SOL     OW 2098   6.824   6.606   5.073
  400SOL    HW1 2099   6.737   6.590   5.026
  400SOL    HW2 2100   6.813   6.681   5.138
  401SOL     OW 2101   6.159   0.308   6.405
  401SOL    HW1 2102   6.161   0.376   6.331
  401SOL    HW2 2103   6.139   0.354   6.492
  402SOL     OW 2104   6.369   0.344   2.329
  402SOL    HW1 2105   6.404   0.430   2.368
  402SOL    HW2 2106   6.436   0.271   2.343
  403SOL     OW 2107   3.367   0.214   6.724
  403SOL    HW1 2108   3.296   0.182   6.786
  403SOL    HW2 2109   3.391   0.309   6.746
  404SOL     OW 2110   3.118   6.017   5.553
  404SOL    HW1 2111   3.083   5.962   5.629
  404SOL    HW2 2112   3.169   6.095   5.589
  405SOL     OW 2113   2.332   4.230   3.466
  405SOL    HW1 2114   2.373   4.305   3.414
  405SOL    HW2 2115   2.347   4.144   3.417
  406SOL     OW 2116   0.618   4.837   5.223
  406SOL    HW1 2117   0.576   4.788   5.146
  406SOL    HW2 2118   0.707   4.797   5.244
  407SOL     OW 2119   1.450   3.044   3.756
  407SOL    HW1 2120   1.490   2.956   3.731
  407SOL    HW2 2121   1.403   3.035   3.844
  408SOL     OW 2122   3.597   2.129   3.004
  408SOL    HW1 2123   3.614   2.129   3.103
  408SOL    HW2 2124   3.682   2.152   2.956
  409SOL     OW 2125   6.814   3.791   1.999
  409SOL    HW1 2126   6.725   3.745   2.002
  409SOL    HW2 2127   6.802   3.888   2.022
  410SOL     OW 2128   1.573   2.035   1.276
  410SOL    HW1 2129   1.657   2.084   1.253
  410SOL    HW2 2130   1.586   1.937   1.264
  411SOL     OW 2131   6.840   2.140   2.057
  411SOL    HW1 2132   6.797   2.050   2.053
  411SOL    HW2 2133   6.896   2.146   2.140
  412SOL     OW 2134   2.830   5.033   2.592
  412SOL    HW1 2135   2.785   5.048   2.680
  412SOL    HW2 2136   2.851   4.936   2.582
  413SOL     OW 2137   3.684   5.101   1.931
  413SOL    HW1 2138   3.701   5.015   1.979
  413SOL    HW2 2139   3.636   5.081   1.845
  414SOL     OW 2140   3.140   0.314   3.804
  414SOL    HW1 2141   3.090   0.393   3.768
  414SOL    HW2 2142   3.200   0.278   3.733
  415SOL     OW 2143   0.115   1.772   0.401
  415SOL    HW1 2144   0.094   1.801   0.308
  415SOL    HW2 2145   0.199   1.716   0.400
  416SOL     OW 2146   5.061   4.209   4.549
  416SOL    HW1 2147   5.152   4.211   4.591
  416SOL    HW2 2148   4.994   4.247   4.614
  417SOL     OW 2149   2.094   1.326   6.623
  417SOL    HW1 2150   2.048   1.337   6.535
  417SOL    HW2 2151   2.128   1.415   6.654
  418SOL     OW 2152   3.168   6.987   5.226
  418SOL    HW1 2153   3.168   6.959   5.130
  418SOL    HW2 2154   3.251   6.955   5.271
  419SOL     OW 2155   7.008   6.683   2.642
  419SOL    HW1 2156   6.991   6.781   2.646
  419SOL    HW2 2157   6.931   6.638   2.595
  420SOL     OW 2158   5.458   0.900   6.554
  420SOL    HW1 2159   5.542   0.953   6.551
  420SOL    HW2 2160   5.456   0.844   6.637
  421SOL     OW 2161   5.813   4.276   5.654
  421SOL    HW1 2162   5.835   4.327   5.737
  421SOL    HW2 2163   5.713   4.271   5.643
  422SOL     OW 2164   5.054   1.698   0.862
  422SOL    HW1 2165   5.140   1.678   0.908
  422SOL    HW2 2166   5.017   1.785   0.897
  423SOL     OW 2167   2.684   0.561   6.439
  423SOL    HW1 2168   2.619   0.513   6.497
  423SOL    HW2 2169   2.730   0.633   6.492
  424SOL     OW 2170   1.833   5.349   3.193
  424SOL    HW1 2171   1.847   5.307   3.283
  424SOL    HW2 2172   1.833   5.448   3.203
  425SOL     OW 2173   4.870   1.074   5.076
  425SOL    HW1 2174   4.841   1.065   4.980
  425SOL    HW2 2175   4.904   0.986   5.108
  426SOL     OW 2176   2.517   2.627   5.176
  426SOL    HW1 2177   2.526   2.725   5.196
  426SOL    HW2 2178   2.425   2.609   5.141
  427SOL     OW 2179   4.861   1.207   4.256
  427SOL    HW1 2180   4.927   1.139   4.224
  427SOL    HW2 2181   4.892   1.298   4.230
  428SOL     OW 2182   2.236   0.888   4.619
  428SOL    HW1 2183   2.221   0.920   4.712
  428SOL    HW2 2184   2.304   0.946   4.574
  429SOL     OW 2185   0.798   5.414   4.204
  429SOL    HW1 2186   0.860   5.383   4.276
  429SOL    HW2 2187   0.733   5.341   4.183
  430SOL     OW 2188   1.604   0.369   3.550
  430SOL    HW1 2189   1.628   0.283   3.505
  430SOL    HW2 2190   1.544   0.350   3.628
  431SOL     OW 2191   2.595   1.956   0.941
  431SOL    HW1 2192   2.616   1.876   0.998
  431SOL    HW2 2193   2.532   2.016   0.990
  432SOL     OW 2194   5.543   1.825   0.917
  432SOL    HW1 2195   5.521   1.852   1.011
  432SOL    HW2 2196   5.642   1.834   0.902
  433SOL     OW 2197   3.692   6.301   6.112
  433SOL    HW1 2198   3.715   6.213   6.070
  433SOL    HW2 2199   3.775   6.345   6.145
  434SOL     OW 2200   3.856   6.291   3.685
  434SOL    HW1 2201   3.789   6.335   3.625
  434SOL    HW2 2202   3.945   6.287   3.639
  435SOL     OW 2203   3.987   1.494   5.689
  435SOL    HW1 2204   3.893   1.471   5.714
  435SOL    HW2 2205   3.988   1.580   5.638
  436SOL     OW 2206   3.463   6.011   3.069
  436SOL    HW1 2207   3.446   5.980   2.976
  436SOL    HW2 2208   3.452   5.935   3.133
  437SOL     OW 2209   0.107   1.151   4.756
  437SOL    HW1 2210   0.065   1.218   4.695
  437SOL    HW2 2211   0.047   1.071   4.765
  438SOL     OW 2212   1.227   4.792   3.126
  438SOL    HW1 2213   1.307   4.833   3.081
  438SOL    HW2 2214   1.237   4.800   3.225
  439SOL     OW 2215   5.982   0.988   2.851
  439SOL    HW1 2216   6.004   0.961   2.945
  439SOL    HW2 2217   6.016   1.080   2.833
  440SOL     OW 2218   3.591   1.018   6.848
  440SOL    HW1 2219   3.557   0.924   6.857
  440SOL    HW2 2220   3.660   1.035   6.919
  441SOL     OW 2221   6.547   4.175   2.887
  441SOL    HW1 2222   6.624   4.148   2.945
  441SOL    HW2 2223   6.569   4.261   2.841
  442SOL     OW 2224   4.797   4.094   5.904
  442SOL    HW1 2225   4.826   4.117   5.811
  442SOL    HW2 2226   4.751   4.006   5.905
  443SOL     OW 2227   5.103   4.630   2.946
  443SOL    HW1 2228   5.018   4.585   2.975
  443SOL    HW2 2229   5.153   4.570   2.883
  444SOL     OW 2230   3.907   1.507   0.174
  444SOL    HW1 2231   3.812   1.540   0.173
  444SOL    HW2 2232   3.921   1.445   0.097
  445SOL     OW 2233   2.784   6.275   2.697
  445SOL    HW1 2234   2.767   6.270   2.598
  445SOL    HW2 2235   2.843   6.199   2.725
  446SOL     OW 2236   4.849   5.830   2.726
  446SOL    HW1 2237   4.903   5.801   2.648
  446SOL    HW2 2238   4.910   5.859   2.800
  447SOL     OW 2239   6.161   3.622   6.099
  447SOL    HW1 2240   6.122   3.531   6.087
  447SOL    HW2 2241   6.158   3.672   6.013
  448SOL     OW 2242   2.287   1.563   2.441
  448SOL    HW1 2243   2.207   1.540   2.497
  448SOL    HW2 2244   2.370   1.550   2.495
  449SOL     OW 2245   1.915   2.752   3.485
  449SOL    HW1 2246   2.013   2.740   3.504
  449SOL    HW2 2247   1.864   2.680   3.532
  450SOL     OW 2248   0.479   4.829   3.452
  450SOL    HW1 2249   0.515   4.738   3.472
  450SOL    HW2 2250   0.387   4.838   3.491
  451SOL     OW 2251   0.076   2.150   3.637
  451SOL    HW1 2252   0.109   2.057   3.620
  451SOL    HW2 2253   0.152   2.208   3.667
  452SOL     OW 2254   3.681   6.584   2.676
  452SOL    HW1 2255   3.643   6.518   2.611
  452SOL    HW2 2256   3.695   6.541   2.765
  453SOL     OW 2257   4.323   0.464   6.896
  453SOL    HW1 2258   4.325   0.479   6.995
  453SOL    HW2 2259   4.331   0.366   6.877
  454SOL     OW 2260   6.787   4.091   6.542
  454SOL    HW1 2261   6.693   4.124   6.529
  454SOL    HW2 2262   6.788   4.024   6.617
  455SOL     OW 2263   0.107   4.276   5.554
  455SOL    HW1 2264   0.153   4.194   5.518
  455SOL    HW2 2265   0.041   4.250   5.624
  456SOL     OW 2266   1.593   1.101   3.828
  456SOL    HW1 2267   1.686   1.107   3.865
  456SOL    HW2 2268   1.537   1.172   3.871
  457SOL     OW 2269   1.687   5.815   5.769
  457SOL    HW1 2270   1.626   5.805   5.690
  457SOL    HW2 2271   1.674   5.738   5.832
  458SOL     OW 2272   2.976   1.511   2.895
  458SOL    HW1 2273   3.062   1.490   2.942
  458SOL    HW2 2274   2.904   1.527   2.963
  459SOL     OW 2275   1.914   0.313   5.149
  459SOL    HW1 2276   1.991   0.368   5.183
  459SOL    HW2 2277   1.839   0.374   5.123
  460SOL     OW 2278   1.094   1.571   5.111
  460SOL    HW1 2279   1.155   1.601   5.185
  460SOL    HW2 2280   1.116   1.477   5.086
  461SOL     OW 2281   6.643   4.650   5.535
  461SOL    HW1 2282   6.694   4.642   5.621
  461SOL    HW2 2283   6.627   4.746   5.515
  462SOL     OW 2284   3.227   3.749   4.491
  462SOL    HW1 2285   3.130   3.752   4.514
  462SOL    HW2 2286   3.262   3.843   4.482
  463SOL     OW 2287   5.585   6.758   2.665
  463SOL    HW1 2288   5.663   6.819   2.654
  463SOL    HW2 2289   5.615   6.671   2.704
  464SOL     OW 2290   3.437   6.036   5.806
  464SOL    HW1 2291   3.353   6.064   5.852
  464SOL    HW2 2292   3.422   5.948   5.760
  465SOL     OW 2293   1.282   2.240   0.790
  465SOL    HW1 2294   1.217   2.316   0.784
  465SOL    HW2 2295   1.235   2.158   0.822
  466SOL     OW 2296   3.461   6.169   4.804
  466SOL    HW1 2297   3.464   6.254   4.752
  466SOL    HW2 2298   3.472   6.189   4.902
  467SOL     OW 2299   0.528   1.807   2.529
  467SOL    HW1 2300   0.484   1.718   2.524
  467SOL    HW2 2301   0.469   1.876   2.487
  468SOL     OW 2302   4.579   0.199   6.625
  468SOL    HW1 2303   4.505   0.170   6.564
  468SOL    HW2 2304   4.664   0.153   6.599
  469SOL     OW 2305   2.998   4.308   5.607
  469SOL    HW1 2306   3.024   4.404   5.615
  469SOL    HW2 2307   2.968   4.289   5.514
  470SOL     OW 2308   2.782   5.482   3.090
  470SOL    HW1 2309   2.706   5.530   3.047
  470SOL    HW2 2310   2.755   5.453   3.182
  471SOL     OW 2311   2.602   2.262   3.676
  471SOL    HW1 2312   2.564   2.174   3.648
  471SOL    HW2 2313   2.672   2.291   3.610
  472SOL     OW 2314   5.910   4.248   6.585
  472SOL    HW1 2315   5.826   4.257   6.532
  472SOL    HW2 2316   5.893   4.278   6.679
  473SOL     OW 2317   6.678   2.419   2.391
  473SOL    HW1 2318   6.768   2.433   2.432
  473SOL    HW2 2319   6.624   2.358   2.449
  474SOL     OW 2320   5.980   6.088   4.891
  474SOL    HW1 2321   5.914   6.082   4.965
  474SOL    HW2 2322   6.029   6.001   4.882
  475SOL     OW 2323   5.691   2.725   0.731
  475SOL    HW1 2324   5.722   2.819   0.716
  475SOL    HW2 2325   5.650   2.691   0.647
  476SOL     OW 2326   0.507   4.239   1.829
  476SOL    HW1 2327   0.471   4.314   1.884
  476SOL    HW2 2328   0.465   4.153   1.859
  477SOL     OW 2329   2.791   5.997   4.089
  477SOL    HW1 2330   2.783   6.087   4.046
  477SOL    HW2 2331   2.808   5.927   4.020
  478SOL     OW 2332   4.642   5.642   2.865
  478SOL    HW1 2333   4.571   5.700   2.903
  478SOL    HW2 2334   4.716   5.700   2.829
  479SOL     OW 2335   3.976   3.158   4.205
  479SOL    HW1 2336   3.892   3.205   4.233
  479SOL    HW2 2337   4.017   3.206   4.128
  480SOL     OW 2338   1.361   0.081   3.038
  480SOL    HW1 2339   1.441   0.140   3.051
  480SOL    HW2 2340   1.389   7.021   2.988
  481SOL     OW 2341   0.957   5.963   1.220
  481SOL    HW1 2342   0.863   5.938   1.196
  481SOL    HW2 2343   0.986   5.911   1.300
  482SOL     OW 2344   5.799   4.200   2.881
  482SOL    HW1 2345   5.701   4.187   2.891
  482SOL    HW2 2346   5.833   4.253   2.959
  483SOL     OW 2347   5.612   2.155   2.668
  483SOL    HW1 2348   5.579   2.065   2.639
  483SOL    HW2 2349   5.628   2.155   2.766
  484SOL     OW 2350   2.003   4.426   4.388
  484SOL    HW1 2351   2.022   4.360   4.461
  484SOL    HW2 2352   1.904   4.428   4.370
  485SOL     OW 2353   5.424   3.501   2.482
  485SOL    HW1 2354   5.429   3.403   2.462
  485SOL    HW2 2355   5.384   3.549   2.405
  486SOL     OW 2356   6.061   0.010   6.776
  486SOL    HW1 2357   5.981   6.976   6.797
  486SOL    HW2 2358   6.125   6.981   6.719
  487SOL     OW 2359   0.228   6.863   3.377
  487SOL    HW1 2360   0.302   6.841   3.440
  487SOL    HW2 2361   0.144   6.882   3.430
  488SOL     OW 2362   1.976   0.036   3.465
  488SOL    HW1 2363   2.013   7.003   3.390
  488SOL    HW2 2364   2.020   0.008   3.551
  489SOL     OW 2365   6.524   6.242   4.600
  489SOL    HW1 2366   6.519   6.143   4.583
  489SOL    HW2 2367   6.574   6.285   4.525
  490SOL     OW 2368   1.655   5.608   5.954
  490SOL    HW1 2369   1.615   5.626   6.044
  490SOL    HW2 2370   1.736   5.551   5.965
  491SOL     OW 2371   0.103   2.665   6.920
  491SOL    HW1 2372   0.027   2.676   6.855
  491SOL    HW2 2373   0.117   2.568   6.938
  492SOL     OW 2374   1.583   1.767   5.670
  492SOL    HW1 2375   1.602   1.670   5.658
  492SOL    HW2 2376   1.534   1.781   5.756
  493SOL     OW 2377   2.520   6.582   5.237
  493SOL    HW1 2378   2.597   6.536   5.281
  493SOL    HW2 2379   2.528   6.575   5.138
  494SOL     OW 2380   2.398   0.606   5.498
  494SOL    HW1 2381   2.302   0.597   5.523
  494SOL    HW2 2382   2.443   0.517   5.503
  495SOL     OW 2383   4.308   6.043   5.679
  495SOL    HW1 2384   4.222   6.004   5.712
  495SOL    HW2 2385   4.367   5.970   5.646
  496SOL     OW 2386   6.207   2.087   2.914
  496SOL    HW1 2387   6.180   2.184   2.910
  496SOL    HW2 2388   6.125   2.030   2.921
  497SOL     OW 2389   3.417   1.173   6.034
  497SOL    HW1 2390   3.344   1.121   6.077
  497SOL    HW2 2391   3.385   1.208   5.946
  498SOL     OW 2392   0.246   5.814   2.085
  498SOL    HW1 2393   0.229   5.903   2.126
  498SOL    HW2 2394   0.333   5.778   2.118
  499SOL     OW 2395   3.460   5.104   6.356
  499SOL    HW1 2396   3.418   5.031   6.411
  499SOL    HW2 2397   3.398   5.130   6.282
  500SOL     OW 2398   5.708   2.840   6.681
  500SOL    HW1 2399   5.612   2.842   6.709
  500SOL    HW2 2400   5.717   2.785   6.598
  501SOL     OW 2401   1.839   0.063   2.813
  501SOL    HW1 2402   1.844   0.160   2.836
  501SOL    HW2 2403   1.794   0.052   2.724
  502SOL     OW 2404   1.762   4.845   5.833
  502SOL    HW1 2405   1.745   4.752   5.867
  502SOL    HW2 2406   1.793   4.903   5.908
  503SOL     OW 2407   3.192   4.171   6.594
  503SOL    HW1 2408   3.274   4.222   6.566
  503SOL    HW2 2409   3.204   4.074   6.571
  504SOL     OW 2410   6.767   6.461   2.197
  504SOL    HW1 2411   6.738   6.556   2.189
  504SOL    HW2 2412   6.688   6.401   2.189
  505SOL     OW 2413   4.139   6.938   5.354
  505SOL    HW1 2414   4.123   6.979   5.443
  505SOL    HW2 2415   4.139   6.838   5.362
  506SOL     OW 2416   3.197   5.771   3.032
  506SOL    HW1 2417   3.257   5.739   2.958
  506SOL    HW2 2418   3.190   5.870   3.028
  507SOL     OW 2419   4.368   0.918   1.781
  507SOL    HW1 2420   4.285   0.904   1.835
  507SOL    HW2 2421   4.345   0.959   1.693
  508SOL     OW 2422   6.946   3.969   4.011
  508SOL    HW1 2423   6.926   4.016   4.097
  508SOL    HW2 2424   6.860   3.952   3.963
  509SOL     OW 2425   4.713   0.587   6.881
  509SOL    HW1 2426   4.641   0.650   6.852
  509SOL    HW2 2427   4.802   0.634   6.873
  510SOL     OW 2428   6.499   4.389   6.187
  510SOL    HW1 2429   6.476   4.391   6.284
  510SOL    HW2 2430   6.526   4.296   6.161
  511SOL     OW 2431   1.435   1.281   6.603
  511SOL    HW1 2432   1.348   1.324   6.629
  511SOL    HW2 2433   1.427   1.181   6.612
  512SOL     OW 2434   5.435   2.540   6.946
  512SOL    HW1 2435   5.362   2.584   6.895
  512SOL    HW2 2436   5.396   2.493   0.004
  513SOL     OW 2437   5.754   0.028   2.372
  513SOL    HW1 2438   5.797   6.977   2.426
  513SOL    HW2 2439   5.825   0.078   2.323
  514SOL     OW 2440   6.791   6.854   4.018
  514SOL    HW1 2441   6.736   6.931   3.986
  514SOL    HW2 2442   6.740   6.804   4.088
  515SOL     OW 2443   2.911   0.734   6.498
  515SOL    HW1 2444   3.001   0.754   6.537
  515SOL    HW2 2445   2.923   0.700   6.404
  516SOL     OW 2446   2.418   4.315   1.487
  516SOL    HW1 2447   2.408   4.274   1.578
  516SOL    HW2 2448   2.328   4.340   1.452
  517SOL     OW 2449   3.083   5.364   2.632
  517SOL    HW1 2450   3.072   5.438   2.565
  517SOL    HW2 2451   2.996   5.348   2.678
  518SOL     OW 2452   2.002   3.421   3.632
  518SOL    HW1 2453   2.018   3.423   3.731
  518SOL    HW2 2454   1.991   3.327   3.602
  519SOL     OW 2455   6.483   6.390   4.034
  519SOL    HW1 2456   6.541   6.461   4.074
  519SOL    HW2 2457   6.529   6.302   4.039
  520SOL     OW 2458   1.194   3.262   6.940
  520SOL    HW1 2459   1.104   3.299   6.915
  520SOL    HW2 2460   1.191   3.162   6.937
  521SOL     OW 2461   4.849   4.941   4.312
  521SOL    HW1 2462   4.765   4.923   4.261
  521SOL    HW2 2463   4.871   5.039   4.306
  522SOL     OW 2464   4.334   3.674   1.484
  522SOL    HW1 2465   4.270   3.666   1.560
  522SOL    HW2 2466   4.330   3.591   1.428
  523SOL     OW 2467   6.999   6.616   1.836
  523SOL    HW1 2468   6.913   6.665   1.844
  523SOL    HW2 2469   0.039   6.666   1.776
  524SOL     OW 2470   0.466   3.204   2.118
  524SOL    HW1 2471   0.554   3.185   2.074
  524SOL    HW2 2472   0.473   3.186   2.216
  525SOL     OW 2473   0.823   3.037   6.770
  525SOL    HW1 2474   0.842   3.000   6.861
  525SOL    HW2 2475   0.822   3.137   6.775
  526SOL     OW 2476   3.415   6.978   4.498
  526SOL    HW1 2477   3.356   6.904   4.467
  526SOL    HW2 2478   3.362   0.041   4.504
  527SOL     OW 2479   1.350   2.189   0.064
  527SOL    HW1 2480   1.352   2.090   0.074
  527SOL    HW2 2481   1.298   2.229   0.140
  528SOL     OW 2482   0.350   3.860   3.537
  528SOL    HW1 2483   0.392   3.939   3.494
  528SOL    HW2 2484   0.252   3.875   3.548
  529SOL     OW 2485   3.116   0.133   5.751
  529SOL    HW1 2486   3.049   0.070   5.712
  529SOL    HW2 2487   3.078   0.176   5.833
  530SOL     OW 2488   3.440   3.056   2.042
  530SOL    HW1 2489   3.411   3.139   1.994
  530SOL    HW2 2490   3.403   3.057   2.135
  531SOL     OW 2491   2.476   0.850   2.815
  531SOL    HW1 2492   2.574   0.843   2.832
  531SOL    HW2 2493   2.440   0.930   2.863
  532SOL     OW 2494   2.142   3.548   0.322
  532SOL    HW1 2495   2.189   3.479   0.268
  532SOL    HW2 2496   2.105   3.506   0.405
  533SOL     OW 2497   4.921   0.196   3.696
  533SOL    HW1 2498   4.825   0.179   3.719
  533SOL    HW2 2499   4.979   0.159   3.769
  534SOL     OW 2500   1.024   5.822   1.461
  534SOL    HW1 2501   0.953   5.807   1.530
  534SOL    HW2 2502   1.112   5.834   1.506
  535SOL     OW 2503   6.421   4.151   3.448
  535SOL    HW1 2504   6.465   4.235   3.417
  535SOL    HW2 2505   6.417   4.086   3.372
  536SOL     OW 2506   6.526   5.853   3.180
  536SOL    HW1 2507   6.615   5.820   3.212
  536SOL    HW2 2508   6.485   5.910   3.252
  537SOL     OW 2509   3.834   0.153   4.183
  537SOL    HW1 2510   3.734   0.150   4.176
  537SOL    HW2 2511   3.860   0.156   4.279
  538SOL     OW 2512   1.541   5.043   5.507
  538SOL    HW1 2513   1.620   5.100   5.527
  538SOL    HW2 2514   1.521   4.984   5.585
  539SOL     OW 2515   1.270   5.793   1.628
  539SOL    HW1 2516   1.317   5.706   1.614
  539SOL    HW2 2517   1.337   5.867   1.632
  540SOL     OW 2518   1.604   1.251   4.206
  540SOL    HW1 2519   1.630   1.166   4.253
  540SOL    HW2 2520   1.651   1.256   4.118
  541SOL     OW 2521   4.178   5.666   3.566
  541SOL    HW1 2522   4.177   5.765   3.576
  541SOL    HW2 2523   4.217   5.624   3.647
  542SOL     OW 2524   3.891   5.621   6.670
  542SOL    HW1 2525   3.850   5.535   6.700
  542SOL    HW2 2526   3.836   5.697   6.701
  543SOL     OW 2527   5.516   3.650   3.899
  543SOL    HW1 2528   5.451   3.575   3.889
  543SOL    HW2 2529   5.526   3.673   3.996
  544SOL     OW 2530   0.613   4.822   0.212
  544SOL    HW1 2531   0.654   4.828   0.303
  544SOL    HW2 2532   0.620   4.911   0.166
  545SOL     OW 2533   5.276   1.340   1.295
  545SOL    HW1 2534   5.353   1.344   1.359
  545SOL    HW2 2535   5.233   1.430   1.290
  546SOL     OW 2536   0.459   4.631   1.716
  546SOL    HW1 2537   0.361   4.650   1.708
  546SOL    HW2 2538   0.486   4.636   1.812
  547SOL     OW 2539   3.604   2.084   0.366
  547SOL    HW1 2540   3.663   2.145   0.314
  547SOL    HW2 2541   3.633   2.083   0.462
  548SOL     OW 2542   3.222   3.377   0.565
  548SOL    HW1 2543   3.272   3.312   0.622
  548SOL    HW2 2544   3.128   3.385   0.598
  549SOL     OW 2545   4.885   2.497   0.623
  549SOL    HW1 2546   4.796   2.470   0.660
  549SOL    HW2 2547   4.935   2.415   0.594
  550SOL     OW 2548   6.736   4.537   3.552
  550SOL    HW1 2549   6.730   4.633   3.580
  550SOL    HW2 2550   6.674   4.483   3.608
  551SOL     OW 2551   6.618   1.125   0.918
  551SOL    HW1 2552   6.542   1.140   0.982
  551SOL    HW2 2553   6.704   1.144   0.965
  552SOL     OW 2554   5.316   5.036   5.113
  552SOL    HW1 2555   5.253   5.113   5.118
  552SOL    HW2 2556   5.410   5.070   5.100
  553SOL     OW 2557   3.432   0.751   4.264
  553SOL    HW1 2558   3.509   0.689   4.278
  553SOL    HW2 2559   3.415   0.762   4.166
  554SOL     OW 2560   5.530   5.629   7.005
  554SOL    HW1 2561   5.553   5.538   6.973
  554SOL    HW2 2562   5.459   5.624   0.053
  555SOL     OW 2563   3.480   5.641   5.107
  555SOL    HW1 2564   3.464   5.545   5.084
  555SOL    HW2 2565   3.564   5.673   5.063
  556SOL     OW 2566   5.035   1.853   4.495
  556SOL    HW1 2567   5.082   1.790   4.557
  556SOL    HW2 2568   4.995   1.801   4.419
  557SOL     OW 2569   0.043   4.716   6.142
  557SOL    HW1 2570   6.969   4.734   6.120
  557SOL    HW2 2571   0.101   4.783   6.097
  558SOL     OW 2572   4.142   3.427   3.826
  558SOL    HW1 2573   4.133   3.506   3.766
  558SOL    HW2 2574   4.168   3.347   3.772
  559SOL     OW 2575   6.306   6.010   5.431
  559SOL    HW1 2576   6.395   5.989   5.472
  559SOL    HW2 2577   6.244   6.043   5.502
  560SOL     OW 2578   6.583   3.269   3.875
  560SOL    HW1 2579   6.492   3.283   3.836
  560SOL    HW2 2580   6.651   3.267   3.801
  561SOL     OW 2581   6.602   2.908   6.196
  561SOL    HW1 2582   6.640   2.824   6.156
  561SOL    HW2 2583   6.651   2.987   6.161
  562SOL     OW 2584   4.438   7.015   5.608
  562SOL    HW1 2585   4.375   6.973   5.673
  562SOL    HW2 2586   4.398   7.013   5.516
  563SOL     OW 2587   1.793   1.485   3.797
  563SOL    HW1 2588   1.861   1.520   3.732
  563SOL    HW2 2589   1.737   1.561   3.830
  564SOL     OW 2590   0.150   1.423   6.588
  564SOL    HW1 2591   0.177   1.448   6.681
  564SOL    HW2 2592   0.211   1.468   6.522
  565SOL     OW 2593   3.091   3.357   3.954
  565SOL    HW1 2594   3.040   3.294   4.013
  565SOL    HW2 2595   3.184   3.323   3.942
  566SOL     OW 2596   2.233   4.865   2.712
  566SOL    HW1 2597   2.247   4.809   2.631
  566SOL    HW2 2598   2.136   4.892   2.717
  567SOL     OW 2599   2.626   2.349   0.461
  567SOL    HW1 2600   2.555   2.366   0.393
  567SOL    HW2 2601   2.681   2.432   0.472
  568SOL     OW 2602   5.601   6.718   0.823
  568SOL    HW1 2603   5.523   6.727   0.762
  568SOL    HW2 2604   5.622   6.807   0.864
  569SOL     OW 2605   1.055   2.752   1.029
  569SOL    HW1 2606   0.982   2.816   1.008
  569SOL    HW2 2607   1.117   2.792   1.096
  570SOL     OW 2608   3.065   0.181   6.361
  570SOL    HW1 2609   3.013   0.121   6.423
  570SOL    HW2 2610   3.082   0.269   6.406
  571SOL     OW 2611   2.831   4.754   3.657
  571SOL    HW1 2612   2.778   4.823   3.608
  571SOL    HW2 2613   2.809   4.663   3.623
  572SOL     OW 2614   1.792   5.729   4.841
  572SOL    HW1 2615   1.886   5.760   4.827
  572SOL    HW2 2616   1.734   5.765   4.769
  573SOL     OW 2617   6.144   1.526   5.559
  573SOL    HW1 2618   6.127   1.427   5.562
  573SOL    HW2 2619   6.158   1.559   5.653
  574SOL     OW 2620   3.366   0.742   5.163
  574SOL    HW1 2621   3.435   0.670   5.149
  574SOL    HW2 2622   3.296   0.708   5.225
  575SOL     OW 2623   4.339   2.719   1.008
  575SOL    HW1 2624   4.265   2.652   1.008
  575SOL    HW2 2625   4.356   2.749   1.102
  576SOL     OW 2626   1.572   3.050   2.993
  576SOL    HW1 2627   1.554   3.120   3.063
  576SOL    HW2 2628   1.557   3.089   2.902
  577SOL     OW 2629   0.795   0.605   2.541
  577SOL    HW1 2630   0.802   0.700   2.512
  577SOL    HW2 2631   0.876   0.579   2.593
  578SOL     OW 2632   2.102   5.630   6.576
  578SOL    HW1 2633   2.085   5.612   6.479
  578SOL    HW2 2634   2.199   5.647   6.590
  579SOL     OW 2635   1.848   4.877   2.783
  579SOL    HW1 2636   1.840   4.790   2.831
  579SOL    HW2 2637   1.898   4.942   2.840
  580SOL     OW 2638   4.643   4.808   5.404
  580SOL    HW1 2639   4.606   4.743   5.471
  580SOL    HW2 2640   4.584   4.809   5.323
  581SOL     OW 2641   0.979   3.217   3.552
  581SOL    HW1 2642   1.067   3.230   3.598
  581SOL    HW2 2643   0.906   3.253   3.609
  582SOL     OW 2644   4.788   5.538   3.439
  582SOL    HW1 2645   4.828   5.487   3.516
  582SOL    HW2 2646   4.820   5.498   3.353
  583SOL     OW 2647   2.880   5.166   5.139
  583SOL    HW1 2648   2.789   5.187   5.177
  583SOL    HW2 2649   2.870   5.107   5.059
  584SOL     OW 2650   3.329   6.762   6.154
  584SOL    HW1 2651   3.292   6.855   6.153
  584SOL    HW2 2652   3.300   6.715   6.238
  585SOL     OW 2653   4.246   0.102   1.082
  585SOL    HW1 2654   4.172   0.155   1.041
  585SOL    HW2 2655   4.233   0.005   1.060
  586SOL     OW 2656   3.777   0.560   0.923
  586SOL    HW1 2657   3.711   0.546   0.997
  586SOL    HW2 2658   3.747   0.636   0.866
  587SOL     OW 2659   5.442   1.989   2.276
  587SOL    HW1 2660   5.512   2.008   2.207
  587SOL    HW2 2661   5.422   2.072   2.328
  588SOL     OW 2662   2.000   5.351   1.056
  588SOL    HW1 2663   2.073   5.419   1.062
  588SOL    HW2 2664   2.015   5.293   0.976
  589SOL     OW 2665   3.038   5.889   1.523
  589SOL    HW1 2666   3.099   5.861   1.450
  589SOL    HW2 2667   2.943   5.887   1.491
  590SOL     OW 2668   5.574   1.203   0.729
  590SOL    HW1 2669   5.566   1.225   0.632
  590SOL    HW2 2670   5.570   1.104   0.741
  591SOL     OW 2671   4.202   5.983   3.607
  591SOL    HW1 2672   4.281   6.042   3.626
  591SOL    HW2 2673   4.150   5.969   3.691
  592SOL     OW 2674   4.614   0.580   3.526
  592SOL    HW1 2675   4.683   0.623   3.469
  592SOL    HW2 2676   4.544   0.647   3.552
  593SOL     OW 2677   4.403   2.008   5.023
  593SOL    HW1 2678   4.417   2.018   5.122
  593SOL    HW2 2679   4.321   2.059   4.996
  594SOL     OW 2680   5.866   0.924   0.763
  594SOL    HW1 2681   5.897   0.849   0.705
  594SOL    HW2 2682   5.934   0.940   0.835
  595SOL     OW 2683   5.300   6.485   3.525
  595SOL    HW1 2684   5.272   6.572   3.486
  595SOL    HW2 2685   5.307   6.416   3.453
  596SOL     OW 2686   0.250   5.206   3.622
  596SOL    HW1 2687   0.205   5.122   3.652
  596SOL    HW2 2688   0.182   5.264   3.576
  597SOL     OW 2689   2.793   0.343   5.971
  597SOL    HW1 2690   2.739   0.392   5.903
  597SOL    HW2 2691   2.793   0.394   6.057
  598SOL     OW 2692   3.297   4.085   4.723
  598SOL    HW1 2693   3.257   4.104   4.812
  598SOL    HW2 2694   3.397   4.078   4.732
  599SOL     OW 2695   1.942   6.410   2.175
  599SOL    HW1 2696   1.929   6.312   2.157
  599SOL    HW2 2697   2.015   6.445   2.117
  600SOL     OW 2698   0.202   3.325   5.991
  600SOL    HW1 2699   0.211   3.325   6.090
  600SOL    HW2 2700   0.106   3.343   5.967
  601SOL     OW 2701   1.499   1.287   4.913
  601SOL    HW1 2702   1.448   1.274   4.828
  601SOL    HW2 2703   1.498   1.384   4.939
  602SOL     OW 2704   3.088   0.319   6.077
  602SOL    HW1 2705   3.064   0.409   6.039
  602SOL    HW2 2706   3.104   0.329   6.175
  603SOL     OW 2707   1.746   1.877   5.441
  603SOL    HW1 2708   1.709   1.816   5.511
  603SOL    HW2 2709   1.839   1.848   5.418
  604SOL     OW 2710   0.348   2.667   1.687
  604SOL    HW1 2711   0.410   2.743   1.667
  604SOL    HW2 2712   0.293   2.647   1.607
  605SOL     OW 2713   0.103   4.684   1.919
  605SOL    HW1 2714   0.141   4.702   1.829
  605SOL    HW2 2715   0.015   4.636   1.910
  606SOL     OW 2716   4.431   6.634   5.749
  606SOL    HW1 2717   4.406   6.587   5.834
  606SOL    HW2 2718   4.361   6.701   5.726
  607SOL     OW 2719   0.333   4.840   5.690
  607SOL    HW1 2720   0.314   4.935   5.712
  607SOL    HW2 2721   0.412   4.835   5.628
  608SOL     OW 2722   3.599   0.044   0.005
  608SOL    HW1 2723   3.679   0.021   6.973
  608SOL    HW2 2724   3.553   6.982   0.034
  609SOL     OW 2725   3.700   2.550   1.735
  609SOL    HW1 2726   3.644   2.625   1.772
  609SOL    HW2 2727   3.694   2.471   1.796
  610SOL     OW 2728   4.290   2.441   0.243
  610SOL    HW1 2729   4.297   2.541   0.241
  610SOL    HW2 2730   4.377   2.402   0.271
  611SOL     OW 2731   3.891   6.931   2.799
  611SOL    HW1 2732   3.931   6.919   2.708
  611SOL    HW2 2733   3.816   6.997   2.794
  612SOL     OW 2734   2.881   5.352   4.647
  612SOL    HW1 2735   2.972   5.319   4.675
  612SOL    HW2 2736   2.828   5.378   4.728
  613SOL     OW 2737   5.592   4.678   4.904
  613SOL    HW1 2738   5.534   4.600   4.927
  613SOL    HW2 2739   5.590   4.745   4.978
  614SOL     OW 2740   5.157   5.014   4.748
  614SOL    HW1 2741   5.253   5.035   4.765
  614SOL    HW2 2742   5.145   4.982   4.654
  615SOL     OW 2743   0.231   3.264   0.966
  615SOL    HW1 2744   0.271   3.181   1.005
  615SOL    HW2 2745   0.156   3.240   0.905
  616SOL     OW 2746   6.124   2.549   2.779
  616SOL    HW1 2747   6.154   2.638   2.811
  616SOL    HW2 2748   6.048   2.560   2.715
  617SOL     OW 2749   1.732   4.847   6.819
  617SOL    HW1 2750   1.827   4.816   6.827
  617SOL    HW2 2751   1.694   4.864   6.910
  618SOL     OW 2752   1.865   2.381   1.702
  618SOL    HW1 2753   1.792   2.369   1.769
  618SOL    HW2 2754   1.840   2.453   1.637
  619SOL     OW 2755   2.165   1.998   0.647
  619SOL    HW1 2756   2.203   2.050   0.571
  619SOL    HW2 2757   2.075   2.034   0.671
  620SOL     OW 2758   4.367   1.827   0.257
  620SOL    HW1 2759   4.430   1.900   0.231
  620SOL    HW2 2760   4.303   1.861   0.326
  621SOL     OW 2761   5.833   4.983   6.711
  621SOL    HW1 2762   5.841   5.062   6.650
  621SOL    HW2 2763   5.921   4.936   6.717
  622SOL     OW 2764   1.359   1.411   6.952
  622SOL    HW1 2765   1.398   1.503   6.954
  622SOL    HW2 2766   1.373   1.370   6.862
  623SOL     OW 2767   0.583   5.933   5.692
  623SOL    HW1 2768   0.577   5.833   5.691
  623SOL    HW2 2769   0.608   5.966   5.601
  624SOL     OW 2770   0.584   3.157   2.392
  624SOL    HW1 2771   0.640   3.076   2.375
  624SOL    HW2 2772   0.610   3.197   2.480
  625SOL     OW 2773   2.827   2.177   1.487
  625SOL    HW1 2774   2.730   2.157   1.498
  625SOL    HW2 2775   2.865   2.208   1.574
  626SOL     OW 2776   2.301   5.766   3.729
  626SOL    HW1 2777   2.386   5.742   3.775
  626SOL    HW2 2778   2.253   5.682   3.701
  627SOL     OW 2779   4.865   6.930   0.675
  627SOL    HW1 2780   4.886   0.004   0.690
  627SOL    HW2 2781   4.800   6.899   0.745
  628SOL     OW 2782   4.641   4.991   4.771
  628SOL    HW1 2783   4.737   4.967   4.755
  628SOL    HW2 2784   4.635   5.053   4.849
  629SOL     OW 2785   0.457   0.196   1.141
  629SOL    HW1 2786   0.516   0.221   1.217
  629SOL    HW2 2787   0.440   0.097   1.142
  630SOL     OW 2788   5.455   2.262   2.375
  630SOL    HW1 2789   5.536   2.308   2.338
  630SOL    HW2 2790   5.447   2.283   2.472
  631SOL     OW 2791   3.061   0.630   5.310
  631SOL    HW1 2792   3.123   0.592   5.378
  631SOL    HW2 2793   3.019   0.556   5.258
  632SOL     OW 2794   2.381   1.220   0.424
  632SOL    HW1 2795   2.329   1.252   0.346
  632SOL    HW2 2796   2.456   1.161   0.392
  633SOL     OW 2797   3.465   5.293   0.150
  633SOL    HW1 2798   3.401   5.369   0.138
  633SOL    HW2 2799   3.552   5.315   0.107
  634SOL     OW 2800   4.161   4.747   1.835
  634SOL    HW1 2801   4.234   4.699   1.883
  634SOL    HW2 2802   4.072   4.718   1.871
  635SOL     OW 2803   4.735   6.636   3.141
  635SOL    HW1 2804   4.704   6.652   3.235
  635SOL    HW2 2805   4.798   6.708   3.114
  636SOL     OW 2806   5.166   5.626   6.604
  636SOL    HW1 2807   5.193   5.571   6.683
  636SOL    HW2 2808   5.247   5.653   6.553
  637SOL     OW 2809   5.310   5.036   1.928
  637SOL    HW1 2810   5.283   5.072   1.838
  637SOL    HW2 2811   5.303   4.936   1.928
  638SOL     OW 2812   4.909   1.519   2.370
  638SOL    HW1 2813   4.961   1.483   2.447
  638SOL    HW2 2814   4.972   1.546   2.297
  639SOL     OW 2815   5.122   4.779   2.183
  639SOL    HW1 2816   5.126   4.699   2.243
  639SOL    HW2 2817   5.124   4.863   2.238
  640SOL     OW 2818   2.289   4.660   5.471
  640SOL    HW1 2819   2.347   4.616   5.540
  640SOL    HW2 2820   2.343   4.728   5.422
  641SOL     OW 2821   0.816   5.633   4.599
  641SOL    HW1 2822   0.775   5.704   4.656
  641SOL    HW2 2823   0.764   5.549   4.609
  642SOL     OW 2824   0.481   3.964   4.061
  642SOL    HW1 2825   0.490   4.054   4.017
  642SOL    HW2 2826   0.568   3.917   4.058
  643SOL     OW 2827   5.929   5.353   5.165
  643SOL    HW1 2828   5.883   5.419   5.106
  643SOL    HW2 2829   5.872   5.271   5.175
  644SOL     OW 2830   0.582   5.782   2.687
  644SOL    HW1 2831   0.513   5.768   2.759
  644SOL    HW2 2832   0.617   5.693   2.657
  645SOL     OW 2833   4.843   2.588   4.452
  645SOL    HW1 2834   4.924   2.606   4.396
  645SOL    HW2 2835   4.761   2.593   4.394
  646SOL     OW 2836   1.901   2.142   3.510
  646SOL    HW1 2837   1.907   2.242   3.511
  646SOL    HW2 2838   1.805   2.114   3.519
  647SOL     OW 2839   5.898   2.677   6.352
  647SOL    HW1 2840   5.906   2.667   6.253
  647SOL    HW2 2841   5.945   2.761   6.381
  648SOL     OW 2842   5.969   3.834   3.115
  648SOL    HW1 2843   5.936   3.894   3.188
  648SOL    HW2 2844   5.923   3.857   3.029
  649SOL     OW 2845   4.171   4.400   0.534
  649SOL    HW1 2846   4.097   4.360   0.589
  649SOL    HW2 2847   4.155   4.380   0.438
  650SOL     OW 2848   4.677   4.328   0.409
  650SOL    HW1 2849   4.720   4.261   0.470
  650SOL    HW2 2850   4.580   4.337   0.432
  651SOL     OW 2851   0.717   6.481   0.452
  651SOL    HW1 2852   0.802   6.484   0.399
  651SOL    HW2 2853   0.733   6.434   0.538
  652SOL     OW 2854   4.734   6.576   3.739
  652SOL    HW1 2855   4.809   6.639   3.758
  652SOL    HW2 2856   4.655   6.627   3.705
  653SOL     OW 2857   3.581   5.284   5.412
  653SOL    HW1 2858   3.544   5.366   5.455
  653SOL    HW2 2859   3.663   5.307   5.360
  654SOL     OW 2860   0.145   4.856   5.890
  654SOL    HW1 2861   0.056   4.867   5.845
  654SOL    HW2 2862   0.213   4.828   5.823
  655SOL     OW 2863   0.771   0.109   2.064
  655SOL    HW1 2864   0.868   0.096   2.085
  655SOL    HW2 2865   0.736   0.187   2.115
  656SOL     OW 2866   2.266   5.905   1.799
  656SOL    HW1 2867   2.235   5.998   1.822
  656SOL    HW2 2868   2.325   5.870   1.871
  657SOL     OW 2869   2.277   2.140   1.682
  657SOL    HW1 2870   2.276   2.218   1.745
  657SOL    HW2 2871   2.198   2.145   1.621
  658SOL     OW 2872   3.386   3.076   6.902
  658SOL    HW1 2873   3.381   3.171   6.933
  658SOL    HW2 2874   3.335   3.066   6.817
  659SOL     OW 2875   3.201   6.217   6.194
  659SOL    HW1 2876   3.282   6.263   6.229
  659SOL    HW2 2877   3.142   6.282   6.147
  660SOL     OW 2878   3.829   5.837   1.534
  660SOL    HW1 2879   3.745   5.885   1.509
  660SOL    HW2 2880   3.853   5.772   1.462
  661SOL     OW 2881   4.372   6.371   3.776
  661SOL    HW1 2882   4.355   6.386   3.873
  661SOL    HW2 2883   4.312   6.429   3.722
  662SOL     OW 2884   3.545   0.992   5.796
  662SOL    HW1 2885   3.590   1.066   5.745
  662SOL    HW2 2886   3.603   0.963   5.872
  663SOL     OW 2887   2.165   3.633   5.431
  663SOL    HW1 2888   2.187   3.689   5.351
  663SOL    HW2 2889   2.067   3.611   5.429
  664SOL     OW 2890   0.276   6.124   6.129
  664SOL    HW1 2891   0.243   6.218   6.140
  664SOL    HW2 2892   0.346   6.121   6.058
  665SOL     OW 2893   3.522   5.192   2.891
  665SOL    HW1 2894   3.561   5.250   2.819
  665SOL    HW2 2895   3.457   5.245   2.945
  666SOL     OW 2896   4.566   0.818   1.927
  666SOL    HW1 2897   4.570   0.718   1.923
  666SOL    HW2 2898   4.483   0.849   1.881
  667SOL     OW 2899   1.421   5.289   1.860
  667SOL    HW1 2900   1.407   5.211   1.921
  667SOL    HW2 2901   1.360   5.281   1.781
  668SOL     OW 2902   5.186   5.981   5.630
  668SOL    HW1 2903   5.206   6.018   5.720
  668SOL    HW2 2904   5.173   5.882   5.637
  669SOL     OW 2905   5.883   0.942   3.312
  669SOL    HW1 2906   5.874   0.849   3.277
  669SOL    HW2 2907   5.898   0.939   3.411
  670SOL     OW 2908   2.590   1.922   2.044
  670SOL    HW1 2909   2.611   1.902   1.948
  670SOL    HW2 2910   2.675   1.927   2.097
  671SOL     OW 2911   3.229   5.867   1.302
  671SOL    HW1 2912   3.234   5.876   1.202
  671SOL    HW2 2913   3.285   5.939   1.344
  672SOL     OW 2914   6.922   5.553   1.826
  672SOL    HW1 2915   6.865   5.635   1.820
  672SOL    HW2 2916   6.865   5.472   1.818
  673SOL     OW 2917   5.987   0.177   1.263
  673SOL    HW1 2918   6.029   0.265   1.241
  673SOL    HW2 2919   6.055   0.104   1.258
  674SOL     OW 2920   0.689   1.433   4.640
  674SOL    HW1 2921   0.689   1.533   4.652
  674SOL    HW2 2922   0.595   1.399   4.640
  675SOL     OW 2923   5.428   2.399   2.620
  675SOL    HW1 2924   5.462   2.485   2.582
  675SOL    HW2 2925   5.341   2.376   2.576
  676SOL     OW 2926   2.200   5.237   4.371
  676SOL    HW1 2927   2.158   5.155   4.409
  676SOL    HW2 2928   2.262   5.277   4.439
  677SOL     OW 2929   5.201   0.683   1.592
  677SOL    HW1 2930   5.152   0.674   1.506
  677SOL    HW2 2931   5.147   0.738   1.656
  678SOL     OW 2932   2.463   5.181   4.761
  678SOL    HW1 2933   2.469   5.233   4.676
  678SOL    HW2 2934   2.404   5.229   4.826
  679SOL     OW 2935   5.165   1.428   4.943
  679SOL    HW1 2936   5.113   1.479   4.875
  679SOL    HW2 2937   5.146   1.331   4.934
  680SOL     OW 2938   4.382   5.846   4.418
  680SOL    HW1 2939   4.458   5.909   4.404
  680SOL    HW2 2940   4.416   5.761   4.459
  681SOL     OW 2941   4.291   6.007   1.739
  681SOL    HW1 2942   4.288   6.079   1.670
  681SOL    HW2 2943   4.205   5.956   1.738
  682SOL     OW 2944   6.468   1.403   1.994
  682SOL    HW1 2945   6.368   1.406   2.006
  682SOL    HW2 2946   6.510   1.364   2.076
  683SOL     OW 2947   4.696   3.089   0.780
  683SOL    HW1 2948   4.739   3.026   0.715
  683SOL    HW2 2949   4.604   3.056   0.802
  684SOL     OW 2950   6.367   0.816   0.280
  684SOL    HW1 2951   6.402   0.880   0.212
  684SOL    HW2 2952   6.367   0.860   0.370
  685SOL     OW 2953   3.061   2.198   3.623
  685SOL    HW1 2954   3.098   2.180   3.532
  685SOL    HW2 2955   3.133   2.236   3.681
  686SOL     OW 2956   4.779   2.007   4.310
  686SOL    HW1 2957   4.869   1.997   4.268
  686SOL    HW2 2958   4.764   2.103   4.336
  687SOL     OW 2959   0.924   2.045   4.622
  687SOL    HW1 2960   0.930   1.945   4.622
  687SOL    HW2 2961   1.015   2.084   4.638
  688SOL     OW 2962   6.947   1.473   6.192
  688SOL    HW1 2963   6.857   1.459   6.233
  688SOL    HW2 2964   6.944   1.451   6.095
  689SOL     OW 2965   2.042   4.450   5.784
  689SOL    HW1 2966   2.039   4.447   5.883
  689SOL    HW2 2967   2.107   4.520   5.755
  690SOL     OW 2968   6.921   4.012   3.460
  690SOL    HW1 2969   6.830   4.021   3.419
  690SOL    HW2 2970   6.990   4.023   3.389
  691SOL     OW 2971   3.437   1.540   1.182
  691SOL    HW1 2972   3.508   1.471   1.194
  691SOL    HW2 2973   3.432   1.566   1.085
  692SOL     OW 2974   4.156   1.793   5.018
  692SOL    HW1 2975   4.201   1.829   5.099
  692SOL    HW2 2976   4.065   1.833   5.009
  693SOL     OW 2977   4.902   6.682   3.984
  693SOL    HW1 2978   4.904   6.719   3.891
  693SOL    HW2 2979   4.923   6.584   3.982
  694SOL     OW 2980   4.252   6.087   4.374
  694SOL    HW1 2981   4.187   6.106   4.448
  694SOL    HW2 2982   4.297   5.999   4.391
  695SOL     OW 2983   3.882   5.724   4.347
  695SOL    HW1 2984   3.925   5.763   4.428
  695SOL    HW2 2985   3.888   5.625   4.350
  696SOL     OW 2986   4.817   4.259   3.502
  696SOL    HW1 2987   4.806   4.301   3.592
  696SOL    HW2 2988   4.850   4.165   3.513
  697SOL     OW 2989   1.581   3.580   2.591
  697SOL    HW1 2990   1.510   3.647   2.613
  697SOL    HW2 2991   1.633   3.610   2.512
  698SOL     OW 2992   4.987   6.258   0.911
  698SOL    HW1 2993   4.903   6.295   0.872
  698SOL    HW2 2994   4.998   6.162   0.882
  699SOL     OW 2995   2.145   3.074   6.425
  699SOL    HW1 2996   2.118   3.018   6.346
  699SOL    HW2 2997   2.244   3.077   6.431
  700SOL     OW 2998   3.697   0.100   2.111
  700SOL    HW1 2999   3.706   0.074   2.207
  700SOL    HW2 3000   3.749   0.036   2.054
  701SOL     OW 3001   0.167   4.556   0.333
  701SOL    HW1 3002   0.243   4.584   0.391
  701SOL    HW2 3003   0.202   4.517   0.248
  702SOL     OW 3004   2.122   6.928   4.059
  702SOL    HW1 3005   2.208   6.979   4.056
  702SOL    HW2 3006   2.072   6.942   3.974
  703SOL     OW 3007   3.374   3.155   5.756
  703SOL    HW1 3008   3.399   3.244   5.719
  703SOL    HW2 3009   3.363   3.162   5.855
  704SOL     OW 3010   2.170   2.336   6.342
  704SOL    HW1 3011   2.229   2.371   6.269
  704SOL    HW2 3012   2.211   2.254   6.381
  705SOL     OW 3013   6.302   5.691   3.119
  705SOL    HW1 3014   6.337   5.602   3.089
  705SOL    HW2 3015   6.379   5.749   3.145
  706SOL     OW 3016   4.524   1.773   5.644
  706SOL    HW1 3017   4.429   1.806   5.642
  706SOL    HW2 3018   4.578   1.834   5.702
  707SOL     OW 3019   3.867   4.849   3.096
  707SOL    HW1 3020   3.958   4.861   3.135
  707SOL    HW2 3021   3.875   4.829   2.999
  708SOL     OW 3022   2.724   1.653   3.239
  708SOL    HW1 3023   2.822   1.653   3.221
  708SOL    HW2 3024   2.678   1.710   3.171
  709SOL     OW 3025   0.969   6.405   1.414
  709SOL    HW1 3026   1.014   6.494   1.403
  709SOL    HW2 3027   0.928   6.378   1.327
  710SOL     OW 3028   4.804   2.360   1.744
  710SOL    HW1 3029   4.901   2.384   1.755
  710SOL    HW2 3030   4.749   2.444   1.740
  711SOL     OW 3031   0.074   2.754   6.402
  711SOL    HW1 3032   7.017   2.692   6.395
  711SOL    HW2 3033   0.094   2.773   6.498
  712SOL     OW 3034   5.013   2.156   0.770
  712SOL    HW1 3035   5.083   2.159   0.841
  712SOL    HW2 3036   5.028   2.076   0.711
  713SOL     OW 3037   4.158   2.657   5.407
  713SOL    HW1 3038   4.110   2.744   5.422
  713SOL    HW2 3039   4.164   2.640   5.308
  714SOL     OW 3040   5.872   5.626   4.154
  714SOL    HW1 3041   5.917   5.552   4.103
  714SOL    HW2 3042   5.811   5.676   4.093
  715SOL     OW 3043   6.138   5.164   6.354
  715SOL    HW1 3044   6.152   5.212   6.441
  715SOL    HW2 3045   6.223   5.118   6.327
  716SOL     OW 3046   1.335   1.194   3.236
  716SOL    HW1 3047   1.323   1.192   3.336
  716SOL    HW2 3048   1.396   1.270   3.212
  717SOL     OW 3049   6.485   4.649   4.454
  717SOL    HW1 3050   6.405   4.617   4.505
  717SOL    HW2 3051   6.537   4.712   4.512
  718SOL     OW 3052   5.110   2.797   4.867
  718SOL    HW1 3053   5.123   2.874   4.805
  718SOL    HW2 3054   5.045   2.733   4.828
  719SOL     OW 3055   5.496   0.440   2.735
  719SOL    HW1 3056   5.587   0.449   2.774
  719SOL    HW2 3057   5.446   0.526   2.747
  720SOL     OW 3058   2.417   0.247   6.102
  720SOL    HW1 3059   2.508   0.219   6.072
  720SOL    HW2 3060   2.355   0.168   6.097
  721SOL     OW 3061   1.815   1.170   2.338
  721SOL    HW1 3062   1.908   1.198   2.312
  721SOL    HW2 3063   1.813   1.147   2.435
  722SOL     OW 3064   2.899   0.585   5.755
  722SOL    HW1 3065   2.975   0.535   5.712
  722SOL    HW2 3066   2.862   0.651   5.690
  723SOL     OW 3067   1.665   6.149   3.716
  723SOL    HW1 3068   1.723   6.178   3.640
  723SOL    HW2 3069   1.573   6.127   3.681
  724SOL     OW 3070   0.322   1.216   3.814
  724SOL    HW1 3071   0.261   1.256   3.746
  724SOL    HW2 3072   0.371   1.289   3.862
  725SOL     OW 3073   1.961   4.621   2.460
  725SOL    HW1 3074   1.905   4.565   2.520
  725SOL    HW2 3075   2.055   4.586   2.458
  726SOL     OW 3076   2.310   5.136   0.968
  726SOL    HW1 3077   2.270   5.071   1.032
  726SOL    HW2 3078   2.366   5.088   0.901
  727SOL     OW 3079   4.789   4.475   6.330
  727SOL    HW1 3080   4.780   4.560   6.381
  727SOL    HW2 3081   4.757   4.489   6.236
  728SOL     OW 3082   6.585   3.258   4.356
  728SOL    HW1 3083   6.661   3.320   4.337
  728SOL    HW2 3084   6.560   3.210   4.272
  729SOL     OW 3085   0.529   2.776   0.998
  729SOL    HW1 3086   0.446   2.720   0.992
  729SOL    HW2 3087   0.548   2.816   0.908
  730SOL     OW 3088   5.616   0.848   3.685
  730SOL    HW1 3089   5.605   0.938   3.642
  730SOL    HW2 3090   5.584   0.777   3.623
  731SOL     OW 3091   5.134   4.792   6.781
  731SOL    HW1 3092   5.171   4.851   6.710
  731SOL    HW2 3093   5.176   4.815   6.869
  732SOL     OW 3094   5.358   2.636   2.371
  732SOL    HW1 3095   5.367   2.628   2.271
  732SOL    HW2 3096   5.449   2.639   2.412
  733SOL     OW 3097   6.172   0.566   4.166
  733SOL    HW1 3098   6.137   0.475   4.184
  733SOL    HW2 3099   6.123   0.633   4.223
  734SOL     OW 3100   6.331   4.817   2.882
  734SOL    HW1 3101   6.357   4.722   2.903
  734SOL    HW2 3102   6.391   4.851   2.809
  735SOL     OW 3103   4.397   0.956   1.127
  735SOL    HW1 3104   4.318   1.008   1.094
  735SOL    HW2 3105   4.413   0.878   1.066
  736SOL     OW 3106   1.275   1.681   3.836
  736SOL    HW1 3107   1.298   1.739   3.758
  736SOL    HW2 3108   1.216   1.732   3.899
  737SOL     OW 3109   6.139   1.578   6.212
  737SOL    HW1 3110   6.141   1.537   6.303
  737SOL    HW2 3111   6.094   1.667   6.216
  738SOL     OW 3112   2.683   3.704   1.740
  738SOL    HW1 3113   2.733   3.775   1.790
  738SOL    HW2 3114   2.594   3.741   1.711
  739SOL     OW 3115   3.589   0.593   5.138
  739SOL    HW1 3116   3.669   0.653   5.130
  739SOL    HW2 3117   3.617   0.505   5.176
  740SOL     OW 3118   6.026   1.863   3.017
  740SOL    HW1 3119   6.094   1.808   2.969
  740SOL    HW2 3120   6.070   1.920   3.085
  741SOL     OW 3121   1.667   1.053   4.425
  741SOL    HW1 3122   1.688   1.135   4.478
  741SOL    HW2 3123   1.724   0.977   4.455
  742SOL     OW 3124   2.492   5.937   1.280
  742SOL    HW1 3125   2.485   5.855   1.224
  742SOL    HW2 3126   2.442   6.012   1.236
  743SOL     OW 3127   0.284   5.970   3.212
  743SOL    HW1 3128   0.364   6.000   3.160
  743SOL    HW2 3129   0.204   5.967   3.152
  744SOL     OW 3130   6.293   0.738   0.713
  744SOL    HW1 3131   6.237   0.794   0.774
  744SOL    HW2 3132   6.370   0.700   0.764
  745SOL     OW 3133   2.073   5.483   5.196
  745SOL    HW1 3134   2.153   5.538   5.172
  745SOL    HW2 3135   1.990   5.537   5.181
  746SOL     OW 3136   6.078   4.183   5.758
  746SOL    HW1 3137   6.006   4.196   5.690
  746SOL    HW2 3138   6.081   4.263   5.819
  747SOL     OW 3139   4.380   5.836   4.146
  747SOL    HW1 3140   4.359   5.801   4.238
  747SOL    HW2 3141   4.475   5.813   4.123
  748SOL     OW 3142   5.148   5.353   2.057
  748SOL    HW1 3143   5.055   5.325   2.082
  748SOL    HW2 3144   5.214   5.297   2.107
  749SOL     OW 3145   5.746   3.631   3.779
  749SOL    HW1 3146   5.659   3.643   3.826
  749SOL    HW2 3147   5.760   3.708   3.716
  750SOL     OW 3148   2.708   0.910   0.874
  750SOL    HW1 3149   2.806   0.922   0.858
  750SOL    HW2 3150   2.678   0.825   0.832
  751SOL     OW 3151   4.897   1.226   1.194
  751SOL    HW1 3152   4.803   1.243   1.224
  751SOL    HW2 3153   4.959   1.229   1.273
  752SOL     OW 3154   3.076   2.105   6.646
  752SOL    HW1 3155   3.081   2.020   6.700
  752SOL    HW2 3156   3.169   2.134   6.623
  753SOL     OW 3157   2.794   3.518   5.558
  753SOL    HW1 3158   2.734   3.472   5.492
  753SOL    HW2 3159   2.753   3.512   5.649
  754SOL     OW 3160   4.170   1.223   0.363
  754SOL    HW1 3161   4.244   1.162   0.391
  754SOL    HW2 3162   4.205   1.317   0.359
  755SOL     OW 3163   2.853   4.655   5.396
  755SOL    HW1 3164   2.914   4.645   5.474
  755SOL    HW2 3165   2.893   4.610   5.316
  756SOL     OW 3166   3.343   4.447   0.003
  756SOL    HW1 3167   3.397   4.531   0.006
  756SOL    HW2 3168   3.294   4.436   0.089
  757SOL     OW 3169   2.214   6.290   2.434
  757SOL    HW1 3170   2.205   6.388   2.453
  757SOL    HW2 3171   2.263   6.245   2.509
  758SOL     OW 3172   3.547   1.313   4.267
  758SOL    HW1 3173   3.474   1.348   4.325
  758SOL    HW2 3174   3.566   1.379   4.194
  759SOL     OW 3175   6.808   3.139   2.758
  759SOL    HW1 3176   6.858   3.195   2.824
  759SOL    HW2 3177   6.833   3.043   2.770
  760SOL     OW 3178   5.901   6.799   4.239
  760SOL    HW1 3179   5.834   6.726   4.226
  760SOL    HW2 3180   5.957   6.808   4.156
  761SOL     OW 3181   5.810   4.455   5.898
  761SOL    HW1 3182   5.770   4.517   5.831
  761SOL    HW2 3183   5.805   4.497   5.989
  762SOL     OW 3184   2.589   6.913   5.568
  762SOL    HW1 3185   2.570   6.984   5.635
  762SOL    HW2 3186   2.545   6.936   5.481
  763SOL     OW 3187   4.729   6.650   6.715
  763SOL    HW1 3188   4.807   6.688   6.765
  763SOL    HW2 3189   4.678   6.589   6.776
  764SOL     OW 3190   5.909   1.259   5.387
  764SOL    HW1 3191   5.844   1.187   5.361
  764SOL    HW2 3192   5.914   1.327   5.314
  765SOL     OW 3193   1.430   6.459   0.511
  765SOL    HW1 3194   1.442   6.451   0.610
  765SOL    HW2 3195   1.389   6.548   0.489
  766SOL     OW 3196   2.930   2.220   5.286
  766SOL    HW1 3197   2.953   2.153   5.357
  766SOL    HW2 3198   3.014   2.259   5.249
  767SOL     OW 3199   6.289   6.322   3.800
  767SOL    HW1 3200   6.200   6.315   3.845
  767SOL    HW2 3201   6.357   6.353   3.865
  768SOL     OW 3202   1.971   6.502   3.430
  768SOL    HW1 3203   1.903   6.564   3.391
  768SOL    HW2 3204   1.930   6.412   3.444
  769SOL     OW 3205   3.352   1.591   5.195
  769SOL    HW1 3206   3.423   1.521   5.183
  769SOL    HW2 3207   3.264   1.554   5.166
  770SOL     OW 3208   1.929   4.765   4.135
  770SOL    HW1 3209   1.910   4.863   4.132
  770SOL    HW2 3210   2.027   4.749   4.143
  771SOL     OW 3211   1.292   5.152   3.457
  771SOL    HW1 3212   1.209   5.114   3.497
  771SOL    HW2 3213   1.357   5.079   3.438
  772SOL     OW 3214   6.036   4.653   5.863
  772SOL    HW1 3215   5.979   4.666   5.782
  772SOL    HW2 3216   6.067   4.558   5.867
  773SOL     OW 3217   1.097   4.065   2.856
  773SOL    HW1 3218   1.111   4.155   2.816
  773SOL    HW2 3219   1.059   4.075   2.948
  774SOL     OW 3220   2.352   1.177   2.774
  774SOL    HW1 3221   2.264   1.224   2.773
  774SOL    HW2 3222   2.351   1.105   2.843
  775SOL     OW 3223   1.822   2.203   4.209
  775SOL    HW1 3224   1.906   2.256   4.217
  775SOL    HW2 3225   1.838   2.124   4.150
  776SOL     OW 3226   0.119   0.179   6.660
  776SOL    HW1 3227   0.169   0.265   6.669
  776SOL    HW2 3228   0.148   0.117   6.733
  777SOL     OW 3229   1.757   3.775   1.137
  777SOL    HW1 3230   1.811   3.797   1.056
  777SOL    HW2 3231   1.676   3.834   1.140
  778SOL     OW 3232   2.422   0.016   1.432
  778SOL    HW1 3233   2.358   6.962   1.426
  778SOL    HW2 3234   2.502   7.020   1.375
  779SOL     OW 3235   0.009   2.481   1.664
  779SOL    HW1 3236   6.989   2.455   1.751
  779SOL    HW2 3237   6.963   2.477   1.591
  780SOL     OW 3238   0.632   2.754   4.308
  780SOL    HW1 3239   0.549   2.719   4.352
  780SOL    HW2 3240   0.709   2.693   4.329
  781SOL     OW 3241   6.861   5.127   0.375
  781SOL    HW1 3242   6.791   5.068   0.415
  781SOL    HW2 3243   6.858   5.119   0.275
  782SOL     OW 3244   2.233   3.784   5.221
  782SOL    HW1 3245   2.282   3.866   5.191
  782SOL    HW2 3246   2.165   3.759   5.152
  783SOL     OW 3247   6.032   5.012   1.093
  783SOL    HW1 3248   6.100   5.077   1.127
  783SOL    HW2 3249   5.968   5.060   1.033
  784SOL     OW 3250   2.831   5.731   2.049
  784SOL    HW1 3251   2.774   5.656   2.084
  784SOL    HW2 3252   2.927   5.703   2.048
  785SOL     OW 3253   0.378   1.542   3.592
  785SOL    HW1 3254   0.280   1.526   3.593
  785SOL    HW2 3255   0.414   1.530   3.500
  786SOL     OW 3256   6.562   1.085   2.770
  786SOL    HW1 3257   6.615   1.089   2.855
  786SOL    HW2 3258   6.580   0.998   2.724
  787SOL     OW 3259   2.156   7.002   6.848
  787SOL    HW1 3260   2.231   6.937   6.842
  787SOL    HW2 3261   2.102   6.983   6.930
  788SOL     OW 3262   3.974   2.720   1.578
  788SOL    HW1 3263   3.958   2.627   1.612
  788SOL    HW2 3264   3.923   2.785   1.634
  789SOL     OW 3265   4.548   5.549   2.616
  789SOL    HW1 3266   4.450   5.532   2.628
  789SOL    HW2 3267   4.585   5.592   2.698
  790SOL     OW 3268   1.681   1.443   2.001
  790SOL    HW1 3269   1.771   1.477   1.975
  790SOL    HW2 3270   1.611   1.486   1.945
  791SOL     OW 3271   2.602   6.255   5.465
  791SOL    HW1 3272   2.641   6.192   5.531
  791SOL    HW2 3273   2.539   6.318   5.511
  792SOL     OW 3274   0.363   1.416   1.279
  792SOL    HW1 3275   0.462   1.419   1.271
  792SOL    HW2 3276   0.334   1.480   1.350
  793SOL     OW 3277   4.911   6.050   5.120
  793SOL    HW1 3278   4.920   6.148   5.132
  793SOL    HW2 3279   4.854   6.031   5.040
  794SOL     OW 3280   3.651   3.590   5.408
  794SOL    HW1 3281   3.682   3.619   5.318
  794SOL    HW2 3282   3.665   3.491   5.417
  795SOL     OW 3283   3.745   0.537   6.032
  795SOL    HW1 3284   3.814   0.477   5.991
  795SOL    HW2 3285   3.773   0.562   6.125
  796SOL     OW 3286   1.986   2.757   0.087
  796SOL    HW1 3287   1.989   2.743   7.011
  796SOL    HW2 3288   1.980   2.855   0.107
  797SOL     OW 3289   4.215   6.996   0.744
  797SOL    HW1 3290   4.227   0.073   0.758
  797SOL    HW2 3291   4.175   6.980   0.654
  798SOL     OW 3292   3.208   6.170   1.479
  798SOL    HW1 3293   3.159   6.145   1.396
  798SOL    HW2 3294   3.301   6.200   1.455
  799SOL     OW 3295   0.283   1.740   6.256
  799SOL    HW1 3296   0.212   1.748   6.326
  799SOL    HW2 3297   0.366   1.702   6.297
  800SOL     OW 3298   6.894   2.032   2.463
  800SOL    HW1 3299   6.913   2.101   2.393
  800SOL    HW2 3300   6.902   1.941   2.423
  801SOL     OW 3301   1.759   4.549   5.236
  801SOL    HW1 3302   1.783   4.635   5.191
  801SOL    HW2 3303   1.713   4.489   5.170
  802SOL     OW 3304   3.997   2.683   6.524
  802SOL    HW1 3305   3.991   2.611   6.593
  802SOL    HW2 3306   3.905   2.715   6.501
  803SOL     OW 3307   2.404   0.064   5.764
  803SOL    HW1 3308   2.313   0.031   5.791
  803SOL    HW2 3309   2.457   0.086   5.845
  804SOL     OW 3310   6.486   6.483   1.521
  804SOL    HW1 3311   6.417   6.499   1.592
  804SOL    HW2 3312   6.576   6.472   1.564
  805SOL     OW 3313   1.433   0.332   3.773
  805SOL    HW1 3314   1.357   0.366   3.829
  805SOL    HW2 3315   1.516   0.327   3.828
  806SOL     OW 3316   6.642   0.435   5.989
  806SOL    HW1 3317   6.727   0.396   6.024
  806SOL    HW2 3318   6.608   0.379   5.913
  807SOL     OW 3319   0.528   6.938   3.969
  807SOL    HW1 3320   0.488   6.848   3.954
  807SOL    HW2 3321   0.504   6.998   3.893
  808SOL     OW 3322   5.535   2.821   0.302
  808SOL    HW1 3323   5.482   2.906   0.300
  808SOL    HW2 3324   5.575   2.805   0.212
  809SOL     OW 3325   1.036   5.276   0.265
  809SOL    HW1 3326   0.989   5.270   0.177
  809SOL    HW2 3327   1.094   5.196   0.278
  810SOL     OW 3328   2.714   3.071   0.514
  810SOL    HW1 3329   2.772   3.090   0.593
  810SOL    HW2 3330   2.771   3.060   0.433
  811SOL     OW 3331   5.681   5.239   4.818
  811SOL    HW1 3332   5.694   5.153   4.868
  811SOL    HW2 3333   5.701   5.315   4.879
  812SOL     OW 3334   0.322   2.194   2.468
  812SOL    HW1 3335   0.379   2.248   2.530
  812SOL    HW2 3336   0.343   2.097   2.479
  813SOL     OW 3337   2.784   0.178   4.362
  813SOL    HW1 3338   2.792   0.089   4.407
  813SOL    HW2 3339   2.875   0.218   4.352
  814SOL     OW 3340   6.393   5.672   2.178
  814SOL    HW1 3341   6.427   5.619   2.100
  814SOL    HW2 3342   6.294   5.669   2.179
  815SOL     OW 3343   5.195   2.896   3.736
  815SOL    HW1 3344   5.113   2.850   3.703
  815SOL    HW2 3345   5.276   2.850   3.698
  816SOL     OW 3346   4.565   4.542   0.264
  816SOL    HW1 3347   4.522   4.521   0.176
  816SOL    HW2 3348   4.631   4.471   0.286
  817SOL     OW 3349   1.257   5.455   2.007
  817SOL    HW1 3350   1.296   5.547   2.019
  817SOL    HW2 3351   1.322   5.398   1.957
  818SOL     OW 3352   5.697   2.782   4.291
  818SOL    HW1 3353   5.615   2.815   4.338
  818SOL    HW2 3354   5.735   2.856   4.235
  819SOL     OW 3355   5.803   2.766   1.720
  819SOL    HW1 3356   5.834   2.843   1.776
  819SOL    HW2 3357   5.784   2.798   1.627
  820SOL     OW 3358   3.195   2.148   4.415
  820SOL    HW1 3359   3.136   2.207   4.359
  820SOL    HW2 3360   3.169   2.157   4.511
  821SOL     OW 3361   6.137   4.857   5.517
  821SOL    HW1 3362   6.171   4.777   5.468
  821SOL    HW2 3363   6.163   4.940   5.468
  822SOL     OW 3364   0.429   4.355   3.043
  822SOL    HW1 3365   0.466   4.338   3.134
  822SOL    HW2 3366   0.472   4.436   3.004
  823SOL     OW 3367   6.964   4.185   5.766
  823SOL    HW1 3368   0.022   4.128   5.783
  823SOL    HW2 3369   6.908   4.189   5.849
  824SOL     OW 3370   5.333   0.861   5.421
  824SOL    HW1 3371   5.343   0.831   5.326
  824SOL    HW2 3372   5.390   0.942   5.436
  825SOL     OW 3373   6.195   5.906   0.610
  825SOL    HW1 3374   6.271   5.904   0.545
  825SOL    HW2 3375   6.140   5.988   0.593
  826SOL     OW 3376   3.772   2.464   5.861
  826SOL    HW1 3377   3.831   2.507   5.929
  826SOL    HW2 3378   3.684   2.440   5.903
  827SOL     OW 3379   2.939   4.297   5.324
  827SOL    HW1 3380   2.852   4.300   5.373
  827SOL    HW2 3381   2.946   4.377   5.264
  828SOL     OW 3382   5.911   5.480   5.618
  828SOL    HW1 3383   5.932   5.404   5.558
  828SOL    HW2 3384   5.820   5.466   5.659
  829SOL     OW 3385   3.080   3.067   2.151
  829SOL    HW1 3386   3.013   3.103   2.215
  829SOL    HW2 3387   3.112   3.140   2.091
  830SOL     OW 3388   6.082   4.878   6.785
  830SOL    HW1 3389   6.131   4.886   6.872
  830SOL    HW2 3390   6.144   4.902   6.710
  831SOL     OW 3391   6.200   6.804   1.076
  831SOL    HW1 3392   6.193   6.903   1.067
  831SOL    HW2 3393   6.285   6.772   1.033
  832SOL     OW 3394   4.422   1.182   4.278
  832SOL    HW1 3395   4.393   1.235   4.358
  832SOL    HW2 3396   4.408   1.238   4.195
  833SOL     OW 3397   1.775   3.634   6.707
  833SOL    HW1 3398   1.681   3.649   6.739
  833SOL    HW2 3399   1.783   3.665   6.613
  834SOL     OW 3400   5.099   3.124   0.362
  834SOL    HW1 3401   5.197   3.125   0.383
  834SOL    HW2 3402   5.066   3.029   0.360
  835SOL     OW 3403   1.713   0.553   5.153
  835SOL    HW1 3404   1.699   0.609   5.235
  835SOL    HW2 3405   1.646   0.479   5.152
  836SOL     OW 3406   3.202   1.295   5.557
  836SOL    HW1 3407   3.121   1.320   5.610
  836SOL    HW2 3408   3.175   1.268   5.465
  837SOL     OW 3409   1.384   6.952   1.243
  837SOL    HW1 3410   1.379   6.987   1.150
  837SOL    HW2 3411   1.292   6.942   1.280
  838SOL     OW 3412   1.994   6.168   4.462
  838SOL    HW1 3413   2.023   6.086   4.413
  838SOL    HW2 3414   2.018   6.249   4.408
  839SOL     OW 3415   2.492   1.671   1.397
  839SOL    HW1 3416   2.571   1.692   1.340
  839SOL    HW2 3417   2.445   1.756   1.422
  840SOL     OW 3418   6.559   5.278   6.695
  840SOL    HW1 3419   6.483   5.269   6.761
  840SOL    HW2 3420   6.628   5.208   6.714
  841SOL     OW 3421   3.949   5.838   6.254
  841SOL    HW1 3422   4.048   5.840   6.244
  841SOL    HW2 3423   3.918   5.744   6.268
  842SOL     OW 3424   3.201   6.406   6.930
  842SOL    HW1 3425   3.218   6.393   0.006
  842SOL    HW2 3426   3.276   6.365   6.878
  843SOL     OW 3427   2.483   2.090   2.237
  843SOL    HW1 3428   2.410   2.117   2.174
  843SOL    HW2 3429   2.520   2.001   2.210
  844SOL     OW 3430   0.401   6.711   1.238
  844SOL    HW1 3431   0.331   6.746   1.176
  844SOL    HW2 3432   0.360   6.690   1.327
  845SOL     OW 3433   5.012   2.538   3.263
  845SOL    HW1 3434   4.965   2.542   3.175
  845SOL    HW2 3435   4.984   2.455   3.311
  846SOL     OW 3436   3.173   0.728   6.581
  846SOL    HW1 3437   3.242   0.658   6.600
  846SOL    HW2 3438   3.201   0.815   6.619
  847SOL     OW 3439   2.031   3.346   2.126
  847SOL    HW1 3440   2.124   3.373   2.102
  847SOL    HW2 3441   1.969   3.422   2.110
  848SOL     OW 3442   6.593   6.791   5.491
  848SOL    HW1 3443   6.571   6.825   5.400
  848SOL    HW2 3444   6.625   6.866   5.548
  849SOL     OW 3445   6.305   4.094   6.869
  849SOL    HW1 3446   6.328   4.163   6.800
  849SOL    HW2 3447   6.211   4.063   6.856
  850SOL     OW 3448   0.576   6.989   4.632
  850SOL    HW1 3449   0.541   0.044   4.685
  850SOL    HW2 3450   0.581   7.014   4.536
  851SOL     OW 3451   6.447   2.577   6.865
  851SOL    HW1 3452   6.529   2.546   6.817
  851SOL    HW2 3453   6.394   2.637   6.805
  852SOL     OW 3454   0.490   4.853   0.745
  852SOL    HW1 3455   0.496   4.754   0.757
  852SOL    HW2 3456   0.500   4.898   0.834
  853SOL     OW 3457   2.059   4.075   6.260
  853SOL    HW1 3458   1.971   4.058   6.304
  853SOL    HW2 3459   2.114   3.991   6.262
  854SOL     OW 3460   5.554   6.704   0.443
  854SOL    HW1 3461   5.631   6.733   0.386
  854SOL    HW2 3462   5.470   6.748   0.410
  855SOL     OW 3463   5.908   0.175   0.195
  855SOL    HW1 3464   5.923   0.106   0.124
  855SOL    HW2 3465   5.996   0.213   0.223
  856SOL     OW 3466   1.262   6.733   5.682
  856SOL    HW1 3467   1.174   6.688   5.693
  856SOL    HW2 3468   1.334   6.677   5.724
  857SOL     OW 3469   6.710   5.428   2.164
  857SOL    HW1 3470   6.707   5.333   2.197
  857SOL    HW2 3471   6.766   5.483   2.226
  858SOL     OW 3472   3.011   3.758   1.117
  858SOL    HW1 3473   3.032   3.804   1.030
  858SOL    HW2 3474   2.920   3.716   1.112
  859SOL     OW 3475   5.391   5.831   5.486
  859SOL    HW1 3476   5.352   5.891   5.555
  859SOL    HW2 3477   5.324   5.814   5.414
  860SOL     OW 3478   5.694   3.117   6.626
  860SOL    HW1 3479   5.684   3.019   6.608
  860SOL    HW2 3480   5.605   3.162   6.620
  861SOL     OW 3481   2.412   5.649   3.392
  861SOL    HW1 3482   2.397   5.744   3.366
  861SOL    HW2 3483   2.341   5.591   3.350
  862SOL     OW 3484   1.855   5.230   3.446
  862SOL    HW1 3485   1.926   5.171   3.484
  862SOL    HW2 3486   1.882   5.326   3.456
  863SOL     OW 3487   6.148   0.992   5.867
  863SOL    HW1 3488   6.153   0.999   5.967
  863SOL    HW2 3489   6.084   0.920   5.841
  864SOL     OW 3490   4.069   0.158   5.227
  864SOL    HW1 3491   4.029   0.132   5.139
  864SOL    HW2 3492   4.111   0.078   5.269
  865SOL     OW 3493   1.712   0.284   6.005
  865SOL    HW1 3494   1.729   0.186   6.000
  865SOL    HW2 3495   1.798   0.333   5.998
  866SOL     OW 3496   3.395   6.702   0.903
  866SOL    HW1 3497   3.361   6.737   0.816
  866SOL    HW2 3498   3.343   6.742   0.978
  867SOL     OW 3499   5.352   3.172   0.438
  867SOL    HW1 3500   5.415   3.130   0.372
  867SOL    HW2 3501   5.402   3.233   0.498
  868SOL     OW 3502   0.034   1.932   2.664
  868SOL    HW1 3503   7.021   1.956   2.754
  868SOL    HW2 3504   0.001   1.997   2.596
  869SOL     OW 3505   6.627   3.502   3.535
  869SOL    HW1 3506   6.679   3.533   3.455
  869SOL    HW2 3507   6.684   3.442   3.591
  870SOL     OW 3508   3.882   4.222   1.246
  870SOL    HW1 3509   3.900   4.295   1.180
  870SOL    HW2 3510   3.816   4.254   1.315
  871SOL     OW 3511   5.595   2.447   4.096
  871SOL    HW1 3512   5.545   2.366   4.125
  871SOL    HW2 3513   5.538   2.500   4.032
  872SOL     OW 3514   0.476   2.225   4.533
  872SOL    HW1 3515   0.500   2.253   4.626
  872SOL    HW2 3516   0.467   2.305   4.475
  873SOL     OW 3517   4.145   6.044   5.319
  873SOL    HW1 3518   4.064   6.071   5.268
  873SOL    HW2 3519   4.213   6.118   5.315
  874SOL     OW 3520   6.081   4.048   0.415
  874SOL    HW1 3521   6.103   3.972   0.475
  874SOL    HW2 3522   6.060   4.129   0.470
  875SOL     OW 3523   5.309   5.429   0.743
  875SOL    HW1 3524   5.260   5.375   0.812
  875SOL    HW2 3525   5.317   5.375   0.659
  876SOL     OW 3526   0.335   5.454   1.764
  876SOL    HW1 3527   0.268   5.436   1.836
  876SOL    HW2 3528   0.395   5.529   1.791
  877SOL     OW 3529   3.406   4.149   5.873
  877SOL    HW1 3530   3.337   4.160   5.944
  877SOL    HW2 3531   3.361   4.144   5.784
  878SOL     OW 3532   4.438   6.972   4.125
  878SOL    HW1 3533   4.535   6.975   4.150
  878SOL    HW2 3534   4.425   6.915   4.044
  879SOL     OW 3535   3.680   0.573   1.447
  879SOL    HW1 3536   3.616   0.600   1.518
  879SOL    HW2 3537   3.674   0.474   1.433
  880SOL     OW 3538   3.890   4.030   4.019
  880SOL    HW1 3539   3.889   4.038   4.118
  880SOL    HW2 3540   3.975   3.988   3.989
  881SOL     OW 3541   5.166   2.998   4.698
  881SOL    HW1 3542   5.190   2.965   4.607
  881SOL    HW2 3543   5.086   3.058   4.692
  882SOL     OW 3544   0.775   3.291   3.739
  882SOL    HW1 3545   0.703   3.255   3.680
  882SOL    HW2 3546   0.736   3.319   3.826
  883SOL     OW 3547   3.266   0.785   1.683
  883SOL    HW1 3548   3.199   0.715   1.706
  883SOL    HW2 3549   3.232   0.875   1.711
  884SOL     OW 3550   5.382   3.552   5.995
  884SOL    HW1 3551   5.334   3.468   6.018
  884SOL    HW2 3552   5.325   3.608   5.935
  885SOL     OW 3553   3.278   0.981   5.289
  885SOL    HW1 3554   3.324   0.923   5.221
  885SOL    HW2 3555   3.341   0.999   5.364
  886SOL     OW 3556   3.449   0.434   0.146
  886SOL    HW1 3557   3.453   0.343   0.105
  886SOL    HW2 3558   3.483   0.428   0.240
  887SOL     OW 3559   3.834   6.768   3.552
  887SOL    HW1 3560   3.915   6.769   3.493
  887SOL    HW2 3561   3.769   6.837   3.520
  888SOL     OW 3562   6.938   6.609   3.611
  888SOL    HW1 3563   7.010   6.585   3.546
  888SOL    HW2 3564   6.914   6.528   3.665
  889SOL     OW 3565   6.846   3.073   0.604
  889SOL    HW1 3566   6.936   3.046   0.571
  889SOL    HW2 3567   6.844   3.172   0.617
  890SOL     OW 3568   1.084   5.058   3.067
  890SOL    HW1 3569   1.135   5.135   3.105
  890SOL    HW2 3570   1.143   4.977   3.065
  891SOL     OW 3571   5.678   5.012   0.973
  891SOL    HW1 3572   5.770   5.038   0.942
  891SOL    HW2 3573   5.669   4.913   0.972
  892SOL     OW 3574   2.616   3.772   5.469
  892SOL    HW1 3575   2.543   3.710   5.441
  892SOL    HW2 3576   2.613   3.854   5.413
  893SOL     OW 3577   2.240   6.582   3.253
  893SOL    HW1 3578   2.152   6.617   3.221
  893SOL    HW2 3579   2.294   6.550   3.176
  894SOL     OW 3580   0.939   2.856   1.737
  894SOL    HW1 3581   0.954   2.799   1.656
  894SOL    HW2 3582   0.959   2.952   1.715
  895SOL     OW 3583   1.056   5.215   3.693
  895SOL    HW1 3584   1.057   5.208   3.793
  895SOL    HW2 3585   1.022   5.129   3.654
  896SOL     OW 3586   5.241   4.981   1.095
  896SOL    HW1 3587   5.246   4.897   1.148
  896SOL    HW2 3588   5.327   4.994   1.046
  897SOL     OW 3589   4.041   1.348   6.778
  897SOL    HW1 3590   4.114   1.279   6.786
  897SOL    HW2 3591   4.025   1.390   6.867
  898SOL     OW 3592   3.640   6.489   3.067
  898SOL    HW1 3593   3.627   6.571   3.011
  898SOL    HW2 3594   3.565   6.425   3.050
  899SOL     OW 3595   0.327   6.880   0.264
  899SOL    HW1 3596   0.342   6.914   0.357
  899SOL    HW2 3597   0.375   6.793   0.252
  900SOL     OW 3598   5.856   6.884   0.416
  900SOL    HW1 3599   5.860   6.797   0.466
  900SOL    HW2 3600   5.828   6.957   0.479
  901SOL     OW 3601   2.379   6.948   3.155
  901SOL    HW1 3602   2.372   6.909   3.063
  901SOL    HW2 3603   2.465   6.921   3.197
  902SOL     OW 3604   0.324   1.854   0.668
  902SOL    HW1 3605   0.381   1.792   0.722
  902SOL    HW2 3606   0.332   1.831   0.571
  903SOL     OW 3607   0.217   2.384   6.751
  903SOL    HW1 3608   0.309   2.373   6.715
  903SOL    HW2 3609   0.179   2.294   6.774
  904SOL     OW 3610   2.512   2.192   2.856
  904SOL    HW1 3611   2.566   2.259   2.805
  904SOL    HW2 3612   2.491   2.114   2.797
  905SOL     OW 3613   4.832   1.921   6.389
  905SOL    HW1 3614   4.769   1.931   6.312
  905SOL    HW2 3615   4.904   1.989   6.383
  906SOL     OW 3616   0.095   1.740   6.703
  906SOL    HW1 3617   0.078   1.834   6.735
  906SOL    HW2 3618   0.131   1.685   6.778
  907SOL     OW 3619   5.534   3.232   0.643
  907SOL    HW1 3620   5.629   3.204   0.626
  907SOL    HW2 3621   5.494   3.172   0.713
  908SOL     OW 3622   2.696   4.816   2.852
  908SOL    HW1 3623   2.666   4.740   2.909
  908SOL    HW2 3624   2.776   4.859   2.892
  909SOL     OW 3625   4.472   5.829   1.279
  909SOL    HW1 3626   4.503   5.922   1.299
  909SOL    HW2 3627   4.535   5.786   1.215
  910SOL     OW 3628   3.251   1.969   1.057
  910SOL    HW1 3629   3.298   1.900   1.112
  910SOL    HW2 3630   3.235   1.932   0.965
  911SOL     OW 3631   0.795   6.323   6.244
  911SOL    HW1 3632   0.708   6.280   6.267
  911SOL    HW2 3633   0.859   6.313   6.320
  912SOL     OW 3634   6.177   2.344   2.972
  912SOL    HW1 3635   6.182   2.418   2.905
  912SOL    HW2 3636   6.247   2.358   3.042
  913SOL     OW 3637   4.291   0.051   3.084
  913SOL    HW1 3638   4.383   0.083   3.060
  913SOL    HW2 3639   4.282   0.046   3.184
  914SOL     OW 3640   2.589   0.064   5.983
  914SOL    HW1 3641   2.604   6.988   5.986
  914SOL    HW2 3642   2.670   0.110   5.947
  915SOL     OW 3643   6.216   4.260   0.056
  915SOL    HW1 3644   6.264   4.234   6.994
  915SOL    HW2 3645   6.206   4.359   0.060
  916SOL     OW 3646   1.746   2.756   1.806
  916SOL    HW1 3647   1.699   2.695   1.870
  916SOL    HW2 3648   1.763   2.707   1.720
  917SOL     OW 3649   0.545   6.683   0.803
  917SOL    HW1 3650   0.509   6.611   0.744
  917SOL    HW2 3651   0.586   6.755   0.748
  918SOL     OW 3652   3.402   0.632   0.473
  918SOL    HW1 3653   3.458   0.711   0.447
  918SOL    HW2 3654   3.312   0.640   0.430
  919SOL     OW 3655   5.930   1.712   2.806
  919SOL    HW1 3656   5.848   1.741   2.756
  919SOL    HW2 3657   5.932   1.758   2.895
  920SOL     OW 3658   2.497   4.146   1.736
  920SOL    HW1 3659   2.575   4.205   1.716
  920SOL    HW2 3660   2.524   4.050   1.724
  921SOL     OW 3661   4.601   6.143   4.062
  921SOL    HW1 3662   4.622   6.221   4.003
  921SOL    HW2 3663   4.505   6.118   4.050
  922SOL     OW 3664   3.687   3.639   4.589
  922SOL    HW1 3665   3.589   3.626   4.579
  922SOL    HW2 3666   3.736   3.571   4.534
  923SOL     OW 3667   2.210   3.182   6.904
  923SOL    HW1 3668   2.202   3.170   6.805
  923SOL    HW2 3669   2.279   3.119   6.940
  924SOL     OW 3670   6.375   3.921   1.485
  924SOL    HW1 3671   6.427   3.871   1.417
  924SOL    HW2 3672   6.278   3.896   1.478
  925SOL     OW 3673   0.092   2.240   0.153
  925SOL    HW1 3674   0.077   2.289   0.238
  925SOL    HW2 3675   0.066   2.144   0.165
  926SOL     OW 3676   6.338   1.035   1.408
  926SOL    HW1 3677   6.388   1.111   1.366
  926SOL    HW2 3678   6.350   1.038   1.507
  927SOL     OW 3679   5.469   3.581   3.543
  927SOL    HW1 3680   5.529   3.506   3.514
  927SOL    HW2 3681   5.523   3.652   3.588
  928SOL     OW 3682   1.940   6.011   0.484
  928SOL    HW1 3683   1.939   6.111   0.488
  928SOL    HW2 3684   2.023   5.976   0.528
  929SOL     OW 3685   6.947   0.788   7.015
  929SOL    HW1 3686   6.876   0.729   6.977
  929SOL    HW2 3687   6.974   0.856   6.947
  930SOL     OW 3688   5.344   6.072   6.295
  930SOL    HW1 3689   5.293   6.021   6.364
  930SOL    HW2 3690   5.287   6.146   6.259
  931SOL     OW 3691   6.857   1.367   4.738
  931SOL    HW1 3692   6.802   1.286   4.755
  931SOL    HW2 3693   6.921   1.349   4.663
  932SOL     OW 3694   2.344   1.826   2.974
  932SOL    HW1 3695   2.322   1.818   2.877
  932SOL    HW2 3696   2.440   1.800   2.989
  933SOL     OW 3697   1.247   5.294   3.220
  933SOL    HW1 3698   1.335   5.339   3.228
  933SOL    HW2 3699   1.212   5.271   3.311
  934SOL     OW 3700   2.627   5.886   6.143
  934SOL    HW1 3701   2.664   5.894   6.050
  934SOL    HW2 3702   2.703   5.889   6.208
  935SOL     OW 3703   5.338   4.443   3.997
  935SOL    HW1 3704   5.295   4.357   4.025
  935SOL    HW2 3705   5.362   4.438   3.901
  936SOL     OW 3706   0.747   6.463   5.906
  936SOL    HW1 3707   0.671   6.491   5.965
  936SOL    HW2 3708   0.764   6.534   5.838
  937SOL     OW 3709   5.762   1.804   5.912
  937SOL    HW1 3710   5.828   1.871   5.943
  937SOL    HW2 3711   5.677   1.850   5.886
  938SOL     OW 3712   6.443   5.428   4.832
  938SOL    HW1 3713   6.346   5.407   4.849
  938SOL    HW2 3714   6.476   5.490   4.902
  939SOL     OW 3715   0.029   6.864   3.605
  939SOL    HW1 3716   6.965   6.816   3.618
  939SOL    HW2 3717   0.021   6.958   3.638
  940SOL     OW 3718   0.573   3.985   0.295
  940SOL    HW1 3719   0.662   4.029   0.302
  940SOL    HW2 3720   0.533   3.975   0.386
  941SOL     OW 3721   4.989   0.345   0.048
  941SOL    HW1 3722   4.970   0.303   6.981
  941SOL    HW2 3723   5.087   0.341   0.066
  942SOL     OW 3724   5.726   6.879   1.848
  942SOL    HW1 3725   5.815   6.911   1.813
  942SOL    HW2 3726   5.734   6.861   1.946
  943SOL     OW 3727   1.412   4.831   2.676
  943SOL    HW1 3728   1.471   4.774   2.619
  943SOL    HW2 3729   1.350   4.884   2.618
  944SOL     OW 3730   0.463   5.677   4.893
  944SOL    HW1 3731   0.523   5.710   4.966
  944SOL    HW2 3732   0.500   5.707   4.805
  945SOL     OW 3733   0.281   4.911   5.376
  945SOL    HW1 3734   0.309   4.891   5.282
  945SOL    HW2 3735   0.360   4.943   5.428
  946SOL     OW 3736   4.889   4.879   4.740
  946SOL    HW1 3737   4.968   4.895   4.798
  946SOL    HW2 3738   4.918   4.867   4.645
  947SOL     OW 3739   3.356   3.337   3.893
  947SOL    HW1 3740   3.438   3.281   3.905
  947SOL    HW2 3741   3.370   3.427   3.933
  948SOL     OW 3742   4.629   1.199   3.233
  948SOL    HW1 3743   4.633   1.282   3.177
  948SOL    HW2 3744   4.593   1.124   3.179
  949SOL     OW 3745   3.039   6.128   0.281
  949SOL    HW1 3746   2.949   6.098   0.313
  949SOL    HW2 3747   3.093   6.048   0.255
  950SOL     OW 3748   6.076   5.485   2.552
  950SOL    HW1 3749   5.999   5.482   2.616
  950SOL    HW2 3750   6.052   5.544   2.474
  951SOL     OW 3751   1.153   0.107   3.370
  951SOL    HW1 3752   1.222   0.178   3.384
  951SOL    HW2 3753   1.175   0.027   3.426
  952SOL     OW 3754   4.190   2.191   2.504
  952SOL    HW1 3755   4.215   2.278   2.547
  952SOL    HW2 3756   4.146   2.209   2.416
  953SOL     OW 3757   5.808   5.532   4.999
  953SOL    HW1 3758   5.823   5.630   5.016
  953SOL    HW2 3759   5.732   5.521   4.935
  954SOL     OW 3760   3.871   6.247   2.110
  954SOL    HW1 3761   3.780   6.240   2.150
  954SOL    HW2 3762   3.872   6.199   2.022
  955SOL     OW 3763   2.182   4.286   0.072
  955SOL    HW1 3764   2.141   4.244   7.013
  955SOL    HW2 3765   2.172   4.386   0.067
  956SOL     OW 3766   6.887   0.654   1.668
  956SOL    HW1 3767   6.955   0.718   1.703
  956SOL    HW2 3768   6.899   0.643   1.569
  957SOL     OW 3769   6.109   1.855   1.494
  957SOL    HW1 3770   6.044   1.914   1.541
  957SOL    HW2 3771   6.153   1.794   1.560
  958SOL     OW 3772   4.091   6.487   1.776
  958SOL    HW1 3773   4.172   6.542   1.796
  958SOL    HW2 3774   4.092   6.461   1.680
  959SOL     OW 3775   3.299   6.748   5.038
  959SOL    HW1 3776   3.203   6.776   5.044
  959SOL    HW2 3777   3.340   6.788   4.956
  960SOL     OW 3778   1.740   0.006   1.455
  960SOL    HW1 3779   1.772   0.100   1.445
  960SOL    HW2 3780   1.675   7.007   1.382
  961SOL     OW 3781   4.411   6.497   2.987
  961SOL    HW1 3782   4.479   6.567   2.963
  961SOL    HW2 3783   4.371   6.519   3.076
  962SOL     OW 3784   6.683   0.906   4.279
  962SOL    HW1 3785   6.617   0.936   4.210
  962SOL    HW2 3786   6.706   0.983   4.339
  963SOL     OW 3787   4.374   1.026   0.442
  963SOL    HW1 3788   4.353   1.052   0.536
  963SOL    HW2 3789   4.468   1.053   0.420
  964SOL     OW 3790   4.698   5.064   5.279
  964SOL    HW1 3791   4.695   4.966   5.300
  964SOL    HW2 3792   4.767   5.108   5.336
  965SOL     OW 3793   6.184   1.713   2.283
  965SOL    HW1 3794   6.186   1.810   2.257
  965SOL    HW2 3795   6.272   1.689   2.326
  966SOL     OW 3796   5.354   3.067   3.364
  966SOL    HW1 3797   5.363   3.086   3.266
  966SOL    HW2 3798   5.408   3.134   3.415
  967SOL     OW 3799   2.887   4.773   6.955
  967SOL    HW1 3800   2.804   4.725   6.984
  967SOL    HW2 3801   2.965   4.738   7.008
  968SOL     OW 3802   3.861   6.606   1.357
  968SOL    HW1 3803   3.911   6.555   1.427
  968SOL    HW2 3804   3.899   6.699   1.350
  969SOL     OW 3805   2.121   4.902   5.607
  969SOL    HW1 3806   2.175   4.818   5.613
  969SOL    HW2 3807   2.029   4.880   5.575
  970SOL     OW 3808   5.263   0.209   6.064
  970SOL    HW1 3809   5.254   0.109   6.067
  970SOL    HW2 3810   5.238   0.247   6.153
  971SOL     OW 3811   6.991   3.307   2.418
  971SOL    HW1 3812   0.055   3.260   2.400
  971SOL    HW2 3813   6.942   3.322   2.333
  972SOL     OW 3814   6.665   2.704   1.659
  972SOL    HW1 3815   6.604   2.779   1.632
  972SOL    HW2 3816   6.746   2.706   1.602
  973SOL     OW 3817   1.470   5.044   6.847
  973SOL    HW1 3818   1.453   5.117   6.780
  973SOL    HW2 3819   1.413   4.965   6.825
  974SOL     OW 3820   0.546   5.430   2.389
  974SOL    HW1 3821   0.551   5.340   2.432
  974SOL    HW2 3822   0.628   5.446   2.335
  975SOL     OW 3823   2.392   6.923   0.281
  975SOL    HW1 3824   2.330   6.927   0.360
  975SOL    HW2 3825   2.486   6.911   0.313
  976SOL     OW 3826   6.977   3.725   1.222
  976SOL    HW1 3827   0.006   3.645   1.189
  976SOL    HW2 3828   6.964   3.718   1.320
  977SOL     OW 3829   0.560   1.147   2.156
  977SOL    HW1 3830   0.573   1.187   2.065
  977SOL    HW2 3831   0.469   1.170   2.190
  978SOL     OW 3832   5.227   1.505   0.992
  978SOL    HW1 3833   5.244   1.522   1.089
  978SOL    HW2 3834   5.305   1.454   0.953
  979SOL     OW 3835   0.536   2.826   6.379
  979SOL    HW1 3836   0.579   2.736   6.368
  979SOL    HW2 3837   0.450   2.828   6.328
  980SOL     OW 3838   4.867   1.613   4.984
  980SOL    HW1 3839   4.854   1.640   4.888
  980SOL    HW2 3840   4.805   1.666   5.042
  981SOL     OW 3841   0.400   0.622   4.681
  981SOL    HW1 3842   0.475   0.595   4.621
  981SOL    HW2 3843   0.394   0.722   4.684
  982SOL     OW 3844   0.859   1.663   5.266
  982SOL    HW1 3845   0.883   1.758   5.285
  982SOL    HW2 3846   0.937   1.617   5.224
  983SOL     OW 3847   6.720   3.645   2.709
  983SOL    HW1 3848   6.754   3.737   2.687
  983SOL    HW2 3849   6.769   3.608   2.787
  984SOL     OW 3850   1.593   2.444   3.042
  984SOL    HW1 3851   1.581   2.406   3.134
  984SOL    HW2 3852   1.526   2.404   2.980
  985SOL     OW 3853   6.501   3.748   4.547
  985SOL    HW1 3854   6.515   3.650   4.538
  985SOL    HW2 3855   6.549   3.796   4.473
  986SOL     OW 3856   4.331   5.443   1.401
  986SOL    HW1 3857   4.304   5.397   1.486
  986SOL    HW2 3858   4.281   5.402   1.324
  987SOL     OW 3859   5.391   6.245   2.314
  987SOL    HW1 3860   5.372   6.343   2.314
  987SOL    HW2 3861   5.306   6.194   2.328
  988SOL     OW 3862   3.362   3.960   2.147
  988SOL    HW1 3863   3.273   3.992   2.114
  988SOL    HW2 3864   3.381   4.002   2.236
  989SOL     OW 3865   6.607   1.596   0.359
  989SOL    HW1 3866   6.648   1.676   0.403
  989SOL    HW2 3867   6.565   1.538   0.429
  990SOL     OW 3868   3.375   0.407   2.474
  990SOL    HW1 3869   3.393   0.404   2.376
  990SOL    HW2 3870   3.461   0.415   2.524
  991SOL     OW 3871   0.503   4.471   4.029
  991SOL    HW1 3872   0.404   4.458   4.031
  991SOL    HW2 3873   0.534   4.510   4.115
  992SOL     OW 3874   0.577   3.382   1.221
  992SOL    HW1 3875   0.478   3.395   1.213
  992SOL    HW2 3876   0.612   3.437   1.297
  993SOL     OW 3877   0.482   3.967   0.829
  993SOL    HW1 3878   0.558   4.005   0.777
  993SOL    HW2 3879   0.495   3.985   0.926
  994SOL     OW 3880   3.747   5.258   1.389
  994SOL    HW1 3881   3.651   5.240   1.412
  994SOL    HW2 3882   3.761   5.244   1.292
  995SOL     OW 3883   4.165   3.020   5.948
  995SOL    HW1 3884   4.189   2.947   5.884
  995SOL    HW2 3885   4.141   3.103   5.897
  996SOL     OW 3886   3.511   5.392   4.976
  996SOL    HW1 3887   3.608   5.367   4.977
  996SOL    HW2 3888   3.455   5.310   4.987
  997SOL     OW 3889   1.259   6.896   3.514
  997SOL    HW1 3890   1.305   6.960   3.576
  997SOL    HW2 3891   1.262   6.804   3.553
  998SOL     OW 3892   6.749   0.036   6.267
  998SOL    HW1 3893   6.681   0.082   6.325
  998SOL    HW2 3894   6.832   0.090   6.263
  999SOL     OW 3895   4.983   3.681   1.699
  999SOL    HW1 3896   4.931   3.644   1.776
  999SOL    HW2 3897   5.015   3.606   1.641
 1000SOL     OW 3898   4.223   1.563   1.351
 1000SOL    HW1 3899   4.288   1.543   1.278
 1000SOL    HW2 3900   4.147   1.498   1.348
 1001SOL     OW 3901   3.832   5.864   2.128
 1001SOL    HW1 3902   3.750   5.832   2.174
 1001SOL    HW2 3903   3.808   5.939   2.066
 1002SOL     OW 3904   5.539   1.858   1.216
 1002SOL    HW1 3905   5.489   1.878   1.301
 1002SOL    HW2 3906   5.595   1.938   1.192
 1003SOL     OW 3907   1.943   6.071   2.775
 1003SOL    HW1 3908   2.012   6.016   2.729
 1003SOL    HW2 3909   1.914   6.145   2.714
 1004SOL     OW 3910   0.054   1.236   2.486
 1004SOL    HW1 3911   7.004   1.180   2.527
 1004SOL    HW2 3912   0.098   1.186   2.412
 1005SOL     OW 3913   1.764   4.244   4.202
 1005SOL    HW1 3914   1.717   4.195   4.129
 1005SOL    HW2 3915   1.816   4.320   4.163
 1006SOL     OW 3916   2.026   4.206   0.554
 1006SOL    HW1 3917   2.039   4.181   0.458
 1006SOL    HW2 3918   2.085   4.284   0.577
 1007SOL     OW 3919   4.779   1.021   5.783
 1007SOL    HW1 3920   4.807   1.089   5.852
 1007SOL    HW2 3921   4.844   1.021   5.708
 1008SOL     OW 3922   0.171   3.601   5.189
 1008SOL    HW1 3923   0.175   3.613   5.090
 1008SOL    HW2 3924   0.120   3.517   5.211
 1009SOL     OW 3925   6.234   4.038   6.014
 1009SOL    HW1 3926   6.217   4.137   6.014
 1009SOL    HW2 3927   6.185   3.995   6.090
 1010SOL     OW 3928   2.935   2.510   1.324
 1010SOL    HW1 3929   2.919   2.589   1.383
 1010SOL    HW2 3930   2.856   2.497   1.264
 1011SOL     OW 3931   0.559   5.599   3.508
 1011SOL    HW1 3932   0.494   5.657   3.459
 1011SOL    HW2 3933   0.511   5.519   3.545
 1012SOL     OW 3934   6.815   6.794   2.430
 1012SOL    HW1 3935   6.902   6.778   2.385
 1012SOL    HW2 3936   6.780   6.707   2.466
 1013SOL     OW 3937   6.648   1.419   6.478
 1013SOL    HW1 3938   6.629   1.473   6.396
 1013SOL    HW2 3939   6.729   1.455   6.524
 1014SOL     OW 3940   0.871   3.666   4.888
 1014SOL    HW1 3941   0.958   3.616   4.895
 1014SOL    HW2 3942   0.796   3.600   4.879
 1015SOL     OW 3943   2.740   0.536   6.185
 1015SOL    HW1 3944   2.741   0.628   6.148
 1015SOL    HW2 3945   2.727   0.540   6.284
 1016SOL     OW 3946   4.472   4.775   1.487
 1016SOL    HW1 3947   4.383   4.735   1.507
 1016SOL    HW2 3948   4.542   4.730   1.543
 1017SOL     OW 3949   2.912   1.523   1.113
 1017SOL    HW1 3950   2.932   1.620   1.124
 1017SOL    HW2 3951   2.993   1.469   1.139
 1018SOL     OW 3952   0.365   4.843   3.822
 1018SOL    HW1 3953   0.385   4.814   3.729
 1018SOL    HW2 3954   0.441   4.817   3.882
 1019SOL     OW 3955   6.907   5.359   0.581
 1019SOL    HW1 3956   6.899   5.286   0.513
 1019SOL    HW2 3957   6.894   5.321   0.673
 1020SOL     OW 3958   6.128   0.913   1.282
 1020SOL    HW1 3959   6.053   0.946   1.339
 1020SOL    HW2 3960   6.215   0.949   1.317
 1021SOL     OW 3961   6.568   6.281   2.244
 1021SOL    HW1 3962   6.539   6.185   2.246
 1021SOL    HW2 3963   6.507   6.335   2.302
 1022SOL     OW 3964   2.577   5.668   5.890
 1022SOL    HW1 3965   2.483   5.666   5.855
 1022SOL    HW2 3966   2.576   5.684   5.988
 1023SOL     OW 3967   0.133   1.103   2.966
 1023SOL    HW1 3968   0.070   1.180   2.961
 1023SOL    HW2 3969   0.114   1.039   2.891
 1024SOL     OW 3970   0.609   1.740   4.162
 1024SOL    HW1 3971   0.619   1.696   4.252
 1024SOL    HW2 3972   0.661   1.826   4.162
 1025SOL     OW 3973   4.687   3.016   0.303
 1025SOL    HW1 3974   4.617   3.025   0.232
 1025SOL    HW2 3975   4.777   3.004   0.261
 1026SOL     OW 3976   2.782   2.622   1.503
 1026SOL    HW1 3977   2.848   2.634   1.577
 1026SOL    HW2 3978   2.703   2.572   1.536
 1027SOL     OW 3979   2.038   6.946   2.010
 1027SOL    HW1 3980   2.073   7.012   2.077
 1027SOL    HW2 3981   2.069   6.972   1.918
 1028SOL     OW 3982   1.226   6.644   2.977
 1028SOL    HW1 3983   1.203   6.721   2.917
 1028SOL    HW2 3984   1.213   6.558   2.927
 1029SOL     OW 3985   1.010   1.871   5.984
 1029SOL    HW1 3986   1.065   1.955   5.980
 1029SOL    HW2 3987   1.030   1.814   5.904
 1030SOL     OW 3988   3.538   2.898   1.586
 1030SOL    HW1 3989   3.622   2.934   1.546
 1030SOL    HW2 3990   3.560   2.832   1.658
 1031SOL     OW 3991   4.497   3.191   1.443
 1031SOL    HW1 3992   4.535   3.101   1.422
 1031SOL    HW2 3993   4.565   3.261   1.423
 1032SOL     OW 3994   2.046   1.318   5.437
 1032SOL    HW1 3995   2.029   1.311   5.338
 1032SOL    HW2 3996   2.093   1.236   5.468
 1033SOL     OW 3997   1.730   5.846   2.156
 1033SOL    HW1 3998   1.668   5.812   2.227
 1033SOL    HW2 3999   1.682   5.852   2.069
 1034SOL     OW 4000   1.315   6.182   4.073
 1034SOL    HW1 4001   1.255   6.246   4.024
 1034SOL    HW2 4002   1.273   6.157   4.160
 1035SOL     OW 4003   0.125   2.119   6.444
 1035SOL    HW1 4004   0.160   2.210   6.421
 1035SOL    HW2 4005   0.030   2.127   6.473
 1036SOL     OW 4006   4.294   0.928   1.490
 1036SOL    HW1 4007   4.196   0.943   1.501
 1036SOL    HW2 4008   4.310   0.859   1.421
 1037SOL     OW 4009   1.463   2.337   3.273
 1037SOL    HW1 4010   1.488   2.248   3.312
 1037SOL    HW2 4011   1.384   2.326   3.213
 1038SOL     OW 4012   1.190   0.913   5.757
 1038SOL    HW1 4013   1.218   1.001   5.794
 1038SOL    HW2 4014   1.194   0.916   5.657
 1039SOL     OW 4015   3.313   3.397   4.273
 1039SOL    HW1 4016   3.383   3.327   4.288
 1039SOL    HW2 4017   3.271   3.422   4.360
 1040SOL     OW 4018   5.177   1.217   2.157
 1040SOL    HW1 4019   5.213   1.278   2.087
 1040SOL    HW2 4020   5.233   1.134   2.161
 1041SOL     OW 4021   0.125   6.481   3.424
 1041SOL    HW1 4022   0.199   6.542   3.396
 1041SOL    HW2 4023   0.162   6.389   3.440
 1042SOL     OW 4024   4.805   5.164   2.873
 1042SOL    HW1 4025   4.712   5.152   2.837
 1042SOL    HW2 4026   4.814   5.116   2.960
 1043SOL     OW 4027   4.175   1.882   3.410
 1043SOL    HW1 4028   4.140   1.961   3.460
 1043SOL    HW2 4029   4.259   1.849   3.454
 1044SOL     OW 4030   6.085   5.921   1.531
 1044SOL    HW1 4031   6.152   5.847   1.534
 1044SOL    HW2 4032   6.133   6.008   1.520
 1045SOL     OW 4033   3.468   0.587   2.925
 1045SOL    HW1 4034   3.410   0.526   2.979
 1045SOL    HW2 4035   3.482   0.672   2.975
 1046SOL     OW 4036   1.702   1.495   0.088
 1046SOL    HW1 4037   1.713   1.585   0.047
 1046SOL    HW2 4038   1.648   1.437   0.027
 1047SOL     OW 4039   3.365   0.777   3.996
 1047SOL    HW1 4040   3.316   0.714   3.935
 1047SOL    HW2 4041   3.305   0.852   4.022
 1048SOL     OW 4042   3.578   5.430   2.363
 1048SOL    HW1 4043   3.549   5.340   2.330
 1048SOL    HW2 4044   3.513   5.462   2.433
 1049SOL     OW 4045   5.137   6.909   3.788
 1049SOL    HW1 4046   5.224   6.863   3.772
 1049SOL    HW2 4047   5.152   7.007   3.801
 1050SOL     OW 4048   3.600   5.947   2.413
 1050SOL    HW1 4049   3.561   5.929   2.323
 1050SOL    HW2 4050   3.578   5.871   2.475
 1051SOL     OW 4051   0.265   5.934   6.973
 1051SOL    HW1 4052   0.173   5.954   7.009
 1051SOL    HW2 4053   0.334   5.960   0.018
 1052SOL     OW 4054   4.993   0.884   5.210
 1052SOL    HW1 4055   5.044   0.954   5.262
 1052SOL    HW2 4056   5.003   0.796   5.256
 1053SOL     OW 4057   5.866   3.920   2.883
 1053SOL    HW1 4058   5.866   4.019   2.895
 1053SOL    HW2 4059   5.871   3.898   2.785
 1054SOL     OW 4060   2.972   3.276   0.713
 1054SOL    HW1 4061   2.987   3.178   0.711
 1054SOL    HW2 4062   2.979   3.310   0.807
 1055SOL     OW 4063   4.505   6.278   6.024
 1055SOL    HW1 4064   4.487   6.240   5.933
 1055SOL    HW2 4065   4.503   6.378   6.019
 1056SOL     OW 4066   0.877   3.962   0.278
 1056SOL    HW1 4067   0.864   3.897   0.203
 1056SOL    HW2 4068   0.964   3.943   0.325
 1057SOL     OW 4069   3.897   2.286   1.389
 1057SOL    HW1 4070   3.818   2.225   1.399
 1057SOL    HW2 4071   3.908   2.341   1.472
 1058SOL     OW 4072   5.009   2.793   3.325
 1058SOL    HW1 4073   5.002   2.845   3.241
 1058SOL    HW2 4074   5.015   2.695   3.304
 1059SOL     OW 4075   2.218   6.829   2.453
 1059SOL    HW1 4076   2.285   6.898   2.482
 1059SOL    HW2 4077   2.130   6.874   2.436
 1060SOL     OW 4078   0.470   4.961   4.283
 1060SOL    HW1 4079   0.385   4.988   4.237
 1060SOL    HW2 4080   0.461   4.975   4.381
 1061SOL     OW 4081   6.495   3.733   6.623
 1061SOL    HW1 4082   6.540   3.645   6.635
 1061SOL    HW2 4083   6.510   3.790   6.704
 1062SOL     OW 4084   3.893   6.051   5.195
 1062SOL    HW1 4085   3.888   6.029   5.097
 1062SOL    HW2 4086   3.919   6.147   5.206
 1063SOL     OW 4087   0.171   6.785   0.572
 1063SOL    HW1 4088   0.151   6.765   0.668
 1063SOL    HW2 4089   0.267   6.811   0.562
 1064SOL     OW 4090   0.756   4.284   1.716
 1064SOL    HW1 4091   0.678   4.240   1.760
 1064SOL    HW2 4092   0.728   4.373   1.679
 1065SOL     OW 4093   3.256   0.671   3.733
 1065SOL    HW1 4094   3.210   0.626   3.657
 1065SOL    HW2 4095   3.334   0.725   3.699
 1066SOL     OW 4096   4.690   6.615   2.517
 1066SOL    HW1 4097   4.714   6.695   2.571
 1066SOL    HW2 4098   4.743   6.614   2.432
 1067SOL     OW 4099   2.094   1.033   6.656
 1067SOL    HW1 4100   2.172   0.971   6.661
 1067SOL    HW2 4101   2.125   1.122   6.622
 1068SOL     OW 4102   5.857   3.854   1.422
 1068SOL    HW1 4103   5.817   3.933   1.468
 1068SOL    HW2 4104   5.790   3.780   1.417
 1069SOL     OW 4105   5.237   5.689   0.648
 1069SOL    HW1 4106   5.279   5.609   0.691
 1069SOL    HW2 4107   5.308   5.755   0.624
 1070SOL     OW 4108   2.420   6.977   2.579
 1070SOL    HW1 4109   2.479   6.896   2.572
 1070SOL    HW2 4110   2.397   6.992   2.675
 1071SOL     OW 4111   1.500   2.007   4.161
 1071SOL    HW1 4112   1.595   2.002   4.132
 1071SOL    HW2 4113   1.477   1.928   4.218
 1072SOL     OW 4114   2.283   1.124   1.795
 1072SOL    HW1 4115   2.306   1.063   1.719
 1072SOL    HW2 4116   2.367   1.157   1.838
 1073SOL     OW 4117   5.603   1.970   3.251
 1073SOL    HW1 4118   5.614   2.049   3.311
 1073SOL    HW2 4119   5.581   2.001   3.158
 1074SOL     OW 4120   2.734   5.061   2.003
 1074SOL    HW1 4121   2.713   4.971   1.965
 1074SOL    HW2 4122   2.833   5.070   2.017
 1075SOL     OW 4123   5.775   1.170   3.763
 1075SOL    HW1 4124   5.693   1.122   3.732
 1075SOL    HW2 4125   5.774   1.176   3.863
 1076SOL     OW 4126   0.812   2.929   5.224
 1076SOL    HW1 4127   0.867   2.897   5.302
 1076SOL    HW2 4128   0.743   2.860   5.202
 1077SOL     OW 4129   0.231   6.512   0.482
 1077SOL    HW1 4130   0.326   6.494   0.455
 1077SOL    HW2 4131   0.221   6.609   0.504
 1078SOL     OW 4132   6.391   0.392   2.964
 1078SOL    HW1 4133   6.385   0.350   3.054
 1078SOL    HW2 4134   6.341   0.336   2.897
 1079SOL     OW 4135   1.664   4.813   2.068
 1079SOL    HW1 4136   1.611   4.728   2.066
 1079SOL    HW2 4137   1.689   4.839   1.975
 1080SOL     OW 4138   2.671   5.800   4.277
 1080SOL    HW1 4139   2.692   5.896   4.261
 1080SOL    HW2 4140   2.665   5.782   4.375
 1081SOL     OW 4141   6.720   5.364   5.073
 1081SOL    HW1 4142   6.717   5.408   5.162
 1081SOL    HW2 4143   6.785   5.288   5.075
 1082SOL     OW 4144   5.778   2.119   5.710
 1082SOL    HW1 4145   5.878   2.125   5.708
 1082SOL    HW2 4146   5.748   2.073   5.794
 1083SOL     OW 4147   4.793   3.126   6.814
 1083SOL    HW1 4148   4.795   3.096   6.719
 1083SOL    HW2 4149   4.703   3.163   6.836
 1084SOL     OW 4150   6.760   6.573   6.805
 1084SOL    HW1 4151   6.852   6.591   6.841
 1084SOL    HW2 4152   6.727   6.655   6.758
 1085SOL     OW 4153   2.067   3.399   3.920
 1085SOL    HW1 4154   2.060   3.390   4.020
 1085SOL    HW2 4155   2.089   3.310   3.880
 1086SOL     OW 4156   6.858   5.216   6.517
 1086SOL    HW1 4157   6.827   5.311   6.513
 1086SOL    HW2 4158   6.822   5.165   6.439
 1087SOL     OW 4159   0.990   1.628   5.525
 1087SOL    HW1 4160   1.058   1.695   5.556
 1087SOL    HW2 4161   0.953   1.658   5.437
 1088SOL     OW 4162   0.191   4.844   3.232
 1088SOL    HW1 4163   0.243   4.906   3.173
 1088SOL    HW2 4164   0.231   4.845   3.324
 1089SOL     OW 4165   1.141   6.064   5.107
 1089SOL    HW1 4166   1.084   6.108   5.037
 1089SOL    HW2 4167   1.121   5.966   5.110
 1090SOL     OW 4168   4.374   2.005   3.060
 1090SOL    HW1 4169   4.408   2.002   2.966
 1090SOL    HW2 4170   4.417   1.932   3.113
 1091SOL     OW 4171   2.155   3.640   3.514
 1091SOL    HW1 4172   2.168   3.706   3.588
 1091SOL    HW2 4173   2.104   3.561   3.549
 1092SOL     OW 4174   0.899   5.316   0.503
 1092SOL    HW1 4175   0.962   5.302   0.427
 1092SOL    HW2 4176   0.906   5.411   0.535
 1093SOL     OW 4177   2.481   6.808   1.726
 1093SOL    HW1 4178   2.574   6.844   1.725
 1093SOL    HW2 4179   2.443   6.814   1.818
 1094SOL     OW 4180   0.835   6.753   2.665
 1094SOL    HW1 4181   0.804   6.817   2.735
 1094SOL    HW2 4182   0.814   6.791   2.575
 1095SOL     OW 4183   0.492   2.293   6.956
 1095SOL    HW1 4184   0.427   2.367   6.972
 1095SOL    HW2 4185   0.585   2.328   6.962
 1096SOL     OW 4186   3.742   4.365   1.439
 1096SOL    HW1 4187   3.744   4.451   1.389
 1096SOL    HW2 4188   3.683   4.375   1.520
 1097SOL     OW 4189   2.293   5.152   2.907
 1097SOL    HW1 4190   2.281   5.054   2.922
 1097SOL    HW2 4191   2.280   5.173   2.810
 1098SOL     OW 4192   6.276   4.029   6.533
 1098SOL    HW1 4193   6.351   3.975   6.571
 1098SOL    HW2 4194   6.199   4.030   6.597
 1099SOL     OW 4195   4.744   1.152   6.571
 1099SOL    HW1 4196   4.790   1.189   6.652
 1099SOL    HW2 4197   4.661   1.104   6.598
 1100SOL     OW 4198   4.055   1.250   4.110
 1100SOL    HW1 4199   4.139   1.198   4.120
 1100SOL    HW2 4200   4.018   1.236   4.018
 1101SOL     OW 4201   5.531   4.345   5.120
 1101SOL    HW1 4202   5.567   4.420   5.176
 1101SOL    HW2 4203   5.448   4.308   5.163
 1102SOL     OW 4204   2.396   1.207   4.649
 1102SOL    HW1 4205   2.297   1.194   4.638
 1102SOL    HW2 4206   2.424   1.173   4.739
 1103SOL     OW 4207   2.377   1.467   0.280
 1103SOL    HW1 4208   2.338   1.514   0.359
 1103SOL    HW2 4209   2.314   1.475   0.202
 1104SOL     OW 4210   1.682   3.902   3.838
 1104SOL    HW1 4211   1.670   3.803   3.833
 1104SOL    HW2 4212   1.743   3.933   3.765
 1105SOL     OW 4213   5.441   3.103   4.547
 1105SOL    HW1 4214   5.507   3.147   4.485
 1105SOL    HW2 4215   5.363   3.070   4.494
 1106SOL     OW 4216   0.058   1.583   0.888
 1106SOL    HW1 4217   0.084   1.555   0.796
 1106SOL    HW2 4218   0.125   1.549   0.953
 1107SOL     OW 4219   0.758   0.690   0.191
 1107SOL    HW1 4220   0.701   0.679   0.110
 1107SOL    HW2 4221   0.735   0.619   0.258
 1108SOL     OW 4222   3.523   6.649   5.374
 1108SOL    HW1 4223   3.545   6.637   5.277
 1108SOL    HW2 4224   3.484   6.740   5.389
 1109SOL     OW 4225   5.610   1.225   4.323
 1109SOL    HW1 4226   5.631   1.322   4.315
 1109SOL    HW2 4227   5.547   1.198   4.250
 1110SOL     OW 4228   3.709   1.002   3.584
 1110SOL    HW1 4229   3.789   0.945   3.603
 1110SOL    HW2 4230   3.720   1.092   3.628
 1111SOL     OW 4231   5.640   4.399   6.326
 1111SOL    HW1 4232   5.702   4.474   6.346
 1111SOL    HW2 4233   5.644   4.332   6.400
 1112SOL     OW 4234   6.409   0.319   3.216
 1112SOL    HW1 4235   6.492   0.271   3.246
 1112SOL    HW2 4236   6.385   0.388   3.285
 1113SOL     OW 4237   6.084   4.424   1.479
 1113SOL    HW1 4238   6.170   4.384   1.450
 1113SOL    HW2 4239   6.016   4.352   1.492
 1114SOL     OW 4240   3.352   1.848   6.138
 1114SOL    HW1 4241   3.279   1.905   6.102
 1114SOL    HW2 4242   3.423   1.837   6.068
 1115SOL     OW 4243   4.181   3.958   5.242
 1115SOL    HW1 4244   4.172   4.052   5.275
 1115SOL    HW2 4245   4.274   3.925   5.262
 1116SOL     OW 4246   5.823   0.018   6.977
 1116SOL    HW1 4247   5.787   6.986   6.901
 1116SOL    HW2 4248   5.752   0.080   7.011
 1117SOL     OW 4249   0.472   1.783   1.400
 1117SOL    HW1 4250   0.413   1.705   1.422
 1117SOL    HW2 4251   0.566   1.762   1.428
 1118SOL     OW 4252   2.334   5.518   0.537
 1118SOL    HW1 4253   2.263   5.586   0.527
 1118SOL    HW2 4254   2.424   5.562   0.533
 1119SOL     OW 4255   4.255   4.430   1.759
 1119SOL    HW1 4256   4.164   4.435   1.719
 1119SOL    HW2 4257   4.280   4.334   1.773
 1120SOL     OW 4258   6.295   5.947   1.179
 1120SOL    HW1 4259   6.250   6.031   1.209
 1120SOL    HW2 4260   6.251   5.913   1.096
 1121SOL     OW 4261   0.203   4.552   5.000
 1121SOL    HW1 4262   0.154   4.570   4.915
 1121SOL    HW2 4263   0.157   4.480   5.051
 1122SOL     OW 4264   6.080   2.962   2.172
 1122SOL    HW1 4265   6.115   2.910   2.095
 1122SOL    HW2 4266   6.111   2.921   2.258
 1123SOL     OW 4267   4.810   2.222   3.791
 1123SOL    HW1 4268   4.722   2.187   3.758
 1123SOL    HW2 4269   4.871   2.237   3.714
 1124SOL     OW 4270   0.605   3.993   6.068
 1124SOL    HW1 4271   0.664   3.933   6.014
 1124SOL    HW2 4272   0.516   3.949   6.080
 1125SOL     OW 4273   1.712   2.549   3.946
 1125SOL    HW1 4274   1.714   2.547   4.046
 1125SOL    HW2 4275   1.671   2.636   3.916
 1126SOL     OW 4276   5.625   5.923   5.357
 1126SOL    HW1 4277   5.607   6.008   5.407
 1126SOL    HW2 4278   5.547   5.861   5.369
 1127SOL     OW 4279   5.674   6.303   4.688
 1127SOL    HW1 4280   5.596   6.330   4.744
 1127SOL    HW2 4281   5.665   6.342   4.597
 1128SOL     OW 4282   6.131   1.750   4.961
 1128SOL    HW1 4283   6.152   1.736   5.058
 1128SOL    HW2 4284   6.216   1.764   4.911
 1129SOL     OW 4285   1.801   6.685   0.816
 1129SOL    HW1 4286   1.896   6.705   0.843
 1129SOL    HW2 4287   1.769   6.604   0.866
 1130SOL     OW 4288   1.862   4.946   1.542
 1130SOL    HW1 4289   1.856   5.046   1.547
 1130SOL    HW2 4290   1.857   4.917   1.447
 1131SOL     OW 4291   1.502   0.660   4.933
 1131SOL    HW1 4292   1.577   0.607   4.895
 1131SOL    HW2 4293   1.491   0.637   5.030
 1132SOL     OW 4294   3.822   0.392   3.052
 1132SOL    HW1 4295   3.870   0.479   3.042
 1132SOL    HW2 4296   3.744   0.403   3.113
 1133SOL     OW 4297   0.594   0.889   0.329
 1133SOL    HW1 4298   0.624   0.982   0.310
 1133SOL    HW2 4299   0.642   0.825   0.269
 1134SOL     OW 4300   5.404   6.854   2.879
 1134SOL    HW1 4301   5.476   6.851   2.810
 1134SOL    HW2 4302   5.436   6.904   2.960
 1135SOL     OW 4303   2.420   6.564   3.993
 1135SOL    HW1 4304   2.440   6.591   4.088
 1135SOL    HW2 4305   2.416   6.645   3.936
 1136SOL     OW 4306   3.465   4.928   2.964
 1136SOL    HW1 4307   3.548   4.873   2.974
 1136SOL    HW2 4308   3.490   5.023   2.948
 1137SOL     OW 4309   0.927   5.982   0.098
 1137SOL    HW1 4310   0.915   5.999   0.196
 1137SOL    HW2 4311   0.846   6.013   0.048
 1138SOL     OW 4312   1.031   1.720   4.869
 1138SOL    HW1 4313   1.089   1.800   4.883
 1138SOL    HW2 4314   1.054   1.650   4.937
 1139SOL     OW 4315   2.607   4.983   4.070
 1139SOL    HW1 4316   2.543   5.038   4.123
 1139SOL    HW2 4317   2.567   4.893   4.050
 1140SOL     OW 4318   2.560   0.266   2.612
 1140SOL    HW1 4319   2.640   0.303   2.564
 1140SOL    HW2 4320   2.509   0.206   2.550
 1141SOL     OW 4321   6.607   5.913   6.826
 1141SOL    HW1 4322   6.571   5.827   6.861
 1141SOL    HW2 4323   6.531   5.967   6.788
 1142SOL     OW 4324   2.822   0.140   3.647
 1142SOL    HW1 4325   2.735   0.150   3.696
 1142SOL    HW2 4326   2.866   0.229   3.640
 1143SOL     OW 4327   1.521   3.182   2.752
 1143SOL    HW1 4328   1.500   3.267   2.800
 1143SOL    HW2 4329   1.620   3.176   2.738
 1144SOL     OW 4330   5.519   4.242   3.176
 1144SOL    HW1 4331   5.428   4.235   3.135
 1144SOL    HW2 4332   5.562   4.327   3.148
 1145SOL     OW 4333   1.371   2.877   0.763
 1145SOL    HW1 4334   1.319   2.961   0.751
 1145SOL    HW2 4335   1.440   2.891   0.834
 1146SOL     OW 4336   0.769   1.748   1.403
 1146SOL    HW1 4337   0.763   1.808   1.323
 1146SOL    HW2 4338   0.864   1.720   1.416
 1147SOL     OW 4339   2.736   5.883   0.763
 1147SOL    HW1 4340   2.765   5.799   0.809
 1147SOL    HW2 4341   2.789   5.895   0.679
 1148SOL     OW 4342   3.906   6.244   0.981
 1148SOL    HW1 4343   3.994   6.267   1.022
 1148SOL    HW2 4344   3.845   6.323   0.984
 1149SOL     OW 4345   5.342   2.747   1.734
 1149SOL    HW1 4346   5.434   2.709   1.742
 1149SOL    HW2 4347   5.281   2.677   1.696
 1150SOL     OW 4348   0.358   4.076   0.078
 1150SOL    HW1 4349   0.371   4.046   0.172
 1150SOL    HW2 4350   0.448   4.083   0.033
 1151SOL     OW 4351   6.262   4.852   4.710
 1151SOL    HW1 4352   6.353   4.888   4.729
 1151SOL    HW2 4353   6.193   4.911   4.753
 1152SOL     OW 4354   5.139   6.238   6.174
 1152SOL    HW1 4355   5.207   6.311   6.179
 1152SOL    HW2 4356   5.064   6.258   6.237
 1153SOL     OW 4357   6.681   6.952   1.427
 1153SOL    HW1 4358   6.736   6.882   1.381
 1153SOL    HW2 4359   6.700   6.951   1.525
 1154SOL     OW 4360   0.693   4.067   0.696
 1154SOL    HW1 4361   0.753   3.993   0.667
 1154SOL    HW2 4362   0.745   4.152   0.700
 1155SOL     OW 4363   2.759   5.856   5.920
 1155SOL    HW1 4364   2.685   5.792   5.898
 1155SOL    HW2 4365   2.830   5.850   5.850
 1156SOL     OW 4366   4.529   2.042   4.614
 1156SOL    HW1 4367   4.495   2.135   4.606
 1156SOL    HW2 4368   4.514   1.993   4.528
 1157SOL     OW 4369   5.329   0.838   5.870
 1157SOL    HW1 4370   5.239   0.882   5.873
 1157SOL    HW2 4371   5.355   0.810   5.963
 1158SOL     OW 4372   6.525   5.772   4.632
 1158SOL    HW1 4373   6.498   5.853   4.580
 1158SOL    HW2 4374   6.557   5.800   4.722
 1159SOL     OW 4375   5.852   6.632   3.082
 1159SOL    HW1 4376   5.816   6.718   3.045
 1159SOL    HW2 4377   5.868   6.642   3.180
 1160SOL     OW 4378   4.176   5.350   2.067
 1160SOL    HW1 4379   4.216   5.433   2.028
 1160SOL    HW2 4380   4.076   5.352   2.056
 1161SOL     OW 4381   0.469   5.736   6.555
 1161SOL    HW1 4382   0.541   5.784   6.605
 1161SOL    HW2 4383   0.494   5.641   6.543
 1162SOL     OW 4384   2.503   2.707   5.557
 1162SOL    HW1 4385   2.556   2.755   5.487
 1162SOL    HW2 4386   2.517   2.609   5.549
 1163SOL     OW 4387   5.908   4.791   2.004
 1163SOL    HW1 4388   5.932   4.761   2.096
 1163SOL    HW2 4389   5.991   4.797   1.948
 1164SOL     OW 4390   5.159   2.869   5.576
 1164SOL    HW1 4391   5.075   2.851   5.524
 1164SOL    HW2 4392   5.165   2.966   5.597
 1165SOL     OW 4393   3.939   5.623   3.242
 1165SOL    HW1 4394   3.946   5.527   3.269
 1165SOL    HW2 4395   4.030   5.656   3.216
 1166SOL     OW 4396   2.231   6.014   6.719
 1166SOL    HW1 4397   2.191   6.079   6.655
 1166SOL    HW2 4398   2.328   6.034   6.732
 1167SOL     OW 4399   4.930   5.087   0.722
 1167SOL    HW1 4400   4.961   5.179   0.698
 1167SOL    HW2 4401   4.833   5.090   0.747
 1168SOL     OW 4402   6.620   2.673   1.274
 1168SOL    HW1 4403   6.674   2.738   1.327
 1168SOL    HW2 4404   6.595   2.595   1.332
 1169SOL     OW 4405   5.402   2.093   5.311
 1169SOL    HW1 4406   5.496   2.065   5.330
 1169SOL    HW2 4407   5.378   2.065   5.218
 1170SOL     OW 4408   5.791   6.878   2.969
 1170SOL    HW1 4409   5.821   6.929   3.049
 1170SOL    HW2 4410   5.727   6.934   2.916
 1171SOL     OW 4411   2.688   6.822   0.032
 1171SOL    HW1 4412   2.691   6.838   0.131
 1171SOL    HW2 4413   2.726   6.732   0.012
 1172SOL     OW 4414   5.401   4.173   1.060
 1172SOL    HW1 4415   5.324   4.121   1.022
 1172SOL    HW2 4416   5.389   4.182   1.159
 1173SOL     OW 4417   3.126   1.374   1.206
 1173SOL    HW1 4418   3.170   1.427   1.279
 1173SOL    HW2 4419   3.072   1.300   1.247
 1174SOL     OW 4420   3.629   3.925   2.040
 1174SOL    HW1 4421   3.677   3.879   2.115
 1174SOL    HW2 4422   3.539   3.955   2.071
 1175SOL     OW 4423   4.903   3.565   6.231
 1175SOL    HW1 4424   4.815   3.593   6.270
 1175SOL    HW2 4425   4.956   3.515   6.299
 1176SOL     OW 4426   5.083   3.411   0.083
 1176SOL    HW1 4427   5.067   3.418   0.181
 1176SOL    HW2 4428   5.030   3.482   0.036
 1177SOL     OW 4429   6.748   3.752   4.946
 1177SOL    HW1 4430   6.834   3.787   4.983
 1177SOL    HW2 4431   6.755   3.745   4.846
 1178SOL     OW 4432   2.675   3.988   0.636
 1178SOL    HW1 4433   2.662   4.086   0.622
 1178SOL    HW2 4434   2.687   3.943   0.548
 1179SOL     OW 4435   2.388   5.948   0.481
 1179SOL    HW1 4436   2.338   5.930   0.396
 1179SOL    HW2 4437   2.476   5.991   0.459
 1180SOL     OW 4438   3.083   6.327   4.033
 1180SOL    HW1 4439   3.058   6.373   3.948
 1180SOL    HW2 4440   3.013   6.258   4.055
 1181SOL     OW 4441   0.550   5.102   5.997
 1181SOL    HW1 4442   0.477   5.055   6.047
 1181SOL    HW2 4443   0.551   5.199   6.022
 1182SOL     OW 4444   3.977   4.807   3.476
 1182SOL    HW1 4445   4.015   4.841   3.562
 1182SOL    HW2 4446   4.051   4.786   3.413
 1183SOL     OW 4447   2.360   3.861   6.883
 1183SOL    HW1 4448   2.361   3.764   6.905
 1183SOL    HW2 4449   2.344   3.873   6.785
 1184SOL     OW 4450   6.873   1.037   4.808
 1184SOL    HW1 4451   6.835   0.949   4.837
 1184SOL    HW2 4452   6.875   1.100   4.885
 1185SOL     OW 4453   0.610   1.664   0.757
 1185SOL    HW1 4454   0.676   1.726   0.801
 1185SOL    HW2 4455   0.568   1.606   0.826
 1186SOL     OW 4456   5.904   6.710   5.877
 1186SOL    HW1 4457   5.870   6.687   5.786
 1186SOL    HW2 4458   5.879   6.804   5.899
 1187SOL     OW 4459   6.278   6.631   6.910
 1187SOL    HW1 4460   6.223   6.683   6.975
 1187SOL    HW2 4461   6.362   6.600   6.955
 1188SOL     OW 4462   3.988   6.097   5.583
 1188SOL    HW1 4463   3.912   6.162   5.575
 1188SOL    HW2 4464   4.052   6.111   5.508
 1189SOL     OW 4465   6.134   2.570   1.505
 1189SOL    HW1 4466   6.093   2.489   1.464
 1189SOL    HW2 4467   6.212   2.543   1.561
 1190SOL     OW 4468   2.883   5.392   3.765
 1190SOL    HW1 4469   2.806   5.349   3.812
 1190SOL    HW2 4470   2.966   5.337   3.778
 1191SOL     OW 4471   4.561   5.367   3.902
 1191SOL    HW1 4472   4.650   5.403   3.931
 1191SOL    HW2 4473   4.543   5.280   3.948
 1192SOL     OW 4474   4.222   5.312   2.759
 1192SOL    HW1 4475   4.235   5.247   2.684
 1192SOL    HW2 4476   4.179   5.265   2.836
 1193SOL     OW 4477   6.223   3.163   5.516
 1193SOL    HW1 4478   6.140   3.120   5.552
 1193SOL    HW2 4479   6.241   3.127   5.424
 1194SOL     OW 4480   5.948   0.151   1.531
 1194SOL    HW1 4481   5.908   0.238   1.557
 1194SOL    HW2 4482   5.941   0.138   1.432
 1195SOL     OW 4483   6.788   4.255   0.853
 1195SOL    HW1 4484   6.758   4.162   0.873
 1195SOL    HW2 4485   6.718   4.302   0.798
 1196SOL     OW 4486   0.225   5.533   2.750
 1196SOL    HW1 4487   0.250   5.558   2.656
 1196SOL    HW2 4488   0.207   5.435   2.754
 1197SOL     OW 4489   4.446   0.759   5.031
 1197SOL    HW1 4490   4.416   0.735   4.939
 1197SOL    HW2 4491   4.472   0.856   5.033
 1198SOL     OW 4492   1.263   2.631   2.171
 1198SOL    HW1 4493   1.180   2.617   2.224
 1198SOL    HW2 4494   1.331   2.679   2.227
 1199SOL     OW 4495   3.927   3.796   1.521
 1199SOL    HW1 4496   3.988   3.745   1.582
 1199SOL    HW2 4497   3.901   3.738   1.444
 1200SOL     OW 4498   3.390   3.836   4.081
 1200SOL    HW1 4499   3.316   3.899   4.105
 1200SOL    HW2 4500   3.463   3.886   4.035
 1201SOL     OW 4501   0.826   0.813   4.191
 1201SOL    HW1 4502   0.846   0.715   4.189
 1201SOL    HW2 4503   0.829   0.845   4.286
 1202SOL     OW 4504   0.517   5.686   5.700
 1202SOL    HW1 4505   0.575   5.610   5.731
 1202SOL    HW2 4506   0.450   5.652   5.634
 1203SOL     OW 4507   6.161   5.845   6.865
 1203SOL    HW1 4508   6.072   5.819   6.829
 1203SOL    HW2 4509   6.228   5.847   6.790
 1204SOL     OW 4510   3.442   6.304   1.420
 1204SOL    HW1 4511   3.468   6.354   1.503
 1204SOL    HW2 4512   3.474   6.354   1.339
 1205SOL     OW 4513   4.640   3.673   1.126
 1205SOL    HW1 4514   4.540   3.670   1.128
 1205SOL    HW2 4515   4.675   3.663   1.219
 1206SOL     OW 4516   2.944   2.762   5.376
 1206SOL    HW1 4517   3.000   2.680   5.365
 1206SOL    HW2 4518   3.001   2.843   5.362
 1207SOL     OW 4519   2.072   6.195   1.094
 1207SOL    HW1 4520   2.005   6.158   1.158
 1207SOL    HW2 4521   2.025   6.222   1.010
 1208SOL     OW 4522   3.255   3.856   1.366
 1208SOL    HW1 4523   3.277   3.818   1.455
 1208SOL    HW2 4524   3.156   3.874   1.360
 1209SOL     OW 4525   4.638   1.310   4.718
 1209SOL    HW1 4526   4.629   1.210   4.720
 1209SOL    HW2 4527   4.628   1.346   4.811
 1210SOL     OW 4528   3.077   0.668   3.477
 1210SOL    HW1 4529   3.029   0.650   3.392
 1210SOL    HW2 4530   3.050   0.758   3.512
 1211SOL     OW 4531   1.106   3.884   1.421
 1211SOL    HW1 4532   1.071   3.900   1.514
 1211SOL    HW2 4533   1.193   3.836   1.426
 1212SOL     OW 4534   6.262   0.605   0.091
 1212SOL    HW1 4535   6.290   0.669   0.162
 1212SOL    HW2 4536   6.168   0.575   0.109
 1213SOL     OW 4537   6.970   1.844   0.138
 1213SOL    HW1 4538   6.914   1.761   0.144
 1213SOL    HW2 4539   6.943   1.908   0.210
 1214SOL     OW 4540   0.718   2.589   6.663
 1214SOL    HW1 4541   0.769   2.675   6.674
 1214SOL    HW2 4542   0.732   2.553   6.571
 1215SOL     OW 4543   0.811   4.549   3.524
 1215SOL    HW1 4544   0.848   4.456   3.516
 1215SOL    HW2 4545   0.714   4.543   3.546
 1216SOL     OW 4546   4.834   0.534   1.139
 1216SOL    HW1 4547   4.741   0.565   1.118
 1216SOL    HW2 4548   4.864   0.469   1.070
 1217SOL     OW 4549   2.407   4.836   0.179
 1217SOL    HW1 4550   2.307   4.835   0.184
 1217SOL    HW2 4551   2.440   4.929   0.196
 1218SOL     OW 4552   2.316   4.182   4.522
 1218SOL    HW1 4553   2.337   4.216   4.430
 1218SOL    HW2 4554   2.233   4.126   4.518
 1219SOL     OW 4555   5.729   6.201   1.904
 1219SOL    HW1 4556   5.668   6.240   1.973
 1219SOL    HW2 4557   5.822   6.231   1.921
 1220SOL     OW 4558   1.187   4.858   3.428
 1220SOL    HW1 4559   1.185   4.759   3.411
 1220SOL    HW2 4560   1.281   4.887   3.442
 1221SOL     OW 4561   5.886   3.949   6.023
 1221SOL    HW1 4562   5.798   3.925   5.982
 1221SOL    HW2 4563   5.960   3.910   5.969
 1222SOL     OW 4564   6.641   6.783   6.693
 1222SOL    HW1 4565   6.671   6.842   6.617
 1222SOL    HW2 4566   6.568   6.829   6.743
 1223SOL     OW 4567   4.211   0.767   0.907
 1223SOL    HW1 4568   4.144   0.718   0.964
 1223SOL    HW2 4569   4.182   0.862   0.896
 1224SOL     OW 4570   3.021   5.445   0.117
 1224SOL    HW1 4571   2.975   5.379   0.058
 1224SOL    HW2 4572   2.953   5.493   0.172
 1225SOL     OW 4573   3.415   3.340   6.964
 1225SOL    HW1 4574   3.507   3.360   6.932
 1225SOL    HW2 4575   3.352   3.411   6.932
 1226SOL     OW 4576   2.342   5.336   1.241
 1226SOL    HW1 4577   2.386   5.293   1.320
 1226SOL    HW2 4578   2.243   5.324   1.246
 1227SOL     OW 4579   6.778   3.712   0.200
 1227SOL    HW1 4580   6.750   3.808   0.206
 1227SOL    HW2 4581   6.699   3.657   0.173
 1228SOL     OW 4582   4.725   2.435   6.550
 1228SOL    HW1 4583   4.721   2.407   6.645
 1228SOL    HW2 4584   4.650   2.497   6.530
 1229SOL     OW 4585   3.746   5.220   6.081
 1229SOL    HW1 4586   3.712   5.268   6.162
 1229SOL    HW2 4587   3.721   5.123   6.087
 1230SOL     OW 4588   4.810   0.314   3.112
 1230SOL    HW1 4589   4.745   0.244   3.144
 1230SOL    HW2 4590   4.883   0.324   3.180
 1231SOL     OW 4591   1.637   3.587   4.109
 1231SOL    HW1 4592   1.594   3.519   4.050
 1231SOL    HW2 4593   1.569   3.654   4.138
 1232SOL     OW 4594   0.300   2.376   5.586
 1232SOL    HW1 4595   0.336   2.457   5.633
 1232SOL    HW2 4596   0.311   2.296   5.645
 1233SOL     OW 4597   1.407   3.727   3.924
 1233SOL    HW1 4598   1.393   3.753   3.829
 1233SOL    HW2 4599   1.324   3.683   3.959
 1234SOL     OW 4600   6.356   3.880   4.739
 1234SOL    HW1 4601   6.407   3.829   4.670
 1234SOL    HW2 4602   6.259   3.855   4.735
 1235SOL     OW 4603   6.876   5.594   2.310
 1235SOL    HW1 4604   6.972   5.618   2.302
 1235SOL    HW2 4605   6.832   5.652   2.378
 1236SOL     OW 4606   5.285   1.000   0.240
 1236SOL    HW1 4607   5.190   1.031   0.230
 1236SOL    HW2 4608   5.340   1.036   0.165
 1237SOL     OW 4609   1.855   4.850   5.582
 1237SOL    HW1 4610   1.816   4.771   5.534
 1237SOL    HW2 4611   1.837   4.842   5.680
 1238SOL     OW 4612   2.233   0.788   0.120
 1238SOL    HW1 4613   2.144   0.781   0.075
 1238SOL    HW2 4614   2.265   0.882   0.118
 1239SOL     OW 4615   6.891   6.570   6.400
 1239SOL    HW1 4616   6.991   6.570   6.391
 1239SOL    HW2 4617   6.854   6.653   6.359
 1240SOL     OW 4618   5.592   6.017   1.725
 1240SOL    HW1 4619   5.619   6.096   1.780
 1240SOL    HW2 4620   5.612   6.035   1.629
 1241SOL     OW 4621   6.365   4.316   4.053
 1241SOL    HW1 4622   6.363   4.410   4.088
 1241SOL    HW2 4623   6.275   4.292   4.016
 1242SOL     OW 4624   0.160   3.713   1.695
 1242SOL    HW1 4625   0.138   3.616   1.693
 1242SOL    HW2 4626   0.076   3.766   1.689
 1243SOL     OW 4627   0.544   6.796   5.040
 1243SOL    HW1 4628   0.519   6.893   5.036
 1243SOL    HW2 4629   0.552   6.759   4.947
 1244SOL     OW 4630   6.583   6.907   3.622
 1244SOL    HW1 4631   6.644   6.952   3.688
 1244SOL    HW2 4632   6.638   6.859   3.554
 1245SOL     OW 4633   4.937   4.226   6.379
 1245SOL    HW1 4634   4.884   4.307   6.404
 1245SOL    HW2 4635   4.924   4.206   6.282
 1246SOL     OW 4636   2.137   5.998   1.348
 1246SOL    HW1 4637   2.050   6.036   1.318
 1246SOL    HW2 4638   2.208   6.069   1.342
 1247SOL     OW 4639   2.581   0.129   6.617
 1247SOL    HW1 4640   2.653   0.182   6.572
 1247SOL    HW2 4641   2.529   0.078   6.548
 1248SOL     OW 4642   2.553   0.042   4.189
 1248SOL    HW1 4643   2.606   0.117   4.227
 1248SOL    HW2 4644   2.614   7.002   4.139
 1249SOL     OW 4645   5.673   2.345   2.213
 1249SOL    HW1 4646   5.603   2.335   2.143
 1249SOL    HW2 4647   5.763   2.324   2.173
 1250SOL     OW 4648   6.645   4.878   4.498
 1250SOL    HW1 4649   6.738   4.871   4.532
 1250SOL    HW2 4650   6.645   4.919   4.407
 1251SOL     OW 4651   2.800   6.635   4.267
 1251SOL    HW1 4652   2.859   6.638   4.187
 1251SOL    HW2 4653   2.779   6.728   4.297
 1252SOL     OW 4654   3.718   3.544   5.886
 1252SOL    HW1 4655   3.673   3.462   5.922
 1252SOL    HW2 4656   3.787   3.574   5.952
 1253SOL     OW 4657   3.253   5.235   1.430
 1253SOL    HW1 4658   3.224   5.161   1.491
 1253SOL    HW2 4659   3.194   5.315   1.444
 1254SOL     OW 4660   6.620   3.293   2.498
 1254SOL    HW1 4661   6.673   3.273   2.580
 1254SOL    HW2 4662   6.597   3.208   2.451
 1255SOL     OW 4663   6.521   1.919   4.783
 1255SOL    HW1 4664   6.479   1.994   4.732
 1255SOL    HW2 4665   6.591   1.875   4.727
 1256SOL     OW 4666   6.734   6.709   3.460
 1256SOL    HW1 4667   6.660   6.644   3.443
 1256SOL    HW2 4668   6.793   6.675   3.533
 1257SOL     OW 4669   6.339   6.741   3.860
 1257SOL    HW1 4670   6.319   6.754   3.762
 1257SOL    HW2 4671   6.410   6.806   3.888
 1258SOL     OW 4672   1.443   5.196   3.763
 1258SOL    HW1 4673   1.476   5.185   3.670
 1258SOL    HW2 4674   1.415   5.107   3.800
 1259SOL     OW 4675   3.480   1.744   4.273
 1259SOL    HW1 4676   3.486   1.645   4.279
 1259SOL    HW2 4677   3.540   1.777   4.200
 1260SOL     OW 4678   1.487   1.419   6.349
 1260SOL    HW1 4679   1.453   1.508   6.379
 1260SOL    HW2 4680   1.486   1.355   6.427
 1261SOL     OW 4681   0.001   5.634   6.714
 1261SOL    HW1 4682   0.042   5.550   6.751
 1261SOL    HW2 4683   0.072   5.703   6.701
 1262SOL     OW 4684   5.419   5.316   1.146
 1262SOL    HW1 4685   5.368   5.246   1.195
 1262SOL    HW2 4686   5.382   5.406   1.168
 1263SOL     OW 4687   0.409   1.351   2.807
 1263SOL    HW1 4688   0.416   1.402   2.893
 1263SOL    HW2 4689   0.491   1.294   2.795
 1264SOL     OW 4690   0.257   4.093   6.632
 1264SOL    HW1 4691   0.337   4.153   6.624
 1264SOL    HW2 4692   0.185   4.140   6.683
 1265SOL     OW 4693   6.063   5.184   4.554
 1265SOL    HW1 4694   6.145   5.127   4.557
 1265SOL    HW2 4695   6.001   5.149   4.483
 1266SOL     OW 4696   0.533   0.562   4.221
 1266SOL    HW1 4697   0.490   0.645   4.186
 1266SOL    HW2 4698   0.585   0.517   4.148
 1267SOL     OW 4699   4.939   1.348   1.455
 1267SOL    HW1 4700   4.870   1.356   1.526
 1267SOL    HW2 4701   4.989   1.262   1.467
 1268SOL     OW 4702   2.685   2.818   6.780
 1268SOL    HW1 4703   2.765   2.873   6.803
 1268SOL    HW2 4704   2.715   2.726   6.752
 1269SOL     OW 4705   5.794   2.871   3.783
 1269SOL    HW1 4706   5.731   2.898   3.710
 1269SOL    HW2 4707   5.824   2.952   3.833
 1270SOL     OW 4708   2.293   4.726   2.494
 1270SOL    HW1 4709   2.342   4.795   2.440
 1270SOL    HW2 4710   2.353   4.648   2.511
 1271SOL     OW 4711   3.287   1.257   2.109
 1271SOL    HW1 4712   3.374   1.244   2.061
 1271SOL    HW2 4713   3.254   1.168   2.141
 1272SOL     OW 4714   6.280   4.534   6.673
 1272SOL    HW1 4715   6.244   4.569   6.760
 1272SOL    HW2 4716   6.204   4.504   6.616
 1273SOL     OW 4717   1.272   3.773   5.105
 1273SOL    HW1 4718   1.221   3.705   5.157
 1273SOL    HW2 4719   1.331   3.727   5.039
 1274SOL     OW 4720   0.580   4.386   0.958
 1274SOL    HW1 4721   0.509   4.317   0.942
 1274SOL    HW2 4722   0.588   4.403   1.056
 1275SOL     OW 4723   3.238   0.982   3.337
 1275SOL    HW1 4724   3.168   0.978   3.408
 1275SOL    HW2 4725   3.281   0.892   3.327
 1276SOL     OW 4726   5.404   5.317   4.863
 1276SOL    HW1 4727   5.406   5.228   4.819
 1276SOL    HW2 4728   5.321   5.366   4.835
 1277SOL     OW 4729   1.742   5.191   0.052
 1277SOL    HW1 4730   1.643   5.180   0.048
 1277SOL    HW2 4731   1.779   5.184   6.981
 1278SOL     OW 4732   1.494   0.041   4.027
 1278SOL    HW1 4733   1.591   0.055   4.044
 1278SOL    HW2 4734   1.481   0.000   3.936
 1279SOL     OW 4735   2.323   4.573   6.173
 1279SOL    HW1 4736   2.281   4.541   6.088
 1279SOL    HW2 4737   2.362   4.664   6.159
 1280SOL     OW 4738   4.283   0.169   4.015
 1280SOL    HW1 4739   4.289   0.264   4.046
 1280SOL    HW2 4740   4.373   0.138   3.984
 1281SOL     OW 4741   2.818   6.043   3.776
 1281SOL    HW1 4742   2.900   6.033   3.833
 1281SOL    HW2 4743   2.833   6.117   3.710
 1282SOL     OW 4744   0.168   2.433   7.016
 1282SOL    HW1 4745   0.190   2.412   6.921
 1282SOL    HW2 4746   0.159   2.348   0.046
 1283SOL     OW 4747   6.469   3.749   5.494
 1283SOL    HW1 4748   6.514   3.661   5.508
 1283SOL    HW2 4749   6.378   3.734   5.456
 1284SOL     OW 4750   4.020   0.623   1.024
 1284SOL    HW1 4751   4.015   0.637   1.123
 1284SOL    HW2 4752   3.928   0.602   0.989
 1285SOL     OW 4753   4.650   1.209   5.243
 1285SOL    HW1 4754   4.685   1.118   5.259
 1285SOL    HW2 4755   4.725   1.275   5.242
 1286SOL     OW 4756   4.426   2.308   0.887
 1286SOL    HW1 4757   4.466   2.217   0.882
 1286SOL    HW2 4758   4.461   2.356   0.967
 1287SOL     OW 4759   5.179   4.798   5.134
 1287SOL    HW1 4760   5.215   4.889   5.113
 1287SOL    HW2 4761   5.081   4.805   5.153
 1288SOL     OW 4762   4.220   4.933   5.469
 1288SOL    HW1 4763   4.256   4.964   5.381
 1288SOL    HW2 4764   4.221   5.010   5.534
 1289SOL     OW 4765   0.263   0.936   1.957
 1289SOL    HW1 4766   0.216   0.848   1.966
 1289SOL    HW2 4767   0.204   1.008   1.993
 1290SOL     OW 4768   1.713   0.019   1.139
 1290SOL    HW1 4769   1.701   6.978   1.062
 1290SOL    HW2 4770   1.784   0.086   1.117
 1291SOL     OW 4771   0.234   4.746   4.491
 1291SOL    HW1 4772   0.245   4.686   4.412
 1291SOL    HW2 4773   0.194   4.833   4.462
 1292SOL     OW 4774   0.827   5.451   2.240
 1292SOL    HW1 4775   0.840   5.498   2.152
 1292SOL    HW2 4776   0.908   5.463   2.297
 1293SOL     OW 4777   2.941   1.972   0.346
 1293SOL    HW1 4778   2.905   2.014   0.430
 1293SOL    HW2 4779   2.864   1.942   0.289
 1294SOL     OW 4780   1.391   4.314   6.235
 1294SOL    HW1 4781   1.392   4.216   6.212
 1294SOL    HW2 4782   1.436   4.365   6.162
 1295SOL     OW 4783   0.604   3.204   0.779
 1295SOL    HW1 4784   0.597   3.108   0.753
 1295SOL    HW2 4785   0.513   3.245   0.781
 1296SOL     OW 4786   4.657   6.869   5.284
 1296SOL    HW1 4787   4.567   6.911   5.282
 1296SOL    HW2 4788   4.647   6.769   5.290
 1297SOL     OW 4789   0.797   6.395   1.606
 1297SOL    HW1 4790   0.859   6.416   1.531
 1297SOL    HW2 4791   0.725   6.464   1.610
 1298SOL     OW 4792   5.015   6.026   3.521
 1298SOL    HW1 4793   5.010   6.065   3.613
 1298SOL    HW2 4794   4.945   5.955   3.512
 1299SOL     OW 4795   2.031   2.738   3.786
 1299SOL    HW1 4796   2.040   2.661   3.722
 1299SOL    HW2 4797   1.946   2.787   3.766
 1300SOL     OW 4798   1.849   3.313   1.766
 1300SOL    HW1 4799   1.924   3.335   1.704
 1300SOL    HW2 4800   1.840   3.213   1.772
 1301SOL     OW 4801   1.012   6.966   1.845
 1301SOL    HW1 4802   1.004   6.988   1.942
 1301SOL    HW2 4803   0.999   6.868   1.832
 1302SOL     OW 4804   5.293   0.410   5.430
 1302SOL    HW1 4805   5.388   0.379   5.436
 1302SOL    HW2 4806   5.283   0.495   5.481
 1303SOL     OW 4807   4.144   0.895   1.924
 1303SOL    HW1 4808   4.076   0.968   1.921
 1303SOL    HW2 4809   4.153   0.861   2.018
 1304SOL     OW 4810   1.990   1.233   1.462
 1304SOL    HW1 4811   2.009   1.238   1.560
 1304SOL    HW2 4812   2.043   1.157   1.423
 1305SOL     OW 4813   5.620   4.168   6.557
 1305SOL    HW1 4814   5.594   4.194   6.650
 1305SOL    HW2 4815   5.670   4.081   6.559
 1306SOL     OW 4816   1.620   5.843   4.646
 1306SOL    HW1 4817   1.659   5.764   4.600
 1306SOL    HW2 4818   1.618   5.921   4.584
 1307SOL     OW 4819   2.013   3.447   4.185
 1307SOL    HW1 4820   2.057   3.426   4.273
 1307SOL    HW2 4821   2.032   3.541   4.160
 1308SOL     OW 4822   6.772   6.969   6.016
 1308SOL    HW1 4823   6.768   6.997   6.112
 1308SOL    HW2 4824   6.679   6.959   5.981
 1309SOL     OW 4825   5.426   4.531   5.527
 1309SOL    HW1 4826   5.391   4.450   5.481
 1309SOL    HW2 4827   5.387   4.613   5.484
 1310SOL     OW 4828   0.437   4.543   3.282
 1310SOL    HW1 4829   0.456   4.603   3.204
 1310SOL    HW2 4830   0.447   4.595   3.366
 1311SOL     OW 4831   6.496   5.843   6.313
 1311SOL    HW1 4832   6.556   5.822   6.236
 1311SOL    HW2 4833   6.523   5.788   6.393
 1312SOL     OW 4834   1.779   0.300   0.146
 1312SOL    HW1 4835   1.725   0.258   0.073
 1312SOL    HW2 4836   1.827   0.380   0.110
 1313SOL     OW 4837   6.554   4.948   2.360
 1313SOL    HW1 4838   6.533   4.885   2.285
 1313SOL    HW2 4839   6.615   4.903   2.425
 1314SOL     OW 4840   3.051   1.924   4.556
 1314SOL    HW1 4841   3.049   1.994   4.628
 1314SOL    HW2 4842   3.132   1.938   4.499
 1315SOL     OW 4843   6.978   0.707   3.619
 1315SOL    HW1 4844   6.984   0.718   3.520
 1315SOL    HW2 4845   0.020   0.770   3.663
 1316SOL     OW 4846   3.534   0.296   4.823
 1316SOL    HW1 4847   3.500   0.389   4.808
 1316SOL    HW2 4848   3.485   0.255   4.900
 1317SOL     OW 4849   1.290   4.277   5.137
 1317SOL    HW1 4850   1.203   4.319   5.160
 1317SOL    HW2 4851   1.300   4.190   5.186
 1318SOL     OW 4852   1.460   2.672   6.918
 1318SOL    HW1 4853   1.396   2.600   6.942
 1318SOL    HW2 4854   1.546   2.660   6.969
 1319SOL     OW 4855   0.376   5.598   6.983
 1319SOL    HW1 4856   0.424   5.528   6.930
 1319SOL    HW2 4857   0.364   5.680   6.927
 1320SOL     OW 4858   3.056   2.787   6.845
 1320SOL    HW1 4859   3.004   2.868   6.872
 1320SOL    HW2 4860   3.140   2.782   6.899
 1321SOL     OW 4861   4.959   2.367   6.421
 1321SOL    HW1 4862   4.868   2.391   6.454
 1321SOL    HW2 4863   5.027   2.430   6.461
 1322SOL     OW 4864   4.075   1.661   4.360
 1322SOL    HW1 4865   4.008   1.733   4.378
 1322SOL    HW2 4866   4.062   1.626   4.268
 1323SOL     OW 4867   3.467   6.170   0.653
 1323SOL    HW1 4868   3.425   6.086   0.689
 1323SOL    HW2 4869   3.453   6.175   0.554
 1324SOL     OW 4870   0.490   3.524   0.547
 1324SOL    HW1 4871   0.525   3.576   0.469
 1324SOL    HW2 4872   0.502   3.577   0.631
 1325SOL     OW 4873   4.086   6.251   4.902
 1325SOL    HW1 4874   4.006   6.311   4.899
 1325SOL    HW2 4875   4.160   6.298   4.950
 1326SOL     OW 4876   4.764   4.023   5.364
 1326SOL    HW1 4877   4.861   4.031   5.342
 1326SOL    HW2 4878   4.738   3.927   5.362
 1327SOL     OW 4879   0.996   6.350   0.975
 1327SOL    HW1 4880   0.968   6.351   1.071
 1327SOL    HW2 4881   0.999   6.444   0.940
 1328SOL     OW 4882   2.415   3.001   6.970
 1328SOL    HW1 4883   2.432   2.903   6.981
 1328SOL    HW2 4884   2.457   3.032   6.884
 1329SOL     OW 4885   6.719   2.342   2.794
 1329SOL    HW1 4886   6.687   2.385   2.879
 1329SOL    HW2 4887   6.661   2.263   2.773
 1330SOL     OW 4888   0.997   2.208   0.963
 1330SOL    HW1 4889   0.986   2.267   1.042
 1330SOL    HW2 4890   0.915   2.153   0.950
 1331SOL     OW 4891   4.569   2.574   2.968
 1331SOL    HW1 4892   4.617   2.597   3.052
 1331SOL    HW2 4893   4.567   2.654   2.907
 1332SOL     OW 4894   2.645   6.962   0.552
 1332SOL    HW1 4895   2.735   7.001   0.572
 1332SOL    HW2 4896   2.595   6.947   0.638
 1333SOL     OW 4897   2.990   3.837   3.383
 1333SOL    HW1 4898   3.030   3.765   3.326
 1333SOL    HW2 4899   2.891   3.837   3.373
 1334SOL     OW 4900   6.558   1.689   3.899
 1334SOL    HW1 4901   6.596   1.748   3.970
 1334SOL    HW2 4902   6.609   1.602   3.896
 1335SOL     OW 4903   2.148   2.359   2.075
 1335SOL    HW1 4904   2.200   2.276   2.054
 1335SOL    HW2 4905   2.159   2.382   2.171
 1336SOL     OW 4906   4.076   1.244   5.481
 1336SOL    HW1 4907   4.059   1.336   5.516
 1336SOL    HW2 4908   4.172   1.220   5.494
 1337SOL     OW 4909   6.735   1.456   3.147
 1337SOL    HW1 4910   6.815   1.487   3.200
 1337SOL    HW2 4911   6.728   1.510   3.063
 1338SOL     OW 4912   0.232   3.825   4.049
 1338SOL    HW1 4913   0.321   3.862   4.075
 1338SOL    HW2 4914   0.175   3.815   4.130
 1339SOL     OW 4915   6.614   0.672   0.146
 1339SOL    HW1 4916   6.697   0.617   0.151
 1339SOL    HW2 4917   6.554   0.648   0.223
 1340SOL     OW 4918   5.738   1.198   2.543
 1340SOL    HW1 4919   5.674   1.257   2.493
 1340SOL    HW2 4920   5.704   1.104   2.543
 1341SOL     OW 4921   4.150   6.317   0.316
 1341SOL    HW1 4922   4.166   6.328   0.414
 1341SOL    HW2 4923   4.166   6.403   0.269
 1342SOL     OW 4924   2.785   5.409   6.551
 1342SOL    HW1 4925   2.876   5.374   6.571
 1342SOL    HW2 4926   2.783   5.508   6.564
 1343SOL     OW 4927   5.574   5.146   2.903
 1343SOL    HW1 4928   5.482   5.115   2.881
 1343SOL    HW2 4929   5.641   5.082   2.866
 1344SOL     OW 4930   0.328   6.512   4.144
 1344SOL    HW1 4931   0.399   6.456   4.187
 1344SOL    HW2 4932   0.241   6.462   4.145
 1345SOL     OW 4933   0.639   5.073   1.997
 1345SOL    HW1 4934   0.676   5.123   2.075
 1345SOL    HW2 4935   0.544   5.048   2.015
 1346SOL     OW 4936   2.299   5.736   5.855
 1346SOL    HW1 4937   2.214   5.693   5.826
 1346SOL    HW2 4938   2.297   5.834   5.833
 1347SOL     OW 4939   0.681   0.035   6.834
 1347SOL    HW1 4940   0.721   6.992   6.769
 1347SOL    HW2 4941   0.588   0.058   6.806
 1348SOL     OW 4942   6.640   6.531   5.487
 1348SOL    HW1 4943   6.634   6.631   5.486
 1348SOL    HW2 4944   6.553   6.492   5.457
 1349SOL     OW 4945   5.099   2.516   4.332
 1349SOL    HW1 4946   5.146   2.601   4.308
 1349SOL    HW2 4947   5.141   2.476   4.414
 1350SOL     OW 4948   4.532   5.232   5.948
 1350SOL    HW1 4949   4.528   5.162   5.877
 1350SOL    HW2 4950   4.486   5.200   6.031
 1351SOL     OW 4951   5.837   2.594   4.141
 1351SOL    HW1 4952   5.773   2.521   4.118
 1351SOL    HW2 4953   5.788   2.667   4.190
 1352SOL     OW 4954   6.682   6.148   3.962
 1352SOL    HW1 4955   6.645   6.174   3.873
 1352SOL    HW2 4956   6.782   6.159   3.962
 1353SOL     OW 4957   1.201   2.105   0.485
 1353SOL    HW1 4958   1.119   2.103   0.542
 1353SOL    HW2 4959   1.281   2.083   0.542
 1354SOL     OW 4960   6.597   4.286   1.768
 1354SOL    HW1 4961   6.688   4.328   1.760
 1354SOL    HW2 4962   6.607   4.190   1.792
 1355SOL     OW 4963   6.060   3.999   4.212
 1355SOL    HW1 4964   6.114   3.996   4.296
 1355SOL    HW2 4965   5.963   4.009   4.235
 1356SOL     OW 4966   3.696   3.039   1.935
 1356SOL    HW1 4967   3.759   3.073   2.005
 1356SOL    HW2 4968   3.604   3.032   1.974
 1357SOL     OW 4969   0.040   4.683   6.401
 1357SOL    HW1 4970   0.049   4.684   6.302
 1357SOL    HW2 4971   0.093   4.606   6.439
 1358SOL     OW 4972   6.472   6.196   0.321
 1358SOL    HW1 4973   6.501   6.141   0.242
 1358SOL    HW2 4974   6.372   6.206   0.320
 1359SOL     OW 4975   6.183   4.444   2.422
 1359SOL    HW1 4976   6.261   4.459   2.483
 1359SOL    HW2 4977   6.098   4.454   2.473
 1360SOL     OW 4978   2.639   2.772   0.204
 1360SOL    HW1 4979   2.703   2.711   0.249
 1360SOL    HW2 4980   2.558   2.785   0.261
 1361SOL     OW 4981   6.576   4.387   4.579
 1361SOL    HW1 4982   6.655   4.331   4.602
 1361SOL    HW2 4983   6.492   4.340   4.606
 1362SOL     OW 4984   3.892   3.813   2.887
 1362SOL    HW1 4985   3.821   3.746   2.912
 1362SOL    HW2 4986   3.981   3.781   2.919
 1363SOL     OW 4987   0.244   5.510   4.294
 1363SOL    HW1 4988   0.254   5.430   4.353
 1363SOL    HW2 4989   0.283   5.591   4.339
 1364SOL     OW 4990   4.809   4.177   0.220
 1364SOL    HW1 4991   4.770   4.259   0.261
 1364SOL    HW2 4992   4.892   4.152   0.269
 1365SOL     OW 4993   0.935   4.404   6.560
 1365SOL    HW1 4994   0.911   4.465   6.484
 1365SOL    HW2 4995   0.971   4.458   6.636
 1366SOL     OW 4996   1.666   6.671   6.135
 1366SOL    HW1 4997   1.623   6.731   6.068
 1366SOL    HW2 4998   1.763   6.661   6.113
 1367SOL     OW 4999   2.037   0.708   2.395
 1367SOL    HW1 5000   2.101   0.769   2.348
 1367SOL    HW2 5001   2.033   0.621   2.347
 1368SOL     OW 5002   5.337   6.659   5.012
 1368SOL    HW1 5003   5.400   6.584   5.035
 1368SOL    HW2 5004   5.384   6.746   5.025
 1369SOL     OW 5005   2.017   6.670   3.136
 1369SOL    HW1 5006   1.981   6.666   3.042
 1369SOL    HW2 5007   1.942   6.685   3.200
 1370SOL     OW 5008   3.426   0.757   2.127
 1370SOL    HW1 5009   3.501   0.801   2.077
 1370SOL    HW2 5010   3.463   0.699   2.199
 1371SOL     OW 5011   4.481   1.569   4.614
 1371SOL    HW1 5012   4.421   1.550   4.692
 1371SOL    HW2 5013   4.564   1.513   4.622
 1372SOL     OW 5014   2.056   3.170   1.211
 1372SOL    HW1 5015   1.972   3.199   1.165
 1372SOL    HW2 5016   2.135   3.212   1.165
 1373SOL     OW 5017   6.394   4.402   0.685
 1373SOL    HW1 5018   6.448   4.369   0.762
 1373SOL    HW2 5019   6.419   4.352   0.602
 1374SOL     OW 5020   4.485   2.012   0.627
 1374SOL    HW1 5021   4.580   2.021   0.595
 1374SOL    HW2 5022   4.484   2.012   0.727
 1375SOL     OW 5023   0.183   5.253   6.106
 1375SOL    HW1 5024   0.157   5.241   6.202
 1375SOL    HW2 5025   0.237   5.175   6.076
 1376SOL     OW 5026   4.677   2.695   3.489
 1376SOL    HW1 5027   4.608   2.627   3.517
 1376SOL    HW2 5028   4.688   2.763   3.561
 1377SOL     OW 5029   0.123   4.084   6.245
 1377SOL    HW1 5030   0.045   4.049   6.193
 1377SOL    HW2 5031   0.186   4.130   6.183
 1378SOL     OW 5032   0.460   2.543   5.119
 1378SOL    HW1 5033   0.452   2.476   5.192
 1378SOL    HW2 5034   0.495   2.498   5.037
 1379SOL     OW 5035   3.463   6.758   2.728
 1379SOL    HW1 5036   3.548   6.705   2.730
 1379SOL    HW2 5037   3.484   6.855   2.715
 1380SOL     OW 5038   6.753   0.254   2.684
 1380SOL    HW1 5039   6.654   0.242   2.689
 1380SOL    HW2 5040   6.774   0.333   2.627
 1381SOL     OW 5041   5.173   2.545   0.109
 1381SOL    HW1 5042   5.153   2.450   0.133
 1381SOL    HW2 5043   5.233   2.585   0.178
 1382SOL     OW 5044   6.255   4.545   6.166
 1382SOL    HW1 5045   6.319   4.479   6.206
 1382SOL    HW2 5046   6.307   4.612   6.112
 1383SOL     OW 5047   0.749   1.327   0.317
 1383SOL    HW1 5048   0.808   1.276   0.379
 1383SOL    HW2 5049   0.802   1.360   0.239
 1384SOL     OW 5050   3.048   1.692   3.646
 1384SOL    HW1 5051   3.122   1.626   3.661
 1384SOL    HW2 5052   2.961   1.643   3.643
 1385SOL     OW 5053   6.787   2.826   3.080
 1385SOL    HW1 5054   6.761   2.762   3.152
 1385SOL    HW2 5055   6.708   2.844   3.022
 1386SOL     OW 5056   2.294   2.824   4.640
 1386SOL    HW1 5057   2.269   2.883   4.563
 1386SOL    HW2 5058   2.314   2.732   4.606
 1387SOL     OW 5059   3.387   0.220   4.585
 1387SOL    HW1 5060   3.335   0.270   4.654
 1387SOL    HW2 5061   3.478   0.262   4.576
 1388SOL     OW 5062   6.207   0.082   4.421
 1388SOL    HW1 5063   6.270   0.045   4.352
 1388SOL    HW2 5064   6.151   0.008   4.458
 1389SOL     OW 5065   6.835   0.058   4.263
 1389SOL    HW1 5066   6.773   7.017   4.309
 1389SOL    HW2 5067   6.816   0.151   4.294
 1390SOL     OW 5068   4.185   1.536   0.336
 1390SOL    HW1 5069   4.090   1.566   0.324
 1390SOL    HW2 5070   4.236   1.607   0.384
 1391SOL     OW 5071   6.271   1.146   5.700
 1391SOL    HW1 5072   6.238   1.084   5.771
 1391SOL    HW2 5073   6.197   1.205   5.669
 1392SOL     OW 5074   4.790   5.894   5.843
 1392SOL    HW1 5075   4.794   5.876   5.941
 1392SOL    HW2 5076   4.711   5.848   5.803
 1393SOL     OW 5077   6.749   1.758   6.521
 1393SOL    HW1 5078   6.784   1.687   6.582
 1393SOL    HW2 5079   6.746   1.845   6.570
 1394SOL     OW 5080   4.010   5.936   3.198
 1394SOL    HW1 5081   3.992   5.927   3.296
 1394SOL    HW2 5082   4.070   5.861   3.168
 1395SOL     OW 5083   0.745   3.847   2.818
 1395SOL    HW1 5084   0.669   3.837   2.755
 1395SOL    HW2 5085   0.730   3.928   2.876
 1396SOL     OW 5086   1.760   1.236   4.601
 1396SOL    HW1 5087   1.746   1.191   4.689
 1396SOL    HW2 5088   1.857   1.253   4.586
 1397SOL     OW 5089   0.104   5.337   4.891
 1397SOL    HW1 5090   0.067   5.358   4.800
 1397SOL    HW2 5091   0.198   5.371   4.898
 1398SOL     OW 5092   1.879   1.175   0.154
 1398SOL    HW1 5093   1.967   1.133   0.136
 1398SOL    HW2 5094   1.892   1.262   0.201
 1399SOL     OW 5095   3.909   6.782   0.782
 1399SOL    HW1 5096   3.996   6.739   0.757
 1399SOL    HW2 5097   3.869   6.826   0.702
 1400SOL     OW 5098   6.735   0.334   4.389
 1400SOL    HW1 5099   6.709   0.291   4.476
 1400SOL    HW2 5100   6.694   0.425   4.385
 1401SOL     OW 5101   5.397   0.072   4.264
 1401SOL    HW1 5102   5.494   0.055   4.247
 1401SOL    HW2 5103   5.374   0.045   4.357
 1402SOL     OW 5104   5.308   4.195   1.337
 1402SOL    HW1 5105   5.361   4.152   1.410
 1402SOL    HW2 5106   5.216   4.158   1.337
 1403SOL     OW 5107   3.543   3.308   0.268
 1403SOL    HW1 5108   3.574   3.390   0.220
 1403SOL    HW2 5109   3.619   3.243   0.276
 1404SOL     OW 5110   4.968   0.310   1.380
 1404SOL    HW1 5111   4.924   0.229   1.342
 1404SOL    HW2 5112   4.990   0.374   1.307
 1405SOL     OW 5113   2.129   3.607   0.971
 1405SOL    HW1 5114   2.125   3.671   1.048
 1405SOL    HW2 5115   2.148   3.658   0.887
 1406SOL     OW 5116   2.620   3.488   1.393
 1406SOL    HW1 5117   2.543   3.488   1.457
 1406SOL    HW2 5118   2.656   3.395   1.383
 1407SOL     OW 5119   0.799   3.546   1.699
 1407SOL    HW1 5120   0.732   3.479   1.733
 1407SOL    HW2 5121   0.799   3.546   1.599
 1408SOL     OW 5122   5.928   5.838   6.502
 1408SOL    HW1 5123   5.890   5.930   6.515
 1408SOL    HW2 5124   6.019   5.845   6.462
 1409SOL     OW 5125   0.155   1.153   5.834
 1409SOL    HW1 5126   0.100   1.118   5.759
 1409SOL    HW2 5127   0.185   1.246   5.813
 1410SOL     OW 5128   2.848   2.672   5.956
 1410SOL    HW1 5129   2.881   2.718   5.873
 1410SOL    HW2 5130   2.761   2.625   5.935
 1411SOL     OW 5131   3.997   5.525   0.114
 1411SOL    HW1 5132   4.076   5.467   0.095
 1411SOL    HW2 5133   3.999   5.555   0.209
 1412SOL     OW 5134   1.691   2.859   0.680
 1412SOL    HW1 5135   1.633   2.929   0.721
 1412SOL    HW2 5136   1.662   2.769   0.712
 1413SOL     OW 5137   2.055   1.818   5.132
 1413SOL    HW1 5138   2.057   1.879   5.212
 1413SOL    HW2 5139   1.988   1.745   5.147
 1414SOL     OW 5140   0.725   3.627   2.403
 1414SOL    HW1 5141   0.649   3.564   2.387
 1414SOL    HW2 5142   0.753   3.622   2.499
 1415SOL     OW 5143   2.386   2.360   4.316
 1415SOL    HW1 5144   2.405   2.294   4.388
 1415SOL    HW2 5145   2.448   2.345   4.239
 1416SOL     OW 5146   4.163   6.983   6.047
 1416SOL    HW1 5147   4.079   6.939   6.079
 1416SOL    HW2 5148   4.239   6.919   6.054
 1417SOL     OW 5149   2.968   3.017   6.238
 1417SOL    HW1 5150   2.995   2.927   6.205
 1417SOL    HW2 5151   3.005   3.088   6.179
 1418SOL     OW 5152   3.494   3.775   6.993
 1418SOL    HW1 5153   3.465   3.846   6.930
 1418SOL    HW2 5154   3.488   3.809   0.065
 1419SOL     OW 5155   1.726   4.989   3.611
 1419SOL    HW1 5156   1.777   4.916   3.566
 1419SOL    HW2 5157   1.789   5.046   3.664
 1420SOL     OW 5158   3.880   5.210   2.625
 1420SOL    HW1 5159   3.866   5.262   2.540
 1420SOL    HW2 5160   3.937   5.130   2.606
 1421SOL     OW 5161   0.857   4.734   5.300
 1421SOL    HW1 5162   0.926   4.679   5.348
 1421SOL    HW2 5163   0.843   4.820   5.349
 1422SOL     OW 5164   2.824   4.098   5.964
 1422SOL    HW1 5165   2.780   4.164   5.903
 1422SOL    HW2 5166   2.841   4.140   6.053
 1423SOL     OW 5167   4.273   1.518   4.796
 1423SOL    HW1 5168   4.311   1.526   4.888
 1423SOL    HW2 5169   4.253   1.609   4.760
 1424SOL     OW 5170   6.135   2.713   6.811
 1424SOL    HW1 5171   6.119   2.622   6.848
 1424SOL    HW2 5172   6.199   2.707   6.734
 1425SOL     OW 5173   3.812   6.272   4.590
 1425SOL    HW1 5174   3.804   6.312   4.499
 1425SOL    HW2 5175   3.734   6.213   4.608
 1426SOL     OW 5176   2.526   1.598   6.332
 1426SOL    HW1 5177   2.526   1.563   6.425
 1426SOL    HW2 5178   2.505   1.523   6.269
 1427SOL     OW 5179   0.978   1.376   3.011
 1427SOL    HW1 5180   1.011   1.282   3.005
 1427SOL    HW2 5181   0.891   1.385   2.961
 1428SOL     OW 5182   0.022   2.888   2.701
 1428SOL    HW1 5183   6.948   2.869   2.680
 1428SOL    HW2 5184   0.067   2.923   2.619
 1429SOL     OW 5185   6.051   1.557   0.581
 1429SOL    HW1 5186   6.086   1.579   0.490
 1429SOL    HW2 5187   5.969   1.500   0.573
 1430SOL     OW 5188   2.191   4.263   3.727
 1430SOL    HW1 5189   2.238   4.222   3.805
 1430SOL    HW2 5190   2.244   4.246   3.644
 1431SOL     OW 5191   2.433   1.104   5.763
 1431SOL    HW1 5192   2.350   1.100   5.819
 1431SOL    HW2 5193   2.511   1.072   5.816
 1432SOL     OW 5194   2.354   1.282   1.217
 1432SOL    HW1 5195   2.255   1.281   1.197
 1432SOL    HW2 5196   2.374   1.215   1.288
 1433SOL     OW 5197   3.226   0.493   4.233
 1433SOL    HW1 5198   3.228   0.570   4.297
 1433SOL    HW2 5199   3.141   0.496   4.181
 1434SOL     OW 5200   6.904   2.585   6.314
 1434SOL    HW1 5201   6.861   2.558   6.228
 1434SOL    HW2 5202   6.894   2.511   6.381
 1435SOL     OW 5203   6.993   0.447   3.616
 1435SOL    HW1 5204   0.071   0.452   3.624
 1435SOL    HW2 5205   6.953   0.537   3.628
 1436SOL     OW 5206   5.899   2.480   0.751
 1436SOL    HW1 5207   5.809   2.470   0.710
 1436SOL    HW2 5208   5.893   2.463   0.849
 1437SOL     OW 5209   4.684   1.220   6.312
 1437SOL    HW1 5210   4.726   1.175   6.391
 1437SOL    HW2 5211   4.609   1.164   6.277
 1438SOL     OW 5212   2.835   0.881   1.856
 1438SOL    HW1 5213   2.750   0.928   1.876
 1438SOL    HW2 5214   2.849   0.876   1.757
 1439SOL     OW 5215   6.830   5.706   6.912
 1439SOL    HW1 5216   6.813   5.628   6.974
 1439SOL    HW2 5217   6.874   5.673   6.829
 1440SOL     OW 5218   3.410   2.875   3.979
 1440SOL    HW1 5219   3.373   2.952   4.030
 1440SOL    HW2 5220   3.383   2.882   3.883
 1441SOL     OW 5221   6.294   3.101   4.262
 1441SOL    HW1 5222   6.370   3.137   4.207
 1441SOL    HW2 5223   6.332   3.050   4.340
 1442SOL     OW 5224   5.201   4.268   0.692
 1442SOL    HW1 5225   5.220   4.178   0.653
 1442SOL    HW2 5226   5.274   4.293   0.756
 1443SOL     OW 5227   0.913   1.150   3.506
 1443SOL    HW1 5228   0.947   1.056   3.507
 1443SOL    HW2 5229   0.991   1.213   3.500
 1444SOL     OW 5230   4.425   0.267   3.455
 1444SOL    HW1 5231   4.494   0.311   3.513
 1444SOL    HW2 5232   4.468   0.235   3.371
 1445SOL     OW 5233   0.317   2.580   1.423
 1445SOL    HW1 5234   0.271   2.530   1.350
 1445SOL    HW2 5235   0.397   2.627   1.386
 1446SOL     OW 5236   4.140   2.027   1.360
 1446SOL    HW1 5237   4.219   2.075   1.398
 1446SOL    HW2 5238   4.056   2.072   1.390
 1447SOL     OW 5239   6.755   0.940   5.217
 1447SOL    HW1 5240   6.716   0.877   5.150
 1447SOL    HW2 5241   6.836   0.984   5.179
 1448SOL     OW 5242   5.502   1.221   0.478
 1448SOL    HW1 5243   5.463   1.302   0.434
 1448SOL    HW2 5244   5.442   1.143   0.464
 1449SOL     OW 5245   5.131   6.470   0.781
 1449SOL    HW1 5246   5.077   6.394   0.818
 1449SOL    HW2 5247   5.227   6.460   0.810
 1450SOL     OW 5248   5.764   2.977   2.560
 1450SOL    HW1 5249   5.773   3.040   2.483
 1450SOL    HW2 5250   5.677   2.994   2.607
 1451SOL     OW 5251   2.039   6.907   2.899
 1451SOL    HW1 5252   2.131   6.941   2.880
 1451SOL    HW2 5253   1.971   6.968   2.860
 1452SOL     OW 5254   5.157   0.469   4.998
 1452SOL    HW1 5255   5.158   0.413   5.081
 1452SOL    HW2 5256   5.246   0.463   4.953
 1453SOL     OW 5257   5.155   4.155   4.952
 1453SOL    HW1 5258   5.139   4.249   4.919
 1453SOL    HW2 5259   5.212   4.106   4.886
 1454SOL     OW 5260   5.346   2.965   1.897
 1454SOL    HW1 5261   5.284   2.990   1.971
 1454SOL    HW2 5262   5.315   2.880   1.855
 1455SOL     OW 5263   0.811   0.810   1.860
 1455SOL    HW1 5264   0.845   0.903   1.873
 1455SOL    HW2 5265   0.807   0.763   1.948
 1456SOL     OW 5266   6.897   6.998   4.591
 1456SOL    HW1 5267   6.823   0.042   4.602
 1456SOL    HW2 5268   6.985   0.025   4.589
 1457SOL     OW 5269   1.467   0.665   3.674
 1457SOL    HW1 5270   1.445   0.605   3.597
 1457SOL    HW2 5271   1.438   0.758   3.654
 1458SOL     OW 5272   5.078   6.782   5.951
 1458SOL    HW1 5273   4.982   6.809   5.940
 1458SOL    HW2 5274   5.105   6.792   6.046
 1459SOL     OW 5275   2.955   6.356   6.843
 1459SOL    HW1 5276   3.042   6.358   6.892
 1459SOL    HW2 5277   2.969   6.319   6.751
 1460SOL     OW 5278   1.031   6.626   6.875
 1460SOL    HW1 5279   1.086   6.701   6.838
 1460SOL    HW2 5280   1.078   6.539   6.860
 1461SOL     OW 5281   5.883   4.396   3.345
 1461SOL    HW1 5282   5.881   4.324   3.414
 1461SOL    HW2 5283   5.970   4.394   3.297
 1462SOL     OW 5284   6.358   0.859   0.998
 1462SOL    HW1 5285   6.451   0.824   0.991
 1462SOL    HW2 5286   6.357   0.939   1.059
 1463SOL     OW 5287   0.666   0.388   4.958
 1463SOL    HW1 5288   0.749   0.342   4.989
 1463SOL    HW2 5289   0.677   0.419   4.864
 1464SOL     OW 5290   0.476   6.447   0.328
 1464SOL    HW1 5291   0.565   6.456   0.371
 1464SOL    HW2 5292   0.469   6.510   0.251
 1465SOL     OW 5293   0.153   0.333   3.977
 1465SOL    HW1 5294   0.213   0.413   3.971
 1465SOL    HW2 5295   0.061   0.357   3.946
 1466SOL     OW 5296   6.481   5.589   2.416
 1466SOL    HW1 5297   6.444   5.611   2.326
 1466SOL    HW2 5298   6.419   5.624   2.487
 1467SOL     OW 5299   1.593   1.388   3.193
 1467SOL    HW1 5300   1.658   1.348   3.258
 1467SOL    HW2 5301   1.586   1.487   3.210
 1468SOL     OW 5302   5.607   5.535   3.570
 1468SOL    HW1 5303   5.654   5.603   3.514
 1468SOL    HW2 5304   5.673   5.490   3.630
 1469SOL     OW 5305   0.392   0.543   2.509
 1469SOL    HW1 5306   0.453   0.621   2.523
 1469SOL    HW2 5307   0.309   0.556   2.563
 1470SOL     OW 5308   1.154   1.050   2.809
 1470SOL    HW1 5309   1.147   1.038   2.909
 1470SOL    HW2 5310   1.179   0.963   2.767
 1471SOL     OW 5311   0.072   0.261   0.360
 1471SOL    HW1 5312   0.036   0.261   0.453
 1471SOL    HW2 5313   0.064   0.169   0.321
 1472SOL     OW 5314   4.493   0.416   5.477
 1472SOL    HW1 5315   4.477   0.466   5.393
 1472SOL    HW2 5316   4.577   0.362   5.468
 1473SOL     OW 5317   6.438   5.549   2.880
 1473SOL    HW1 5318   6.357   5.491   2.893
 1473SOL    HW2 5319   6.512   5.516   2.938
 1474SOL     OW 5320   6.185   5.592   4.083
 1474SOL    HW1 5321   6.264   5.648   4.057
 1474SOL    HW2 5322   6.216   5.501   4.111
 1475SOL     OW 5323   0.031   0.407   2.660
 1475SOL    HW1 5324   0.060   0.364   2.745
 1475SOL    HW2 5325   0.040   0.341   2.585
 1476SOL     OW 5326   1.629   1.194   2.134
 1476SOL    HW1 5327   1.704   1.153   2.185
 1476SOL    HW2 5328   1.664   1.265   2.073
 1477SOL     OW 5329   3.312   0.241   5.320
 1477SOL    HW1 5330   3.364   0.239   5.405
 1477SOL    HW2 5331   3.246   0.166   5.320
 1478SOL     OW 5332   6.281   5.310   0.938
 1478SOL    HW1 5333   6.253   5.389   0.882
 1478SOL    HW2 5334   6.380   5.309   0.947
 1479SOL     OW 5335   2.179   4.584   0.374
 1479SOL    HW1 5336   2.093   4.636   0.381
 1479SOL    HW2 5337   2.252   4.635   0.419
 1480SOL     OW 5338   1.929   1.318   6.394
 1480SOL    HW1 5339   1.914   1.402   6.447
 1480SOL    HW2 5340   1.851   1.303   6.333
 1481SOL     OW 5341   6.191   2.067   5.938
 1481SOL    HW1 5342   6.199   2.098   6.033
 1481SOL    HW2 5343   6.261   2.111   5.882
 1482SOL     OW 5344   5.198   0.774   0.764
 1482SOL    HW1 5345   5.103   0.748   0.747
 1482SOL    HW2 5346   5.201   0.854   0.822
 1483SOL     OW 5347   6.686   2.453   0.127
 1483SOL    HW1 5348   6.744   2.414   0.055
 1483SOL    HW2 5349   6.599   2.483   0.087
 1484SOL     OW 5350   6.908   4.267   2.120
 1484SOL    HW1 5351   6.908   4.266   2.220
 1484SOL    HW2 5352   6.827   4.317   2.087
 1485SOL     OW 5353   5.459   2.925   2.963
 1485SOL    HW1 5354   5.508   2.842   2.987
 1485SOL    HW2 5355   5.369   2.925   3.007
 1486SOL     OW 5356   4.892   2.462   3.004
 1486SOL    HW1 5357   4.927   2.474   2.911
 1486SOL    HW2 5358   4.848   2.372   3.011
 1487SOL     OW 5359   5.802   1.313   6.163
 1487SOL    HW1 5360   5.803   1.413   6.171
 1487SOL    HW2 5361   5.714   1.284   6.126
 1488SOL     OW 5362   4.693   0.797   3.052
 1488SOL    HW1 5363   4.772   0.819   3.110
 1488SOL    HW2 5364   4.643   0.720   3.092
 1489SOL     OW 5365   4.037   4.925   4.831
 1489SOL    HW1 5366   4.021   4.933   4.732
 1489SOL    HW2 5367   4.108   4.856   4.848
 1490SOL     OW 5368   1.023   1.234   0.514
 1490SOL    HW1 5369   1.033   1.303   0.442
 1490SOL    HW2 5370   1.113   1.197   0.538
 1491SOL     OW 5371   0.001   3.715   3.199
 1491SOL    HW1 5372   0.016   3.813   3.208
 1491SOL    HW2 5373   0.054   3.666   3.269
 1492SOL     OW 5374   5.089   2.146   1.267
 1492SOL    HW1 5375   5.144   2.101   1.337
 1492SOL    HW2 5376   5.000   2.100   1.260
 1493SOL     OW 5377   4.277   0.400   5.073
 1493SOL    HW1 5378   4.178   0.410   5.073
 1493SOL    HW2 5379   4.305   0.348   4.992
 1494SOL     OW 5380   3.568   2.739   6.072
 1494SOL    HW1 5381   3.516   2.773   5.993
 1494SOL    HW2 5382   3.522   2.659   6.111
 1495SOL     OW 5383   0.609   3.560   2.940
 1495SOL    HW1 5384   0.578   3.467   2.962
 1495SOL    HW2 5385   0.610   3.571   2.840
 1496SOL     OW 5386   6.613   0.165   2.297
 1496SOL    HW1 5387   6.595   0.073   2.261
 1496SOL    HW2 5388   6.679   0.159   2.372
 1497SOL     OW 5389   6.981   5.266   4.087
 1497SOL    HW1 5390   0.012   5.325   4.026
 1497SOL    HW2 5391   7.015   5.172   4.080
 1498SOL     OW 5392   2.425   4.848   6.276
 1498SOL    HW1 5393   2.519   4.859   6.244
 1498SOL    HW2 5394   2.426   4.831   6.375
 1499SOL     OW 5395   1.026   3.520   5.108
 1499SOL    HW1 5396   1.079   3.472   5.177
 1499SOL    HW2 5397   0.940   3.553   5.147
 1500SOL     OW 5398   5.329   6.842   0.410
 1500SOL    HW1 5399   5.310   6.871   0.317
 1500SOL    HW2 5400   5.373   6.916   0.460
 1501SOL     OW 5401   4.239   0.386   6.596
 1501SOL    HW1 5402   4.231   0.299   6.644
 1501SOL    HW2 5403   4.202   0.459   6.653
 1502SOL     OW 5404   6.564   6.259   6.966
 1502SOL    HW1 5405   6.524   6.349   6.986
 1502SOL    HW2 5406   6.589   6.255   6.869
 1503SOL     OW 5407   2.079   2.573   0.241
 1503SOL    HW1 5408   2.042   2.626   0.165
 1503SOL    HW2 5409   2.130   2.495   0.206
 1504SOL     OW 5410   3.004   6.891   4.574
 1504SOL    HW1 5411   3.007   6.933   4.484
 1504SOL    HW2 5412   3.038   6.956   4.642
 1505SOL     OW 5413   5.557   0.056   5.189
 1505SOL    HW1 5414   5.617   6.998   5.176
 1505SOL    HW2 5415   5.464   0.024   5.206
 1506SOL     OW 5416   1.022   5.450   3.526
 1506SOL    HW1 5417   1.046   5.404   3.611
 1506SOL    HW2 5418   1.106   5.472   3.476
 1507SOL     OW 5419   1.677   2.033   4.800
 1507SOL    HW1 5420   1.627   2.111   4.763
 1507SOL    HW2 5421   1.774   2.056   4.808
 1508SOL     OW 5422   4.432   6.882   0.895
 1508SOL    HW1 5423   4.393   6.790   0.893
 1508SOL    HW2 5424   4.379   6.943   0.837
 1509SOL     OW 5425   4.568   3.451   6.040
 1509SOL    HW1 5426   4.625   3.385   5.990
 1509SOL    HW2 5427   4.492   3.480   5.981
 1510SOL     OW 5428   6.970   2.238   4.254
 1510SOL    HW1 5429   0.031   2.216   4.306
 1510SOL    HW2 5430   6.927   2.320   4.294
 1511SOL     OW 5431   2.800   1.745   6.930
 1511SOL    HW1 5432   2.787   1.730   6.832
 1511SOL    HW2 5433   2.817   1.657   6.975
 1512SOL     OW 5434   0.243   0.499   1.607
 1512SOL    HW1 5435   0.164   0.473   1.552
 1512SOL    HW2 5436   0.251   0.599   1.609
 1513SOL     OW 5437   3.299   0.051   3.903
 1513SOL    HW1 5438   3.347   0.093   3.827
 1513SOL    HW2 5439   3.348   0.070   3.989
 1514SOL     OW 5440   5.582   1.721   5.438
 1514SOL    HW1 5441   5.600   1.815   5.466
 1514SOL    HW2 5442   5.619   1.659   5.507
 1515SOL     OW 5443   0.478   4.300   5.199
 1515SOL    HW1 5444   0.558   4.340   5.243
 1515SOL    HW2 5445   0.507   4.236   5.128
 1516SOL     OW 5446   0.836   1.814   0.828
 1516SOL    HW1 5447   0.873   1.807   0.921
 1516SOL    HW2 5448   0.911   1.830   0.764
 1517SOL     OW 5449   4.178   5.266   3.610
 1517SOL    HW1 5450   4.194   5.352   3.659
 1517SOL    HW2 5451   4.080   5.245   3.613
 1518SOL     OW 5452   6.842   4.279   0.503
 1518SOL    HW1 5453   6.808   4.285   0.409
 1518SOL    HW2 5454   6.859   4.184   0.527
 1519SOL     OW 5455   6.536   4.969   0.919
 1519SOL    HW1 5456   6.634   4.951   0.917
 1519SOL    HW2 5457   6.512   5.018   1.003
 1520SOL     OW 5458   2.002   3.382   2.445
 1520SOL    HW1 5459   2.012   3.335   2.358
 1520SOL    HW2 5460   2.033   3.323   2.520
 1521SOL     OW 5461   1.555   3.265   6.950
 1521SOL    HW1 5462   1.503   3.180   6.947
 1521SOL    HW2 5463   1.493   3.342   6.958
 1522SOL     OW 5464   6.846   1.854   6.300
 1522SOL    HW1 5465   6.788   1.800   6.361
 1522SOL    HW2 5466   6.937   1.865   6.341
 1523SOL     OW 5467   6.195   2.686   0.360
 1523SOL    HW1 5468   6.160   2.668   0.268
 1523SOL    HW2 5469   6.143   2.760   0.402
 1524SOL     OW 5470   0.333   1.645   1.723
 1524SOL    HW1 5471   0.428   1.637   1.754
 1524SOL    HW2 5472   0.289   1.722   1.769
 1525SOL     OW 5473   4.203   1.501   5.896
 1525SOL    HW1 5474   4.132   1.479   5.829
 1525SOL    HW2 5475   4.209   1.428   5.964
 1526SOL     OW 5476   0.274   1.589   1.455
 1526SOL    HW1 5477   0.321   1.572   1.542
 1526SOL    HW2 5478   0.207   1.662   1.467
 1527SOL     OW 5479   3.553   1.457   4.803
 1527SOL    HW1 5480   3.521   1.444   4.897
 1527SOL    HW2 5481   3.590   1.370   4.769
 1528SOL     OW 5482   4.823   6.265   2.581
 1528SOL    HW1 5483   4.839   6.260   2.680
 1528SOL    HW2 5484   4.726   6.278   2.563
 1529SOL     OW 5485   4.082   0.862   5.931
 1529SOL    HW1 5486   4.080   0.796   6.005
 1529SOL    HW2 5487   4.045   0.820   5.848
 1530SOL     OW 5488   2.972   6.536   1.974
 1530SOL    HW1 5489   2.902   6.501   2.036
 1530SOL    HW2 5490   2.974   6.480   1.891
 1531SOL     OW 5491   6.632   0.454   3.832
 1531SOL    HW1 5492   6.628   0.553   3.843
 1531SOL    HW2 5493   6.590   0.409   3.911
 1532SOL     OW 5494   3.342   2.202   5.320
 1532SOL    HW1 5495   3.269   2.251   5.271
 1532SOL    HW2 5496   3.369   2.255   5.400
 1533SOL     OW 5497   6.423   3.480   0.044
 1533SOL    HW1 5498   6.443   3.410   6.997
 1533SOL    HW2 5499   6.480   3.560   0.027
 1534SOL     OW 5500   1.668   6.024   0.494
 1534SOL    HW1 5501   1.643   6.112   0.535
 1534SOL    HW2 5502   1.763   6.004   0.515
 1535SOL     OW 5503   5.397   4.951   4.408
 1535SOL    HW1 5504   5.476   4.892   4.426
 1535SOL    HW2 5505   5.325   4.897   4.364
 1536SOL     OW 5506   2.412   5.756   4.191
 1536SOL    HW1 5507   2.405   5.693   4.114
 1536SOL    HW2 5508   2.507   5.759   4.223
 1537SOL     OW 5509   2.636   5.703   3.802
 1537SOL    HW1 5510   2.709   5.713   3.869
 1537SOL    HW2 5511   2.594   5.792   3.785
 1538SOL     OW 5512   2.581   4.527   6.891
 1538SOL    HW1 5513   2.607   4.468   6.814
 1538SOL    HW2 5514   2.528   4.473   6.957
 1539SOL     OW 5515   3.586   4.423   1.656
 1539SOL    HW1 5516   3.570   4.334   1.701
 1539SOL    HW2 5517   3.571   4.496   1.722
 1540SOL     OW 5518   0.817   0.212   4.665
 1540SOL    HW1 5519   0.857   0.151   4.597
 1540SOL    HW2 5520   0.850   0.187   4.756
 1541SOL     OW 5521   3.871   2.772   1.055
 1541SOL    HW1 5522   3.772   2.760   1.052
 1541SOL    HW2 5523   3.906   2.746   1.145
 1542SOL     OW 5524   0.393   6.135   1.433
 1542SOL    HW1 5525   0.421   6.170   1.523
 1542SOL    HW2 5526   0.365   6.040   1.441
 1543SOL     OW 5527   3.399   3.561   4.067
 1543SOL    HW1 5528   3.362   3.654   4.067
 1543SOL    HW2 5529   3.349   3.505   4.132
 1544SOL     OW 5530   3.085   4.016   2.346
 1544SOL    HW1 5531   3.179   4.041   2.368
 1544SOL    HW2 5532   3.037   4.095   2.308
 1545SOL     OW 5533   6.141   0.948   5.249
 1545SOL    HW1 5534   6.205   0.949   5.325
 1545SOL    HW2 5535   6.137   1.039   5.207
 1546SOL     OW 5536   6.357   6.901   6.357
 1546SOL    HW1 5537   6.362   6.850   6.272
 1546SOL    HW2 5538   6.422   6.978   6.354
 1547SOL     OW 5539   2.959   4.775   2.491
 1547SOL    HW1 5540   3.038   4.824   2.528
 1547SOL    HW2 5541   2.975   4.754   2.395
 1548SOL     OW 5542   4.021   4.850   5.279
 1548SOL    HW1 5543   4.070   4.869   5.364
 1548SOL    HW2 5544   4.015   4.751   5.265
 1549SOL     OW 5545   6.712   2.253   1.551
 1549SOL    HW1 5546   6.806   2.219   1.551
 1549SOL    HW2 5547   6.648   2.176   1.563
 1550SOL     OW 5548   2.205   6.332   5.298
 1550SOL    HW1 5549   2.136   6.320   5.227
 1550SOL    HW2 5550   2.213   6.429   5.321
 1551SOL     OW 5551   1.719   2.810   1.352
 1551SOL    HW1 5552   1.789   2.806   1.280
 1551SOL    HW2 5553   1.717   2.903   1.390
 1552SOL     OW 5554   1.554   0.188   1.271
 1552SOL    HW1 5555   1.564   0.172   1.369
 1552SOL    HW2 5556   1.583   0.107   1.220
 1553SOL     OW 5557   5.828   1.941   6.956
 1553SOL    HW1 5558   5.769   1.862   6.938
 1553SOL    HW2 5559   5.921   1.920   6.927
 1554SOL     OW 5560   4.264   2.261   3.088
 1554SOL    HW1 5561   4.336   2.314   3.042
 1554SOL    HW2 5562   4.290   2.165   3.091
 1555SOL     OW 5563   5.080   1.822   4.945
 1555SOL    HW1 5564   5.154   1.838   5.010
 1555SOL    HW2 5565   5.007   1.771   4.990
 1556SOL     OW 5566   3.903   0.591   0.568
 1556SOL    HW1 5567   3.835   0.544   0.623
 1556SOL    HW2 5568   3.881   0.581   0.471
 1557SOL     OW 5569   2.123   2.477   1.225
 1557SOL    HW1 5570   2.044   2.534   1.248
 1557SOL    HW2 5571   2.128   2.400   1.289
 1558SOL     OW 5572   6.526   3.084   5.494
 1558SOL    HW1 5573   6.432   3.101   5.524
 1558SOL    HW2 5574   6.588   3.098   5.571
 1559SOL     OW 5575   1.027   4.048   2.443
 1559SOL    HW1 5576   0.998   3.973   2.502
 1559SOL    HW2 5577   1.051   4.012   2.353
 1560SOL     OW 5578   3.894   1.480   0.442
 1560SOL    HW1 5579   3.902   1.511   0.347
 1560SOL    HW2 5580   3.846   1.550   0.496
 1561SOL     OW 5581   5.595   6.326   2.107
 1561SOL    HW1 5582   5.558   6.281   2.187
 1561SOL    HW2 5583   5.521   6.368   2.055
 1562SOL     OW 5584   3.053   6.834   2.423
 1562SOL    HW1 5585   3.089   6.751   2.382
 1562SOL    HW2 5586   2.975   6.812   2.481
 1563SOL     OW 5587   3.155   2.143   4.711
 1563SOL    HW1 5588   3.236   2.088   4.734
 1563SOL    HW2 5589   3.145   2.217   4.778
 1564SOL     OW 5590   1.528   2.043   2.172
 1564SOL    HW1 5591   1.459   1.988   2.125
 1564SOL    HW2 5592   1.584   1.983   2.229
 1565SOL     OW 5593   3.962   6.368   3.938
 1565SOL    HW1 5594   3.917   6.347   3.851
 1565SOL    HW2 5595   3.980   6.284   3.988
 1566SOL     OW 5596   5.230   4.742   3.624
 1566SOL    HW1 5597   5.266   4.802   3.695
 1566SOL    HW2 5598   5.197   4.796   3.547
 1567SOL     OW 5599   5.722   5.780   6.269
 1567SOL    HW1 5600   5.727   5.711   6.196
 1567SOL    HW2 5601   5.791   5.759   6.339
 1568SOL     OW 5602   2.107   6.550   3.668
 1568SOL    HW1 5603   2.062   6.509   3.747
 1568SOL    HW2 5604   2.057   6.524   3.585
 1569SOL     OW 5605   3.267   0.209   2.986
 1569SOL    HW1 5606   3.210   0.271   2.932
 1569SOL    HW2 5607   3.269   0.119   2.942
 1570SOL     OW 5608   3.205   0.070   6.898
 1570SOL    HW1 5609   3.193   0.072   6.997
 1570SOL    HW2 5610   3.273   0.002   6.873
 1571SOL     OW 5611   0.886   2.553   3.535
 1571SOL    HW1 5612   0.944   2.623   3.575
 1571SOL    HW2 5613   0.931   2.513   3.455
 1572SOL     OW 5614   2.095   4.871   1.649
 1572SOL    HW1 5615   2.097   4.773   1.667
 1572SOL    HW2 5616   2.004   4.897   1.617
 1573SOL     OW 5617   5.111   5.405   1.465
 1573SOL    HW1 5618   5.104   5.468   1.543
 1573SOL    HW2 5619   5.041   5.334   1.474
 1574SOL     OW 5620   6.331   3.309   2.165
 1574SOL    HW1 5621   6.378   3.329   2.251
 1574SOL    HW2 5622   6.243   3.355   2.163
 1575SOL     OW 5623   1.148   0.876   1.757
 1575SOL    HW1 5624   1.211   0.806   1.792
 1575SOL    HW2 5625   1.123   0.938   1.832
 1576SOL     OW 5626   0.520   6.234   2.586
 1576SOL    HW1 5627   0.582   6.271   2.655
 1576SOL    HW2 5628   0.559   6.251   2.495
 1577SOL     OW 5629   3.115   0.451   6.394
 1577SOL    HW1 5630   3.196   0.480   6.446
 1577SOL    HW2 5631   3.074   0.531   6.350
 1578SOL     OW 5632   4.020   1.103   0.585
 1578SOL    HW1 5633   4.022   1.135   0.490
 1578SOL    HW2 5634   3.956   1.027   0.592
 1579SOL     OW 5635   1.390   2.720   1.496
 1579SOL    HW1 5636   1.481   2.760   1.488
 1579SOL    HW2 5637   1.396   2.631   1.541
 1580SOL     OW 5638   3.382   3.598   3.107
 1580SOL    HW1 5639   3.344   3.529   3.169
 1580SOL    HW2 5640   3.337   3.592   3.018
 1581SOL     OW 5641   0.423   4.276   6.465
 1581SOL    HW1 5642   0.453   4.241   6.377
 1581SOL    HW2 5643   0.332   4.317   6.456
 1582SOL     OW 5644   4.533   6.197   5.761
 1582SOL    HW1 5645   4.456   6.150   5.718
 1582SOL    HW2 5646   4.618   6.148   5.741
 1583SOL     OW 5647   0.900   6.133   4.966
 1583SOL    HW1 5648   0.811   6.177   4.958
 1583SOL    HW2 5649   0.963   6.174   4.900
 1584SOL     OW 5650   1.569   5.546   6.692
 1584SOL    HW1 5651   1.509   5.479   6.649
 1584SOL    HW2 5652   1.585   5.622   6.629
 1585SOL     OW 5653   3.984   0.993   3.542
 1585SOL    HW1 5654   4.044   1.035   3.610
 1585SOL    HW2 5655   3.964   1.060   3.470
 1586SOL     OW 5656   2.701   5.301   3.596
 1586SOL    HW1 5657   2.771   5.324   3.664
 1586SOL    HW2 5658   2.627   5.368   3.599
 1587SOL     OW 5659   1.923   6.180   6.003
 1587SOL    HW1 5660   1.853   6.146   5.940
 1587SOL    HW2 5661   1.992   6.231   5.953
 1588SOL     OW 5662   4.523   0.555   2.395
 1588SOL    HW1 5663   4.457   0.509   2.455
 1588SOL    HW2 5664   4.534   0.501   2.311
 1589SOL     OW 5665   6.160   3.745   2.660
 1589SOL    HW1 5666   6.185   3.764   2.755
 1589SOL    HW2 5667   6.241   3.744   2.603
 1590SOL     OW 5668   5.329   1.794   3.158
 1590SOL    HW1 5669   5.249   1.820   3.105
 1590SOL    HW2 5670   5.406   1.855   3.135
 1591SOL     OW 5671   6.869   5.799   1.489
 1591SOL    HW1 5672   6.880   5.702   1.512
 1591SOL    HW2 5673   6.871   5.810   1.389
 1592SOL     OW 5674   1.639   4.320   6.576
 1592SOL    HW1 5675   1.618   4.225   6.552
 1592SOL    HW2 5676   1.662   4.326   6.673
 1593SOL     OW 5677   1.287   0.131   6.412
 1593SOL    HW1 5678   1.239   0.044   6.423
 1593SOL    HW2 5679   1.290   0.178   6.501
 1594SOL     OW 5680   6.971   0.289   1.962
 1594SOL    HW1 5681   6.902   0.360   1.947
 1594SOL    HW2 5682   0.038   0.322   1.930
 1595SOL     OW 5683   1.872   3.756   6.928
 1595SOL    HW1 5684   1.845   3.709   6.844
 1595SOL    HW2 5685   1.913   3.690   6.991
 1596SOL     OW 5686   6.127   3.998   3.350
 1596SOL    HW1 5687   6.108   4.084   3.302
 1596SOL    HW2 5688   6.226   3.980   3.348
 1597SOL     OW 5689   2.659   5.424   0.774
 1597SOL    HW1 5690   2.560   5.415   0.784
 1597SOL    HW2 5691   2.704   5.349   0.823
 1598SOL     OW 5692   1.891   5.790   6.592
 1598SOL    HW1 5693   1.976   5.754   6.631
 1598SOL    HW2 5694   1.839   5.716   6.551
 1599SOL     OW 5695   3.852   5.409   4.460
 1599SOL    HW1 5696   3.786   5.454   4.519
 1599SOL    HW2 5697   3.854   5.311   4.481
 1600SOL     OW 5698   3.627   0.867   2.868
 1600SOL    HW1 5699   3.655   0.959   2.842
 1600SOL    HW2 5700   3.596   0.817   2.787
 1601SOL     OW 5701   6.216   6.456   4.078
 1601SOL    HW1 5702   6.314   6.447   4.098
 1601SOL    HW2 5703   6.170   6.498   4.156
 1602SOL     OW 5704   4.793   5.497   4.016
 1602SOL    HW1 5705   4.848   5.468   4.095
 1602SOL    HW2 5706   4.854   5.527   3.943
 1603SOL     OW 5707   2.908   5.703   4.202
 1603SOL    HW1 5708   2.963   5.650   4.267
 1603SOL    HW2 5709   2.813   5.705   4.232
 1604SOL     OW 5710   3.991   4.957   2.103
 1604SOL    HW1 5711   4.052   4.887   2.139
 1604SOL    HW2 5712   4.044   5.035   2.071
 1605SOL     OW 5713   5.814   5.331   1.783
 1605SOL    HW1 5714   5.856   5.244   1.807
 1605SOL    HW2 5715   5.883   5.393   1.745
 1606SOL     OW 5716   4.006   5.792   4.580
 1606SOL    HW1 5717   3.951   5.789   4.664
 1606SOL    HW2 5718   4.090   5.741   4.593
 1607SOL     OW 5719   4.264   0.052   2.391
 1607SOL    HW1 5720   4.277   0.057   2.292
 1607SOL    HW2 5721   4.321   7.002   2.429
 1608SOL     OW 5722   0.122   0.965   3.415
 1608SOL    HW1 5723   0.216   0.978   3.386
 1608SOL    HW2 5724   0.069   0.926   3.339
 1609SOL     OW 5725   3.315   6.129   0.406
 1609SOL    HW1 5726   3.240   6.184   0.444
 1609SOL    HW2 5727   3.278   6.057   0.348
 1610SOL     OW 5728   4.533   6.184   0.517
 1610SOL    HW1 5729   4.528   6.280   0.490
 1610SOL    HW2 5730   4.605   6.172   0.586
 1611SOL     OW 5731   1.560   4.028   0.998
 1611SOL    HW1 5732   1.569   3.952   0.933
 1611SOL    HW2 5733   1.637   4.091   0.987
 1612SOL     OW 5734   2.938   5.762   1.221
 1612SOL    HW1 5735   3.002   5.695   1.259
 1612SOL    HW2 5736   2.952   5.771   1.123
 1613SOL     OW 5737   0.853   6.056   2.460
 1613SOL    HW1 5738   0.867   5.957   2.453
 1613SOL    HW2 5739   0.808   6.090   2.377
 1614SOL     OW 5740   5.610   2.032   6.371
 1614SOL    HW1 5741   5.522   2.067   6.339
 1614SOL    HW2 5742   5.596   1.967   6.445
 1615SOL     OW 5743   0.187   5.109   6.827
 1615SOL    HW1 5744   0.197   5.035   6.761
 1615SOL    HW2 5745   0.214   5.076   6.918
 1616SOL     OW 5746   3.791   0.787   5.202
 1616SOL    HW1 5747   3.847   0.720   5.249
 1616SOL    HW2 5748   3.778   0.867   5.261
 1617SOL     OW 5749   4.961   0.161   3.422
 1617SOL    HW1 5750   4.956   0.177   3.521
 1617SOL    HW2 5751   4.988   0.246   3.376
 1618SOL     OW 5752   1.708   6.028   2.388
 1618SOL    HW1 5753   1.736   5.997   2.297
 1618SOL    HW2 5754   1.785   6.075   2.432
 1619SOL     OW 5755   1.388   5.330   0.348
 1619SOL    HW1 5756   1.359   5.281   0.430
 1619SOL    HW2 5757   1.400   5.264   0.273
 1620SOL     OW 5758   2.630   5.131   0.906
 1620SOL    HW1 5759   2.717   5.087   0.930
 1620SOL    HW2 5760   2.600   5.097   0.817
 1621SOL     OW 5761   5.887   6.233   1.431
 1621SOL    HW1 5762   5.911   6.136   1.443
 1621SOL    HW2 5763   5.787   6.242   1.431
 1622SOL     OW 5764   0.690   4.149   6.302
 1622SOL    HW1 5765   0.674   4.079   6.231
 1622SOL    HW2 5766   0.657   4.237   6.269
 1623SOL     OW 5767   0.731   2.236   4.946
 1623SOL    HW1 5768   0.713   2.137   4.940
 1623SOL    HW2 5769   0.820   2.256   4.906
 1624SOL     OW 5770   3.516   1.190   0.283
 1624SOL    HW1 5771   3.483   1.284   0.275
 1624SOL    HW2 5772   3.565   1.179   0.369
 1625SOL     OW 5773   2.105   5.275   0.426
 1625SOL    HW1 5774   2.082   5.343   0.495
 1625SOL    HW2 5775   2.169   5.315   0.360
 1626SOL     OW 5776   3.187   1.883   2.597
 1626SOL    HW1 5777   3.137   1.932   2.668
 1626SOL    HW2 5778   3.179   1.932   2.510
 1627SOL     OW 5779   5.251   2.758   4.185
 1627SOL    HW1 5780   5.250   2.811   4.100
 1627SOL    HW2 5781   5.313   2.801   4.250
 1628SOL     OW 5782   5.212   6.000   6.536
 1628SOL    HW1 5783   5.177   6.092   6.521
 1628SOL    HW2 5784   5.226   5.986   6.634
 1629SOL     OW 5785   2.865   1.914   2.992
 1629SOL    HW1 5786   2.954   1.952   2.963
 1629SOL    HW2 5787   2.808   1.988   3.027
 1630SOL     OW 5788   0.003   4.043   6.891
 1630SOL    HW1 5789   7.006   4.113   6.960
 1630SOL    HW2 5790   0.098   4.013   6.899
 1631SOL     OW 5791   6.775   3.372   1.117
 1631SOL    HW1 5792   6.808   3.427   1.193
 1631SOL    HW2 5793   6.768   3.428   1.035
 1632SOL     OW 5794   5.202   4.419   2.792
 1632SOL    HW1 5795   5.124   4.357   2.801
 1632SOL    HW2 5796   5.227   4.426   2.695
 1633SOL     OW 5797   4.759   4.023   4.047
 1633SOL    HW1 5798   4.726   4.064   4.131
 1633SOL    HW2 5799   4.850   3.983   4.063
 1634SOL     OW 5800   3.649   0.574   4.274
 1634SOL    HW1 5801   3.746   0.552   4.285
 1634SOL    HW2 5802   3.599   0.490   4.252
 1635SOL     OW 5803   2.788   5.183   6.367
 1635SOL    HW1 5804   2.772   5.243   6.446
 1635SOL    HW2 5805   2.871   5.211   6.320
 1636SOL     OW 5806   3.959   5.994   1.070
 1636SOL    HW1 5807   3.946   6.080   1.021
 1636SOL    HW2 5808   3.882   5.933   1.052
 1637SOL     OW 5809   6.938   6.566   3.237
 1637SOL    HW1 5810   6.980   6.548   3.326
 1637SOL    HW2 5811   6.843   6.535   3.238
 1638SOL     OW 5812   0.498   2.980   1.322
 1638SOL    HW1 5813   0.444   3.049   1.370
 1638SOL    HW2 5814   0.567   3.025   1.266
 1639SOL     OW 5815   6.575   3.697   1.396
 1639SOL    HW1 5816   6.557   3.608   1.438
 1639SOL    HW2 5817   6.672   3.717   1.404
 1640SOL     OW 5818   6.487   6.866   1.052
 1640SOL    HW1 5819   6.503   6.911   1.139
 1640SOL    HW2 5820   6.448   6.932   0.987
 1641SOL     OW 5821   6.836   1.731   3.721
 1641SOL    HW1 5822   6.804   1.698   3.632
 1641SOL    HW2 5823   6.890   1.814   3.708
 1642SOL     OW 5824   6.676   2.474   6.715
 1642SOL    HW1 5825   6.762   2.483   6.767
 1642SOL    HW2 5826   6.692   2.497   6.620
 1643SOL     OW 5827   3.403   5.144   3.450
 1643SOL    HW1 5828   3.351   5.123   3.367
 1643SOL    HW2 5829   3.486   5.194   3.425
 1644SOL     OW 5830   6.077   2.576   0.136
 1644SOL    HW1 5831   5.984   2.589   0.171
 1644SOL    HW2 5832   6.091   2.633   0.055
 1645SOL     OW 5833   2.892   0.103   6.109
 1645SOL    HW1 5834   2.865   0.182   6.054
 1645SOL    HW2 5835   2.967   0.127   6.170
 1646SOL     OW 5836   1.694   6.174   6.400
 1646SOL    HW1 5837   1.691   6.230   6.483
 1646SOL    HW2 5838   1.775   6.115   6.403
 1647SOL     OW 5839   5.518   2.943   3.940
 1647SOL    HW1 5840   5.550   2.871   3.878
 1647SOL    HW2 5841   5.422   2.928   3.961
 1648SOL     OW 5842   5.347   6.198   0.105
 1648SOL    HW1 5843   5.440   6.185   0.071
 1648SOL    HW2 5844   5.290   6.238   0.033
 1649SOL     OW 5845   2.987   0.549   3.760
 1649SOL    HW1 5846   2.898   0.595   3.758
 1649SOL    HW2 5847   3.058   0.616   3.783
 1650SOL     OW 5848   1.585   5.225   6.095
 1650SOL    HW1 5849   1.548   5.291   6.029
 1650SOL    HW2 5850   1.618   5.274   6.176
 1651SOL     OW 5851   0.198   2.674   3.109
 1651SOL    HW1 5852   0.118   2.652   3.054
 1651SOL    HW2 5853   0.233   2.590   3.152
 1652SOL     OW 5854   1.001   3.142   1.712
 1652SOL    HW1 5855   1.062   3.182   1.644
 1652SOL    HW2 5856   0.908   3.174   1.696
 1653SOL     OW 5857   0.149   5.680   2.317
 1653SOL    HW1 5858   0.176   5.718   2.229
 1653SOL    HW2 5859   0.229   5.644   2.365
 1654SOL     OW 5860   0.921   3.179   1.339
 1654SOL    HW1 5861   0.939   3.272   1.305
 1654SOL    HW2 5862   0.823   3.161   1.336
 1655SOL     OW 5863   0.034   1.051   4.486
 1655SOL    HW1 5864   0.065   1.048   4.391
 1655SOL    HW2 5865   0.095   0.995   4.543
 1656SOL     OW 5866   2.361   5.556   3.975
 1656SOL    HW1 5867   2.326   5.480   3.920
 1656SOL    HW2 5868   2.458   5.540   3.996
 1657SOL     OW 5869   6.411   1.069   4.858
 1657SOL    HW1 5870   6.313   1.078   4.840
 1657SOL    HW2 5871   6.458   1.154   4.837
 1658SOL     OW 5872   6.984   0.262   0.598
 1658SOL    HW1 5873   7.004   0.330   0.668
 1658SOL    HW2 5874   6.968   0.173   0.641
 1659SOL     OW 5875   4.155   0.108   0.053
 1659SOL    HW1 5876   4.247   0.070   0.040
 1659SOL    HW2 5877   4.088   0.034   0.052
 1660SOL     OW 5878   1.791   0.011   2.152
 1660SOL    HW1 5879   1.858   6.974   2.107
 1660SOL    HW2 5880   1.839   0.080   2.206
 1661SOL     OW 5881   2.978   5.027   2.081
 1661SOL    HW1 5882   3.030   5.082   2.146
 1661SOL    HW2 5883   2.994   4.930   2.099
 1662SOL     OW 5884   6.768   0.882   5.532
 1662SOL    HW1 5885   6.785   0.908   5.437
 1662SOL    HW2 5886   6.669   0.870   5.546
 1663SOL     OW 5887   5.251   4.867   2.559
 1663SOL    HW1 5888   5.335   4.917   2.537
 1663SOL    HW2 5889   5.179   4.930   2.585
 1664SOL     OW 5890   1.338   0.455   5.265
 1664SOL    HW1 5891   1.333   0.546   5.223
 1664SOL    HW2 5892   1.253   0.437   5.315
 1665SOL     OW 5893   1.157   3.313   1.552
 1665SOL    HW1 5894   1.250   3.281   1.535
 1665SOL    HW2 5895   1.135   3.387   1.489
 1666SOL     OW 5896   5.415   6.184   6.738
 1666SOL    HW1 5897   5.406   6.084   6.741
 1666SOL    HW2 5898   5.493   6.209   6.680
 1667SOL     OW 5899   0.142   6.744   1.093
 1667SOL    HW1 5900   0.077   6.678   1.055
 1667SOL    HW2 5901   0.101   6.789   1.172
 1668SOL     OW 5902   5.057   5.134   3.588
 1668SOL    HW1 5903   5.146   5.107   3.625
 1668SOL    HW2 5904   5.015   5.057   3.540
 1669SOL     OW 5905   0.124   4.539   5.571
 1669SOL    HW1 5906   0.220   4.567   5.561
 1669SOL    HW2 5907   0.118   4.439   5.562
 1670SOL     OW 5908   1.185   4.913   5.653
 1670SOL    HW1 5909   1.167   4.948   5.561
 1670SOL    HW2 5910   1.282   4.928   5.675
 1671SOL     OW 5911   5.175   1.446   3.028
 1671SOL    HW1 5912   5.272   1.433   3.046
 1671SOL    HW2 5913   5.124   1.439   3.113
 1672SOL     OW 5914   1.058   3.644   0.049
 1672SOL    HW1 5915   1.111   3.601   6.998
 1672SOL    HW2 5916   0.967   3.668   0.014
 1673SOL     OW 5917   2.407   1.682   4.881
 1673SOL    HW1 5918   2.353   1.641   4.954
 1673SOL    HW2 5919   2.394   1.630   4.797
 1674SOL     OW 5920   5.945   2.688   2.246
 1674SOL    HW1 5921   5.979   2.781   2.257
 1674SOL    HW2 5922   6.000   2.626   2.302
 1675SOL     OW 5923   4.795   0.201   1.192
 1675SOL    HW1 5924   4.747   0.117   1.168
 1675SOL    HW2 5925   4.736   0.258   1.249
 1676SOL     OW 5926   2.005   2.272   2.781
 1676SOL    HW1 5927   1.970   2.343   2.720
 1676SOL    HW2 5928   2.033   2.192   2.727
 1677SOL     OW 5929   3.783   4.078   2.982
 1677SOL    HW1 5930   3.795   4.124   2.895
 1677SOL    HW2 5931   3.819   3.985   2.976
 1678SOL     OW 5932   0.627   6.187   1.319
 1678SOL    HW1 5933   0.552   6.160   1.379
 1678SOL    HW2 5934   0.648   6.111   1.257
 1679SOL     OW 5935   1.399   1.299   5.288
 1679SOL    HW1 5936   1.497   1.321   5.284
 1679SOL    HW2 5937   1.371   1.255   5.202
 1680SOL     OW 5938   5.322   3.283   4.711
 1680SOL    HW1 5939   5.374   3.210   4.667
 1680SOL    HW2 5940   5.244   3.244   4.760
 1681SOL     OW 5941   1.510   5.611   4.947
 1681SOL    HW1 5942   1.607   5.633   4.952
 1681SOL    HW2 5943   1.463   5.679   4.890
 1682SOL     OW 5944   2.419   0.773   5.842
 1682SOL    HW1 5945   2.482   0.850   5.856
 1682SOL    HW2 5946   2.332   0.807   5.806
 1683SOL     OW 5947   5.379   5.897   2.973
 1683SOL    HW1 5948   5.332   5.935   3.053
 1683SOL    HW2 5949   5.381   5.797   2.981
 1684SOL     OW 5950   0.941   4.606   1.938
 1684SOL    HW1 5951   1.004   4.608   1.861
 1684SOL    HW2 5952   0.873   4.679   1.928
 1685SOL     OW 5953   2.039   2.039   5.541
 1685SOL    HW1 5954   2.039   2.072   5.635
 1685SOL    HW2 5955   2.003   2.110   5.480
 1686SOL     OW 5956   4.112   5.325   3.938
 1686SOL    HW1 5957   4.192   5.332   3.878
 1686SOL    HW2 5958   4.102   5.411   3.989
 1687SOL     OW 5959   0.380   4.256   1.586
 1687SOL    HW1 5960   0.455   4.252   1.652
 1687SOL    HW2 5961   0.381   4.344   1.539
 1688SOL     OW 5962   1.622   2.363   3.661
 1688SOL    HW1 5963   1.523   2.373   3.654
 1688SOL    HW2 5964   1.667   2.439   3.615
 1689SOL     OW 5965   6.682   1.097   2.416
 1689SOL    HW1 5966   6.724   1.021   2.367
 1689SOL    HW2 5967   6.624   1.149   2.353
 1690SOL     OW 5968   1.301   3.287   4.124
 1690SOL    HW1 5969   1.328   3.285   4.220
 1690SOL    HW2 5970   1.383   3.277   4.066
 1691SOL     OW 5971   4.881   3.788   4.187
 1691SOL    HW1 5972   4.783   3.806   4.181
 1691SOL    HW2 5973   4.908   3.778   4.283
 1692SOL     OW 5974   5.630   5.384   1.559
 1692SOL    HW1 5975   5.661   5.324   1.633
 1692SOL    HW2 5976   5.662   5.348   1.471
 1693SOL     OW 5977   0.170   1.758   4.558
 1693SOL    HW1 5978   0.090   1.802   4.515
 1693SOL    HW2 5979   0.179   1.790   4.652
 1694SOL     OW 5980   6.399   1.004   4.440
 1694SOL    HW1 5981   6.414   1.044   4.531
 1694SOL    HW2 5982   6.350   1.070   4.382
 1695SOL     OW 5983   3.666   0.736   6.821
 1695SOL    HW1 5984   3.765   0.737   6.836
 1695SOL    HW2 5985   3.620   0.710   6.906
 1696SOL     OW 5986   4.054   5.559   0.722
 1696SOL    HW1 5987   4.084   5.654   0.728
 1696SOL    HW2 5988   3.961   5.551   0.759
 1697SOL     OW 5989   5.895   2.474   1.025
 1697SOL    HW1 5990   5.863   2.420   1.103
 1697SOL    HW2 5991   5.933   2.560   1.058
 1698SOL     OW 5992   3.515   0.682   1.668
 1698SOL    HW1 5993   3.517   0.638   1.758
 1698SOL    HW2 5994   3.425   0.723   1.654
 1699SOL     OW 5995   2.381   2.023   6.052
 1699SOL    HW1 5996   2.427   2.111   6.043
 1699SOL    HW2 5997   2.445   1.954   6.086
 1700SOL     OW 5998   5.833   3.209   3.890
 1700SOL    HW1 5999   5.822   3.284   3.825
 1700SOL    HW2 6000   5.764   3.216   3.962
 1701SOL     OW 6001   6.168   5.134   4.961
 1701SOL    HW1 6002   6.223   5.091   5.032
 1701SOL    HW2 6003   6.080   5.087   4.954
 1702SOL     OW 6004   1.279   1.121   5.935
 1702SOL    HW1 6005   1.267   1.220   5.941
 1702SOL    HW2 6006   1.302   1.084   6.025
 1703SOL     OW 6007   3.724   1.545   5.830
 1703SOL    HW1 6008   3.708   1.464   5.886
 1703SOL    HW2 6009   3.637   1.578   5.794
 1704SOL     OW 6010   1.507   1.610   6.821
 1704SOL    HW1 6011   1.578   1.648   6.880
 1704SOL    HW2 6012   1.549   1.574   6.738
 1705SOL     OW 6013   4.013   1.905   1.815
 1705SOL    HW1 6014   4.028   1.971   1.890
 1705SOL    HW2 6015   3.977   1.953   1.735
 1706SOL     OW 6016   4.148   1.597   1.004
 1706SOL    HW1 6017   4.126   1.528   1.073
 1706SOL    HW2 6018   4.077   1.668   1.004
 1707SOL     OW 6019   4.838   1.840   3.098
 1707SOL    HW1 6020   4.757   1.815   3.045
 1707SOL    HW2 6021   4.847   1.778   3.176
 1708SOL     OW 6022   3.932   5.512   1.988
 1708SOL    HW1 6023   3.974   5.571   2.056
 1708SOL    HW2 6024   3.912   5.565   1.905
 1709SOL     OW 6025   4.556   6.530   0.800
 1709SOL    HW1 6026   4.504   6.529   0.715
 1709SOL    HW2 6027   4.496   6.558   0.875
 1710SOL     OW 6028   4.428   4.994   3.243
 1710SOL    HW1 6029   4.369   5.061   3.287
 1710SOL    HW2 6030   4.442   4.917   3.305
 1711SOL     OW 6031   2.944   5.305   5.836
 1711SOL    HW1 6032   2.850   5.333   5.856
 1711SOL    HW2 6033   2.948   5.262   5.746
 1712SOL     OW 6034   0.238   2.282   4.927
 1712SOL    HW1 6035   0.318   2.221   4.924
 1712SOL    HW2 6036   0.229   2.320   5.019
 1713SOL     OW 6037   3.566   1.087   2.222
 1713SOL    HW1 6038   3.562   1.168   2.280
 1713SOL    HW2 6039   3.581   1.115   2.127
 1714SOL     OW 6040   3.209   1.934   6.969
 1714SOL    HW1 6041   3.175   1.895   6.884
 1714SOL    HW2 6042   3.306   1.957   6.959
 1715SOL     OW 6043   2.061   6.074   2.127
 1715SOL    HW1 6044   1.990   6.086   2.058
 1715SOL    HW2 6045   2.127   6.006   2.094
 1716SOL     OW 6046   4.703   0.365   4.138
 1716SOL    HW1 6047   4.801   0.382   4.140
 1716SOL    HW2 6048   4.656   0.442   4.094
 1717SOL     OW 6049   4.010   5.741   5.321
 1717SOL    HW1 6050   3.969   5.828   5.293
 1717SOL    HW2 6051   3.994   5.673   5.250
 1718SOL     OW 6052   2.256   2.257   2.504
 1718SOL    HW1 6053   2.230   2.175   2.453
 1718SOL    HW2 6054   2.345   2.242   2.548
 1719SOL     OW 6055   1.538   4.647   1.008
 1719SOL    HW1 6056   1.520   4.724   1.069
 1719SOL    HW2 6057   1.455   4.627   0.955
 1720SOL     OW 6058   6.988   2.980   6.032
 1720SOL    HW1 6059   7.017   3.015   5.943
 1720SOL    HW2 6060   0.046   2.948   6.083
 1721SOL     OW 6061   1.333   0.383   2.374
 1721SOL    HW1 6062   1.399   0.413   2.443
 1721SOL    HW2 6063   1.245   0.365   2.418
 1722SOL     OW 6064   3.158   1.779   2.924
 1722SOL    HW1 6065   3.170   1.877   2.906
 1722SOL    HW2 6066   3.061   1.757   2.925
 1723SOL     OW 6067   4.719   1.791   0.040
 1723SOL    HW1 6068   4.736   1.778   0.138
 1723SOL    HW2 6069   4.665   1.874   0.026
 1724SOL     OW 6070   6.500   2.099   1.494
 1724SOL    HW1 6071   6.416   2.145   1.465
 1724SOL    HW2 6072   6.561   2.088   1.415
 1725SOL     OW 6073   1.876   4.557   6.583
 1725SOL    HW1 6074   1.950   4.495   6.554
 1725SOL    HW2 6075   1.788   4.510   6.573
 1726SOL     OW 6076   5.983   4.060   3.684
 1726SOL    HW1 6077   5.999   3.971   3.725
 1726SOL    HW2 6078   6.054   4.078   3.615
 1727SOL     OW 6079   3.536   3.452   3.667
 1727SOL    HW1 6080   3.483   3.377   3.629
 1727SOL    HW2 6081   3.630   3.421   3.685
 1728SOL     OW 6082   4.783   4.428   5.743
 1728SOL    HW1 6083   4.703   4.415   5.685
 1728SOL    HW2 6084   4.850   4.357   5.724
 1729SOL     OW 6085   1.248   3.935   1.996
 1729SOL    HW1 6086   1.182   3.948   2.071
 1729SOL    HW2 6087   1.214   3.865   1.933
 1730SOL     OW 6088   2.598   6.194   5.173
 1730SOL    HW1 6089   2.648   6.108   5.161
 1730SOL    HW2 6090   2.612   6.229   5.265
 1731SOL     OW 6091   5.593   4.975   3.470
 1731SOL    HW1 6092   5.581   5.074   3.472
 1731SOL    HW2 6093   5.691   4.953   3.470
 1732SOL     OW 6094   2.198   4.288   6.037
 1732SOL    HW1 6095   2.135   4.292   6.114
 1732SOL    HW2 6096   2.292   4.292   6.070
 1733SOL     OW 6097   2.701   4.311   0.269
 1733SOL    HW1 6098   2.628   4.379   0.275
 1733SOL    HW2 6099   2.744   4.315   0.179
 1734SOL     OW 6100   6.525   3.032   1.357
 1734SOL    HW1 6101   6.525   3.131   1.339
 1734SOL    HW2 6102   6.433   2.996   1.343
 1735SOL     OW 6103   4.623   5.405   6.879
 1735SOL    HW1 6104   4.616   5.309   6.906
 1735SOL    HW2 6105   4.580   5.418   6.789
 1736SOL     OW 6106   4.124   3.658   1.659
 1736SOL    HW1 6107   4.130   3.735   1.723
 1736SOL    HW2 6108   4.145   3.573   1.707
 1737SOL     OW 6109   5.568   0.845   4.155
 1737SOL    HW1 6110   5.531   0.803   4.238
 1737SOL    HW2 6111   5.514   0.815   4.076
 1738SOL     OW 6112   1.919   3.723   4.542
 1738SOL    HW1 6113   1.882   3.774   4.619
 1738SOL    HW2 6114   1.992   3.663   4.574
 1739SOL     OW 6115   5.842   0.069   3.522
 1739SOL    HW1 6116   5.936   0.037   3.539
 1739SOL    HW2 6117   5.845   0.152   3.466
 1740SOL     OW 6118   6.755   1.792   4.688
 1740SOL    HW1 6119   6.795   1.851   4.758
 1740SOL    HW2 6120   6.808   1.799   4.604
 1741SOL     OW 6121   1.269   2.076   3.578
 1741SOL    HW1 6122   1.220   2.160   3.555
 1741SOL    HW2 6123   1.364   2.097   3.601
 1742SOL     OW 6124   5.980   0.385   5.931
 1742SOL    HW1 6125   5.934   0.416   6.014
 1742SOL    HW2 6126   5.912   0.354   5.865
 1743SOL     OW 6127   1.273   2.024   3.230
 1743SOL    HW1 6128   1.371   2.022   3.250
 1743SOL    HW2 6129   1.246   1.939   3.185
 1744SOL     OW 6130   5.084   2.340   3.463
 1744SOL    HW1 6131   5.021   2.408   3.499
 1744SOL    HW2 6132   5.178   2.363   3.491
 1745SOL     OW 6133   6.213   6.373   1.041
 1745SOL    HW1 6134   6.265   6.336   0.965
 1745SOL    HW2 6135   6.175   6.462   1.015
 1746SOL     OW 6136   1.962   3.675   3.829
 1746SOL    HW1 6137   1.874   3.649   3.790
 1746SOL    HW2 6138   2.018   3.593   3.842
 1747SOL     OW 6139   3.687   1.689   2.063
 1747SOL    HW1 6140   3.748   1.610   2.072
 1747SOL    HW2 6141   3.629   1.695   2.145
 1748SOL     OW 6142   6.647   1.565   4.313
 1748SOL    HW1 6143   6.622   1.486   4.257
 1748SOL    HW2 6144   6.655   1.536   4.409
 1749SOL     OW 6145   3.014   6.231   0.713
 1749SOL    HW1 6146   3.064   6.303   0.761
 1749SOL    HW2 6147   2.952   6.273   0.646
 1750SOL     OW 6148   3.851   0.817   4.937
 1750SOL    HW1 6149   3.803   0.813   5.025
 1750SOL    HW2 6150   3.905   0.900   4.932
 1751SOL     OW 6151   6.091   2.711   5.064
 1751SOL    HW1 6152   6.078   2.768   5.145
 1751SOL    HW2 6153   6.021   2.639   5.062
 1752SOL     OW 6154   6.601   1.165   1.488
 1752SOL    HW1 6155   6.639   1.072   1.489
 1752SOL    HW2 6156   6.551   1.181   1.572
 1753SOL     OW 6157   6.920   1.471   1.580
 1753SOL    HW1 6158   6.823   1.493   1.594
 1753SOL    HW2 6159   6.976   1.547   1.614
 1754SOL     OW 6160   3.108   5.857   5.768
 1754SOL    HW1 6161   3.119   5.892   5.861
 1754SOL    HW2 6162   3.087   5.760   5.770
 1755SOL     OW 6163   6.566   6.835   4.947
 1755SOL    HW1 6164   6.574   6.741   4.913
 1755SOL    HW2 6165   6.628   6.848   5.024
 1756SOL     OW 6166   5.165   0.328   6.277
 1756SOL    HW1 6167   5.196   0.417   6.308
 1756SOL    HW2 6168   5.065   0.322   6.288
 1757SOL     OW 6169   2.419   5.136   4.218
 1757SOL    HW1 6170   2.364   5.209   4.259
 1757SOL    HW2 6171   2.440   5.067   4.287
 1758SOL     OW 6172   1.900   6.689   5.392
 1758SOL    HW1 6173   1.950   6.646   5.468
 1758SOL    HW2 6174   1.965   6.740   5.335
 1759SOL     OW 6175   1.337   6.092   6.250
 1759SOL    HW1 6176   1.269   6.126   6.184
 1759SOL    HW2 6177   1.329   6.144   6.335
 1760SOL     OW 6178   6.057   0.693   4.984
 1760SOL    HW1 6179   6.140   0.640   4.963
 1760SOL    HW2 6180   6.072   0.789   4.961
 1761SOL     OW 6181   6.786   1.937   1.509
 1761SOL    HW1 6182   6.751   1.872   1.576
 1761SOL    HW2 6183   6.855   1.996   1.552
 1762SOL     OW 6184   0.648   1.558   5.150
 1762SOL    HW1 6185   0.654   1.459   5.164
 1762SOL    HW2 6186   0.711   1.605   5.212
 1763SOL     OW 6187   1.124   4.245   4.855
 1763SOL    HW1 6188   1.052   4.304   4.893
 1763SOL    HW2 6189   1.191   4.301   4.807
 1764SOL     OW 6190   1.442   4.128   2.076
 1764SOL    HW1 6191   1.483   4.161   1.991
 1764SOL    HW2 6192   1.370   4.062   2.054
 1765SOL     OW 6193   4.965   2.787   1.612
 1765SOL    HW1 6194   4.875   2.770   1.652
 1765SOL    HW2 6195   5.010   2.861   1.661
 1766SOL     OW 6196   4.570   4.497   3.741
 1766SOL    HW1 6197   4.669   4.497   3.755
 1766SOL    HW2 6198   4.538   4.403   3.730
 1767SOL     OW 6199   6.881   5.207   2.432
 1767SOL    HW1 6200   6.913   5.300   2.415
 1767SOL    HW2 6201   6.885   5.188   2.530
 1768SOL     OW 6202   4.496   6.085   1.392
 1768SOL    HW1 6203   4.427   6.102   1.321
 1768SOL    HW2 6204   4.548   6.169   1.409
 1769SOL     OW 6205   6.025   0.401   6.619
 1769SOL    HW1 6206   6.027   0.389   6.718
 1769SOL    HW2 6207   5.932   0.384   6.585
 1770SOL     OW 6208   1.131   4.949   5.373
 1770SOL    HW1 6209   1.208   4.897   5.337
 1770SOL    HW2 6210   1.083   4.995   5.297
 1771SOL     OW 6211   1.217   4.433   6.851
 1771SOL    HW1 6212   1.284   4.507   6.850
 1771SOL    HW2 6213   1.252   4.356   6.798
 1772SOL     OW 6214   3.405   5.161   3.959
 1772SOL    HW1 6215   3.423   5.245   3.908
 1772SOL    HW2 6216   3.384   5.087   3.895
 1773SOL     OW 6217   0.882   0.712   4.785
 1773SOL    HW1 6218   0.831   0.638   4.741
 1773SOL    HW2 6219   0.880   0.793   4.727
 1774SOL     OW 6220   5.996   6.679   1.700
 1774SOL    HW1 6221   5.915   6.627   1.672
 1774SOL    HW2 6222   5.976   6.777   1.696
 1775SOL     OW 6223   2.054   5.252   6.351
 1775SOL    HW1 6224   2.124   5.188   6.382
 1775SOL    HW2 6225   2.039   5.241   6.253
 1776SOL     OW 6226   5.165   1.054   5.369
 1776SOL    HW1 6227   5.206   1.142   5.395
 1776SOL    HW2 6228   5.233   0.981   5.380
 1777SOL     OW 6229   4.222   6.615   6.427
 1777SOL    HW1 6230   4.265   6.530   6.457
 1777SOL    HW2 6231   4.124   6.611   6.444
 1778SOL     OW 6232   5.432   1.527   4.154
 1778SOL    HW1 6233   5.503   1.528   4.225
 1778SOL    HW2 6234   5.475   1.505   4.066
 1779SOL     OW 6235   4.822   0.129   5.115
 1779SOL    HW1 6236   4.920   0.108   5.115
 1779SOL    HW2 6237   4.800   0.184   5.196
 1780SOL     OW 6238   1.318   5.290   4.442
 1780SOL    HW1 6239   1.374   5.335   4.511
 1780SOL    HW2 6240   1.305   5.194   4.467
 1781SOL     OW 6241   4.558   0.277   4.366
 1781SOL    HW1 6242   4.600   0.269   4.275
 1781SOL    HW2 6243   4.625   0.250   4.435
 1782SOL     OW 6244   1.753   1.751   3.037
 1782SOL    HW1 6245   1.811   1.832   3.043
 1782SOL    HW2 6246   1.799   1.679   2.986
 1783SOL     OW 6247   2.222   3.508   5.815
 1783SOL    HW1 6248   2.179   3.518   5.726
 1783SOL    HW2 6249   2.278   3.588   5.834
 1784SOL     OW 6250   2.362   0.472   0.990
 1784SOL    HW1 6251   2.348   0.439   1.083
 1784SOL    HW2 6252   2.275   0.505   0.952
 1785SOL     OW 6253   0.717   6.479   4.384
 1785SOL    HW1 6254   0.781   6.411   4.351
 1785SOL    HW2 6255   0.624   6.452   4.359
 1786SOL     OW 6256   2.099   5.662   0.821
 1786SOL    HW1 6257   2.159   5.694   0.895
 1786SOL    HW2 6258   2.009   5.640   0.859
 1787SOL     OW 6259   1.687   2.649   5.409
 1787SOL    HW1 6260   1.622   2.577   5.433
 1787SOL    HW2 6261   1.732   2.682   5.492
 1788SOL     OW 6262   4.304   3.984   0.359
 1788SOL    HW1 6263   4.369   3.912   0.386
 1788SOL    HW2 6264   4.312   4.061   0.422
 1789SOL     OW 6265   6.396   3.393   1.904
 1789SOL    HW1 6266   6.373   3.353   1.993
 1789SOL    HW2 6267   6.315   3.437   1.866
 1790SOL     OW 6268   2.851   2.063   4.302
 1790SOL    HW1 6269   2.912   2.141   4.287
 1790SOL    HW2 6270   2.812   2.069   4.394
 1791SOL     OW 6271   6.458   0.909   3.740
 1791SOL    HW1 6272   6.547   0.882   3.703
 1791SOL    HW2 6273   6.468   0.997   3.787
 1792SOL     OW 6274   6.988   2.265   5.299
 1792SOL    HW1 6275   0.065   2.264   5.311
 1792SOL    HW2 6276   6.958   2.358   5.278
 1793SOL     OW 6277   0.399   1.333   5.216
 1793SOL    HW1 6278   0.385   1.406   5.282
 1793SOL    HW2 6279   0.312   1.289   5.196
 1794SOL     OW 6280   6.519   0.140   6.354
 1794SOL    HW1 6281   6.448   0.163   6.422
 1794SOL    HW2 6282   6.492   0.174   6.264
 1795SOL     OW 6283   5.797   4.715   0.470
 1795SOL    HW1 6284   5.733   4.735   0.544
 1795SOL    HW2 6285   5.879   4.771   0.480
 1796SOL     OW 6286   1.343   0.047   5.009
 1796SOL    HW1 6287   1.362   0.039   5.106
 1796SOL    HW2 6288   1.421   0.090   4.963
 1797SOL     OW 6289   2.000   6.257   4.913
 1797SOL    HW1 6290   2.025   6.191   4.842
 1797SOL    HW2 6291   1.902   6.278   4.906
 1798SOL     OW 6292   3.447   3.578   4.482
 1798SOL    HW1 6293   3.373   3.645   4.486
 1798SOL    HW2 6294   3.410   3.486   4.487
 1799SOL     OW 6295   3.403   0.563   6.579
 1799SOL    HW1 6296   3.393   0.527   6.672
 1799SOL    HW2 6297   3.447   0.652   6.582
 1800SOL     OW 6298   5.032   4.173   3.830
 1800SOL    HW1 6299   5.052   4.081   3.863
 1800SOL    HW2 6300   5.036   4.175   3.731
 1801SOL     OW 6301   1.247   1.229   1.925
 1801SOL    HW1 6302   1.294   1.175   1.995
 1801SOL    HW2 6303   1.308   1.301   1.892
 1802SOL     OW 6304   6.364   4.634   3.549
 1802SOL    HW1 6305   6.338   4.731   3.555
 1802SOL    HW2 6306   6.324   4.584   3.626
 1803SOL     OW 6307   0.015   6.296   2.667
 1803SOL    HW1 6308   6.959   6.234   2.679
 1803SOL    HW2 6309   7.015   6.365   2.598
 1804SOL     OW 6310   3.452   3.578   6.062
 1804SOL    HW1 6311   3.359   3.573   6.098
 1804SOL    HW2 6312   3.468   3.501   6.001
 1805SOL     OW 6313   0.546   6.715   6.140
 1805SOL    HW1 6314   0.629   6.711   6.195
 1805SOL    HW2 6315   0.533   6.627   6.093
 1806SOL     OW 6316   6.628   2.574   2.135
 1806SOL    HW1 6317   6.659   2.486   2.170
 1806SOL    HW2 6318   6.675   2.594   2.049
 1807SOL     OW 6319   6.614   4.150   1.473
 1807SOL    HW1 6320   6.636   4.078   1.539
 1807SOL    HW2 6321   6.545   4.116   1.409
 1808SOL     OW 6322   4.816   2.378   5.508
 1808SOL    HW1 6323   4.866   2.295   5.533
 1808SOL    HW2 6324   4.880   2.444   5.470
 1809SOL     OW 6325   3.820   2.095   5.134
 1809SOL    HW1 6326   3.735   2.062   5.094
 1809SOL    HW2 6327   3.863   2.161   5.072
 1810SOL     OW 6328   0.084   0.105   3.745
 1810SOL    HW1 6329   0.006   0.144   3.697
 1810SOL    HW2 6330   0.074   0.118   3.843
 1811SOL     OW 6331   3.826   5.124   2.295
 1811SOL    HW1 6332   3.880   5.089   2.218
 1811SOL    HW2 6333   3.863   5.212   2.323
 1812SOL     OW 6334   4.475   0.066   6.364
 1812SOL    HW1 6335   4.378   0.071   6.342
 1812SOL    HW2 6336   4.523   0.142   6.319
 1813SOL     OW 6337   4.721   4.819   2.595
 1813SOL    HW1 6338   4.763   4.731   2.573
 1813SOL    HW2 6339   4.770   4.892   2.548
 1814SOL     OW 6340   0.698   6.863   0.650
 1814SOL    HW1 6341   0.672   6.956   0.676
 1814SOL    HW2 6342   0.759   6.866   0.571
 1815SOL     OW 6343   5.703   5.851   2.331
 1815SOL    HW1 6344   5.692   5.840   2.232
 1815SOL    HW2 6345   5.679   5.945   2.356
 1816SOL     OW 6346   4.293   5.830   5.439
 1816SOL    HW1 6347   4.373   5.870   5.485
 1816SOL    HW2 6348   4.227   5.902   5.419
 1817SOL     OW 6349   2.714   1.479   2.955
 1817SOL    HW1 6350   2.657   1.451   2.878
 1817SOL    HW2 6351   2.716   1.405   3.023
 1818SOL     OW 6352   1.790   6.930   0.044
 1818SOL    HW1 6353   1.855   6.874   0.094
 1818SOL    HW2 6354   1.703   6.881   0.035
 1819SOL     OW 6355   0.848   4.599   2.893
 1819SOL    HW1 6356   0.764   4.549   2.871
 1819SOL    HW2 6357   0.902   4.546   2.958
 1820SOL     OW 6358   4.024   0.208   3.456
 1820SOL    HW1 6359   4.028   0.259   3.541
 1820SOL    HW2 6360   4.113   0.164   3.440
 1821SOL     OW 6361   3.652   0.854   1.981
 1821SOL    HW1 6362   3.746   0.871   2.012
 1821SOL    HW2 6363   3.655   0.802   1.896
 1822SOL     OW 6364   0.826   3.683   1.921
 1822SOL    HW1 6365   0.919   3.721   1.923
 1822SOL    HW2 6366   0.817   3.622   1.842
 1823SOL     OW 6367   4.111   6.263   2.204
 1823SOL    HW1 6368   4.165   6.344   2.226
 1823SOL    HW2 6369   4.018   6.291   2.180
 1824SOL     OW 6370   4.253   4.039   1.118
 1824SOL    HW1 6371   4.353   4.043   1.116
 1824SOL    HW2 6372   4.224   3.999   1.205
 1825SOL     OW 6373   1.841   2.536   4.821
 1825SOL    HW1 6374   1.865   2.448   4.781
 1825SOL    HW2 6375   1.741   2.542   4.830
 1826SOL     OW 6376   3.425   1.973   1.732
 1826SOL    HW1 6377   3.480   1.968   1.815
 1826SOL    HW2 6378   3.407   2.068   1.709
 1827SOL     OW 6379   5.586   4.851   0.606
 1827SOL    HW1 6380   5.504   4.861   0.549
 1827SOL    HW2 6381   5.572   4.776   0.670
 1828SOL     OW 6382   1.369   3.597   6.090
 1828SOL    HW1 6383   1.411   3.539   6.160
 1828SOL    HW2 6384   1.415   3.686   6.089
 1829SOL     OW 6385   3.752   0.646   3.977
 1829SOL    HW1 6386   3.765   0.551   4.004
 1829SOL    HW2 6387   3.778   0.707   4.052
 1830SOL     OW 6388   5.916   0.021   4.895
 1830SOL    HW1 6389   5.951   6.965   4.947
 1830SOL    HW2 6390   5.853   0.074   4.952
 1831SOL     OW 6391   5.316   5.103   2.801
 1831SOL    HW1 6392   5.329   5.142   2.709
 1831SOL    HW2 6393   5.228   5.055   2.804
 1832SOL     OW 6394   2.421   3.762   0.573
 1832SOL    HW1 6395   2.328   3.780   0.543
 1832SOL    HW2 6396   2.468   3.707   0.505
 1833SOL     OW 6397   5.093   6.777   1.906
 1833SOL    HW1 6398   5.134   6.867   1.890
 1833SOL    HW2 6399   5.153   6.706   1.869
 1834SOL     OW 6400   2.729   2.208   0.225
 1834SOL    HW1 6401   2.767   2.131   0.173
 1834SOL    HW2 6402   2.692   2.174   0.311
 1835SOL     OW 6403   0.121   5.043   1.303
 1835SOL    HW1 6404   0.163   5.134   1.300
 1835SOL    HW2 6405   0.187   4.975   1.271
 1836SOL     OW 6406   5.706   1.855   1.887
 1836SOL    HW1 6407   5.800   1.888   1.880
 1836SOL    HW2 6408   5.706   1.757   1.904
 1837SOL     OW 6409   2.707   0.814   6.134
 1837SOL    HW1 6410   2.723   0.896   6.189
 1837SOL    HW2 6411   2.610   0.790   6.136
 1838SOL     OW 6412   6.023   0.710   0.670
 1838SOL    HW1 6413   5.996   0.617   0.694
 1838SOL    HW2 6414   6.121   0.714   0.653
 1839SOL     OW 6415   5.807   1.428   0.608
 1839SOL    HW1 6416   5.779   1.462   0.698
 1839SOL    HW2 6417   5.820   1.329   0.613
 1840SOL     OW 6418   4.008   0.133   3.003
 1840SOL    HW1 6419   3.953   0.208   3.039
 1840SOL    HW2 6420   4.096   0.130   3.051
 1841SOL     OW 6421   2.295   0.608   2.135
 1841SOL    HW1 6422   2.360   0.558   2.192
 1841SOL    HW2 6423   2.269   0.551   2.057
 1842SOL     OW 6424   2.128   4.634   1.080
 1842SOL    HW1 6425   2.119   4.552   1.135
 1842SOL    HW2 6426   2.192   4.697   1.124
 1843SOL     OW 6427   3.426   1.562   4.584
 1843SOL    HW1 6428   3.356   1.590   4.650
 1843SOL    HW2 6429   3.509   1.536   4.633
 1844SOL     OW 6430   4.961   1.293   6.323
 1844SOL    HW1 6431   4.959   1.358   6.399
 1844SOL    HW2 6432   4.878   1.237   6.325
 1845SOL     OW 6433   2.227   1.131   3.227
 1845SOL    HW1 6434   2.137   1.106   3.192
 1845SOL    HW2 6435   2.259   1.061   3.289
 1846SOL     OW 6436   4.573   1.036   2.978
 1846SOL    HW1 6437   4.597   0.953   3.028
 1846SOL    HW2 6438   4.521   1.011   2.896
 1847SOL     OW 6439   2.402   0.499   4.437
 1847SOL    HW1 6440   2.454   0.417   4.461
 1847SOL    HW2 6441   2.414   0.569   4.508
 1848SOL     OW 6442   2.059   5.961   4.313
 1848SOL    HW1 6443   2.088   5.974   4.218
 1848SOL    HW2 6444   2.106   5.882   4.351
 1849SOL     OW 6445   4.316   2.369   2.655
 1849SOL    HW1 6446   4.336   2.422   2.738
 1849SOL    HW2 6447   4.401   2.340   2.612
 1850SOL     OW 6448   5.117   2.304   2.213
 1850SOL    HW1 6449   5.120   2.400   2.183
 1850SOL    HW2 6450   5.115   2.244   2.133
 1851SOL     OW 6451   0.207   2.873   6.164
 1851SOL    HW1 6452   0.165   2.824   6.240
 1851SOL    HW2 6453   0.260   2.950   6.200
 1852SOL     OW 6454   1.426   4.325   2.280
 1852SOL    HW1 6455   1.418   4.240   2.229
 1852SOL    HW2 6456   1.336   4.355   2.310
 1853SOL     OW 6457   0.359   3.212   4.470
 1853SOL    HW1 6458   0.272   3.164   4.479
 1853SOL    HW2 6459   0.398   3.228   4.560
 1854SOL     OW 6460   0.780   5.883   3.223
 1854SOL    HW1 6461   0.758   5.945   3.148
 1854SOL    HW2 6462   0.755   5.925   3.310
 1855SOL     OW 6463   4.930   3.373   4.565
 1855SOL    HW1 6464   5.007   3.383   4.627
 1855SOL    HW2 6465   4.923   3.278   4.534
 1856SOL     OW 6466   3.847   3.550   6.943
 1856SOL    HW1 6467   3.819   3.468   6.994
 1856SOL    HW2 6468   3.848   3.629   7.005
 1857SOL     OW 6469   5.172   0.767   0.352
 1857SOL    HW1 6470   5.203   0.840   0.292
 1857SOL    HW2 6471   5.102   0.801   0.414
 1858SOL     OW 6472   4.355   2.131   4.360
 1858SOL    HW1 6473   4.328   2.059   4.424
 1858SOL    HW2 6474   4.404   2.091   4.283
 1859SOL     OW 6475   5.921   2.025   5.054
 1859SOL    HW1 6476   5.921   1.992   5.148
 1859SOL    HW2 6477   5.834   2.003   5.011
 1860SOL     OW 6478   0.749   1.734   4.953
 1860SOL    HW1 6479   0.731   1.649   5.002
 1860SOL    HW2 6480   0.847   1.742   4.935
 1861SOL     OW 6481   6.373   0.842   2.537
 1861SOL    HW1 6482   6.397   0.845   2.634
 1861SOL    HW2 6483   6.286   0.890   2.523
 1862SOL     OW 6484   1.959   6.489   6.899
 1862SOL    HW1 6485   1.930   6.411   6.845
 1862SOL    HW2 6486   1.919   6.573   6.861
 1863SOL     OW 6487   0.365   3.236   1.420
 1863SOL    HW1 6488   0.294   3.198   1.361
 1863SOL    HW2 6489   0.379   3.332   1.398
 1864SOL     OW 6490   3.235   6.076   3.487
 1864SOL    HW1 6491   3.275   6.106   3.573
 1864SOL    HW2 6492   3.165   6.007   3.504
 1865SOL     OW 6493   4.928   1.102   0.038
 1865SOL    HW1 6494   4.971   1.132   0.123
 1865SOL    HW2 6495   4.933   1.003   0.030
 1866SOL     OW 6496   0.811   4.400   4.019
 1866SOL    HW1 6497   0.716   4.394   4.051
 1866SOL    HW2 6498   0.871   4.416   4.097
 1867SOL     OW 6499   2.563   2.187   1.524
 1867SOL    HW1 6500   2.524   2.177   1.433
 1867SOL    HW2 6501   2.502   2.147   1.592
 1868SOL     OW 6502   5.544   4.209   5.636
 1868SOL    HW1 6503   5.466   4.256   5.677
 1868SOL    HW2 6504   5.525   4.110   5.633
 1869SOL     OW 6505   4.534   2.139   4.075
 1869SOL    HW1 6506   4.629   2.117   4.051
 1869SOL    HW2 6507   4.523   2.239   4.077
 1870SOL     OW 6508   1.556   4.425   4.307
 1870SOL    HW1 6509   1.534   4.357   4.378
 1870SOL    HW2 6510   1.604   4.380   4.232
 1871SOL     OW 6511   0.867   6.877   0.426
 1871SOL    HW1 6512   0.837   6.784   0.406
 1871SOL    HW2 6513   0.965   6.885   0.409
 1872SOL     OW 6514   3.315   1.943   0.564
 1872SOL    HW1 6515   3.276   2.028   0.599
 1872SOL    HW2 6516   3.392   1.915   0.622
 1873SOL     OW 6517   6.210   0.712   6.844
 1873SOL    HW1 6518   6.231   0.689   6.938
 1873SOL    HW2 6519   6.237   0.637   6.784
 1874SOL     OW 6520   1.014   6.392   6.067
 1874SOL    HW1 6521   0.922   6.391   6.030
 1874SOL    HW2 6522   1.045   6.298   6.081
 1875SOL     OW 6523   6.578   5.536   6.734
 1875SOL    HW1 6524   6.547   5.580   6.818
 1875SOL    HW2 6525   6.562   5.437   6.741
 1876SOL     OW 6526   5.766   6.438   6.086
 1876SOL    HW1 6527   5.828   6.452   6.009
 1876SOL    HW2 6528   5.675   6.414   6.050
 1877SOL     OW 6529   0.671   1.553   2.266
 1877SOL    HW1 6530   0.633   1.518   2.352
 1877SOL    HW2 6531   0.701   1.476   2.210
 1878SOL     OW 6532   0.579   4.307   3.279
 1878SOL    HW1 6533   0.632   4.281   3.360
 1878SOL    HW2 6534   0.541   4.399   3.292
 1879SOL     OW 6535   3.121   5.262   4.782
 1879SOL    HW1 6536   3.150   5.288   4.874
 1879SOL    HW2 6537   3.119   5.162   4.774
 1880SOL     OW 6538   6.958   2.283   3.445
 1880SOL    HW1 6539   6.985   2.220   3.517
 1880SOL    HW2 6540   7.021   2.360   3.443
 1881SOL     OW 6541   0.725   2.386   4.067
 1881SOL    HW1 6542   0.719   2.320   3.992
 1881SOL    HW2 6543   0.797   2.357   4.130
 1882SOL     OW 6544   1.131   6.159   0.012
 1882SOL    HW1 6545   1.161   6.168   0.107
 1882SOL    HW2 6546   1.101   6.065   7.018
 1883SOL     OW 6547   1.350   3.900   2.835
 1883SOL    HW1 6548   1.265   3.935   2.874
 1883SOL    HW2 6549   1.391   3.834   2.898
 1884SOL     OW 6550   3.254   1.132   0.512
 1884SOL    HW1 6551   3.214   1.212   0.467
 1884SOL    HW2 6552   3.338   1.106   0.465
 1885SOL     OW 6553   0.022   2.749   0.719
 1885SOL    HW1 6554   0.102   2.693   0.700
 1885SOL    HW2 6555   0.041   2.810   0.796
 1886SOL     OW 6556   2.116   1.671   6.496
 1886SOL    HW1 6557   2.169   1.643   6.576
 1886SOL    HW2 6558   2.033   1.617   6.491
 1887SOL     OW 6559   0.906   5.678   5.596
 1887SOL    HW1 6560   0.967   5.746   5.556
 1887SOL    HW2 6561   0.883   5.704   5.690
 1888SOL     OW 6562   1.997   1.781   5.420
 1888SOL    HW1 6563   2.013   1.858   5.482
 1888SOL    HW2 6564   2.026   1.696   5.463
 1889SOL     OW 6565   4.315   2.919   6.982
 1889SOL    HW1 6566   4.340   2.838   0.014
 1889SOL    HW2 6567   4.267   2.890   6.900
 1890SOL     OW 6568   0.812   5.643   6.416
 1890SOL    HW1 6569   0.776   5.708   6.349
 1890SOL    HW2 6570   0.770   5.554   6.402
 1891SOL     OW 6571   5.513   3.420   5.492
 1891SOL    HW1 6572   5.513   3.509   5.445
 1891SOL    HW2 6573   5.592   3.367   5.462
 1892SOL     OW 6574   3.843   5.724   1.079
 1892SOL    HW1 6575   3.758   5.673   1.099
 1892SOL    HW2 6576   3.902   5.722   1.159
 1893SOL     OW 6577   3.844   2.151   3.706
 1893SOL    HW1 6578   3.902   2.231   3.696
 1893SOL    HW2 6579   3.838   2.125   3.802
 1894SOL     OW 6580   4.486   3.770   1.696
 1894SOL    HW1 6581   4.547   3.691   1.689
 1894SOL    HW2 6582   4.419   3.767   1.622
 1895SOL     OW 6583   6.454   0.862   2.287
 1895SOL    HW1 6584   6.438   0.870   2.385
 1895SOL    HW2 6585   6.367   0.870   2.238
 1896SOL     OW 6586   6.003   1.712   4.718
 1896SOL    HW1 6587   6.038   1.722   4.811
 1896SOL    HW2 6588   6.070   1.749   4.653
 1897SOL     OW 6589   6.295   4.909   3.591
 1897SOL    HW1 6590   6.294   4.971   3.670
 1897SOL    HW2 6591   6.378   4.926   3.537
 1898SOL     OW 6592   5.577   5.906   0.942
 1898SOL    HW1 6593   5.671   5.891   0.973
 1898SOL    HW2 6594   5.514   5.881   1.015
 1899SOL     OW 6595   0.481   3.112   3.175
 1899SOL    HW1 6596   0.384   3.137   3.178
 1899SOL    HW2 6597   0.504   3.058   3.256
 1900SOL     OW 6598   1.484   6.134   6.013
 1900SOL    HW1 6599   1.455   6.129   6.109
 1900SOL    HW2 6600   1.546   6.058   5.993
 1901SOL     OW 6601   1.931   0.457   6.986
 1901SOL    HW1 6602   1.861   0.528   6.977
 1901SOL    HW2 6603   1.971   0.438   6.896
 1902SOL     OW 6604   0.894   3.424   4.152
 1902SOL    HW1 6605   0.853   3.349   4.100
 1902SOL    HW2 6606   0.824   3.491   4.177
 1903SOL     OW 6607   6.607   4.369   3.363
 1903SOL    HW1 6608   6.670   4.325   3.300
 1903SOL    HW2 6609   6.658   4.417   3.434
 1904SOL     OW 6610   0.284   0.100   4.419
 1904SOL    HW1 6611   0.333   0.185   4.396
 1904SOL    HW2 6612   0.326   0.024   4.369
 1905SOL     OW 6613   6.922   2.539   4.075
 1905SOL    HW1 6614   6.844   2.518   4.134
 1905SOL    HW2 6615   6.964   2.454   4.045
 1906SOL     OW 6616   2.305   7.009   6.096
 1906SOL    HW1 6617   2.404   7.011   6.081
 1906SOL    HW2 6618   2.282   6.933   6.157
 1907SOL     OW 6619   3.244   6.599   3.332
 1907SOL    HW1 6620   3.206   6.657   3.404
 1907SOL    HW2 6621   3.294   6.656   3.267
 1908SOL     OW 6622   4.410   0.765   6.073
 1908SOL    HW1 6623   4.389   0.668   6.081
 1908SOL    HW2 6624   4.501   0.783   6.112
 1909SOL     OW 6625   2.333   4.493   4.961
 1909SOL    HW1 6626   2.304   4.415   4.905
 1909SOL    HW2 6627   2.379   4.560   4.903
 1910SOL     OW 6628   5.294   2.249   6.535
 1910SOL    HW1 6629   5.333   2.211   6.451
 1910SOL    HW2 6630   5.336   2.205   6.614
 1911SOL     OW 6631   6.628   2.503   5.110
 1911SOL    HW1 6632   6.645   2.405   5.104
 1911SOL    HW2 6633   6.538   2.523   5.071
 1912SOL     OW 6634   3.386   6.704   2.434
 1912SOL    HW1 6635   3.435   6.751   2.360
 1912SOL    HW2 6636   3.406   6.748   2.521
 1913SOL     OW 6637   1.869   5.905   5.168
 1913SOL    HW1 6638   1.869   5.806   5.180
 1913SOL    HW2 6639   1.802   5.931   5.099
 1914SOL     OW 6640   2.544   2.678   6.227
 1914SOL    HW1 6641   2.506   2.734   6.153
 1914SOL    HW2 6642   2.634   2.715   6.253
 1915SOL     OW 6643   4.078   0.664   6.145
 1915SOL    HW1 6644   4.000   0.611   6.112
 1915SOL    HW2 6645   4.161   0.608   6.140
 1916SOL     OW 6646   3.980   5.726   1.317
 1916SOL    HW1 6647   3.944   5.651   1.371
 1916SOL    HW2 6648   4.076   5.708   1.294
 1917SOL     OW 6649   3.266   4.096   4.454
 1917SOL    HW1 6650   3.347   4.136   4.412
 1917SOL    HW2 6651   3.270   4.108   4.553
 1918SOL     OW 6652   5.976   6.341   5.874
 1918SOL    HW1 6653   6.063   6.389   5.886
 1918SOL    HW2 6654   5.977   6.257   5.928
 1919SOL     OW 6655   0.931   6.329   2.503
 1919SOL    HW1 6656   0.929   6.231   2.482
 1919SOL    HW2 6657   0.855   6.374   2.456
 1920SOL     OW 6658   0.457   5.269   3.396
 1920SOL    HW1 6659   0.541   5.290   3.446
 1920SOL    HW2 6660   0.393   5.223   3.457
 1921SOL     OW 6661   1.410   6.172   6.897
 1921SOL    HW1 6662   1.480   6.222   6.949
 1921SOL    HW2 6663   1.327   6.166   6.952
 1922SOL     OW 6664   4.080   3.289   1.424
 1922SOL    HW1 6665   4.018   3.357   1.384
 1922SOL    HW2 6666   4.065   3.201   1.379
 1923SOL     OW 6667   2.287   1.040   0.953
 1923SOL    HW1 6668   2.386   1.043   0.942
 1923SOL    HW2 6669   2.263   1.072   1.045
 1924SOL     OW 6670   6.550   4.589   1.970
 1924SOL    HW1 6671   6.589   4.679   1.953
 1924SOL    HW2 6672   6.498   4.560   1.889
 1925SOL     OW 6673   3.395   3.842   1.880
 1925SOL    HW1 6674   3.397   3.869   1.977
 1925SOL    HW2 6675   3.380   3.924   1.824
 1926SOL     OW 6676   1.403   0.146   4.608
 1926SOL    HW1 6677   1.434   0.176   4.698
 1926SOL    HW2 6678   1.420   0.048   4.597
 1927SOL     OW 6679   4.286   3.543   6.816
 1927SOL    HW1 6680   4.219   3.571   6.885
 1927SOL    HW2 6681   4.346   3.620   6.795
 1928SOL     OW 6682   6.805   3.548   5.986
 1928SOL    HW1 6683   6.834   3.603   6.064
 1928SOL    HW2 6684   6.769   3.608   5.915
 1929SOL     OW 6685   1.425   6.426   1.651
 1929SOL    HW1 6686   1.443   6.503   1.589
 1929SOL    HW2 6687   1.343   6.378   1.620
 1930SOL     OW 6688   6.440   4.304   6.733
 1930SOL    HW1 6689   6.537   4.319   6.715
 1930SOL    HW2 6690   6.389   4.386   6.710
 1931SOL     OW 6691   6.933   3.616   2.925
 1931SOL    HW1 6692   6.985   3.677   2.865
 1931SOL    HW2 6693   6.933   3.654   3.018
 1932SOL     OW 6694   5.221   3.816   2.207
 1932SOL    HW1 6695   5.219   3.812   2.107
 1932SOL    HW2 6696   5.139   3.861   2.241
 1933SOL     OW 6697   3.009   4.365   0.391
 1933SOL    HW1 6698   2.958   4.283   0.421
 1933SOL    HW2 6699   3.007   4.433   0.464
 1934SOL     OW 6700   0.898   0.442   5.672
 1934SOL    HW1 6701   0.932   0.533   5.645
 1934SOL    HW2 6702   0.953   0.408   5.748
 1935SOL     OW 6703   2.399   6.899   4.343
 1935SOL    HW1 6704   2.462   6.971   4.313
 1935SOL    HW2 6705   2.305   6.926   4.323
 1936SOL     OW 6706   5.511   5.934   4.623
 1936SOL    HW1 6707   5.603   5.968   4.644
 1936SOL    HW2 6708   5.510   5.834   4.630
 1937SOL     OW 6709   4.003   6.862   1.675
 1937SOL    HW1 6710   3.906   6.837   1.683
 1937SOL    HW2 6711   4.015   6.925   1.599
 1938SOL     OW 6712   3.716   1.283   3.638
 1938SOL    HW1 6713   3.655   1.305   3.562
 1938SOL    HW2 6714   3.669   1.300   3.724
 1939SOL     OW 6715   1.383   0.979   3.692
 1939SOL    HW1 6716   1.446   1.014   3.761
 1939SOL    HW2 6717   1.301   0.944   3.737
 1940SOL     OW 6718   5.557   5.300   6.993
 1940SOL    HW1 6719   5.494   5.245   6.939
 1940SOL    HW2 6720   5.648   5.258   6.990
 1941SOL     OW 6721   6.378   3.983   3.238
 1941SOL    HW1 6722   6.371   4.042   3.158
 1941SOL    HW2 6723   6.353   3.889   3.213
 1942SOL     OW 6724   6.152   5.639   1.988
 1942SOL    HW1 6725   6.055   5.663   2.001
 1942SOL    HW2 6726   6.164   5.541   2.004
 1943SOL     OW 6727   2.979   5.351   2.939
 1943SOL    HW1 6728   2.910   5.398   2.996
 1943SOL    HW2 6729   2.936   5.274   2.893
 1944SOL     OW 6730   5.614   1.625   6.504
 1944SOL    HW1 6731   5.531   1.611   6.450
 1944SOL    HW2 6732   5.686   1.564   6.472
 1945SOL     OW 6733   5.058   5.513   2.937
 1945SOL    HW1 6734   5.139   5.456   2.948
 1945SOL    HW2 6735   5.000   5.475   2.865
 1946SOL     OW 6736   1.630   0.371   1.027
 1946SOL    HW1 6737   1.629   0.298   1.095
 1946SOL    HW2 6738   1.560   0.352   0.958
 1947SOL     OW 6739   5.590   6.490   5.052
 1947SOL    HW1 6740   5.601   6.518   4.956
 1947SOL    HW2 6741   5.644   6.407   5.069
 1948SOL     OW 6742   6.988   5.149   4.529
 1948SOL    HW1 6743   6.969   5.229   4.471
 1948SOL    HW2 6744   6.966   5.171   4.624
 1949SOL     OW 6745   4.175   4.519   6.168
 1949SOL    HW1 6746   4.134   4.587   6.229
 1949SOL    HW2 6747   4.146   4.537   6.074
 1950SOL     OW 6748   3.791   3.770   6.590
 1950SOL    HW1 6749   3.797   3.674   6.617
 1950SOL    HW2 6750   3.696   3.793   6.570
 1951SOL     OW 6751   5.699   2.351   0.328
 1951SOL    HW1 6752   5.657   2.357   0.237
 1951SOL    HW2 6753   5.798   2.354   0.319
 1952SOL     OW 6754   3.523   1.885   0.743
 1952SOL    HW1 6755   3.544   1.879   0.840
 1952SOL    HW2 6756   3.585   1.951   0.699
 1953SOL     OW 6757   6.874   2.301   0.011
 1953SOL    HW1 6758   6.890   2.302   6.935
 1953SOL    HW2 6759   6.958   2.276   0.059
 1954SOL     OW 6760   5.383   1.665   3.714
 1954SOL    HW1 6761   5.478   1.661   3.745
 1954SOL    HW2 6762   5.370   1.744   3.654
 1955SOL     OW 6763   1.577   0.267   2.237
 1955SOL    HW1 6764   1.494   0.317   2.259
 1955SOL    HW2 6765   1.574   0.238   2.141
 1956SOL     OW 6766   5.047   6.106   2.962
 1956SOL    HW1 6767   5.083   6.068   2.877
 1956SOL    HW2 6768   5.009   6.033   3.019
 1957SOL     OW 6769   0.046   5.871   4.882
 1957SOL    HW1 6770   6.985   5.876   4.938
 1957SOL    HW2 6771   0.127   5.880   4.940
 1958SOL     OW 6772   5.579   3.436   4.751
 1958SOL    HW1 6773   5.603   3.434   4.654
 1958SOL    HW2 6774   5.498   3.380   4.767
 1959SOL     OW 6775   0.558   2.669   5.540
 1959SOL    HW1 6776   0.479   2.686   5.598
 1959SOL    HW2 6777   0.584   2.572   5.547
 1960SOL     OW 6778   6.413   4.755   0.690
 1960SOL    HW1 6779   6.356   4.757   0.772
 1960SOL    HW2 6780   6.500   4.711   0.710
 1961SOL     OW 6781   5.749   5.096   4.346
 1961SOL    HW1 6782   5.710   5.013   4.386
 1961SOL    HW2 6783   5.739   5.172   4.410
 1962SOL     OW 6784   1.432   6.374   3.684
 1962SOL    HW1 6785   1.353   6.376   3.745
 1962SOL    HW2 6786   1.513   6.405   3.733
 1963SOL     OW 6787   0.574   0.609   1.722
 1963SOL    HW1 6788   0.626   0.553   1.658
 1963SOL    HW2 6789   0.565   0.702   1.684
 1964SOL     OW 6790   4.617   2.542   1.452
 1964SOL    HW1 6791   4.594   2.472   1.384
 1964SOL    HW2 6792   4.689   2.601   1.416
 1965SOL     OW 6793   0.737   3.034   2.623
 1965SOL    HW1 6794   0.657   2.983   2.593
 1965SOL    HW2 6795   0.818   3.003   2.572
 1966SOL     OW 6796   0.268   5.087   4.760
 1966SOL    HW1 6797   0.240   5.183   4.769
 1966SOL    HW2 6798   0.358   5.083   4.715
 1967SOL     OW 6799   4.791   2.442   5.777
 1967SOL    HW1 6800   4.723   2.515   5.774
 1967SOL    HW2 6801   4.835   2.434   5.687
 1968SOL     OW 6802   3.092   6.000   6.973
 1968SOL    HW1 6803   3.110   5.903   6.992
 1968SOL    HW2 6804   3.003   6.010   6.929
 1969SOL     OW 6805   6.552   2.435   1.689
 1969SOL    HW1 6806   6.594   2.354   1.646
 1969SOL    HW2 6807   6.592   2.518   1.650
 1970SOL     OW 6808   1.919   0.453   5.753
 1970SOL    HW1 6809   1.819   0.452   5.751
 1970SOL    HW2 6810   1.951   0.424   5.843
 1971SOL     OW 6811   0.062   6.763   6.651
 1971SOL    HW1 6812   0.039   6.776   6.555
 1971SOL    HW2 6813   0.161   6.745   6.659
 1972SOL     OW 6814   0.623   3.393   3.324
 1972SOL    HW1 6815   0.562   3.397   3.245
 1972SOL    HW2 6816   0.580   3.337   3.396
 1973SOL     OW 6817   3.565   2.769   1.819
 1973SOL    HW1 6818   3.474   2.808   1.829
 1973SOL    HW2 6819   3.620   2.792   1.899
 1974SOL     OW 6820   6.077   6.258   3.960
 1974SOL    HW1 6821   6.102   6.343   4.006
 1974SOL    HW2 6822   5.983   6.233   3.985
 1975SOL     OW 6823   1.987   0.503   3.825
 1975SOL    HW1 6824   1.898   0.526   3.784
 1975SOL    HW2 6825   2.024   0.423   3.779
 1976SOL     OW 6826   0.421   6.102   0.338
 1976SOL    HW1 6827   0.487   6.173   0.361
 1976SOL    HW2 6828   0.344   6.142   0.288
 1977SOL     OW 6829   0.579   2.862   3.897
 1977SOL    HW1 6830   0.572   2.770   3.859
 1977SOL    HW2 6831   0.491   2.908   3.888
 1978SOL     OW 6832   0.930   1.463   4.395
 1978SOL    HW1 6833   0.887   1.374   4.411
 1978SOL    HW2 6834   0.999   1.480   4.466
 1979SOL     OW 6835   0.072   4.587   5.288
 1979SOL    HW1 6836   6.995   4.603   5.289
 1979SOL    HW2 6837   0.100   4.549   5.376
 1980SOL     OW 6838   3.353   0.342   0.829
 1980SOL    HW1 6839   3.253   0.337   0.822
 1980SOL    HW2 6840   3.379   0.425   0.877
 1981SOL     OW 6841   5.190   2.337   2.477
 1981SOL    HW1 6842   5.157   2.431   2.485
 1981SOL    HW2 6843   5.184   2.307   2.382
 1982SOL     OW 6844   6.175   5.093   5.374
 1982SOL    HW1 6845   6.220   5.102   5.286
 1982SOL    HW2 6846   6.170   5.182   5.418
 1983SOL     OW 6847   1.004   2.421   3.316
 1983SOL    HW1 6848   1.013   2.333   3.268
 1983SOL    HW2 6849   1.060   2.490   3.270
 1984SOL     OW 6850   4.435   1.844   6.054
 1984SOL    HW1 6851   4.468   1.903   6.127
 1984SOL    HW2 6852   4.336   1.832   6.062
 1985SOL     OW 6853   1.108   1.477   2.540
 1985SOL    HW1 6854   1.110   1.389   2.492
 1985SOL    HW2 6855   1.182   1.535   2.506
 1986SOL     OW 6856   1.163   1.623   0.007
 1986SOL    HW1 6857   1.104   1.634   6.949
 1986SOL    HW2 6858   1.222   1.543   7.016
 1987SOL     OW 6859   2.874   2.892   1.661
 1987SOL    HW1 6860   2.923   2.811   1.628
 1987SOL    HW2 6861   2.919   2.928   1.742
 1988SOL     OW 6862   5.107   4.371   0.029
 1988SOL    HW1 6863   5.137   4.392   0.122
 1988SOL    HW2 6864   5.052   4.446   7.016
 1989SOL     OW 6865   2.188   0.242   4.482
 1989SOL    HW1 6866   2.105   0.297   4.471
 1989SOL    HW2 6867   2.261   0.279   4.425
 1990SOL     OW 6868   3.203   0.176   1.952
 1990SOL    HW1 6869   3.205   0.092   2.006
 1990SOL    HW2 6870   3.297   0.208   1.938
 1991SOL     OW 6871   3.546   5.528   5.534
 1991SOL    HW1 6872   3.491   5.600   5.491
 1991SOL    HW2 6873   3.497   5.491   5.612
 1992SOL     OW 6874   2.889   0.010   5.653
 1992SOL    HW1 6875   2.879   6.932   5.650
 1992SOL    HW2 6876   2.799   0.051   5.668
 1993SOL     OW 6877   3.936   3.617   5.682
 1993SOL    HW1 6878   3.878   3.539   5.706
 1993SOL    HW2 6879   3.982   3.598   5.595
 1994SOL     OW 6880   0.804   2.208   2.114
 1994SOL    HW1 6881   0.742   2.153   2.170
 1994SOL    HW2 6882   0.804   2.172   2.020
 1995SOL     OW 6883   6.246   2.140   2.507
 1995SOL    HW1 6884   6.329   2.194   2.523
 1995SOL    HW2 6885   6.168   2.202   2.499
 1996SOL     OW 6886   3.206   2.703   1.019
 1996SOL    HW1 6887   3.243   2.767   1.085
 1996SOL    HW2 6888   3.184   2.617   1.065
 1997SOL     OW 6889   5.585   0.915   5.197
 1997SOL    HW1 6890   5.575   0.824   5.159
 1997SOL    HW2 6891   5.669   0.957   5.164
 1998SOL     OW 6892   2.886   3.825   6.682
 1998SOL    HW1 6893   2.964   3.885   6.698
 1998SOL    HW2 6894   2.908   3.762   6.607
 1999SOL     OW 6895   2.451   0.474   1.934
 1999SOL    HW1 6896   2.484   0.471   2.028
 1999SOL    HW2 6897   2.451   0.382   1.896
 2000SOL     OW 6898   4.300   1.496   5.103
 2000SOL    HW1 6899   4.358   1.450   5.170
 2000SOL    HW2 6900   4.287   1.592   5.129
 2001SOL     OW 6901   3.431   2.247   1.716
 2001SOL    HW1 6902   3.511   2.248   1.777
 2001SOL    HW2 6903   3.402   2.340   1.698
 2002SOL     OW 6904   1.388   6.293   6.433
 2002SOL    HW1 6905   1.315   6.325   6.494
 2002SOL    HW2 6906   1.441   6.371   6.401
 2003SOL     OW 6907   4.706   0.120   3.955
 2003SOL    HW1 6908   4.722   0.050   4.025
 2003SOL    HW2 6909   4.727   0.210   3.992
 2004SOL     OW 6910   4.625   1.038   4.659
 2004SOL    HW1 6911   4.533   0.999   4.669
 2004SOL    HW2 6912   4.651   1.037   4.562
 2005SOL     OW 6913   1.818   6.001   6.785
 2005SOL    HW1 6914   1.720   6.010   6.766
 2005SOL    HW2 6915   1.858   5.934   6.723
 2006SOL     OW 6916   5.103   4.507   3.606
 2006SOL    HW1 6917   5.016   4.490   3.651
 2006SOL    HW2 6918   5.135   4.599   3.626
 2007SOL     OW 6919   4.953   5.270   0.320
 2007SOL    HW1 6920   4.974   5.176   0.290
 2007SOL    HW2 6921   4.880   5.268   0.388
 2008SOL     OW 6922   0.489   5.653   3.780
 2008SOL    HW1 6923   0.541   5.684   3.701
 2008SOL    HW2 6924   0.462   5.557   3.767
 2009SOL     OW 6925   6.474   0.330   2.055
 2009SOL    HW1 6926   6.491   0.405   1.991
 2009SOL    HW2 6927   6.509   0.355   2.145
 2010SOL     OW 6928   1.940   1.125   0.936
 2010SOL    HW1 6929   1.841   1.110   0.930
 2010SOL    HW2 6930   1.983   1.097   0.851
 2011SOL     OW 6931   6.645   2.575   4.739
 2011SOL    HW1 6932   6.691   2.621   4.815
 2011SOL    HW2 6933   6.656   2.629   4.656
 2012SOL     OW 6934   0.792   3.530   1.385
 2012SOL    HW1 6935   0.762   3.624   1.370
 2012SOL    HW2 6936   0.870   3.510   1.326
 2013SOL     OW 6937   5.475   1.371   2.724
 2013SOL    HW1 6938   5.551   1.308   2.740
 2013SOL    HW2 6939   5.424   1.342   2.643
 2014SOL     OW 6940   1.068   5.817   3.595
 2014SOL    HW1 6941   0.993   5.751   3.600
 2014SOL    HW2 6942   1.054   5.890   3.661
 2015SOL     OW 6943   3.154   1.280   6.682
 2015SOL    HW1 6944   3.057   1.273   6.662
 2015SOL    HW2 6945   3.198   1.340   6.615
 2016SOL     OW 6946   0.443   5.359   4.804
 2016SOL    HW1 6947   0.464   5.301   4.883
 2016SOL    HW2 6948   0.429   5.453   4.835
 2017SOL     OW 6949   3.496   6.752   3.558
 2017SOL    HW1 6950   3.572   6.794   3.508
 2017SOL    HW2 6951   3.530   6.674   3.611
 2018SOL     OW 6952   6.876   5.465   5.604
 2018SOL    HW1 6953   6.855   5.471   5.701
 2018SOL    HW2 6954   6.971   5.492   5.588
 2019SOL     OW 6955   5.155   2.581   1.594
 2019SOL    HW1 6956   5.096   2.659   1.574
 2019SOL    HW2 6957   5.225   2.572   1.523
 2020SOL     OW 6958   1.261   5.145   4.803
 2020SOL    HW1 6959   1.313   5.091   4.737
 2020SOL    HW2 6960   1.167   5.110   4.808
 2021SOL     OW 6961   2.291   0.220   2.979
 2021SOL    HW1 6962   2.316   0.288   2.911
 2021SOL    HW2 6963   2.235   0.263   3.050
 2022SOL     OW 6964   1.811   3.906   2.049
 2022SOL    HW1 6965   1.736   3.874   1.990
 2022SOL    HW2 6966   1.849   3.828   2.099
 2023SOL     OW 6967   0.201   1.885   6.982
 2023SOL    HW1 6968   0.249   1.968   7.010
 2023SOL    HW2 6969   0.121   1.871   0.019
 2024SOL     OW 6970   6.880   1.058   2.610
 2024SOL    HW1 6971   6.840   1.028   2.697
 2024SOL    HW2 6972   6.806   1.081   2.546
 2025SOL     OW 6973   1.689   2.317   1.878
 2025SOL    HW1 6974   1.589   2.322   1.880
 2025SOL    HW2 6975   1.725   2.318   1.971
 2026SOL     OW 6976   1.974   2.321   6.097
 2026SOL    HW1 6977   2.056   2.317   6.154
 2026SOL    HW2 6978   1.893   2.316   6.156
 2027SOL     OW 6979   0.973   1.201   1.198
 2027SOL    HW1 6980   0.903   1.272   1.208
 2027SOL    HW2 6981   0.932   1.111   1.214
 2028SOL     OW 6982   3.729   1.733   0.459
 2028SOL    HW1 6983   3.727   1.812   0.521
 2028SOL    HW2 6984   3.741   1.764   0.365
 2029SOL     OW 6985   0.655   0.362   6.744
 2029SOL    HW1 6986   0.562   0.352   6.778
 2029SOL    HW2 6987   0.657   0.426   6.668
 2030SOL     OW 6988   1.463   2.548   3.438
 2030SOL    HW1 6989   1.477   2.462   3.389
 2030SOL    HW2 6990   1.365   2.569   3.440
 2031SOL     OW 6991   5.462   6.011   1.989
 2031SOL    HW1 6992   5.403   6.088   1.963
 2031SOL    HW2 6993   5.415   5.956   2.058
 2032SOL     OW 6994   5.331   6.180   1.028
 2032SOL    HW1 6995   5.300   6.108   0.967
 2032SOL    HW2 6996   5.357   6.261   0.974
 2033SOL     OW 6997   3.971   4.540   6.595
 2033SOL    HW1 6998   4.028   4.466   6.632
 2033SOL    HW2 6999   3.876   4.509   6.589
 2034SOL     OW 7000   1.668   6.456   3.792
 2034SOL    HW1 7001   1.746   6.397   3.813
 2034SOL    HW2 7002   1.638   6.502   3.875
 2035SOL     OW 7003   6.686   2.083   2.637
 2035SOL    HW1 7004   6.668   1.988   2.665
 2035SOL    HW2 7005   6.768   2.085   2.580
 2036SOL     OW 7006   0.293   5.817   1.695
 2036SOL    HW1 7007   0.304   5.851   1.602
 2036SOL    HW2 7008   0.198   5.830   1.724
 2037SOL     OW 7009   6.727   2.300   5.902
 2037SOL    HW1 7010   6.726   2.286   5.803
 2037SOL    HW2 7011   6.696   2.217   5.947
 2038SOL     OW 7012   0.612   1.907   6.833
 2038SOL    HW1 7013   0.577   1.838   6.897
 2038SOL    HW2 7014   0.546   1.981   6.824
 2039SOL     OW 7015   0.384   5.722   2.860
 2039SOL    HW1 7016   0.399   5.688   2.953
 2039SOL    HW2 7017   0.312   5.668   2.816
 2040SOL     OW 7018   3.427   2.864   4.804
 2040SOL    HW1 7019   3.338   2.827   4.778
 2040SOL    HW2 7020   3.479   2.886   4.722
 2041SOL     OW 7021   6.394   5.393   6.480
 2041SOL    HW1 7022   6.418   5.349   6.394
 2041SOL    HW2 7023   6.471   5.385   6.544
 2042SOL     OW 7024   5.805   5.177   7.018
 2042SOL    HW1 7025   5.897   5.217   7.019
 2042SOL    HW2 7026   5.811   5.078   0.004
 2043SOL     OW 7027   6.536   5.542   1.985
 2043SOL    HW1 7028   6.499   5.462   1.937
 2043SOL    HW2 7029   6.619   5.517   2.034
 2044SOL     OW 7030   5.033   0.506   1.882
 2044SOL    HW1 7031   5.001   0.460   1.965
 2044SOL    HW2 7032   5.114   0.560   1.903
 2045SOL     OW 7033   1.252   4.556   5.215
 2045SOL    HW1 7034   1.165   4.508   5.215
 2045SOL    HW2 7035   1.312   4.519   5.286
 2046SOL     OW 7036   6.882   0.804   4.124
 2046SOL    HW1 7037   6.959   0.764   4.174
 2046SOL    HW2 7038   6.814   0.836   4.190
 2047SOL     OW 7039   4.547   1.685   0.417
 2047SOL    HW1 7040   4.533   1.695   0.515
 2047SOL    HW2 7041   4.470   1.724   0.368
 2048SOL     OW 7042   3.751   6.327   6.956
 2048SOL    HW1 7043   3.839   6.353   6.996
 2048SOL    HW2 7044   3.677   6.351   7.020
 2049SOL     OW 7045   4.601   2.314   6.891
 2049SOL    HW1 7046   4.694   2.316   6.856
 2049SOL    HW2 7047   4.538   2.352   6.823
 2050SOL     OW 7048   5.900   2.737   3.550
 2050SOL    HW1 7049   5.968   2.688   3.604
 2050SOL    HW2 7050   5.841   2.790   3.611
 2051SOL     OW 7051   6.705   4.575   6.499
 2051SOL    HW1 7052   6.767   4.644   6.537
 2051SOL    HW2 7053   6.693   4.501   6.566
 2052SOL     OW 7054   0.287   3.285   7.001
 2052SOL    HW1 7055   0.253   3.374   6.971
 2052SOL    HW2 7056   0.211   3.220   7.005
 2053SOL     OW 7057   6.474   0.573   1.117
 2053SOL    HW1 7058   6.389   0.615   1.150
 2053SOL    HW2 7059   6.458   0.476   1.100
 2054SOL     OW 7060   5.542   3.000   1.411
 2054SOL    HW1 7061   5.564   3.091   1.447
 2054SOL    HW2 7062   5.443   2.988   1.411
 2055SOL     OW 7063   5.607   3.269   2.875
 2055SOL    HW1 7064   5.582   3.186   2.825
 2055SOL    HW2 7065   5.593   3.253   2.973
 2056SOL     OW 7066   2.146   1.392   2.159
 2056SOL    HW1 7067   2.245   1.381   2.147
 2056SOL    HW2 7068   2.121   1.488   2.142
 2057SOL     OW 7069   5.695   2.339   3.846
 2057SOL    HW1 7070   5.678   2.322   3.943
 2057SOL    HW2 7071   5.732   2.431   3.835
 2058SOL     OW 7072   1.206   1.794   3.063
 2058SOL    HW1 7073   1.132   1.838   3.012
 2058SOL    HW2 7074   1.225   1.704   3.023
 2059SOL     OW 7075   2.126   6.681   6.481
 2059SOL    HW1 7076   2.030   6.669   6.456
 2059SOL    HW2 7077   2.181   6.686   6.397
 2060SOL     OW 7078   6.704   4.674   0.792
 2060SOL    HW1 7079   6.662   4.662   0.883
 2060SOL    HW2 7080   6.704   4.587   0.744
 2061SOL     OW 7081   0.438   1.696   2.788
 2061SOL    HW1 7082   0.461   1.691   2.885
 2061SOL    HW2 7083   0.473   1.782   2.750
 2062SOL     OW 7084   5.268   0.505   3.181
 2062SOL    HW1 7085   5.357   0.504   3.135
 2062SOL    HW2 7086   5.221   0.591   3.161
 2063SOL     OW 7087   0.798   0.979   6.985
 2063SOL    HW1 7088   0.808   0.934   6.896
 2063SOL    HW2 7089   0.865   0.940   0.027
 2064SOL     OW 7090   0.829   1.676   5.749
 2064SOL    HW1 7091   0.886   1.626   5.683
 2064SOL    HW2 7092   0.738   1.633   5.753
 2065SOL     OW 7093   5.768   3.797   2.163
 2065SOL    HW1 7094   5.780   3.894   2.145
 2065SOL    HW2 7095   5.684   3.764   2.119
 2066SOL     OW 7096   0.563   5.627   4.073
 2066SOL    HW1 7097   0.536   5.721   4.092
 2066SOL    HW2 7098   0.655   5.611   4.111
 2067SOL     OW 7099   0.172   6.513   0.887
 2067SOL    HW1 7100   0.220   6.475   0.966
 2067SOL    HW2 7101   0.147   6.439   0.825
 2068SOL     OW 7102   1.249   1.520   5.330
 2068SOL    HW1 7103   1.320   1.452   5.315
 2068SOL    HW2 7104   1.291   1.605   5.362
 2069SOL     OW 7105   0.171   2.439   3.587
 2069SOL    HW1 7106   0.143   2.529   3.620
 2069SOL    HW2 7107   0.267   2.442   3.559
 2070SOL     OW 7108   2.013   7.022   2.461
 2070SOL    HW1 7109   1.921   7.015   2.498
 2070SOL    HW2 7110   2.074   0.038   2.531
 2071SOL     OW 7111   0.280   6.229   4.897
 2071SOL    HW1 7112   0.281   6.228   4.797
 2071SOL    HW2 7113   0.336   6.154   4.932
 2072SOL     OW 7114   4.237   6.190   1.544
 2072SOL    HW1 7115   4.307   6.261   1.555
 2072SOL    HW2 7116   4.237   6.158   1.449
 2073SOL     OW 7117   3.585   6.663   4.793
 2073SOL    HW1 7118   3.496   6.644   4.753
 2073SOL    HW2 7119   3.629   6.738   4.743
 2074SOL     OW 7120   0.490   2.381   6.653
 2074SOL    HW1 7121   0.532   2.303   6.606
 2074SOL    HW2 7122   0.562   2.435   6.698
 2075SOL     OW 7123   4.947   2.367   1.362
 2075SOL    HW1 7124   4.860   2.334   1.399
 2075SOL    HW2 7125   5.018   2.298   1.378
 2076SOL     OW 7126   5.190   5.951   6.793
 2076SOL    HW1 7127   5.243   5.935   6.876
 2076SOL    HW2 7128   5.100   5.988   6.817
 2077SOL     OW 7129   4.851   2.573   1.953
 2077SOL    HW1 7130   4.807   2.491   1.989
 2077SOL    HW2 7131   4.789   2.619   1.890
 2078SOL     OW 7132   2.400   5.987   6.251
 2078SOL    HW1 7133   2.449   5.919   6.195
 2078SOL    HW2 7134   2.465   6.031   6.313
 2079SOL     OW 7135   5.903   0.931   3.578
 2079SOL    HW1 7136   5.832   0.999   3.588
 2079SOL    HW2 7137   5.886   0.854   3.640
 2080SOL     OW 7138   1.981   1.186   4.900
 2080SOL    HW1 7139   1.888   1.148   4.899
 2080SOL    HW2 7140   2.011   1.198   4.995
 2081SOL     OW 7141   1.405   5.837   4.806
 2081SOL    HW1 7142   1.387   5.927   4.845
 2081SOL    HW2 7143   1.484   5.842   4.745
 2082SOL     OW 7144   6.130   0.286   2.214
 2082SOL    HW1 7145   6.212   0.297   2.271
 2082SOL    HW2 7146   6.152   0.232   2.133
 2083SOL     OW 7147   3.850   4.002   6.439
 2083SOL    HW1 7148   3.836   3.908   6.469
 2083SOL    HW2 7149   3.874   4.003   6.342
 2084SOL     OW 7150   6.907   4.250   3.649
 2084SOL    HW1 7151   6.959   4.275   3.567
 2084SOL    HW2 7152   6.952   4.172   3.694
 2085SOL     OW 7153   5.552   0.939   6.926
 2085SOL    HW1 7154   5.547   1.038   6.917
 2085SOL    HW2 7155   5.476   0.906   6.981
 2086SOL     OW 7156   3.038   5.816   6.093
 2086SOL    HW1 7157   3.059   5.907   6.057
 2086SOL    HW2 7158   2.964   5.776   6.040
 2087SOL     OW 7159   4.578   6.815   1.777
 2087SOL    HW1 7160   4.548   6.756   1.702
 2087SOL    HW2 7161   4.513   6.809   1.852
 2088SOL     OW 7162   2.738   5.355   0.476
 2088SOL    HW1 7163   2.752   5.355   0.575
 2088SOL    HW2 7164   2.799   5.287   0.434
 2089SOL     OW 7165   3.796   1.524   6.877
 2089SOL    HW1 7166   3.743   1.440   6.859
 2089SOL    HW2 7167   3.735   1.594   6.915
 2090SOL     OW 7168   4.065   3.290   4.743
 2090SOL    HW1 7169   4.083   3.251   4.653
 2090SOL    HW2 7170   4.085   3.388   4.742
 2091SOL     OW 7171   0.280   6.316   6.994
 2091SOL    HW1 7172   0.192   6.334   6.950
 2091SOL    HW2 7173   0.267   6.309   0.071
 2092SOL     OW 7174   5.087   5.642   0.403
 2092SOL    HW1 7175   5.116   5.635   0.498
 2092SOL    HW2 7176   5.160   5.681   0.348
 2093SOL     OW 7177   2.013   2.146   1.647
 2093SOL    HW1 7178   1.965   2.225   1.684
 2093SOL    HW2 7179   1.987   2.064   1.697
 2094SOL     OW 7180   6.006   1.331   1.469
 2094SOL    HW1 7181   5.953   1.299   1.391
 2094SOL    HW2 7182   5.979   1.425   1.493
 2095SOL     OW 7183   5.495   0.026   3.939
 2095SOL    HW1 7184   5.420   6.981   3.942
 2095SOL    HW2 7185   5.564   0.000   4.007
 2096SOL     OW 7186   4.864   3.956   2.691
 2096SOL    HW1 7187   4.790   4.023   2.696
 2096SOL    HW2 7188   4.835   3.871   2.735
 2097SOL     OW 7189   1.152   2.940   6.938
 2097SOL    HW1 7190   1.066   2.891   6.931
 2097SOL    HW2 7191   1.201   2.934   6.850
 2098SOL     OW 7192   3.952   5.364   3.323
 2098SOL    HW1 7193   3.920   5.381   3.416
 2098SOL    HW2 7194   3.915   5.278   3.290
 2099SOL     OW 7195   2.313   2.308   4.934
 2099SOL    HW1 7196   2.304   2.401   4.970
 2099SOL    HW2 7197   2.357   2.310   4.844
 2100SOL     OW 7198   3.732   3.782   6.012
 2100SOL    HW1 7199   3.654   3.722   6.032
 2100SOL    HW2 7200   3.816   3.739   6.047
 2101SOL     OW 7201   1.712   6.569   2.724
 2101SOL    HW1 7202   1.665   6.635   2.665
 2101SOL    HW2 7203   1.671   6.479   2.713
 2102SOL     OW 7204   0.510   5.207   1.701
 2102SOL    HW1 7205   0.440   5.276   1.719
 2102SOL    HW2 7206   0.478   5.117   1.733
 2103SOL     OW 7207   2.926   3.610   6.489
 2103SOL    HW1 7208   2.909   3.642   6.395
 2103SOL    HW2 7209   2.878   3.523   6.504
 2104SOL     OW 7210   1.281   3.461   6.641
 2104SOL    HW1 7211   1.302   3.364   6.627
 2104SOL    HW2 7212   1.296   3.510   6.555
 2105SOL     OW 7213   5.345   5.030   3.628
 2105SOL    HW1 7214   5.429   5.029   3.574
 2105SOL    HW2 7215   5.344   5.111   3.687
 2106SOL     OW 7216   4.423   5.034   0.539
 2106SOL    HW1 7217   4.443   5.127   0.569
 2106SOL    HW2 7218   4.429   5.029   0.439
 2107SOL     OW 7219   4.317   2.635   5.658
 2107SOL    HW1 7220   4.313   2.560   5.723
 2107SOL    HW2 7221   4.249   2.622   5.587
 2108SOL     OW 7222   6.941   6.476   5.828
 2108SOL    HW1 7223   6.855   6.496   5.875
 2108SOL    HW2 7224   6.931   6.391   5.775
 2109SOL     OW 7225   4.921   6.758   3.729
 2109SOL    HW1 7226   5.012   6.793   3.754
 2109SOL    HW2 7227   4.878   6.820   3.663
 2110SOL     OW 7228   3.115   3.306   5.848
 2110SOL    HW1 7229   3.162   3.389   5.878
 2110SOL    HW2 7230   3.150   3.278   5.759
 2111SOL     OW 7231   0.691   1.694   6.401
 2111SOL    HW1 7232   0.698   1.606   6.448
 2111SOL    HW2 7233   0.743   1.691   6.316
 2112SOL     OW 7234   4.206   1.987   1.090
 2112SOL    HW1 7235   4.161   2.069   1.055
 2112SOL    HW2 7236   4.203   1.987   1.190
 2113SOL     OW 7237   1.184   0.428   3.872
 2113SOL    HW1 7238   1.099   0.377   3.886
 2113SOL    HW2 7239   1.186   0.506   3.934
 2114SOL     OW 7240   1.667   2.710   0.366
 2114SOL    HW1 7241   1.752   2.668   0.398
 2114SOL    HW2 7242   1.674   2.809   0.373
 2115SOL     OW 7243   2.165   4.121   2.573
 2115SOL    HW1 7244   2.247   4.176   2.583
 2115SOL    HW2 7245   2.103   4.141   2.649
 2116SOL     OW 7246   6.937   5.035   3.567
 2116SOL    HW1 7247   6.956   5.125   3.529
 2116SOL    HW2 7248   6.968   5.031   3.662
 2117SOL     OW 7249   0.245   4.815   1.132
 2117SOL    HW1 7250   0.306   4.874   1.079
 2117SOL    HW2 7251   0.177   4.774   1.071
 2118SOL     OW 7252   0.041   3.504   2.623
 2118SOL    HW1 7253   7.022   3.453   2.547
 2118SOL    HW2 7254   7.015   3.483   2.708
 2119SOL     OW 7255   2.345   5.729   0.963
 2119SOL    HW1 7256   2.420   5.708   1.026
 2119SOL    HW2 7257   2.382   5.742   0.871
 2120SOL     OW 7258   6.750   5.147   3.775
 2120SOL    HW1 7259   6.728   5.233   3.822
 2120SOL    HW2 7260   6.670   5.087   3.777
 2121SOL     OW 7261   1.140   4.659   5.735
 2121SOL    HW1 7262   1.123   4.609   5.650
 2121SOL    HW2 7263   1.175   4.750   5.714
 2122SOL     OW 7264   6.295   4.050   5.692
 2122SOL    HW1 7265   6.343   4.106   5.624
 2122SOL    HW2 7266   6.225   4.106   5.738
 2123SOL     OW 7267   0.212   4.694   2.158
 2123SOL    HW1 7268   0.148   4.685   2.082
 2123SOL    HW2 7269   0.225   4.605   2.202
 2124SOL     OW 7270   2.561   1.226   1.648
 2124SOL    HW1 7271   2.655   1.231   1.681
 2124SOL    HW2 7272   2.527   1.319   1.631
 2125SOL     OW 7273   1.475   0.280   0.448
 2125SOL    HW1 7274   1.552   0.305   0.506
 2125SOL    HW2 7275   1.500   0.201   0.392
 2126SOL     OW 7276   2.807   0.595   1.239
 2126SOL    HW1 7277   2.774   0.529   1.171
 2126SOL    HW2 7278   2.906   0.606   1.228
 2127SOL     OW 7279   5.979   3.414   4.190
 2127SOL    HW1 7280   5.997   3.333   4.245
 2127SOL    HW2 7281   6.047   3.485   4.211
 2128SOL     OW 7282   6.747   3.758   4.679
 2128SOL    HW1 7283   6.827   3.763   4.620
 2128SOL    HW2 7284   6.664   3.763   4.623
 2129SOL     OW 7285   4.509   3.188   5.331
 2129SOL    HW1 7286   4.482   3.092   5.320
 2129SOL    HW2 7287   4.566   3.216   5.253
 2130SOL     OW 7288   4.878   0.242   2.858
 2130SOL    HW1 7289   4.939   0.163   2.865
 2130SOL    HW2 7290   4.847   0.269   2.950
 2131SOL     OW 7291   6.699   0.925   1.364
 2131SOL    HW1 7292   6.783   0.872   1.376
 2131SOL    HW2 7293   6.671   0.920   1.268
 2132SOL     OW 7294   4.207   2.483   1.463
 2132SOL    HW1 7295   4.155   2.434   1.534
 2132SOL    HW2 7296   4.238   2.571   1.500
 2133SOL     OW 7297   2.759   2.946   5.849
 2133SOL    HW1 7298   2.692   2.976   5.781
 2133SOL    HW2 7299   2.811   2.868   5.813
 2134SOL     OW 7300   0.466   2.564   0.525
 2134SOL    HW1 7301   0.456   2.487   0.463
 2134SOL    HW2 7302   0.531   2.540   0.598
 2135SOL     OW 7303   0.716   4.205   4.540
 2135SOL    HW1 7304   0.688   4.147   4.617
 2135SOL    HW2 7305   0.647   4.201   4.468
 2136SOL     OW 7306   2.230   5.210   2.660
 2136SOL    HW1 7307   2.133   5.225   2.678
 2136SOL    HW2 7308   2.241   5.171   2.568
 2137SOL     OW 7309   2.938   5.155   5.632
 2137SOL    HW1 7310   2.970   5.178   5.540
 2137SOL    HW2 7311   2.842   5.129   5.628
 2138SOL     OW 7312   5.846   6.852   2.588
 2138SOL    HW1 7313   5.890   6.781   2.531
 2138SOL    HW2 7314   5.911   6.884   2.657
 2139SOL     OW 7315   3.815   0.838   4.161
 2139SOL    HW1 7316   3.760   0.916   4.189
 2139SOL    HW2 7317   3.872   0.808   4.237
 2140SOL     OW 7318   3.208   6.130   4.209
 2140SOL    HW1 7319   3.123   6.084   4.233
 2140SOL    HW2 7320   3.192   6.194   4.134
 2141SOL     OW 7321   6.440   3.038   2.205
 2141SOL    HW1 7322   6.369   3.104   2.182
 2141SOL    HW2 7323   6.426   2.954   2.152
 2142SOL     OW 7324   0.537   1.518   3.371
 2142SOL    HW1 7325   0.630   1.486   3.353
 2142SOL    HW2 7326   0.529   1.614   3.344
 2143SOL     OW 7327   2.177   5.060   1.189
 2143SOL    HW1 7328   2.212   5.016   1.272
 2143SOL    HW2 7329   2.144   5.152   1.211
 2144SOL     OW 7330   0.669   5.426   4.670
 2144SOL    HW1 7331   0.731   5.446   4.746
 2144SOL    HW2 7332   0.579   5.401   4.705
 2145SOL     OW 7333   3.999   6.783   4.173
 2145SOL    HW1 7334   4.041   6.872   4.153
 2145SOL    HW2 7335   3.919   6.797   4.231
 2146SOL     OW 7336   2.099   2.102   1.403
 2146SOL    HW1 7337   2.167   2.173   1.386
 2146SOL    HW2 7338   2.044   2.126   1.482
 2147SOL     OW 7339   6.402   1.115   6.755
 2147SOL    HW1 7340   6.481   1.131   6.813
 2147SOL    HW2 7341   6.433   1.081   6.666
 2148SOL     OW 7342   6.211   3.653   6.519
 2148SOL    HW1 7343   6.212   3.560   6.482
 2148SOL    HW2 7344   6.302   3.678   6.552
 2149SOL     OW 7345   1.671   1.446   1.130
 2149SOL    HW1 7346   1.702   1.445   1.226
 2149SOL    HW2 7347   1.694   1.535   1.089
 2150SOL     OW 7348   2.500   2.219   1.842
 2150SOL    HW1 7349   2.554   2.139   1.815
 2150SOL    HW2 7350   2.561   2.298   1.850
 2151SOL     OW 7351   0.943   6.455   6.499
 2151SOL    HW1 7352   0.872   6.524   6.507
 2151SOL    HW2 7353   0.916   6.373   6.549
 2152SOL     OW 7354   4.316   4.629   2.425
 2152SOL    HW1 7355   4.280   4.706   2.478
 2152SOL    HW2 7356   4.315   4.546   2.481
 2153SOL     OW 7357   5.071   1.814   1.849
 2153SOL    HW1 7358   5.134   1.737   1.841
 2153SOL    HW2 7359   4.988   1.785   1.895
 2154SOL     OW 7360   2.760   0.185   3.978
 2154SOL    HW1 7361   2.731   0.091   3.994
 2154SOL    HW2 7362   2.859   0.193   3.995
 2155SOL     OW 7363   4.131   6.612   1.069
 2155SOL    HW1 7364   4.162   6.577   1.157
 2155SOL    HW2 7365   4.034   6.591   1.056
 2156SOL     OW 7366   6.818   0.039   4.908
 2156SOL    HW1 7367   6.841   0.114   4.846
 2156SOL    HW2 7368   6.852   6.975   4.871
 2157SOL     OW 7369   5.078   5.792   3.758
 2157SOL    HW1 7370   5.018   5.713   3.743
 2157SOL    HW2 7371   5.023   5.875   3.759
 2158SOL     OW 7372   4.086   5.788   0.379
 2158SOL    HW1 7373   4.124   5.865   0.430
 2158SOL    HW2 7374   4.065   5.817   0.286
 2159SOL     OW 7375   1.552   0.186   4.856
 2159SOL    HW1 7376   1.623   0.191   4.785
 2159SOL    HW2 7377   1.573   0.251   4.929
 2160SOL     OW 7378   5.298   4.894   6.578
 2160SOL    HW1 7379   5.330   4.824   6.514
 2160SOL    HW2 7380   5.358   4.896   6.658
 2161SOL     OW 7381   6.366   4.159   1.624
 2161SOL    HW1 7382   6.375   4.077   1.567
 2161SOL    HW2 7383   6.454   4.177   1.670
 2162SOL     OW 7384   2.628   7.001   2.825
 2162SOL    HW1 7385   2.632   7.000   2.725
 2162SOL    HW2 7386   2.711   0.021   2.861
 2163SOL     OW 7387   1.676   4.397   0.702
 2163SOL    HW1 7388   1.611   4.470   0.679
 2163SOL    HW2 7389   1.699   4.347   0.619
 2164SOL     OW 7390   2.347   2.022   6.900
 2164SOL    HW1 7391   2.291   2.095   6.861
 2164SOL    HW2 7392   2.306   1.991   6.985
 2165SOL     OW 7393   0.460   2.614   3.836
 2165SOL    HW1 7394   0.532   2.547   3.820
 2165SOL    HW2 7395   0.376   2.566   3.863
 2166SOL     OW 7396   0.357   3.627   4.386
 2166SOL    HW1 7397   0.386   3.586   4.299
 2166SOL    HW2 7398   0.425   3.607   4.457
 2167SOL     OW 7399   0.465   3.472   3.754
 2167SOL    HW1 7400   0.379   3.520   3.773
 2167SOL    HW2 7401   0.488   3.413   3.831
 2168SOL     OW 7402   1.231   1.540   2.967
 2168SOL    HW1 7403   1.154   1.498   3.017
 2168SOL    HW2 7404   1.258   1.479   2.892
 2169SOL     OW 7405   0.096   0.740   1.181
 2169SOL    HW1 7406   0.116   0.781   1.092
 2169SOL    HW2 7407   0.179   0.698   1.218
 2170SOL     OW 7408   6.640   4.074   4.998
 2170SOL    HW1 7409   6.562   4.013   5.009
 2170SOL    HW2 7410   6.686   4.086   5.086
 2171SOL     OW 7411   1.275   5.311   1.594
 2171SOL    HW1 7412   1.187   5.301   1.641
 2171SOL    HW2 7413   1.276   5.255   1.511
 2172SOL     OW 7414   2.295   2.168   5.715
 2172SOL    HW1 7415   2.304   2.233   5.639
 2172SOL    HW2 7416   2.350   2.087   5.696
 2173SOL     OW 7417   4.532   0.478   5.743
 2173SOL    HW1 7418   4.512   0.464   5.646
 2173SOL    HW2 7419   4.480   0.556   5.777
 2174SOL     OW 7420   6.613   6.165   5.080
 2174SOL    HW1 7421   6.596   6.124   4.990
 2174SOL    HW2 7422   6.694   6.223   5.077
 2175SOL     OW 7423   1.465   3.599   4.502
 2175SOL    HW1 7424   1.426   3.507   4.499
 2175SOL    HW2 7425   1.532   3.608   4.428
 2176SOL     OW 7426   5.157   1.592   1.275
 2176SOL    HW1 7427   5.149   1.616   1.372
 2176SOL    HW2 7428   5.066   1.585   1.234
 2177SOL     OW 7429   6.957   0.215   2.241
 2177SOL    HW1 7430   6.943   0.116   2.252
 2177SOL    HW2 7431   6.983   0.234   2.146
 2178SOL     OW 7432   1.371   1.049   2.114
 2178SOL    HW1 7433   1.361   0.950   2.117
 2178SOL    HW2 7434   1.465   1.074   2.135
 2179SOL     OW 7435   1.934   3.329   6.046
 2179SOL    HW1 7436   1.888   3.380   5.973
 2179SOL    HW2 7437   2.032   3.349   6.043
 2180SOL     OW 7438   1.118   2.886   2.154
 2180SOL    HW1 7439   1.108   2.964   2.091
 2180SOL    HW2 7440   1.214   2.875   2.179
 2181SOL     OW 7441   4.846   5.126   3.820
 2181SOL    HW1 7442   4.876   5.034   3.795
 2181SOL    HW2 7443   4.749   5.125   3.844
 2182SOL     OW 7444   0.955   4.954   3.521
 2182SOL    HW1 7445   0.871   4.956   3.467
 2182SOL    HW2 7446   1.028   4.911   3.467
 2183SOL     OW 7447   2.529   4.104   0.263
 2183SOL    HW1 7448   2.481   4.135   0.181
 2183SOL    HW2 7449   2.590   4.176   0.296
 2184SOL     OW 7450   3.842   6.779   6.331
 2184SOL    HW1 7451   3.858   6.784   6.232
 2184SOL    HW2 7452   3.841   6.871   6.369
 2185SOL     OW 7453   1.196   1.373   6.702
 2185SOL    HW1 7454   1.099   1.363   6.724
 2185SOL    HW2 7455   1.211   1.458   6.653
 2186SOL     OW 7456   6.499   5.666   6.504
 2186SOL    HW1 7457   6.475   5.585   6.451
 2186SOL    HW2 7458   6.515   5.641   6.599
 2187SOL     OW 7459   0.119   6.310   2.391
 2187SOL    HW1 7460   0.077   6.396   2.359
 2187SOL    HW2 7461   0.052   6.236   2.385
 2188SOL     OW 7462   1.807   5.454   5.547
 2188SOL    HW1 7463   1.825   5.393   5.470
 2188SOL    HW2 7464   1.839   5.412   5.631
 2189SOL     OW 7465   1.644   0.182   1.689
 2189SOL    HW1 7466   1.577   0.113   1.663
 2189SOL    HW2 7467   1.634   0.263   1.631
 2190SOL     OW 7468   6.517   2.923   1.619
 2190SOL    HW1 7469   6.528   2.944   1.521
 2190SOL    HW2 7470   6.494   3.007   1.668
 2191SOL     OW 7471   2.430   1.654   5.291
 2191SOL    HW1 7472   2.483   1.575   5.261
 2191SOL    HW2 7473   2.483   1.707   5.357
 2192SOL     OW 7474   5.090   0.467   2.844
 2192SOL    HW1 7475   5.020   0.400   2.820
 2192SOL    HW2 7476   5.046   0.553   2.871
 2193SOL     OW 7477   6.854   0.363   6.139
 2193SOL    HW1 7478   6.954   0.366   6.148
 2193SOL    HW2 7479   6.813   0.376   6.229
 2194SOL     OW 7480   1.869   3.917   6.583
 2194SOL    HW1 7481   1.893   3.970   6.664
 2194SOL    HW2 7482   1.826   3.977   6.515
 2195SOL     OW 7483   6.882   6.780   5.574
 2195SOL    HW1 7484   6.926   6.798   5.486
 2195SOL    HW2 7485   6.788   6.748   5.558
 2196SOL     OW 7486   2.912   6.517   4.487
 2196SOL    HW1 7487   2.861   6.568   4.418
 2196SOL    HW2 7488   2.887   6.420   4.482
 2197SOL     OW 7489   2.933   3.359   6.258
 2197SOL    HW1 7490   2.896   3.407   6.179
 2197SOL    HW2 7491   2.863   3.301   6.298
 2198SOL     OW 7492   6.444   0.515   1.468
 2198SOL    HW1 7493   6.464   0.421   1.495
 2198SOL    HW2 7494   6.498   0.539   1.387
 2199SOL     OW 7495   5.257   6.984   4.484
 2199SOL    HW1 7496   5.202   6.955   4.562
 2199SOL    HW2 7497   5.238   6.925   4.405
 2200SOL     OW 7498   2.203   1.588   3.883
 2200SOL    HW1 7499   2.289   1.614   3.927
 2200SOL    HW2 7500   2.205   1.614   3.787
 2201SOL     OW 7501   6.169   2.829   2.761
 2201SOL    HW1 7502   6.130   2.910   2.805
 2201SOL    HW2 7503   6.118   2.809   2.677
 2202SOL     OW 7504   3.717   6.010   1.931
 2202SOL    HW1 7505   3.716   6.080   1.860
 2202SOL    HW2 7506   3.673   5.927   1.897
 2203SOL     OW 7507   2.996   3.228   1.289
 2203SOL    HW1 7508   3.018   3.314   1.336
 2203SOL    HW2 7509   3.078   3.172   1.281
 2204SOL     OW 7510   4.113   2.537   0.970
 2204SOL    HW1 7511   4.056   2.525   1.052
 2204SOL    HW2 7512   4.054   2.537   0.889
 2205SOL     OW 7513   1.242   0.303   0.063
 2205SOL    HW1 7514   1.314   0.236   0.044
 2205SOL    HW2 7515   1.250   0.334   0.158
 2206SOL     OW 7516   2.460   4.560   5.884
 2206SOL    HW1 7517   2.464   4.504   5.801
 2206SOL    HW2 7518   2.522   4.639   5.874
 2207SOL     OW 7519   3.647   4.147   0.034
 2207SOL    HW1 7520   3.670   4.104   6.969
 2207SOL    HW2 7521   3.557   4.117   0.064
 2208SOL     OW 7522   1.003   5.204   2.834
 2208SOL    HW1 7523   1.034   5.147   2.910
 2208SOL    HW2 7524   0.950   5.281   2.869
 2209SOL     OW 7525   2.771   6.815   4.957
 2209SOL    HW1 7526   2.755   6.770   5.045
 2209SOL    HW2 7527   2.685   6.825   4.908
 2210SOL     OW 7528   6.861   5.011   3.069
 2210SOL    HW1 7529   6.830   5.083   3.131
 2210SOL    HW2 7530   6.910   4.941   3.121
 2211SOL     OW 7531   6.622   0.839   0.501
 2211SOL    HW1 7532   6.639   0.837   0.599
 2211SOL    HW2 7533   6.629   0.933   0.468
 2212SOL     OW 7534   1.867   5.747   0.449
 2212SOL    HW1 7535   1.854   5.844   0.428
 2212SOL    HW2 7536   1.830   5.691   0.375
 2213SOL     OW 7537   4.054   2.494   5.749
 2213SOL    HW1 7538   4.132   2.432   5.734
 2213SOL    HW2 7539   3.969   2.444   5.734
 2214SOL     OW 7540   2.889   3.509   4.981
 2214SOL    HW1 7541   2.886   3.587   4.918
 2214SOL    HW2 7542   2.864   3.539   5.073
 2215SOL     OW 7543   5.947   0.968   6.471
 2215SOL    HW1 7544   6.025   0.921   6.512
 2215SOL    HW2 7545   5.921   0.921   6.387
 2216SOL     OW 7546   0.367   0.306   5.769
 2216SOL    HW1 7547   0.282   0.296   5.717
 2216SOL    HW2 7548   0.392   0.403   5.774
 2217SOL     OW 7549   4.486   0.333   2.782
 2217SOL    HW1 7550   4.425   0.390   2.837
 2217SOL    HW2 7551   4.569   0.385   2.759
 2218SOL     OW 7552   0.104   5.228   0.251
 2218SOL    HW1 7553   0.130   5.303   0.189
 2218SOL    HW2 7554   0.015   5.248   0.292
 2219SOL     OW 7555   5.960   1.452   0.991
 2219SOL    HW1 7556   5.901   1.447   0.910
 2219SOL    HW2 7557   5.926   1.388   1.060
 2220SOL     OW 7558   2.019   5.736   5.840
 2220SOL    HW1 7559   2.060   5.825   5.817
 2220SOL    HW2 7560   1.975   5.698   5.759
 2221SOL     OW 7561   6.265   1.451   5.021
 2221SOL    HW1 7562   6.285   1.476   5.116
 2221SOL    HW2 7563   6.314   1.512   4.959
 2222SOL     OW 7564   6.101   0.281   0.939
 2222SOL    HW1 7565   6.104   0.317   0.846
 2222SOL    HW2 7566   6.063   0.188   0.938
 2223SOL     OW 7567   5.853   0.515   6.220
 2223SOL    HW1 7568   5.802   0.537   6.304
 2223SOL    HW2 7569   5.951   0.523   6.238
 2224SOL     OW 7570   6.393   3.703   0.909
 2224SOL    HW1 7571   6.433   3.643   0.978
 2224SOL    HW2 7572   6.304   3.666   0.881
 2225SOL     OW 7573   6.002   6.664   3.775
 2225SOL    HW1 7574   5.954   6.699   3.695
 2225SOL    HW2 7575   6.087   6.620   3.746
 2226SOL     OW 7576   3.504   5.146   0.965
 2226SOL    HW1 7577   3.549   5.072   0.915
 2226SOL    HW2 7578   3.414   5.164   0.924
 2227SOL     OW 7579   5.253   2.384   1.234
 2227SOL    HW1 7580   5.183   2.314   1.220
 2227SOL    HW2 7581   5.328   2.370   1.170
 2228SOL     OW 7582   3.846   4.909   0.660
 2228SOL    HW1 7583   3.763   4.895   0.606
 2228SOL    HW2 7584   3.911   4.835   0.642
 2229SOL     OW 7585   3.774   2.836   5.344
 2229SOL    HW1 7586   3.696   2.801   5.293
 2229SOL    HW2 7587   3.773   2.936   5.341
 2230SOL     OW 7588   5.616   6.534   1.008
 2230SOL    HW1 7589   5.615   6.594   0.928
 2230SOL    HW2 7590   5.630   6.587   1.091
 2231SOL     OW 7591   0.023   0.888   0.695
 2231SOL    HW1 7592   0.023   0.942   0.780
 2231SOL    HW2 7593   7.019   0.947   0.619
 2232SOL     OW 7594   1.185   1.505   4.584
 2232SOL    HW1 7595   1.265   1.451   4.555
 2232SOL    HW2 7596   1.214   1.599   4.604
 2233SOL     OW 7597   2.340   2.728   0.737
 2233SOL    HW1 7598   2.353   2.652   0.800
 2233SOL    HW2 7599   2.429   2.760   0.704
 2234SOL     OW 7600   3.630   1.335   1.212
 2234SOL    HW1 7601   3.692   1.317   1.135
 2234SOL    HW2 7602   3.682   1.337   1.297
 2235SOL     OW 7603   2.708   0.146   1.754
 2235SOL    HW1 7604   2.775   0.099   1.696
 2235SOL    HW2 7605   2.622   0.156   1.703
 2236SOL     OW 7606   1.855   3.566   5.874
 2236SOL    HW1 7607   1.880   3.514   5.792
 2236SOL    HW2 7608   1.844   3.663   5.850
 2237SOL     OW 7609   5.757   4.591   4.271
 2237SOL    HW1 7610   5.785   4.586   4.175
 2237SOL    HW2 7611   5.837   4.578   4.330
 2238SOL     OW 7612   4.976   5.313   2.389
 2238SOL    HW1 7613   4.936   5.376   2.456
 2238SOL    HW2 7614   5.005   5.365   2.309
 2239SOL     OW 7615   4.292   5.709   3.913
 2239SOL    HW1 7616   4.251   5.618   3.916
 2239SOL    HW2 7617   4.310   5.740   4.007
 2240SOL     OW 7618   3.326   5.231   2.626
 2240SOL    HW1 7619   3.377   5.235   2.712
 2240SOL    HW2 7620   3.229   5.243   2.645
 2241SOL     OW 7621   6.874   6.422   2.445
 2241SOL    HW1 7622   6.826   6.435   2.358
 2241SOL    HW2 7623   6.836   6.343   2.492
 2242SOL     OW 7624   4.888   3.126   2.336
 2242SOL    HW1 7625   4.826   3.103   2.261
 2242SOL    HW2 7626   4.882   3.223   2.356
 2243SOL     OW 7627   1.794   0.059   6.708
 2243SOL    HW1 7628   1.710   0.033   6.661
 2243SOL    HW2 7629   1.870   0.003   6.674
 2244SOL     OW 7630   3.177   6.733   1.773
 2244SOL    HW1 7631   3.223   6.814   1.736
 2244SOL    HW2 7632   3.133   6.682   1.699
 2245SOL     OW 7633   1.090   1.698   1.529
 2245SOL    HW1 7634   1.030   1.619   1.527
 2245SOL    HW2 7635   1.180   1.673   1.494
 2246SOL     OW 7636   1.982   0.967   4.541
 2246SOL    HW1 7637   2.074   0.945   4.574
 2246SOL    HW2 7638   1.951   0.894   4.481
 2247SOL     OW 7639   2.922   3.296   2.968
 2247SOL    HW1 7640   2.910   3.383   3.017
 2247SOL    HW2 7641   2.950   3.225   3.032
 2248SOL     OW 7642   6.470   3.873   5.000
 2248SOL    HW1 7643   6.558   3.825   4.993
 2248SOL    HW2 7644   6.443   3.905   4.909
 2249SOL     OW 7645   5.411   6.793   3.790
 2249SOL    HW1 7646   5.490   6.851   3.772
 2249SOL    HW2 7647   5.425   6.703   3.748
 2250SOL     OW 7648   3.145   4.101   5.011
 2250SOL    HW1 7649   3.076   4.137   5.075
 2250SOL    HW2 7650   3.233   4.093   5.058
 2251SOL     OW 7651   5.488   6.841   6.467
 2251SOL    HW1 7652   5.567   6.810   6.519
 2251SOL    HW2 7653   5.498   6.813   6.372
 2252SOL     OW 7654   4.965   1.381   3.215
 2252SOL    HW1 7655   4.921   1.468   3.234
 2252SOL    HW2 7656   4.905   1.326   3.156
 2253SOL     OW 7657   6.626   2.989   6.899
 2253SOL    HW1 7658   6.609   3.084   6.873
 2253SOL    HW2 7659   6.550   2.956   6.955
 2254SOL     OW 7660   3.334   2.933   4.351
 2254SOL    HW1 7661   3.417   2.888   4.319
 2254SOL    HW2 7662   3.259   2.866   4.352
 2255SOL     OW 7663   4.071   3.480   5.877
 2255SOL    HW1 7664   4.148   3.416   5.870
 2255SOL    HW2 7665   4.070   3.539   5.796
 2256SOL     OW 7666   5.233   6.173   2.013
 2256SOL    HW1 7667   5.185   6.232   2.078
 2256SOL    HW2 7668   5.170   6.106   1.975
 2257SOL     OW 7669   0.949   1.731   4.605
 2257SOL    HW1 7670   0.852   1.712   4.621
 2257SOL    HW2 7671   0.998   1.730   4.692
 2258SOL     OW 7672   1.012   5.661   4.869
 2258SOL    HW1 7673   1.001   5.744   4.814
 2258SOL    HW2 7674   1.107   5.630   4.864
 2259SOL     OW 7675   5.679   2.942   5.524
 2259SOL    HW1 7676   5.703   2.883   5.600
 2259SOL    HW2 7677   5.690   3.038   5.551
 2260SOL     OW 7678   0.049   4.240   1.323
 2260SOL    HW1 7679   0.132   4.278   1.282
 2260SOL    HW2 7680   6.995   4.247   1.259
 2261SOL     OW 7681   6.321   5.300   0.601
 2261SOL    HW1 7682   6.230   5.261   0.588
 2261SOL    HW2 7683   6.321   5.358   0.682
 2262SOL     OW 7684   6.034   0.237   2.799
 2262SOL    HW1 7685   6.134   0.231   2.808
 2262SOL    HW2 7686   6.005   0.194   2.714
 2263SOL     OW 7687   3.000   5.742   0.344
 2263SOL    HW1 7688   2.909   5.702   0.342
 2263SOL    HW2 7689   3.062   5.681   0.394
 2264SOL     OW 7690   3.206   5.615   6.848
 2264SOL    HW1 7691   3.108   5.619   6.832
 2264SOL    HW2 7692   3.250   5.560   6.776
 2265SOL     OW 7693   1.891   0.803   4.343
 2265SOL    HW1 7694   1.838   0.718   4.349
 2265SOL    HW2 7695   1.952   0.798   4.264
 2266SOL     OW 7696   5.190   1.322   0.079
 2266SOL    HW1 7697   5.106   1.364   0.112
 2266SOL    HW2 7698   5.252   1.304   0.156
 2267SOL     OW 7699   4.907   3.446   4.833
 2267SOL    HW1 7700   4.853   3.496   4.901
 2267SOL    HW2 7701   4.864   3.459   4.743
 2268SOL     OW 7702   5.661   4.193   5.992
 2268SOL    HW1 7703   5.660   4.288   5.960
 2268SOL    HW2 7704   5.746   4.175   6.041
 2269SOL     OW 7705   0.765   4.482   5.566
 2269SOL    HW1 7706   0.776   4.400   5.622
 2269SOL    HW2 7707   0.693   4.539   5.606
 2270SOL     OW 7708   3.753   2.720   6.444
 2270SOL    HW1 7709   3.768   2.785   6.369
 2270SOL    HW2 7710   3.654   2.706   6.455
 2271SOL     OW 7711   5.783   4.374   0.169
 2271SOL    HW1 7712   5.824   4.283   0.173
 2271SOL    HW2 7713   5.849   4.442   0.200
 2272SOL     OW 7714   5.513   1.794   0.335
 2272SOL    HW1 7715   5.569   1.721   0.372
 2272SOL    HW2 7716   5.456   1.759   0.260
 2273SOL     OW 7717   1.428   1.359   2.161
 2273SOL    HW1 7718   1.392   1.388   2.072
 2273SOL    HW2 7719   1.494   1.286   2.148
 2274SOL     OW 7720   0.782   1.313   6.228
 2274SOL    HW1 7721   0.782   1.259   6.144
 2274SOL    HW2 7722   0.767   1.253   6.307
 2275SOL     OW 7723   5.792   6.782   3.926
 2275SOL    HW1 7724   5.846   6.728   3.861
 2275SOL    HW2 7725   5.722   6.724   3.967
 2276SOL     OW 7726   2.663   5.525   2.072
 2276SOL    HW1 7727   2.603   5.469   2.016
 2276SOL    HW2 7728   2.736   5.468   2.110
 2277SOL     OW 7729   3.772   4.029   3.765
 2277SOL    HW1 7730   3.797   3.978   3.682
 2277SOL    HW2 7731   3.855   4.059   3.813
 2278SOL     OW 7732   5.795   3.874   4.278
 2278SOL    HW1 7733   5.787   3.953   4.340
 2278SOL    HW2 7734   5.714   3.871   4.219
 2279SOL     OW 7735   5.943   0.318   5.511
 2279SOL    HW1 7736   5.903   0.324   5.602
 2279SOL    HW2 7737   5.884   0.365   5.446
 2280SOL     OW 7738   6.691   0.179   4.614
 2280SOL    HW1 7739   6.766   0.224   4.663
 2280SOL    HW2 7740   6.622   0.148   4.679
 2281SOL     OW 7741   3.478   0.444   2.219
 2281SOL    HW1 7742   3.570   0.480   2.235
 2281SOL    HW2 7743   3.483   0.366   2.156
 2282SOL     OW 7744   5.565   6.822   5.392
 2282SOL    HW1 7745   5.490   6.859   5.337
 2282SOL    HW2 7746   5.598   6.737   5.351
 2283SOL     OW 7747   1.645   6.888   1.667
 2283SOL    HW1 7748   1.683   6.938   1.590
 2283SOL    HW2 7749   1.654   6.943   1.750
 2284SOL     OW 7750   1.503   3.010   6.868
 2284SOL    HW1 7751   1.587   3.049   6.829
 2284SOL    HW2 7752   1.514   2.911   6.878
 2285SOL     OW 7753   1.534   3.028   0.913
 2285SOL    HW1 7754   1.595   3.046   0.990
 2285SOL    HW2 7755   1.457   3.092   0.915
 2286SOL     OW 7756   5.790   6.757   3.608
 2286SOL    HW1 7757   5.713   6.715   3.656
 2286SOL    HW2 7758   5.787   6.856   3.621
 2287SOL     OW 7759   2.301   0.327   4.151
 2287SOL    HW1 7760   2.285   0.229   4.165
 2287SOL    HW2 7761   2.397   0.348   4.168
 2288SOL     OW 7762   5.839   5.379   3.461
 2288SOL    HW1 7763   5.872   5.467   3.426
 2288SOL    HW2 7764   5.917   5.317   3.472
 2289SOL     OW 7765   0.281   5.313   0.794
 2289SOL    HW1 7766   0.371   5.279   0.769
 2289SOL    HW2 7767   0.211   5.257   0.749
 2290SOL     OW 7768   0.560   3.714   0.762
 2290SOL    HW1 7769   0.528   3.808   0.777
 2290SOL    HW2 7770   0.533   3.657   0.839
 2291SOL     OW 7771   2.079   2.425   5.438
 2291SOL    HW1 7772   2.033   2.487   5.374
 2291SOL    HW2 7773   2.018   2.406   5.515
 2292SOL     OW 7774   1.101   1.758   4.375
 2292SOL    HW1 7775   1.023   1.723   4.428
 2292SOL    HW2 7776   1.080   1.849   4.341
 2293SOL     OW 7777   5.203   6.572   1.087
 2293SOL    HW1 7778   5.254   6.581   1.173
 2293SOL    HW2 7779   5.107   6.555   1.106
 2294SOL     OW 7780   3.320   0.468   6.848
 2294SOL    HW1 7781   3.272   0.521   6.918
 2294SOL    HW2 7782   3.410   0.442   6.882
 2295SOL     OW 7783   0.639   2.054   2.259
 2295SOL    HW1 7784   0.658   2.068   2.356
 2295SOL    HW2 7785   0.663   1.960   2.234
 2296SOL     OW 7786   4.200   5.202   0.404
 2296SOL    HW1 7787   4.233   5.134   0.339
 2296SOL    HW2 7788   4.101   5.212   0.395
 2297SOL     OW 7789   3.859   4.164   5.173
 2297SOL    HW1 7790   3.778   4.192   5.123
 2297SOL    HW2 7791   3.871   4.065   5.165
 2298SOL     OW 7792   4.063   3.072   1.856
 2298SOL    HW1 7793   4.048   2.974   1.853
 2298SOL    HW2 7794   4.160   3.091   1.837
 2299SOL     OW 7795   4.933   6.552   6.118
 2299SOL    HW1 7796   4.986   6.618   6.171
 2299SOL    HW2 7797   4.973   6.542   6.027
 2300SOL     OW 7798   2.617   4.820   1.950
 2300SOL    HW1 7799   2.674   4.743   1.980
 2300SOL    HW2 7800   2.526   4.811   1.990
 2301SOL     OW 7801   2.948   3.358   3.246
 2301SOL    HW1 7802   2.917   3.366   3.340
 2301SOL    HW2 7803   2.951   3.261   3.220
 2302SOL     OW 7804   3.511   6.773   1.178
 2302SOL    HW1 7805   3.577   6.771   1.103
 2302SOL    HW2 7806   3.468   6.864   1.183
 2303SOL     OW 7807   2.038   3.081   6.126
 2303SOL    HW1 7808   1.969   3.009   6.139
 2303SOL    HW2 7809   2.000   3.153   6.068
 2304SOL     OW 7810   3.463   0.318   3.995
 2304SOL    HW1 7811   3.548   0.295   3.946
 2304SOL    HW2 7812   3.446   0.416   3.986
 2305SOL     OW 7813   2.795   6.498   2.869
 2305SOL    HW1 7814   2.737   6.566   2.826
 2305SOL    HW2 7815   2.779   6.409   2.826
 2306SOL     OW 7816   2.556   4.928   1.702
 2306SOL    HW1 7817   2.588   4.885   1.787
 2306SOL    HW2 7818   2.458   4.947   1.710
 2307SOL     OW 7819   1.015   3.844   3.102
 2307SOL    HW1 7820   0.938   3.798   3.146
 2307SOL    HW2 7821   1.040   3.796   3.018
 2308SOL     OW 7822   1.570   6.789   0.010
 2308SOL    HW1 7823   1.475   6.806   7.009
 2308SOL    HW2 7824   1.576   6.709   0.070
 2309SOL     OW 7825   2.786   6.467   6.429
 2309SOL    HW1 7826   2.834   6.459   6.342
 2309SOL    HW2 7827   2.694   6.504   6.413
 2310SOL     OW 7828   5.487   6.710   1.395
 2310SOL    HW1 7829   5.553   6.725   1.469
 2310SOL    HW2 7830   5.496   6.782   1.326
 2311SOL     OW 7831   2.536   5.981   1.986
 2311SOL    HW1 7832   2.546   6.068   1.938
 2311SOL    HW2 7833   2.613   5.970   2.050
 2312SOL     OW 7834   3.652   6.263   3.990
 2312SOL    HW1 7835   3.625   6.356   3.963
 2312SOL    HW2 7836   3.645   6.203   3.910
 2313SOL     OW 7837   5.398   5.519   1.581
 2313SOL    HW1 7838   5.479   5.461   1.579
 2313SOL    HW2 7839   5.318   5.463   1.602
 2314SOL     OW 7840   5.740   0.456   4.936
 2314SOL    HW1 7841   5.646   0.454   4.900
 2314SOL    HW2 7842   5.759   0.370   4.982
 2315SOL     OW 7843   5.070   3.727   5.613
 2315SOL    HW1 7844   5.116   3.814   5.596
 2315SOL    HW2 7845   4.971   3.741   5.619
 2316SOL     OW 7846   3.101   0.676   4.604
 2316SOL    HW1 7847   3.139   0.718   4.522
 2316SOL    HW2 7848   3.026   0.615   4.578
 2317SOL     OW 7849   6.243   6.275   2.831
 2317SOL    HW1 7850   6.243   6.363   2.878
 2317SOL    HW2 7851   6.232   6.201   2.898
 2318SOL     OW 7852   2.200   3.000   4.441
 2318SOL    HW1 7853   2.200   2.967   4.347
 2318SOL    HW2 7854   2.145   3.084   4.447
 2319SOL     OW 7855   3.243   5.250   4.546
 2319SOL    HW1 7856   3.212   5.271   4.638
 2319SOL    HW2 7857   3.333   5.207   4.550
 2320SOL     OW 7858   0.799   3.188   4.329
 2320SOL    HW1 7859   0.804   3.286   4.350
 2320SOL    HW2 7860   0.869   3.164   4.262
 2321SOL     OW 7861   1.978   4.943   0.696
 2321SOL    HW1 7862   2.053   4.954   0.632
 2321SOL    HW2 7863   2.004   4.878   0.768
 2322SOL     OW 7864   1.970   4.162   3.062
 2322SOL    HW1 7865   1.907   4.084   3.057
 2322SOL    HW2 7866   2.062   4.129   3.080
 2323SOL     OW 7867   3.447   4.716   1.592
 2323SOL    HW1 7868   3.485   4.668   1.671
 2323SOL    HW2 7869   3.521   4.739   1.529
 2324SOL     OW 7870   6.354   5.936   0.373
 2324SOL    HW1 7871   6.389   6.017   0.326
 2324SOL    HW2 7872   6.289   5.889   0.313
 2325SOL     OW 7873   1.080   4.291   1.310
 2325SOL    HW1 7874   1.035   4.260   1.226
 2325SOL    HW2 7875   1.176   4.265   1.308
 2326SOL     OW 7876   2.762   5.975   6.669
 2326SOL    HW1 7877   2.692   5.991   6.739
 2326SOL    HW2 7878   2.807   6.061   6.647
 2327SOL     OW 7879   6.854   1.688   3.994
 2327SOL    HW1 7880   6.769   1.732   4.022
 2327SOL    HW2 7881   6.861   1.689   3.894
 2328SOL     OW 7882   1.562   1.478   2.785
 2328SOL    HW1 7883   1.513   1.391   2.785
 2328SOL    HW2 7884   1.652   1.466   2.827
 2329SOL     OW 7885   1.750   4.552   4.586
 2329SOL    HW1 7886   1.784   4.460   4.609
 2329SOL    HW2 7887   1.737   4.558   4.487
 2330SOL     OW 7888   0.202   3.415   1.714
 2330SOL    HW1 7889   0.113   3.424   1.759
 2330SOL    HW2 7890   0.238   3.324   1.730
 2331SOL     OW 7891   3.945   5.196   6.606
 2331SOL    HW1 7892   3.951   5.217   6.703
 2331SOL    HW2 7893   3.957   5.098   6.592
 2332SOL     OW 7894   5.853   0.954   5.182
 2332SOL    HW1 7895   5.823   1.040   5.141
 2332SOL    HW2 7896   5.949   0.937   5.158
 2333SOL     OW 7897   0.200   4.477   2.440
 2333SOL    HW1 7898   0.162   4.453   2.351
 2333SOL    HW2 7899   0.162   4.417   2.511
 2334SOL     OW 7900   1.925   0.706   6.652
 2334SOL    HW1 7901   1.900   0.772   6.723
 2334SOL    HW2 7902   1.957   0.622   6.696
 2335SOL     OW 7903   6.637   1.320   4.142
 2335SOL    HW1 7904   6.540   1.327   4.118
 2335SOL    HW2 7905   6.692   1.330   4.059
 2336SOL     OW 7906   3.660   1.877   4.657
 2336SOL    HW1 7907   3.676   1.782   4.684
 2336SOL    HW2 7908   3.567   1.886   4.622
 2337SOL     OW 7909   4.301   0.576   1.692
 2337SOL    HW1 7910   4.244   0.653   1.722
 2337SOL    HW2 7911   4.256   0.527   1.618
 2338SOL     OW 7912   0.869   3.215   5.196
 2338SOL    HW1 7913   0.858   3.118   5.217
 2338SOL    HW2 7914   0.880   3.226   5.097
 2339SOL     OW 7915   2.990   3.503   3.746
 2339SOL    HW1 7916   3.032   3.446   3.816
 2339SOL    HW2 7917   2.963   3.591   3.786
 2340SOL     OW 7918   6.647   4.571   6.864
 2340SOL    HW1 7919   6.585   4.554   6.787
 2340SOL    HW2 7920   6.657   4.669   6.877
 2341SOL     OW 7921   3.484   4.906   2.144
 2341SOL    HW1 7922   3.404   4.891   2.086
 2341SOL    HW2 7923   3.559   4.848   2.111
 2342SOL     OW 7924   0.720   6.273   5.444
 2342SOL    HW1 7925   0.687   6.291   5.537
 2342SOL    HW2 7926   0.757   6.181   5.439
 2343SOL     OW 7927   1.875   5.640   3.208
 2343SOL    HW1 7928   1.824   5.697   3.272
 2343SOL    HW2 7929   1.942   5.697   3.159
 2344SOL     OW 7930   1.775   5.711   0.188
 2344SOL    HW1 7931   1.706   5.744   0.123
 2344SOL    HW2 7932   1.770   5.612   0.194
 2345SOL     OW 7933   3.090   5.330   5.074
 2345SOL    HW1 7934   3.017   5.262   5.077
 2345SOL    HW2 7935   3.172   5.293   5.118
 2346SOL     OW 7936   3.999   3.146   5.447
 2346SOL    HW1 7937   4.090   3.160   5.407
 2346SOL    HW2 7938   3.930   3.148   5.375
 2347SOL     OW 7939   3.202   2.096   1.472
 2347SOL    HW1 7940   3.162   2.183   1.504
 2347SOL    HW2 7941   3.145   2.020   1.503
 2348SOL     OW 7942   2.378   6.811   3.901
 2348SOL    HW1 7943   2.308   6.819   3.830
 2348SOL    HW2 7944   2.381   6.895   3.954
 2349SOL     OW 7945   0.812   4.618   5.962
 2349SOL    HW1 7946   0.830   4.660   5.873
 2349SOL    HW2 7947   0.830   4.685   6.034
 2350SOL     OW 7948   5.777   0.262   6.661
 2350SOL    HW1 7949   5.772   0.179   6.605
 2350SOL    HW2 7950   5.753   0.341   6.604
 2351SOL     OW 7951   3.132   4.918   4.078
 2351SOL    HW1 7952   3.200   4.931   4.006
 2351SOL    HW2 7953   3.047   4.884   4.038
 2352SOL     OW 7954   0.606   4.018   2.394
 2352SOL    HW1 7955   0.681   4.082   2.412
 2352SOL    HW2 7956   0.568   4.036   2.304
 2353SOL     OW 7957   3.165   4.844   5.833
 2353SOL    HW1 7958   3.066   4.835   5.826
 2353SOL    HW2 7959   3.201   4.885   5.750
 2354SOL     OW 7960   3.218   1.566   5.849
 2354SOL    HW1 7961   3.142   1.629   5.862
 2354SOL    HW2 7962   3.275   1.596   5.772
 2355SOL     OW 7963   2.098   5.603   0.037
 2355SOL    HW1 7964   2.098   5.646   0.127
 2355SOL    HW2 7965   2.136   5.666   6.992
 2356SOL     OW 7966   1.541   3.046   6.326
 2356SOL    HW1 7967   1.614   3.091   6.377
 2356SOL    HW2 7968   1.549   3.068   6.229
 2357SOL     OW 7969   4.555   0.112   2.964
 2357SOL    HW1 7970   4.606   0.033   2.930
 2357SOL    HW2 7971   4.547   0.181   2.892
 2358SOL     OW 7972   4.081   5.029   5.081
 2358SOL    HW1 7973   4.063   4.994   4.989
 2358SOL    HW2 7974   4.050   4.962   5.149
 2359SOL     OW 7975   6.271   0.456   5.878
 2359SOL    HW1 7976   6.303   0.471   5.971
 2359SOL    HW2 7977   6.172   0.466   5.875
 2360SOL     OW 7978   5.487   4.213   6.816
 2360SOL    HW1 7979   5.555   4.166   6.872
 2360SOL    HW2 7980   5.480   4.308   6.846
 2361SOL     OW 7981   2.793   1.167   5.387
 2361SOL    HW1 7982   2.771   1.224   5.467
 2361SOL    HW2 7983   2.715   1.108   5.366
 2362SOL     OW 7984   2.221   6.576   4.324
 2362SOL    HW1 7985   2.304   6.577   4.268
 2362SOL    HW2 7986   2.172   6.662   4.313
 2363SOL     OW 7987   4.450   2.577   4.979
 2363SOL    HW1 7988   4.485   2.640   4.909
 2363SOL    HW2 7989   4.350   2.573   4.974
 2364SOL     OW 7990   1.192   2.131   2.911
 2364SOL    HW1 7991   1.240   2.219   2.905
 2364SOL    HW2 7992   1.250   2.060   2.872
 2365SOL     OW 7993   6.333   2.685   6.643
 2365SOL    HW1 7994   6.369   2.762   6.592
 2365SOL    HW2 7995   6.346   2.600   6.591
 2366SOL     OW 7996   2.244   5.301   6.697
 2366SOL    HW1 7997   2.310   5.354   6.643
 2366SOL    HW2 7998   2.221   5.217   6.649
 2367SOL     OW 7999   2.647   4.253   0.600
 2367SOL    HW1 8000   2.581   4.297   0.540
 2367SOL    HW2 8001   2.730   4.231   0.548
 2368SOL     OW 8002   4.331   0.781   3.847
 2368SOL    HW1 8003   4.232   0.793   3.861
 2368SOL    HW2 8004   4.358   0.689   3.875
 2369SOL     OW 8005   1.766   2.159   5.425
 2369SOL    HW1 8006   1.767   2.170   5.326
 2369SOL    HW2 8007   1.748   2.064   5.448
 2370SOL     OW 8008   4.991   3.726   0.189
 2370SOL    HW1 8009   4.896   3.701   0.209
 2370SOL    HW2 8010   5.001   3.744   0.091
 2371SOL     OW 8011   0.532   0.035   2.526
 2371SOL    HW1 8012   0.502   7.020   2.614
 2371SOL    HW2 8013   0.539   0.135   2.533
 2372SOL     OW 8014   0.173   3.045   2.523
 2372SOL    HW1 8015   0.254   3.070   2.576
 2372SOL    HW2 8016   0.171   3.098   2.438
 2373SOL     OW 8017   0.649   2.010   0.152
 2373SOL    HW1 8018   0.680   2.099   0.184
 2373SOL    HW2 8019   0.554   2.017   0.120
 2374SOL     OW 8020   6.069   0.903   3.086
 2374SOL    HW1 8021   6.152   0.859   3.122
 2374SOL    HW2 8022   6.028   0.960   3.157
 2375SOL     OW 8023   2.917   6.529   4.956
 2375SOL    HW1 8024   2.935   6.576   4.870
 2375SOL    HW2 8025   2.850   6.456   4.941
 2376SOL     OW 8026   0.216   2.293   4.384
 2376SOL    HW1 8027   0.219   2.384   4.343
 2376SOL    HW2 8028   0.175   2.300   4.475
 2377SOL     OW 8029   3.442   4.068   3.236
 2377SOL    HW1 8030   3.464   4.099   3.329
 2377SOL    HW2 8031   3.426   3.969   3.237
 2378SOL     OW 8032   4.944   1.528   0.445
 2378SOL    HW1 8033   4.966   1.505   0.539
 2378SOL    HW2 8034   4.930   1.444   0.392
 2379SOL     OW 8035   5.611   1.731   6.914
 2379SOL    HW1 8036   5.557   1.815   6.918
 2379SOL    HW2 8037   5.554   1.656   6.879
 2380SOL     OW 8038   0.517   1.215   0.248
 2380SOL    HW1 8039   0.608   1.251   0.270
 2380SOL    HW2 8040   0.520   1.166   0.161
 2381SOL     OW 8041   2.086   3.921   4.777
 2381SOL    HW1 8042   2.076   3.953   4.683
 2381SOL    HW2 8043   2.148   3.981   4.827
 2382SOL     OW 8044   2.373   4.485   3.295
 2382SOL    HW1 8045   2.449   4.551   3.291
 2382SOL    HW2 8046   2.365   4.439   3.207
 2383SOL     OW 8047   5.160   6.513   1.639
 2383SOL    HW1 8048   5.126   6.605   1.620
 2383SOL    HW2 8049   5.260   6.513   1.641
 2384SOL     OW 8050   5.741   0.439   2.859
 2384SOL    HW1 8051   5.767   0.353   2.902
 2384SOL    HW2 8052   5.818   0.502   2.861
 2385SOL     OW 8053   0.799   6.388   1.188
 2385SOL    HW1 8054   0.738   6.310   1.202
 2385SOL    HW2 8055   0.746   6.467   1.157
 2386SOL     OW 8056   6.089   5.827   4.645
 2386SOL    HW1 8057   5.997   5.839   4.608
 2386SOL    HW2 8058   6.137   5.757   4.592
 2387SOL     OW 8059   1.001   1.957   3.568
 2387SOL    HW1 8060   0.957   1.944   3.479
 2387SOL    HW2 8061   1.096   1.986   3.553
 2388SOL     OW 8062   0.510   2.461   4.376
 2388SOL    HW1 8063   0.482   2.472   4.280
 2388SOL    HW2 8064   0.461   2.527   4.433
 2389SOL     OW 8065   4.920   3.711   2.881
 2389SOL    HW1 8066   4.899   3.649   2.806
 2389SOL    HW2 8067   4.912   3.663   2.968
 2390SOL     OW 8068   4.088   3.627   2.930
 2390SOL    HW1 8069   4.187   3.625   2.939
 2390SOL    HW2 8070   4.058   3.549   2.874
 2391SOL     OW 8071   4.780   4.689   5.723
 2391SOL    HW1 8072   4.697   4.715   5.673
 2391SOL    HW2 8073   4.783   4.590   5.735
 2392SOL     OW 8074   4.230   6.708   5.128
 2392SOL    HW1 8075   4.316   6.700   5.078
 2392SOL    HW2 8076   4.158   6.739   5.065
 2393SOL     OW 8077   5.476   3.728   6.176
 2393SOL    HW1 8078   5.515   3.820   6.164
 2393SOL    HW2 8079   5.462   3.686   6.087
 2394SOL     OW 8080   1.291   3.360   4.630
 2394SOL    HW1 8081   1.281   3.366   4.729
 2394SOL    HW2 8082   1.328   3.271   4.605
 2395SOL     OW 8083   5.883   2.440   6.584
 2395SOL    HW1 8084   5.807   2.389   6.544
 2395SOL    HW2 8085   5.902   2.521   6.528
 2396SOL     OW 8086   3.661   4.821   1.414
 2396SOL    HW1 8087   3.630   4.893   1.352
 2396SOL    HW2 8088   3.703   4.862   1.495
 2397SOL     OW 8089   0.183   4.305   6.805
 2397SOL    HW1 8090   0.282   4.289   6.796
 2397SOL    HW2 8091   0.153   4.276   6.896
 2398SOL     OW 8092   2.327   3.278   6.645
 2398SOL    HW1 8093   2.268   3.355   6.672
 2398SOL    HW2 8094   2.412   3.282   6.696
 2399SOL     OW 8095   4.483   1.726   1.723
 2399SOL    HW1 8096   4.386   1.715   1.702
 2399SOL    HW2 8097   4.505   1.823   1.731
 2400SOL     OW 8098   3.191   4.315   0.190
 2400SOL    HW1 8099   3.151   4.262   0.115
 2400SOL    HW2 8100   3.127   4.317   0.267
 2401SOL     OW 8101   3.972   6.131   6.079
 2401SOL    HW1 8102   4.025   6.125   6.164
 2401SOL    HW2 8103   3.944   6.040   6.051
 2402SOL     OW 8104   6.819   0.977   3.334
 2402SOL    HW1 8105   6.870   0.938   3.258
 2402SOL    HW2 8106   6.735   0.925   3.349
 2403SOL     OW 8107   2.024   2.722   6.848
 2403SOL    HW1 8108   1.981   2.645   6.800
 2403SOL    HW2 8109   2.046   2.794   6.782
 2404SOL     OW 8110   3.532   1.018   0.801
 2404SOL    HW1 8111   3.590   0.985   0.876
 2404SOL    HW2 8112   3.524   1.117   0.806
 2405SOL     OW 8113   3.852   3.360   2.786
 2405SOL    HW1 8114   3.818   3.447   2.750
 2405SOL    HW2 8115   3.776   3.301   2.811
 2406SOL     OW 8116   3.048   6.344   2.553
 2406SOL    HW1 8117   2.958   6.351   2.512
 2406SOL    HW2 8118   3.054   6.260   2.608
 2407SOL     OW 8119   5.622   2.060   2.062
 2407SOL    HW1 8120   5.601   2.140   2.005
 2407SOL    HW2 8121   5.644   1.982   2.004
 2408SOL     OW 8122   3.657   5.356   3.323
 2408SOL    HW1 8123   3.613   5.294   3.259
 2408SOL    HW2 8124   3.736   5.399   3.278
 2409SOL     OW 8125   1.697   4.107   2.190
 2409SOL    HW1 8126   1.611   4.107   2.138
 2409SOL    HW2 8127   1.755   4.032   2.159
 2410SOL     OW 8128   4.302   2.709   6.189
 2410SOL    HW1 8129   4.357   2.792   6.182
 2410SOL    HW2 8130   4.264   2.686   6.099
 2411SOL     OW 8131   3.836   5.213   4.996
 2411SOL    HW1 8132   3.804   5.255   4.912
 2411SOL    HW2 8133   3.932   5.187   4.986
 2412SOL     OW 8134   4.901   5.486   1.268
 2412SOL    HW1 8135   4.937   5.402   1.309
 2412SOL    HW2 8136   4.973   5.555   1.264
 2413SOL     OW 8137   6.265   2.109   0.874
 2413SOL    HW1 8138   6.206   2.144   0.947
 2413SOL    HW2 8139   6.319   2.184   0.836
 2414SOL     OW 8140   4.987   4.227   2.715
 2414SOL    HW1 8141   5.006   4.136   2.751
 2414SOL    HW2 8142   4.912   4.221   2.648
 2415SOL     OW 8143   0.046   0.126   2.499
 2415SOL    HW1 8144   0.135   0.080   2.495
 2415SOL    HW2 8145   0.027   0.169   2.411
 2416SOL     OW 8146   4.384   2.117   5.604
 2416SOL    HW1 8147   4.327   2.040   5.571
 2416SOL    HW2 8148   4.474   2.112   5.561
 2417SOL     OW 8149   3.759   2.921   5.845
 2417SOL    HW1 8150   3.798   2.840   5.803
 2417SOL    HW2 8151   3.807   2.941   5.930
 2418SOL     OW 8152   2.955   3.233   4.240
 2418SOL    HW1 8153   2.921   3.140   4.223
 2418SOL    HW2 8154   2.966   3.247   4.338
 2419SOL     OW 8155   0.287   6.892   4.657
 2419SOL    HW1 8156   0.210   6.941   4.695
 2419SOL    HW2 8157   0.348   6.956   4.609
 2420SOL     OW 8158   3.009   1.300   2.335
 2420SOL    HW1 8159   3.088   1.294   2.395
 2420SOL    HW2 8160   2.943   1.365   2.373
 2421SOL     OW 8161   2.799   2.019   4.819
 2421SOL    HW1 8162   2.820   2.117   4.814
 2421SOL    HW2 8163   2.867   1.974   4.877
 2422SOL     OW 8164   5.722   1.078   1.021
 2422SOL    HW1 8165   5.680   1.042   0.938
 2422SOL    HW2 8166   5.706   1.014   1.097
 2423SOL     OW 8167   1.333   6.412   2.560
 2423SOL    HW1 8168   1.306   6.433   2.466
 2423SOL    HW2 8169   1.274   6.463   2.623
 2424SOL     OW 8170   6.135   6.623   5.975
 2424SOL    HW1 8171   6.052   6.663   5.934
 2424SOL    HW2 8172   6.134   6.641   6.073
 2425SOL     OW 8173   5.557   0.685   3.895
 2425SOL    HW1 8174   5.617   0.721   3.823
 2425SOL    HW2 8175   5.461   0.693   3.866
 2426SOL     OW 8176   0.755   5.978   5.135
 2426SOL    HW1 8177   0.796   6.024   5.056
 2426SOL    HW2 8178   0.678   6.032   5.169
 2427SOL     OW 8179   5.606   6.138   5.546
 2427SOL    HW1 8180   5.512   6.168   5.562
 2427SOL    HW2 8181   5.657   6.138   5.632
 2428SOL     OW 8182   6.099   0.144   2.538
 2428SOL    HW1 8183   6.178   0.162   2.479
 2428SOL    HW2 8184   6.023   0.204   2.511
 2429SOL     OW 8185   5.317   5.243   3.299
 2429SOL    HW1 8186   5.410   5.240   3.264
 2429SOL    HW2 8187   5.319   5.262   3.398
 2430SOL     OW 8188   6.098   1.881   1.231
 2430SOL    HW1 8189   6.099   1.886   1.331
 2430SOL    HW2 8190   6.064   1.792   1.202
 2431SOL     OW 8191   3.987   1.016   2.611
 2431SOL    HW1 8192   3.991   1.105   2.656
 2431SOL    HW2 8193   3.974   0.944   2.679
 2432SOL     OW 8194   3.307   6.592   2.888
 2432SOL    HW1 8195   3.358   6.625   2.809
 2432SOL    HW2 8196   3.226   6.542   2.857
 2433SOL     OW 8197   3.556   0.622   1.187
 2433SOL    HW1 8198   3.535   0.559   1.261
 2433SOL    HW2 8199   3.535   0.716   1.215
 2434SOL     OW 8200   3.949   1.019   5.579
 2434SOL    HW1 8201   4.006   0.967   5.642
 2434SOL    HW2 8202   3.998   1.101   5.550
 2435SOL     OW 8203   4.810   4.214   6.967
 2435SOL    HW1 8204   4.893   4.167   6.936
 2435SOL    HW2 8205   4.826   4.251   0.037
 2436SOL     OW 8206   1.554   5.524   1.034
 2436SOL    HW1 8207   1.602   5.499   1.118
 2436SOL    HW2 8208   1.458   5.546   1.056
 2437SOL     OW 8209   5.344   6.474   6.548
 2437SOL    HW1 8210   5.282   6.396   6.562
 2437SOL    HW2 8211   5.290   6.558   6.543
 2438SOL     OW 8212   3.284   0.964   6.697
 2438SOL    HW1 8213   3.306   0.933   6.789
 2438SOL    HW2 8214   3.208   1.028   6.700
 2439SOL     OW 8215   1.583   4.555   6.428
 2439SOL    HW1 8216   1.516   4.560   6.354
 2439SOL    HW2 8217   1.574   4.468   6.475
 2440SOL     OW 8218   4.762   5.984   5.488
 2440SOL    HW1 8219   4.764   6.050   5.564
 2440SOL    HW2 8220   4.750   5.892   5.525
 2441SOL     OW 8221   0.570   1.537   0.513
 2441SOL    HW1 8222   0.609   1.585   0.591
 2441SOL    HW2 8223   0.545   1.444   0.540
 2442SOL     OW 8224   0.807   3.524   6.034
 2442SOL    HW1 8225   0.775   3.502   5.942
 2442SOL    HW2 8226   0.889   3.580   6.028
 2443SOL     OW 8227   4.085   5.458   6.051
 2443SOL    HW1 8228   4.093   5.555   6.029
 2443SOL    HW2 8229   4.142   5.437   6.130
 2444SOL     OW 8230   3.408   4.006   6.141
 2444SOL    HW1 8231   3.481   3.968   6.198
 2444SOL    HW2 8232   3.401   3.953   6.056
 2445SOL     OW 8233   6.868   1.260   1.421
 2445SOL    HW1 8234   6.779   1.217   1.436
 2445SOL    HW2 8235   6.882   1.332   1.489
 2446SOL     OW 8236   6.423   4.861   4.203
 2446SOL    HW1 8237   6.476   4.942   4.178
 2446SOL    HW2 8238   6.459   4.824   4.289
 2447SOL     OW 8239   1.946   2.632   0.932
 2447SOL    HW1 8240   2.046   2.644   0.934
 2447SOL    HW2 8241   1.905   2.711   0.887
 2448SOL     OW 8242   0.375   0.903   4.766
 2448SOL    HW1 8243   0.307   0.891   4.694
 2448SOL    HW2 8244   0.330   0.895   4.855
 2449SOL     OW 8245   6.866   4.711   0.537
 2449SOL    HW1 8246   6.835   4.720   0.632
 2449SOL    HW2 8247   6.917   4.625   0.527
 2450SOL     OW 8248   2.618   4.642   3.272
 2450SOL    HW1 8249   2.643   4.621   3.178
 2450SOL    HW2 8250   2.555   4.720   3.274
 2451SOL     OW 8251   1.151   1.320   3.757
 2451SOL    HW1 8252   1.242   1.344   3.725
 2451SOL    HW2 8253   1.084   1.387   3.724
 2452SOL     OW 8254   1.743   4.069   2.670
 2452SOL    HW1 8255   1.643   4.071   2.667
 2452SOL    HW2 8256   1.773   3.983   2.712
 2453SOL     OW 8257   6.249   4.872   1.247
 2453SOL    HW1 8258   6.188   4.892   1.171
 2453SOL    HW2 8259   6.204   4.809   1.310
 2454SOL     OW 8260   3.139   0.667   1.413
 2454SOL    HW1 8261   3.048   0.633   1.435
 2454SOL    HW2 8262   3.190   0.683   1.498
 2455SOL     OW 8263   5.369   6.028   0.564
 2455SOL    HW1 8264   5.405   5.953   0.620
 2455SOL    HW2 8265   5.393   6.115   0.605
 2456SOL     OW 8266   5.089   6.265   1.676
 2456SOL    HW1 8267   5.093   6.364   1.679
 2456SOL    HW2 8268   5.182   6.228   1.670
 2457SOL     OW 8269   5.852   6.369   0.681
 2457SOL    HW1 8270   5.759   6.374   0.643
 2457SOL    HW2 8271   5.912   6.322   0.616
 2458SOL     OW 8272   2.062   5.904   3.415
 2458SOL    HW1 8273   2.111   5.991   3.426
 2458SOL    HW2 8274   2.080   5.867   3.324
 2459SOL     OW 8275   2.132   6.656   0.570
 2459SOL    HW1 8276   2.213   6.709   0.545
 2459SOL    HW2 8277   2.128   6.647   0.670
 2460SOL     OW 8278   2.093   0.982   1.340
 2460SOL    HW1 8279   2.116   1.043   1.265
 2460SOL    HW2 8280   2.175   0.964   1.395
 2461SOL     OW 8281   6.028   0.898   2.349
 2461SOL    HW1 8282   5.936   0.862   2.369
 2461SOL    HW2 8283   6.063   0.946   2.429
 2462SOL     OW 8284   2.419   5.600   0.221
 2462SOL    HW1 8285   2.381   5.669   0.283
 2462SOL    HW2 8286   2.434   5.641   0.131
 2463SOL     OW 8287   5.975   2.327   4.001
 2463SOL    HW1 8288   5.940   2.334   4.094
 2463SOL    HW2 8289   5.956   2.411   3.950
 2464SOL     OW 8290   0.896   4.899   0.818
 2464SOL    HW1 8291   0.990   4.867   0.835
 2464SOL    HW2 8292   0.846   4.828   0.768
 2465SOL     OW 8293   0.011   5.919   1.658
 2465SOL    HW1 8294   7.002   5.879   1.572
 2465SOL    HW2 8295   6.979   5.883   1.733
 2466SOL     OW 8296   3.835   1.333   2.341
 2466SOL    HW1 8297   3.736   1.327   2.330
 2466SOL    HW2 8298   3.877   1.246   2.316
 2467SOL     OW 8299   6.286   1.333   5.945
 2467SOL    HW1 8300   6.283   1.260   5.877
 2467SOL    HW2 8301   6.204   1.328   6.003
 2468SOL     OW 8302   0.098   6.208   1.994
 2468SOL    HW1 8303   0.079   6.193   1.897
 2468SOL    HW2 8304   0.081   6.304   2.017
 2469SOL     OW 8305   3.323   4.088   5.601
 2469SOL    HW1 8306   3.415   4.090   5.562
 2469SOL    HW2 8307   3.265   4.026   5.548
 2470SOL     OW 8308   2.853   4.264   6.198
 2470SOL    HW1 8309   2.903   4.247   6.283
 2470SOL    HW2 8310   2.875   4.355   6.164
 2471SOL     OW 8311   0.652   6.622   1.467
 2471SOL    HW1 8312   0.660   6.586   1.374
 2471SOL    HW2 8313   0.741   6.652   1.499
 2472SOL     OW 8314   5.604   1.235   4.920
 2472SOL    HW1 8315   5.623   1.284   4.835
 2472SOL    HW2 8316   5.574   1.142   4.899
 2473SOL     OW 8317   1.497   4.857   4.725
 2473SOL    HW1 8318   1.534   4.946   4.749
 2473SOL    HW2 8319   1.546   4.785   4.774
 2474SOL     OW 8320   6.894   4.752   6.601
 2474SOL    HW1 8321   6.952   4.721   6.525
 2474SOL    HW2 8322   6.940   4.732   6.688
 2475SOL     OW 8323   4.266   2.394   0.686
 2475SOL    HW1 8324   4.281   2.336   0.605
 2475SOL    HW2 8325   4.302   2.348   0.767
 2476SOL     OW 8326   1.133   2.436   3.951
 2476SOL    HW1 8327   1.164   2.459   4.043
 2476SOL    HW2 8328   1.048   2.485   3.932
 2477SOL     OW 8329   6.261   6.538   1.674
 2477SOL    HW1 8330   6.180   6.591   1.651
 2477SOL    HW2 8331   6.234   6.448   1.709
 2478SOL     OW 8332   5.923   5.940   2.535
 2478SOL    HW1 8333   5.911   6.036   2.561
 2478SOL    HW2 8334   5.836   5.904   2.500
 2479SOL     OW 8335   0.167   3.038   1.584
 2479SOL    HW1 8336   0.241   3.061   1.521
 2479SOL    HW2 8337   0.087   3.009   1.532
 2480SOL     OW 8338   6.940   2.600   1.002
 2480SOL    HW1 8339   6.846   2.590   0.970
 2480SOL    HW2 8340   6.969   2.695   0.988
 2481SOL     OW 8341   3.831   5.763   0.809
 2481SOL    HW1 8342   3.831   5.724   0.901
 2481SOL    HW2 8343   3.859   5.859   0.813
 2482SOL     OW 8344   4.757   3.438   5.571
 2482SOL    HW1 8345   4.709   3.362   5.530
 2482SOL    HW2 8346   4.835   3.463   5.514
 2483SOL     OW 8347   1.987   0.775   0.617
 2483SOL    HW1 8348   2.043   0.808   0.694
 2483SOL    HW2 8349   2.046   0.748   0.542
 2484SOL     OW 8350   1.792   0.571   0.669
 2484SOL    HW1 8351   1.698   0.606   0.681
 2484SOL    HW2 8352   1.851   0.646   0.640
 2485SOL     OW 8353   6.129   4.977   1.777
 2485SOL    HW1 8354   6.179   4.974   1.691
 2485SOL    HW2 8355   6.188   4.946   1.852
 2486SOL     OW 8356   1.743   6.095   3.953
 2486SOL    HW1 8357   1.716   6.135   3.866
 2486SOL    HW2 8358   1.808   6.021   3.938
 2487SOL     OW 8359   4.435   6.112   0.055
 2487SOL    HW1 8360   4.463   6.047   0.126
 2487SOL    HW2 8361   4.349   6.082   0.015
 2488SOL     OW 8362   2.880   4.121   1.424
 2488SOL    HW1 8363   2.908   4.028   1.400
 2488SOL    HW2 8364   2.781   4.130   1.415
 2489SOL     OW 8365   2.128   5.863   5.020
 2489SOL    HW1 8366   2.182   5.947   5.007
 2489SOL    HW2 8367   2.046   5.884   5.073
 2490SOL     OW 8368   0.102   5.115   0.719
 2490SOL    HW1 8369   0.140   5.074   0.636
 2490SOL    HW2 8370   0.004   5.132   0.705
 2491SOL     OW 8371   2.514   5.761   2.662
 2491SOL    HW1 8372   2.570   5.687   2.698
 2491SOL    HW2 8373   2.547   5.787   2.571
 2492SOL     OW 8374   4.647   3.602   6.266
 2492SOL    HW1 8375   4.567   3.614   6.324
 2492SOL    HW2 8376   4.631   3.525   6.204
 2493SOL     OW 8377   5.532   0.873   2.730
 2493SOL    HW1 8378   5.472   0.855   2.652
 2493SOL    HW2 8379   5.600   0.942   2.706
 2494SOL     OW 8380   4.633   2.676   2.601
 2494SOL    HW1 8381   4.540   2.691   2.570
 2494SOL    HW2 8382   4.698   2.697   2.528
 2495SOL     OW 8383   5.203   1.318   5.475
 2495SOL    HW1 8384   5.266   1.304   5.552
 2495SOL    HW2 8385   5.169   1.411   5.476
 2496SOL     OW 8386   1.242   5.629   0.597
 2496SOL    HW1 8387   1.317   5.626   0.662
 2496SOL    HW2 8388   1.176   5.698   0.625
 2497SOL     OW 8389   6.698   1.533   0.775
 2497SOL    HW1 8390   6.632   1.467   0.738
 2497SOL    HW2 8391   6.750   1.573   0.700
 2498SOL     OW 8392   1.924   3.407   3.302
 2498SOL    HW1 8393   1.972   3.491   3.328
 2498SOL    HW2 8394   1.871   3.423   3.219
 2499SOL     OW 8395   5.736   0.729   5.004
 2499SOL    HW1 8396   5.722   0.633   4.977
 2499SOL    HW2 8397   5.819   0.735   5.059
 2500SOL     OW 8398   5.003   3.453   6.433
 2500SOL    HW1 8399   5.088   3.472   6.483
 2500SOL    HW2 8400   4.940   3.404   6.494
 2501SOL     OW 8401   5.876   4.320   6.839
 2501SOL    HW1 8402   5.801   4.270   6.881
 2501SOL    HW2 8403   5.903   4.395   6.900
 2502SOL     OW 8404   2.186   6.824   3.695
 2502SOL    HW1 8405   2.221   6.839   3.602
 2502SOL    HW2 8406   2.164   6.728   3.707
 2503SOL     OW 8407   3.963   5.689   5.682
 2503SOL    HW1 8408   3.921   5.769   5.639
 2503SOL    HW2 8409   3.904   5.609   5.668
 2504SOL     OW 8410   2.093   4.677   4.665
 2504SOL    HW1 8411   1.999   4.709   4.676
 2504SOL    HW2 8412   2.104   4.587   4.707
 2505SOL     OW 8413   4.077   5.519   4.462
 2505SOL    HW1 8414   3.992   5.474   4.432
 2505SOL    HW2 8415   4.135   5.453   4.508
 2506SOL     OW 8416   6.405   3.482   6.180
 2506SOL    HW1 8417   6.310   3.513   6.186
 2506SOL    HW2 8418   6.408   3.393   6.134
 2507SOL     OW 8419   6.540   5.515   0.251
 2507SOL    HW1 8420   6.546   5.579   0.328
 2507SOL    HW2 8421   6.452   5.526   0.205
 2508SOL     OW 8422   2.864   1.979   2.150
 2508SOL    HW1 8423   2.849   2.005   2.054
 2508SOL    HW2 8424   2.908   2.054   2.198
 2509SOL     OW 8425   5.646   2.692   2.428
 2509SOL    HW1 8426   5.732   2.656   2.464
 2509SOL    HW2 8427   5.664   2.744   2.345
 2510SOL     OW 8428   3.152   5.036   0.548
 2510SOL    HW1 8429   3.120   5.000   0.635
 2510SOL    HW2 8430   3.118   4.979   0.473
 2511SOL     OW 8431   1.331   1.140   5.061
 2511SOL    HW1 8432   1.265   1.070   5.032
 2511SOL    HW2 8433   1.399   1.153   4.989
 2512SOL     OW 8434   4.910   3.999   4.951
 2512SOL    HW1 8435   5.006   4.021   4.968
 2512SOL    HW2 8436   4.903   3.906   4.915
 2513SOL     OW 8437   1.423   2.200   6.437
 2513SOL    HW1 8438   1.332   2.224   6.471
 2513SOL    HW2 8439   1.414   2.146   6.353
 2514SOL     OW 8440   0.598   1.596   4.398
 2514SOL    HW1 8441   0.663   1.620   4.470
 2514SOL    HW2 8442   0.504   1.609   4.432
 2515SOL     OW 8443   1.425   6.662   0.252
 2515SOL    HW1 8444   1.338   6.690   0.212
 2515SOL    HW2 8445   1.411   6.635   0.347
 2516SOL     OW 8446   5.788   6.345   3.764
 2516SOL    HW1 8447   5.838   6.333   3.679
 2516SOL    HW2 8448   5.852   6.353   3.840
 2517SOL     OW 8449   2.584   4.236   6.322
 2517SOL    HW1 8450   2.587   4.257   6.224
 2517SOL    HW2 8451   2.677   4.231   6.358
 2518SOL     OW 8452   2.461   2.512   6.483
 2518SOL    HW1 8453   2.482   2.590   6.425
 2518SOL    HW2 8454   2.375   2.529   6.533
 2519SOL     OW 8455   5.033   4.836   4.483
 2519SOL    HW1 8456   4.968   4.870   4.417
 2519SOL    HW2 8457   5.117   4.807   4.436
 2520SOL     OW 8458   2.749   3.385   1.074
 2520SOL    HW1 8459   2.689   3.359   0.998
 2520SOL    HW2 8460   2.777   3.303   1.123
 2521SOL     OW 8461   0.526   0.153   5.553
 2521SOL    HW1 8462   0.518   0.223   5.624
 2521SOL    HW2 8463   0.608   0.098   5.569
 2522SOL     OW 8464   1.391   2.812   4.434
 2522SOL    HW1 8465   1.306   2.864   4.439
 2522SOL    HW2 8466   1.424   2.793   4.527
 2523SOL     OW 8467   6.750   3.373   0.657
 2523SOL    HW1 8468   6.694   3.439   0.707
 2523SOL    HW2 8469   6.797   3.419   0.582
 2524SOL     OW 8470   0.991   6.834   4.083
 2524SOL    HW1 8471   0.906   6.879   4.057
 2524SOL    HW2 8472   1.065   6.866   4.024
 2525SOL     OW 8473   0.980   4.266   4.482
 2525SOL    HW1 8474   1.024   4.228   4.564
 2525SOL    HW2 8475   0.887   4.230   4.474
 2526SOL     OW 8476   0.306   2.070   4.271
 2526SOL    HW1 8477   0.268   2.138   4.334
 2526SOL    HW2 8478   0.395   2.101   4.239
 2527SOL     OW 8479   5.764   6.071   5.069
 2527SOL    HW1 8480   5.774   6.156   5.122
 2527SOL    HW2 8481   5.672   6.066   5.032
 2528SOL     OW 8482   6.231   5.183   0.145
 2528SOL    HW1 8483   6.219   5.093   0.188
 2528SOL    HW2 8484   6.303   5.233   0.193
 2529SOL     OW 8485   4.691   5.956   4.944
 2529SOL    HW1 8486   4.713   5.990   4.853
 2529SOL    HW2 8487   4.628   5.879   4.937
 2530SOL     OW 8488   1.088   6.096   3.355
 2530SOL    HW1 8489   1.154   6.166   3.383
 2530SOL    HW2 8490   1.023   6.081   3.429
 2531SOL     OW 8491   4.939   0.601   5.208
 2531SOL    HW1 8492   4.873   0.602   5.133
 2531SOL    HW2 8493   5.029   0.576   5.173
 2532SOL     OW 8494   1.376   5.616   0.124
 2532SOL    HW1 8495   1.285   5.574   0.120
 2532SOL    HW2 8496   1.407   5.638   0.032
 2533SOL     OW 8497   5.330   6.945   5.252
 2533SOL    HW1 8498   5.258   6.932   5.184
 2533SOL    HW2 8499   5.310   0.004   5.307
 2534SOL     OW 8500   1.998   0.717   3.569
 2534SOL    HW1 8501   1.917   0.661   3.587
 2534SOL    HW2 8502   1.972   0.813   3.565
 2535SOL     OW 8503   1.445   1.487   3.944
 2535SOL    HW1 8504   1.386   1.564   3.920
 2535SOL    HW2 8505   1.494   1.506   4.029
 2536SOL     OW 8506   6.309   1.289   4.452
 2536SOL    HW1 8507   6.226   1.314   4.403
 2536SOL    HW2 8508   6.388   1.303   4.392
 2537SOL     OW 8509   4.554   6.240   1.128
 2537SOL    HW1 8510   4.518   6.155   1.090
 2537SOL    HW2 8511   4.644   6.259   1.088
 2538SOL     OW 8512   1.831   4.768   4.722
 2538SOL    HW1 8513   1.779   4.693   4.679
 2538SOL    HW2 8514   1.781   4.800   4.803
 2539SOL     OW 8515   4.075   0.032   5.571
 2539SOL    HW1 8516   3.975   0.028   5.574
 2539SOL    HW2 8517   4.107   0.114   5.618
 2540SOL     OW 8518   5.473   1.071   2.528
 2540SOL    HW1 8519   5.417   0.987   2.534
 2540SOL    HW2 8520   5.541   1.061   2.455
 2541SOL     OW 8521   1.180   6.847   5.076
 2541SOL    HW1 8522   1.086   6.876   5.057
 2541SOL    HW2 8523   1.243   6.921   5.055
 2542SOL     OW 8524   3.681   1.868   4.115
 2542SOL    HW1 8525   3.725   1.818   4.041
 2542SOL    HW2 8526   3.708   1.964   4.111
 2543SOL     OW 8527   1.088   0.770   2.769
 2543SOL    HW1 8528   0.992   0.794   2.759
 2543SOL    HW2 8529   1.105   0.681   2.728
 2544SOL     OW 8530   0.092   5.560   1.360
 2544SOL    HW1 8531   0.012   5.543   1.419
 2544SOL    HW2 8532   0.173   5.571   1.417
 2545SOL     OW 8533   1.738   1.932   1.554
 2545SOL    HW1 8534   1.638   1.921   1.545
 2545SOL    HW2 8535   1.770   1.998   1.487
 2546SOL     OW 8536   6.060   3.773   1.719
 2546SOL    HW1 8537   6.073   3.844   1.788
 2546SOL    HW2 8538   6.094   3.805   1.631
 2547SOL     OW 8539   5.804   4.449   0.489
 2547SOL    HW1 8540   5.808   4.548   0.492
 2547SOL    HW2 8541   5.742   4.419   0.416
 2548SOL     OW 8542   0.924   0.315   5.086
 2548SOL    HW1 8543   0.937   0.285   5.180
 2548SOL    HW2 8544   0.921   0.235   5.026
 2549SOL     OW 8545   1.942   2.776   2.319
 2549SOL    HW1 8546   1.890   2.760   2.403
 2549SOL    HW2 8547   1.879   2.790   2.243
 2550SOL     OW 8548   5.525   6.915   6.957
 2550SOL    HW1 8549   5.511   6.998   7.011
 2550SOL    HW2 8550   5.596   6.931   6.889
 2551SOL     OW 8551   3.333   4.846   6.972
 2551SOL    HW1 8552   3.397   4.919   6.995
 2551SOL    HW2 8553   3.272   4.876   6.898
 2552SOL     OW 8554   1.978   4.853   6.906
 2552SOL    HW1 8555   2.071   4.832   6.934
 2552SOL    HW2 8556   1.959   4.950   6.922
 2553SOL     OW 8557   3.814   1.962   6.001
 2553SOL    HW1 8558   3.854   1.939   5.913
 2553SOL    HW2 8559   3.752   2.040   5.989
 2554SOL     OW 8560   1.821   5.759   0.768
 2554SOL    HW1 8561   1.814   5.678   0.827
 2554SOL    HW2 8562   1.836   5.730   0.674
 2555SOL     OW 8563   6.171   5.939   6.396
 2555SOL    HW1 8564   6.205   5.882   6.321
 2555SOL    HW2 8565   6.204   6.032   6.383
 2556SOL     OW 8566   3.207   6.678   1.227
 2556SOL    HW1 8567   3.147   6.753   1.201
 2556SOL    HW2 8568   3.154   6.606   1.272
 2557SOL     OW 8569   3.519   0.686   0.056
 2557SOL    HW1 8570   3.487   0.595   0.082
 2557SOL    HW2 8571   3.598   0.710   0.113
 2558SOL     OW 8572   5.402   4.468   6.223
 2558SOL    HW1 8573   5.327   4.421   6.269
 2558SOL    HW2 8574   5.489   4.431   6.256
 2559SOL     OW 8575   0.226   3.299   3.366
 2559SOL    HW1 8576   0.247   3.307   3.268
 2559SOL    HW2 8577   0.150   3.236   3.379
 2560SOL     OW 8578   5.163   3.597   3.595
 2560SOL    HW1 8579   5.254   3.564   3.620
 2560SOL    HW2 8580   5.131   3.661   3.665
 2561SOL     OW 8581   3.153   1.054   4.276
 2561SOL    HW1 8582   3.244   1.092   4.291
 2561SOL    HW2 8583   3.091   1.084   4.349
 2562SOL     OW 8584   3.473   6.281   2.999
 2562SOL    HW1 8585   3.473   6.186   3.032
 2562SOL    HW2 8586   3.379   6.315   2.994
 2563SOL     OW 8587   2.476   1.470   6.838
 2563SOL    HW1 8588   2.463   1.552   6.893
 2563SOL    HW2 8589   2.504   1.394   6.898
 2564SOL     OW 8590   2.195   0.607   6.843
 2564SOL    HW1 8591   2.180   0.511   6.818
 2564SOL    HW2 8592   2.219   0.613   6.940
 2565SOL     OW 8593   0.558   1.168   6.681
 2565SOL    HW1 8594   0.466   1.204   6.701
 2565SOL    HW2 8595   0.554   1.068   6.680
 2566SOL     OW 8596   3.074   0.418   2.024
 2566SOL    HW1 8597   3.142   0.349   2.001
 2566SOL    HW2 8598   2.986   0.394   1.981
 2567SOL     OW 8599   1.389   0.624   0.561
 2567SOL    HW1 8600   1.450   0.671   0.626
 2567SOL    HW2 8601   1.330   0.691   0.516
 2568SOL     OW 8602   2.891   6.528   1.180
 2568SOL    HW1 8603   2.815   6.465   1.196
 2568SOL    HW2 8604   2.971   6.496   1.231
 2569SOL     OW 8605   2.109   1.179   1.139
 2569SOL    HW1 8606   2.059   1.137   1.063
 2569SOL    HW2 8607   2.045   1.229   1.197
 2570SOL     OW 8608   4.952   5.915   6.656
 2570SOL    HW1 8609   5.049   5.888   6.649
 2570SOL    HW2 8610   4.937   5.963   6.743
 2571SOL     OW 8611   3.585   2.866   4.248
 2571SOL    HW1 8612   3.608   2.792   4.185
 2571SOL    HW2 8613   3.670   2.906   4.284
 2572SOL     OW 8614   2.616   5.370   1.452
 2572SOL    HW1 8615   2.585   5.298   1.514
 2572SOL    HW2 8616   2.665   5.440   1.503
 2573SOL     OW 8617   6.617   2.012   4.333
 2573SOL    HW1 8618   6.656   1.921   4.328
 2573SOL    HW2 8619   6.522   2.010   4.301
 2574SOL     OW 8620   6.744   3.092   1.149
 2574SOL    HW1 8621   6.748   3.188   1.122
 2574SOL    HW2 8622   6.673   3.078   1.217
 2575SOL     OW 8623   5.169   3.966   0.634
 2575SOL    HW1 8624   5.086   3.950   0.687
 2575SOL    HW2 8625   5.214   3.878   0.615
 2576SOL     OW 8626   2.710   6.945   4.009
 2576SOL    HW1 8627   2.689   6.890   3.928
 2576SOL    HW2 8628   2.809   6.954   4.018
 2577SOL     OW 8629   3.728   0.624   3.615
 2577SOL    HW1 8630   3.769   0.701   3.565
 2577SOL    HW2 8631   3.759   0.625   3.710
 2578SOL     OW 8632   4.600   2.670   4.357
 2578SOL    HW1 8633   4.559   2.613   4.285
 2578SOL    HW2 8634   4.550   2.658   4.442
 2579SOL     OW 8635   0.526   1.689   5.999
 2579SOL    HW1 8636   0.530   1.788   6.010
 2579SOL    HW2 8637   0.617   1.650   6.011
 2580SOL     OW 8638   1.421   2.388   5.860
 2580SOL    HW1 8639   1.416   2.316   5.929
 2580SOL    HW2 8640   1.507   2.439   5.871
 2581SOL     OW 8641   5.623   5.640   1.774
 2581SOL    HW1 8642   5.630   5.544   1.802
 2581SOL    HW2 8643   5.647   5.648   1.677
 2582SOL     OW 8644   1.436   5.439   2.848
 2582SOL    HW1 8645   1.357   5.489   2.811
 2582SOL    HW2 8646   1.420   5.341   2.839
 2583SOL     OW 8647   0.797   0.624   0.885
 2583SOL    HW1 8648   0.713   0.581   0.853
 2583SOL    HW2 8649   0.815   0.706   0.831
 2584SOL     OW 8650   3.136   6.444   0.831
 2584SOL    HW1 8651   3.059   6.506   0.820
 2584SOL    HW2 8652   3.222   6.495   0.822
 2585SOL     OW 8653   2.768   6.875   0.863
 2585SOL    HW1 8654   2.672   6.893   0.842
 2585SOL    HW2 8655   2.781   6.778   0.880
 2586SOL     OW 8656   6.086   0.940   4.625
 2586SOL    HW1 8657   5.998   0.921   4.669
 2586SOL    HW2 8658   6.118   1.031   4.651
 2587SOL     OW 8659   6.460   0.392   4.837
 2587SOL    HW1 8660   6.492   0.309   4.792
 2587SOL    HW2 8661   6.373   0.420   4.796
 2588SOL     OW 8662   5.245   0.166   0.993
 2588SOL    HW1 8663   5.227   0.106   1.070
 2588SOL    HW2 8664   5.311   0.237   1.020
 2589SOL     OW 8665   6.477   0.305   5.786
 2589SOL    HW1 8666   6.493   0.315   5.688
 2589SOL    HW2 8667   6.386   0.340   5.808
 2590SOL     OW 8668   3.734   0.133   2.828
 2590SOL    HW1 8669   3.809   0.197   2.811
 2590SOL    HW2 8670   3.719   0.124   2.926
 2591SOL     OW 8671   4.844   6.520   1.292
 2591SOL    HW1 8672   4.900   6.544   1.213
 2591SOL    HW2 8673   4.893   6.452   1.347
 2592SOL     OW 8674   2.959   5.594   1.483
 2592SOL    HW1 8675   2.862   5.603   1.459
 2592SOL    HW2 8676   2.975   5.639   1.571
 2593SOL     OW 8677   3.535   0.004   2.700
 2593SOL    HW1 8678   3.613   0.049   2.742
 2593SOL    HW2 8679   3.490   0.066   2.636
 2594SOL     OW 8680   0.275   0.441   6.694
 2594SOL    HW1 8681   0.215   0.520   6.705
 2594SOL    HW2 8682   0.313   0.441   6.601
 2595SOL     OW 8683   6.743   3.294   5.457
 2595SOL    HW1 8684   6.775   3.276   5.364
 2595SOL    HW2 8685   6.699   3.211   5.493
 2596SOL     OW 8686   3.839   2.142   1.721
 2596SOL    HW1 8687   3.800   2.131   1.629
 2596SOL    HW2 8688   3.775   2.193   1.778
 2597SOL     OW 8689   2.626   2.823   0.651
 2597SOL    HW1 8690   2.688   2.865   0.717
 2597SOL    HW2 8691   2.616   2.882   0.572
 2598SOL     OW 8692   6.664   2.804   4.574
 2598SOL    HW1 8693   6.567   2.785   4.593
 2598SOL    HW2 8694   6.696   2.875   4.636
 2599SOL     OW 8695   3.367   5.811   5.685
 2599SOL    HW1 8696   3.379   5.786   5.590
 2599SOL    HW2 8697   3.270   5.815   5.707
 2600SOL     OW 8698   4.824   3.949   3.752
 2600SOL    HW1 8699   4.866   3.974   3.839
 2600SOL    HW2 8700   4.740   3.897   3.770
 2601SOL     OW 8701   3.208   2.262   6.112
 2601SOL    HW1 8702   3.261   2.225   6.189
 2601SOL    HW2 8703   3.163   2.347   6.141
 2602SOL     OW 8704   6.731   4.595   4.710
 2602SOL    HW1 8705   6.705   4.540   4.631
 2602SOL    HW2 8706   6.744   4.535   4.789
 2603SOL     OW 8707   2.422   2.639   1.846
 2603SOL    HW1 8708   2.473   2.565   1.890
 2603SOL    HW2 8709   2.485   2.697   1.795
 2604SOL     OW 8710   5.370   0.028   0.801
 2604SOL    HW1 8711   5.310   0.079   0.863
 2604SOL    HW2 8712   5.361   6.952   0.820
 2605SOL     OW 8713   4.537   4.831   3.427
 2605SOL    HW1 8714   4.479   4.774   3.485
 2605SOL    HW2 8715   4.613   4.867   3.481
 2606SOL     OW 8716   6.713   3.771   0.574
 2606SOL    HW1 8717   6.772   3.693   0.597
 2606SOL    HW2 8718   6.626   3.737   0.537
 2607SOL     OW 8719   1.530   1.736   4.588
 2607SOL    HW1 8720   1.597   1.664   4.568
 2607SOL    HW2 8721   1.557   1.785   4.671
 2608SOL     OW 8722   4.980   0.412   2.205
 2608SOL    HW1 8723   5.053   0.368   2.257
 2608SOL    HW2 8724   4.899   0.352   2.203
 2609SOL     OW 8725   0.618   2.565   1.953
 2609SOL    HW1 8726   0.574   2.501   1.890
 2609SOL    HW2 8727   0.549   2.611   2.008
 2610SOL     OW 8728   6.906   5.932   4.426
 2610SOL    HW1 8729   6.913   5.897   4.519
 2610SOL    HW2 8730   6.818   5.979   4.415
 2611SOL     OW 8731   5.784   6.325   0.960
 2611SOL    HW1 8732   5.831   6.358   0.877
 2611SOL    HW2 8733   5.706   6.384   0.980
 2612SOL     OW 8734   6.155   6.317   4.442
 2612SOL    HW1 8735   6.071   6.265   4.432
 2612SOL    HW2 8736   6.204   6.287   4.524
 2613SOL     OW 8737   3.650   6.475   2.035
 2613SOL    HW1 8738   3.630   6.382   2.065
 2613SOL    HW2 8739   3.743   6.499   2.061
 2614SOL     OW 8740   6.208   7.008   5.623
 2614SOL    HW1 8741   6.237   6.916   5.649
 2614SOL    HW2 8742   6.109   7.009   5.609
 2615SOL     OW 8743   5.528   5.630   3.857
 2615SOL    HW1 8744   5.491   5.542   3.888
 2615SOL    HW2 8745   5.487   5.655   3.769
 2616SOL     OW 8746   4.078   3.414   4.088
 2616SOL    HW1 8747   4.117   3.412   3.996
 2616SOL    HW2 8748   4.105   3.499   4.134
 2617SOL     OW 8749   3.235   5.153   1.148
 2617SOL    HW1 8750   3.136   5.144   1.152
 2617SOL    HW2 8751   3.266   5.210   1.225
 2618SOL     OW 8752   0.143   6.614   2.850
 2618SOL    HW1 8753   0.080   6.631   2.775
 2618SOL    HW2 8754   0.208   6.543   2.823
 2619SOL     OW 8755   4.483   1.648   2.121
 2619SOL    HW1 8756   4.499   1.609   2.211
 2619SOL    HW2 8757   4.429   1.584   2.066
 2620SOL     OW 8758   1.614   5.484   3.631
 2620SOL    HW1 8759   1.598   5.549   3.556
 2620SOL    HW2 8760   1.581   5.394   3.605
 2621SOL     OW 8761   0.754   5.590   3.232
 2621SOL    HW1 8762   0.717   5.658   3.296
 2621SOL    HW2 8763   0.813   5.636   3.166
 2622SOL     OW 8764   1.738   2.899   5.930
 2622SOL    HW1 8765   1.668   2.854   5.874
 2622SOL    HW2 8766   1.802   2.947   5.871
 2623SOL     OW 8767   3.954   1.121   4.426
 2623SOL    HW1 8768   4.029   1.187   4.415
 2623SOL    HW2 8769   3.867   1.169   4.435
 2624SOL     OW 8770   6.248   3.001   3.076
 2624SOL    HW1 8771   6.238   3.093   3.112
 2624SOL    HW2 8772   6.203   2.995   2.986
 2625SOL     OW 8773   1.509   3.153   5.488
 2625SOL    HW1 8774   1.473   3.086   5.553
 2625SOL    HW2 8775   1.482   3.128   5.395
 2626SOL     OW 8776   0.633   6.570   3.748
 2626SOL    HW1 8777   0.579   6.619   3.817
 2626SOL    HW2 8778   0.729   6.568   3.776
 2627SOL     OW 8779   0.240   0.891   5.003
 2627SOL    HW1 8780   0.165   0.838   5.041
 2627SOL    HW2 8781   0.327   0.857   5.040
 2628SOL     OW 8782   3.660   6.172   6.526
 2628SOL    HW1 8783   3.740   6.113   6.518
 2628SOL    HW2 8784   3.596   6.152   6.452
 2629SOL     OW 8785   3.772   3.676   1.783
 2629SOL    HW1 8786   3.812   3.591   1.819
 2629SOL    HW2 8787   3.823   3.754   1.820
 2630SOL     OW 8788   3.670   2.053   2.265
 2630SOL    HW1 8789   3.743   1.985   2.260
 2630SOL    HW2 8790   3.662   2.100   2.177
 2631SOL     OW 8791   4.648   6.673   4.103
 2631SOL    HW1 8792   4.738   6.696   4.064
 2631SOL    HW2 8793   4.577   6.722   4.053
 2632SOL     OW 8794   3.411   2.351   6.970
 2632SOL    HW1 8795   3.327   2.352   0.002
 2632SOL    HW2 8796   3.458   2.263   6.982
 2633SOL     OW 8797   6.012   2.455   6.834
 2633SOL    HW1 8798   5.973   2.442   6.743
 2633SOL    HW2 8799   5.943   2.494   6.895
 2634SOL     OW 8800   1.755   4.236   2.444
 2634SOL    HW1 8801   1.725   4.199   2.356
 2634SOL    HW2 8802   1.732   4.170   2.516
 2635SOL     OW 8803   5.592   6.348   4.418
 2635SOL    HW1 8804   5.493   6.353   4.427
 2635SOL    HW2 8805   5.617   6.268   4.363
 2636SOL     OW 8806   6.026   0.424   0.030
 2636SOL    HW1 8807   6.033   0.375   0.117
 2636SOL    HW2 8808   6.017   0.358   6.977
 2637SOL     OW 8809   6.570   0.709   3.120
 2637SOL    HW1 8810   6.589   0.726   3.217
 2637SOL    HW2 8811   6.477   0.739   3.099
 2638SOL     OW 8812   5.554   0.069   1.846
 2638SOL    HW1 8813   5.628   0.006   1.824
 2638SOL    HW2 8814   5.568   0.155   1.796
 2639SOL     OW 8815   5.973   6.673   2.449
 2639SOL    HW1 8816   6.006   6.720   2.368
 2639SOL    HW2 8817   5.944   6.580   2.425
 2640SOL     OW 8818   6.996   6.299   5.260
 2640SOL    HW1 8819   6.997   6.328   5.355
 2640SOL    HW2 8820   0.017   6.209   5.252
 2641SOL     OW 8821   5.868   3.319   0.406
 2641SOL    HW1 8822   5.849   3.304   0.503
 2641SOL    HW2 8823   5.942   3.386   0.396
 2642SOL     OW 8824   5.641   0.716   4.621
 2642SOL    HW1 8825   5.629   0.790   4.554
 2642SOL    HW2 8826   5.558   0.706   4.674
 2643SOL     OW 8827   6.959   5.380   3.139
 2643SOL    HW1 8828   6.952   5.282   3.155
 2643SOL    HW2 8829   0.014   5.398   3.077
 2644SOL     OW 8830   0.998   4.540   5.469
 2644SOL    HW1 8831   0.908   4.508   5.495
 2644SOL    HW2 8832   1.065   4.467   5.483
 2645SOL     OW 8833   4.402   0.103   4.981
 2645SOL    HW1 8834   4.315   0.104   4.933
 2645SOL    HW2 8835   4.387   0.079   5.077
 2646SOL     OW 8836   5.901   6.895   6.336
 2646SOL    HW1 8837   5.951   6.869   6.419
 2646SOL    HW2 8838   5.940   6.979   6.299
 2647SOL     OW 8839   4.920   0.443   0.702
 2647SOL    HW1 8840   4.857   0.389   0.757
 2647SOL    HW2 8841   5.012   0.437   0.740
 2648SOL     OW 8842   6.267   6.908   2.902
 2648SOL    HW1 8843   6.267   6.993   2.955
 2648SOL    HW2 8844   6.183   6.902   2.849
 2649SOL     OW 8845   4.114   1.323   6.084
 2649SOL    HW1 8846   4.094   1.227   6.063
 2649SOL    HW2 8847   4.044   1.359   6.145
 2650SOL     OW 8848   0.484   5.099   3.857
 2650SOL    HW1 8849   0.434   5.017   3.833
 2650SOL    HW2 8850   0.554   5.117   3.787
 2651SOL     OW 8851   0.862   1.537   1.124
 2651SOL    HW1 8852   0.837   1.608   1.057
 2651SOL    HW2 8853   0.962   1.534   1.132
 2652SOL     OW 8854   3.282   2.915   3.744
 2652SOL    HW1 8855   3.323   2.878   3.661
 2652SOL    HW2 8856   3.192   2.952   3.723
 2653SOL     OW 8857   5.008   6.791   5.597
 2653SOL    HW1 8858   4.969   6.852   5.528
 2653SOL    HW2 8859   4.948   6.711   5.608
 2654SOL     OW 8860   5.194   3.192   6.652
 2654SOL    HW1 8861   5.141   3.276   6.657
 2654SOL    HW2 8862   5.194   3.147   6.741
 2655SOL     OW 8863   3.873   5.141   4.553
 2655SOL    HW1 8864   3.812   5.070   4.518
 2655SOL    HW2 8865   3.962   5.101   4.575
 2656SOL     OW 8866   5.408   4.888   3.940
 2656SOL    HW1 8867   5.473   4.873   4.014
 2656SOL    HW2 8868   5.453   4.936   3.865
 2657SOL     OW 8869   2.477   3.979   6.353
 2657SOL    HW1 8870   2.549   3.923   6.395
 2657SOL    HW2 8871   2.512   4.071   6.336
 2658SOL     OW 8872   6.453   4.776   6.690
 2658SOL    HW1 8873   6.393   4.700   6.715
 2658SOL    HW2 8874   6.399   4.849   6.648
 2659SOL     OW 8875   6.918   2.071   4.028
 2659SOL    HW1 8876   6.919   2.122   4.114
 2659SOL    HW2 8877   6.986   1.998   4.033
 2660SOL     OW 8878   0.190   2.096   1.134
 2660SOL    HW1 8879   0.102   2.081   1.179
 2660SOL    HW2 8880   0.263   2.096   1.202
 2661SOL     OW 8881   2.772   6.838   1.655
 2661SOL    HW1 8882   2.801   6.743   1.641
 2661SOL    HW2 8883   2.819   6.875   1.735
 2662SOL     OW 8884   4.324   6.775   4.674
 2662SOL    HW1 8885   4.408   6.766   4.621
 2662SOL    HW2 8886   4.252   6.719   4.632
 2663SOL     OW 8887   2.152   4.321   1.556
 2663SOL    HW1 8888   2.069   4.267   1.557
 2663SOL    HW2 8889   2.147   4.393   1.625
 2664SOL     OW 8890   3.561   3.854   3.515
 2664SOL    HW1 8891   3.523   3.946   3.509
 2664SOL    HW2 8892   3.661   3.859   3.507
 2665SOL     OW 8893   3.610   1.980   4.973
 2665SOL    HW1 8894   3.565   2.021   4.893
 2665SOL    HW2 8895   3.541   1.958   5.042
 2666SOL     OW 8896   4.579   4.139   1.408
 2666SOL    HW1 8897   4.578   4.188   1.494
 2666SOL    HW2 8898   4.513   4.063   1.412
 2667SOL     OW 8899   1.351   6.173   4.629
 2667SOL    HW1 8900   1.352   6.187   4.728
 2667SOL    HW2 8901   1.291   6.096   4.607
 2668SOL     OW 8902   6.395   3.513   4.052
 2668SOL    HW1 8903   6.439   3.532   3.964
 2668SOL    HW2 8904   6.322   3.578   4.067
 2669SOL     OW 8905   3.420   5.162   5.791
 2669SOL    HW1 8906   3.388   5.121   5.876
 2669SOL    HW2 8907   3.391   5.106   5.713
 2670SOL     OW 8908   6.814   1.167   6.461
 2670SOL    HW1 8909   6.762   1.082   6.472
 2670SOL    HW2 8910   6.750   1.243   6.450
 2671SOL     OW 8911   2.614   3.894   0.094
 2671SOL    HW1 8912   2.649   3.920   0.004
 2671SOL    HW2 8913   2.547   3.962   0.124
 2672SOL     OW 8914   1.578   5.908   6.989
 2672SOL    HW1 8915   1.496   5.950   6.948
 2672SOL    HW2 8916   1.659   5.961   6.962
 2673SOL     OW 8917   5.365   2.576   3.998
 2673SOL    HW1 8918   5.294   2.580   3.928
 2673SOL    HW2 8919   5.345   2.643   4.070
 2674SOL     OW 8920   1.911   4.456   4.101
 2674SOL    HW1 8921   1.996   4.436   4.151
 2674SOL    HW2 8922   1.911   4.552   4.073
 2675SOL     OW 8923   1.424   4.521   5.448
 2675SOL    HW1 8924   1.343   4.486   5.494
 2675SOL    HW2 8925   1.491   4.448   5.438
 2676SOL     OW 8926   4.711   1.376   2.830
 2676SOL    HW1 8927   4.700   1.471   2.801
 2676SOL    HW2 8928   4.728   1.318   2.750
 2677SOL     OW 8929   2.818   4.853   1.231
 2677SOL    HW1 8930   2.745   4.825   1.294
 2677SOL    HW2 8931   2.901   4.871   1.284
 2678SOL     OW 8932   0.915   4.999   0.124
 2678SOL    HW1 8933   0.862   4.995   0.209
 2678SOL    HW2 8934   0.907   4.912   0.076
 2679SOL     OW 8935   3.724   5.215   1.106
 2679SOL    HW1 8936   3.644   5.205   1.046
 2679SOL    HW2 8937   3.768   5.126   1.119
 2680SOL     OW 8938   1.896   1.746   0.399
 2680SOL    HW1 8939   1.828   1.675   0.381
 2680SOL    HW2 8940   1.860   1.809   0.469
 2681SOL     OW 8941   1.885   3.702   4.081
 2681SOL    HW1 8942   1.789   3.672   4.079
 2681SOL    HW2 8943   1.923   3.698   3.989
 2682SOL     OW 8944   5.656   3.212   2.367
 2682SOL    HW1 8945   5.635   3.307   2.347
 2682SOL    HW2 8946   5.746   3.189   2.329
 2683SOL     OW 8947   1.348   4.507   1.250
 2683SOL    HW1 8948   1.357   4.411   1.222
 2683SOL    HW2 8949   1.256   4.539   1.229
 2684SOL     OW 8950   4.050   5.609   2.466
 2684SOL    HW1 8951   4.018   5.628   2.559
 2684SOL    HW2 8952   4.091   5.692   2.428
 2685SOL     OW 8953   6.286   6.867   4.723
 2685SOL    HW1 8954   6.329   6.837   4.808
 2685SOL    HW2 8955   6.247   6.958   4.735
 2686SOL     OW 8956   1.219   2.474   4.219
 2686SOL    HW1 8957   1.238   2.376   4.215
 2686SOL    HW2 8958   1.306   2.524   4.223
 2687SOL     OW 8959   3.984   4.801   2.528
 2687SOL    HW1 8960   4.028   4.714   2.552
 2687SOL    HW2 8961   4.055   4.871   2.513
 2688SOL     OW 8962   4.204   5.640   5.599
 2688SOL    HW1 8963   4.215   5.703   5.522
 2688SOL    HW2 8964   4.115   5.655   5.642
 2689SOL     OW 8965   1.723   1.741   3.859
 2689SOL    HW1 8966   1.648   1.789   3.813
 2689SOL    HW2 8967   1.809   1.764   3.815
 2690SOL     OW 8968   3.895   3.083   3.665
 2690SOL    HW1 8969   3.919   3.075   3.761
 2690SOL    HW2 8970   3.959   3.147   3.620
 2691SOL     OW 8971   2.142   5.601   1.950
 2691SOL    HW1 8972   2.108   5.513   1.982
 2691SOL    HW2 8973   2.087   5.674   1.991
 2692SOL     OW 8974   6.357   6.126   4.226
 2692SOL    HW1 8975   6.320   6.127   4.134
 2692SOL    HW2 8976   6.327   6.208   4.275
 2693SOL     OW 8977   2.344   4.664   2.889
 2693SOL    HW1 8978   2.272   4.641   2.955
 2693SOL    HW2 8979   2.314   4.742   2.833
 2694SOL     OW 8980   3.181   0.653   3.080
 2694SOL    HW1 8981   3.210   0.646   3.176
 2694SOL    HW2 8982   3.176   0.749   3.054
 2695SOL     OW 8983   4.812   1.923   2.607
 2695SOL    HW1 8984   4.850   1.986   2.674
 2695SOL    HW2 8985   4.842   1.830   2.627
 2696SOL     OW 8986   3.849   2.363   5.404
 2696SOL    HW1 8987   3.762   2.313   5.404
 2696SOL    HW2 8988   3.833   2.458   5.431
 2697SOL     OW 8989   4.147   2.259   3.950
 2697SOL    HW1 8990   4.226   2.320   3.955
 2697SOL    HW2 8991   4.134   2.229   3.856
 2698SOL     OW 8992   1.705   4.680   0.586
 2698SOL    HW1 8993   1.738   4.770   0.558
 2698SOL    HW2 8994   1.752   4.652   0.670
 2699SOL     OW 8995   3.686   5.328   6.993
 2699SOL    HW1 8996   3.726   5.345   6.903
 2699SOL    HW2 8997   3.752   5.280   0.029
 2700SOL     OW 8998   2.112   3.581   2.587
 2700SOL    HW1 8999   2.103   3.514   2.514
 2700SOL    HW2 9000   2.022   3.616   2.612
 2701SOL     OW 9001   3.818   0.005   6.468
 2701SOL    HW1 9002   3.775   6.974   6.541
 2701SOL    HW2 9003   3.749   0.055   6.417
 2702SOL     OW 9004   6.706   1.964   2.981
 2702SOL    HW1 9005   6.786   1.998   2.931
 2702SOL    HW2 9006   6.628   2.024   2.963
 2703SOL     OW 9007   2.716   0.865   3.129
 2703SOL    HW1 9008   2.722   0.839   3.033
 2703SOL    HW2 9009   2.643   0.932   3.141
 2704SOL     OW 9010   1.850   5.629   1.811
 2704SOL    HW1 9011   1.939   5.610   1.853
 2704SOL    HW2 9012   1.823   5.723   1.833
 2705SOL     OW 9013   0.187   5.009   4.432
 2705SOL    HW1 9014   0.112   5.049   4.484
 2705SOL    HW2 9015   0.175   5.031   4.335
 2706SOL     OW 9016   0.095   1.187   2.027
 2706SOL    HW1 9017   0.129   1.281   2.014
 2706SOL    HW2 9018   0.001   1.181   1.996
 2707SOL     OW 9019   1.987   0.400   6.006
 2707SOL    HW1 9020   2.007   0.438   6.096
 2707SOL    HW2 9021   2.039   0.315   5.993
 2708SOL     OW 9022   2.581   2.469   1.626
 2708SOL    HW1 9023   2.574   2.369   1.619
 2708SOL    HW2 9024   2.605   2.493   1.721
 2709SOL     OW 9025   4.934   6.569   1.035
 2709SOL    HW1 9026   4.897   6.655   1.000
 2709SOL    HW2 9027   4.952   6.507   0.958
 2710SOL     OW 9028   6.885   3.878   2.670
 2710SOL    HW1 9029   6.887   3.937   2.751
 2710SOL    HW2 9030   6.899   3.933   2.588
 2711SOL     OW 9031   2.274   0.676   2.744
 2711SOL    HW1 9032   2.353   0.728   2.777
 2711SOL    HW2 9033   2.192   0.705   2.793
 2712SOL     OW 9034   3.094   4.961   6.822
 2712SOL    HW1 9035   3.069   4.986   6.729
 2712SOL    HW2 9036   3.019   4.910   6.865
 2713SOL     OW 9037   2.019   2.766   4.834
 2713SOL    HW1 9038   2.118   2.764   4.848
 2713SOL    HW2 9039   1.981   2.674   4.847
 2714SOL     OW 9040   5.393   1.916   6.956
 2714SOL    HW1 9041   5.330   1.852   6.912
 2714SOL    HW2 9042   5.348   1.961   0.010
 2715SOL     OW 9043   6.216   0.536   0.434
 2715SOL    HW1 9044   6.305   0.572   0.463
 2715SOL    HW2 9045   6.156   0.612   0.409
 2716SOL     OW 9046   6.878   5.538   1.538
 2716SOL    HW1 9047   6.779   5.550   1.536
 2716SOL    HW2 9048   6.908   5.520   1.632
 2717SOL     OW 9049   0.904   5.614   2.031
 2717SOL    HW1 9050   0.841   5.691   2.022
 2717SOL    HW2 9051   0.928   5.579   1.941
 2718SOL     OW 9052   2.195   4.260   4.076
 2718SOL    HW1 9053   2.165   4.316   3.999
 2718SOL    HW2 9054   2.250   4.315   4.138
 2719SOL     OW 9055   4.659   5.018   2.093
 2719SOL    HW1 9056   4.663   5.063   2.182
 2719SOL    HW2 9057   4.701   4.928   2.099
 2720SOL     OW 9058   1.822   6.145   3.466
 2720SOL    HW1 9059   1.744   6.177   3.413
 2720SOL    HW2 9060   1.879   6.085   3.410
 2721SOL     OW 9061   2.432   0.382   5.049
 2721SOL    HW1 9062   2.481   0.313   4.996
 2721SOL    HW2 9063   2.432   0.356   5.146
 2722SOL     OW 9064   6.527   5.263   3.163
 2722SOL    HW1 9065   6.546   5.227   3.072
 2722SOL    HW2 9066   6.435   5.302   3.165
 2723SOL     OW 9067   1.733   1.122   5.674
 2723SOL    HW1 9068   1.682   1.086   5.596
 2723SOL    HW2 9069   1.684   1.100   5.759
 2724SOL     OW 9070   2.929   6.080   5.373
 2724SOL    HW1 9071   2.858   6.056   5.307
 2724SOL    HW2 9072   2.981   5.999   5.398
 2725SOL     OW 9073   5.894   4.671   3.355
 2725SOL    HW1 9074   5.895   4.572   3.348
 2725SOL    HW2 9075   5.967   4.701   3.418
 2726SOL     OW 9076   4.813   4.991   1.554
 2726SOL    HW1 9077   4.768   4.986   1.643
 2726SOL    HW2 9078   4.842   4.900   1.526
 2727SOL     OW 9079   0.788   4.773   3.089
 2727SOL    HW1 9080   0.822   4.738   3.001
 2727SOL    HW2 9081   0.778   4.872   3.084
 2728SOL     OW 9082   2.841   0.565   4.544
 2728SOL    HW1 9083   2.765   0.552   4.609
 2728SOL    HW2 9084   2.806   0.561   4.451
 2729SOL     OW 9085   6.986   6.088   2.374
 2729SOL    HW1 9086   6.908   6.067   2.316
 2729SOL    HW2 9087   0.001   6.004   2.412
 2730SOL     OW 9088   2.220   0.031   1.177
 2730SOL    HW1 9089   2.208   6.993   1.256
 2730SOL    HW2 9090   2.130   0.062   1.145
 2731SOL     OW 9091   2.783   3.687   1.473
 2731SOL    HW1 9092   2.714   3.625   1.435
 2731SOL    HW2 9093   2.778   3.684   1.573
 2732SOL     OW 9094   6.064   3.331   2.407
 2732SOL    HW1 9095   6.053   3.394   2.484
 2732SOL    HW2 9096   6.149   3.280   2.417
 2733SOL     OW 9097   0.825   6.785   5.468
 2733SOL    HW1 9098   0.770   6.702   5.481
 2733SOL    HW2 9099   0.782   6.843   5.399
 2734SOL     OW 9100   1.500   5.418   3.253
 2734SOL    HW1 9101   1.573   5.353   3.232
 2734SOL    HW2 9102   1.537   5.495   3.304
 2735SOL     OW 9103   0.300   3.451   2.521
 2735SOL    HW1 9104   0.213   3.436   2.567
 2735SOL    HW2 9105   0.359   3.507   2.580
 2736SOL     OW 9106   4.729   0.698   4.994
 2736SOL    HW1 9107   4.733   0.798   4.989
 2736SOL    HW2 9108   4.638   0.669   5.025
 2737SOL     OW 9109   3.159   3.184   6.454
 2737SOL    HW1 9110   3.064   3.158   6.471
 2737SOL    HW2 9111   3.170   3.209   6.358
 2738SOL     OW 9112   5.064   5.668   4.263
 2738SOL    HW1 9113   5.142   5.641   4.320
 2738SOL    HW2 9114   5.005   5.731   4.314
 2739SOL     OW 9115   5.827   4.072   0.707
 2739SOL    HW1 9116   5.795   3.983   0.672
 2739SOL    HW2 9117   5.856   4.062   0.802
 2740SOL     OW 9118   5.776   2.311   2.499
 2740SOL    HW1 9119   5.733   2.313   2.409
 2740SOL    HW2 9120   5.742   2.233   2.551
 2741SOL     OW 9121   0.041   1.534   5.784
 2741SOL    HW1 9122   0.029   1.505   5.689
 2741SOL    HW2 9123   0.003   1.464   5.845
 2742SOL     OW 9124   1.538   5.952   6.345
 2742SOL    HW1 9125   1.609   6.021   6.333
 2742SOL    HW2 9126   1.453   5.983   6.304
 2743SOL     OW 9127   6.165   6.217   1.531
 2743SOL    HW1 9128   6.198   6.220   1.437
 2743SOL    HW2 9129   6.070   6.249   1.534
 2744SOL     OW 9130   4.341   1.917   6.812
 2744SOL    HW1 9131   4.340   1.960   6.721
 2744SOL    HW2 9132   4.249   1.918   6.851
 2745SOL     OW 9133   2.149   6.328   0.345
 2745SOL    HW1 9134   2.132   6.299   0.251
 2745SOL    HW2 9135   2.239   6.295   0.374
 2746SOL     OW 9136   1.799   3.334   4.771
 2746SOL    HW1 9137   1.773   3.429   4.753
 2746SOL    HW2 9138   1.881   3.312   4.719
 2747SOL     OW 9139   5.584   4.562   5.269
 2747SOL    HW1 9140   5.485   4.572   5.258
 2747SOL    HW2 9141   5.626   4.652   5.281
 2748SOL     OW 9142   3.295   1.502   2.771
 2748SOL    HW1 9143   3.289   1.455   2.859
 2748SOL    HW2 9144   3.345   1.587   2.782
 2749SOL     OW 9145   5.547   4.954   4.185
 2749SOL    HW1 9146   5.573   5.051   4.184
 2749SOL    HW2 9147   5.484   4.937   4.260
 2750SOL     OW 9148   0.978   4.980   1.544
 2750SOL    HW1 9149   0.961   5.077   1.524
 2750SOL    HW2 9150   0.913   4.949   1.613
 2751SOL     OW 9151   1.791   6.920   0.652
 2751SOL    HW1 9152   1.815   6.845   0.714
 2751SOL    HW2 9153   1.866   6.933   0.586
 2752SOL     OW 9154   4.815   5.804   5.201
 2752SOL    HW1 9155   4.727   5.799   5.154
 2752SOL    HW2 9156   4.848   5.898   5.201
 2753SOL     OW 9157   3.155   5.885   6.579
 2753SOL    HW1 9158   3.168   5.810   6.515
 2753SOL    HW2 9159   3.092   5.857   6.651
 2754SOL     OW 9160   7.013   0.056   4.030
 2754SOL    HW1 9161   0.052   0.135   4.036
 2754SOL    HW2 9162   6.978   0.033   4.122
 2755SOL     OW 9163   2.793   6.638   3.720
 2755SOL    HW1 9164   2.854   6.688   3.659
 2755SOL    HW2 9165   2.712   6.693   3.740
 2756SOL     OW 9166   6.365   4.550   4.192
 2756SOL    HW1 9167   6.362   4.563   4.291
 2756SOL    HW2 9168   6.454   4.579   4.157
 2757SOL     OW 9169   3.711   1.685   6.349
 2757SOL    HW1 9170   3.739   1.771   6.391
 2757SOL    HW2 9171   3.716   1.692   6.250
 2758SOL     OW 9172   5.282   6.075   3.533
 2758SOL    HW1 9173   5.277   6.131   3.616
 2758SOL    HW2 9174   5.192   6.033   3.516
 2759SOL     OW 9175   3.293   4.633   5.623
 2759SOL    HW1 9176   3.340   4.549   5.653
 2759SOL    HW2 9177   3.359   4.707   5.616
 2760SOL     OW 9178   6.143   5.824   2.407
 2760SOL    HW1 9179   6.072   5.866   2.464
 2760SOL    HW2 9180   6.231   5.867   2.427
 2761SOL     OW 9181   1.119   4.266   3.207
 2761SOL    HW1 9182   1.161   4.348   3.167
 2761SOL    HW2 9183   1.019   4.277   3.207
 2762SOL     OW 9184   1.188   2.260   6.546
 2762SOL    HW1 9185   1.161   2.344   6.593
 2762SOL    HW2 9186   1.137   2.183   6.583
 2763SOL     OW 9187   5.071   1.683   5.961
 2763SOL    HW1 9188   5.139   1.749   5.995
 2763SOL    HW2 9189   5.118   1.603   5.924
 2764SOL     OW 9190   0.596   4.310   2.778
 2764SOL    HW1 9191   0.517   4.370   2.780
 2764SOL    HW2 9192   0.668   4.352   2.722
 2765SOL     OW 9193   6.501   0.257   0.730
 2765SOL    HW1 9194   6.570   0.189   0.756
 2765SOL    HW2 9195   6.415   0.210   0.708
 2766SOL     OW 9196   4.105   0.978   6.801
 2766SOL    HW1 9197   4.042   0.987   6.724
 2766SOL    HW2 9198   4.148   1.067   6.820
 2767SOL     OW 9199   6.047   5.510   6.403
 2767SOL    HW1 9200   6.104   5.578   6.356
 2767SOL    HW2 9201   6.105   5.438   6.440
 2768SOL     OW 9202   3.560   0.309   0.628
 2768SOL    HW1 9203   3.482   0.334   0.686
 2768SOL    HW2 9204   3.645   0.327   0.677
 2769SOL     OW 9205   2.020   4.146   5.896
 2769SOL    HW1 9206   2.085   4.163   5.971
 2769SOL    HW2 9207   2.016   4.227   5.837
 2770SOL     OW 9208   3.659   6.462   5.887
 2770SOL    HW1 9209   3.580   6.478   5.946
 2770SOL    HW2 9210   3.693   6.369   5.901
 2771SOL     OW 9211   5.183   6.506   3.962
 2771SOL    HW1 9212   5.267   6.463   3.994
 2771SOL    HW2 9213   5.117   6.436   3.934
 2772SOL     OW 9214   3.682   0.869   2.340
 2772SOL    HW1 9215   3.765   0.894   2.389
 2772SOL    HW2 9216   3.648   0.948   2.289
 2773SOL     OW 9217   6.989   3.020   4.291
 2773SOL    HW1 9218   6.929   3.072   4.351
 2773SOL    HW2 9219   0.014   3.082   4.229
 2774SOL     OW 9220   5.223   2.008   2.842
 2774SOL    HW1 9221   5.167   1.978   2.919
 2774SOL    HW2 9222   5.212   2.107   2.828
 2775SOL     OW 9223   0.216   3.624   3.862
 2775SOL    HW1 9224   0.221   3.712   3.909
 2775SOL    HW2 9225   0.147   3.627   3.790
 2776SOL     OW 9226   5.521   5.509   0.300
 2776SOL    HW1 9227   5.483   5.419   0.277
 2776SOL    HW2 9228   5.450   5.579   0.289
 2777SOL     OW 9229   2.675   2.026   5.874
 2777SOL    HW1 9230   2.632   2.076   5.950
 2777SOL    HW2 9231   2.690   1.931   5.901
 2778SOL     OW 9232   2.788   5.706   6.556
 2778SOL    HW1 9233   2.840   5.721   6.471
 2778SOL    HW2 9234   2.780   5.792   6.605
 2779SOL     OW 9235   5.748   6.462   1.694
 2779SOL    HW1 9236   5.671   6.506   1.740
 2779SOL    HW2 9237   5.760   6.370   1.730
 2780SOL     OW 9238   0.113   0.656   6.723
 2780SOL    HW1 9239   0.121   0.715   6.643
 2780SOL    HW2 9240   0.017   0.648   6.750
 2781SOL     OW 9241   6.786   0.725   2.445
 2781SOL    HW1 9242   6.885   0.713   2.456
 2781SOL    HW2 9243   6.767   0.753   2.350
 2782SOL     OW 9244   4.418   0.704   5.799
 2782SOL    HW1 9245   4.388   0.726   5.892
 2782SOL    HW2 9246   4.426   0.788   5.746
 2783SOL     OW 9247   6.312   3.681   1.334
 2783SOL    HW1 9248   6.410   3.701   1.345
 2783SOL    HW2 9249   6.296   3.583   1.349
 2784SOL     OW 9250   3.090   1.452   2.029
 2784SOL    HW1 9251   3.116   1.361   2.062
 2784SOL    HW2 9252   3.117   1.521   2.097
 2785SOL     OW 9253   4.889   2.638   1.370
 2785SOL    HW1 9254   4.927   2.546   1.359
 2785SOL    HW2 9255   4.918   2.677   1.457
 2786SOL     OW 9256   6.718   5.717   0.983
 2786SOL    HW1 9257   6.785   5.671   1.040
 2786SOL    HW2 9258   6.762   5.753   0.900
 2787SOL     OW 9259   6.259   6.008   5.916
 2787SOL    HW1 9260   6.291   5.914   5.904
 2787SOL    HW2 9261   6.160   6.012   5.899
 2788SOL     OW 9262   3.432   6.530   6.043
 2788SOL    HW1 9263   3.454   6.616   6.089
 2788SOL    HW2 9264   3.410   6.461   6.112
 2789SOL     OW 9265   1.023   2.735   3.717
 2789SOL    HW1 9266   1.018   2.834   3.719
 2789SOL    HW2 9267   0.969   2.697   3.792
 2790SOL     OW 9268   2.537   5.339   0.299
 2790SOL    HW1 9269   2.467   5.408   0.319
 2790SOL    HW2 9270   2.620   5.359   0.351
 2791SOL     OW 9271   0.351   4.156   2.503
 2791SOL    HW1 9272   0.362   4.136   2.406
 2791SOL    HW2 9273   0.293   4.086   2.546
 2792SOL     OW 9274   2.931   0.735   5.003
 2792SOL    HW1 9275   2.927   0.785   5.089
 2792SOL    HW2 9276   2.982   0.789   4.935
 2793SOL     OW 9277   4.115   3.885   1.332
 2793SOL    HW1 9278   4.110   3.803   1.274
 2793SOL    HW2 9279   4.051   3.876   1.408
 2794SOL     OW 9280   6.661   0.915   6.762
 2794SOL    HW1 9281   6.645   1.001   6.811
 2794SOL    HW2 9282   6.655   0.931   6.663
 2795SOL     OW 9283   0.441   4.986   0.985
 2795SOL    HW1 9284   0.532   4.992   1.027
 2795SOL    HW2 9285   0.399   5.077   0.984
 2796SOL     OW 9286   0.748   5.659   5.375
 2796SOL    HW1 9287   0.812   5.666   5.451
 2796SOL    HW2 9288   0.683   5.735   5.378
 2797SOL     OW 9289   5.833   5.814   5.052
 2797SOL    HW1 9290   5.915   5.810   4.994
 2797SOL    HW2 9291   5.813   5.909   5.076
 2798SOL     OW 9292   6.404   6.372   2.471
 2798SOL    HW1 9293   6.463   6.405   2.545
 2798SOL    HW2 9294   6.343   6.300   2.506
 2799SOL     OW 9295   4.772   5.488   5.568
 2799SOL    HW1 9296   4.849   5.492   5.633
 2799SOL    HW2 9297   4.722   5.402   5.581
 2800SOL     OW 9298   5.679   0.372   6.984
 2800SOL    HW1 9299   5.674   0.374   0.062
 2800SOL    HW2 9300   5.771   0.398   6.955
 2801SOL     OW 9301   0.586   5.378   6.036
 2801SOL    HW1 9302   0.685   5.378   6.026
 2801SOL    HW2 9303   0.555   5.471   6.057
 2802SOL     OW 9304   6.176   6.693   5.677
 2802SOL    HW1 9305   6.167   6.705   5.776
 2802SOL    HW2 9306   6.119   6.617   5.647
 2803SOL     OW 9307   3.463   3.166   6.204
 2803SOL    HW1 9308   3.371   3.203   6.218
 2803SOL    HW2 9309   3.455   3.071   6.172
 2804SOL     OW 9310   0.157   2.903   3.878
 2804SOL    HW1 9311   0.136   2.848   3.959
 2804SOL    HW2 9312   0.123   2.857   3.796
 2805SOL     OW 9313   4.929   3.357   2.061
 2805SOL    HW1 9314   4.925   3.285   1.992
 2805SOL    HW2 9315   4.891   3.323   2.148
 2806SOL     OW 9316   2.369   3.716   5.868
 2806SOL    HW1 9317   2.465   3.727   5.842
 2806SOL    HW2 9318   2.341   3.792   5.927
 2807SOL     OW 9319   3.155   0.441   2.882
 2807SOL    HW1 9320   3.152   0.516   2.948
 2807SOL    HW2 9321   3.200   0.472   2.798
 2808SOL     OW 9322   6.547   5.604   0.724
 2808SOL    HW1 9323   6.569   5.696   0.756
 2808SOL    HW2 9324   6.538   5.542   0.803
 2809SOL     OW 9325   5.196   4.534   1.796
 2809SOL    HW1 9326   5.260   4.582   1.735
 2809SOL    HW2 9327   5.113   4.511   1.746
 2810SOL     OW 9328   2.357   6.126   3.745
 2810SOL    HW1 9329   2.325   6.221   3.748
 2810SOL    HW2 9330   2.289   6.069   3.700
 2811SOL     OW 9331   0.636   0.599   2.306
 2811SOL    HW1 9332   0.573   0.674   2.328
 2811SOL    HW2 9333   0.706   0.592   2.376
 2812SOL     OW 9334   0.310   3.077   0.368
 2812SOL    HW1 9335   0.339   3.007   0.303
 2812SOL    HW2 9336   0.387   3.138   0.387
 2813SOL     OW 9337   0.948   1.811   1.054
 2813SOL    HW1 9338   0.887   1.872   1.105
 2813SOL    HW2 9339   1.043   1.836   1.072
 2814SOL     OW 9340   2.864   4.223   6.851
 2814SOL    HW1 9341   2.868   4.273   6.764
 2814SOL    HW2 9342   2.831   4.284   6.923
 2815SOL     OW 9343   0.235   5.911   5.062
 2815SOL    HW1 9344   0.213   5.823   5.104
 2815SOL    HW2 9345   0.199   5.985   5.119
 2816SOL     OW 9346   6.648   6.220   5.385
 2816SOL    HW1 9347   6.564   6.205   5.332
 2816SOL    HW2 9348   6.664   6.318   5.395
 2817SOL     OW 9349   3.968   0.581   2.127
 2817SOL    HW1 9350   4.051   0.631   2.153
 2817SOL    HW2 9351   3.958   0.502   2.186
 2818SOL     OW 9352   1.416   0.727   0.980
 2818SOL    HW1 9353   1.354   0.649   0.991
 2818SOL    HW2 9354   1.434   0.768   1.070
 2819SOL     OW 9355   1.103   0.168   1.008
 2819SOL    HW1 9356   1.195   0.195   1.036
 2819SOL    HW2 9357   1.038   0.194   1.079
 2820SOL     OW 9358   0.753   2.467   2.170
 2820SOL    HW1 9359   0.714   2.493   2.082
 2820SOL    HW2 9360   0.776   2.370   2.169
 2821SOL     OW 9361   3.663   4.939   6.611
 2821SOL    HW1 9362   3.703   4.931   6.702
 2821SOL    HW2 9363   3.607   4.858   6.592
 2822SOL     OW 9364   3.591   3.145   1.105
 2822SOL    HW1 9365   3.662   3.213   1.089
 2822SOL    HW2 9366   3.564   3.103   1.018
 2823SOL     OW 9367   4.907   0.898   0.451
 2823SOL    HW1 9368   4.876   0.861   0.364
 2823SOL    HW2 9369   4.862   0.850   0.526
 2824SOL     OW 9370   1.263   3.944   6.005
 2824SOL    HW1 9371   1.267   3.997   5.921
 2824SOL    HW2 9372   1.352   3.902   6.023
 2825SOL     OW 9373   4.999   0.603   6.784
 2825SOL    HW1 9374   4.950   0.526   6.743
 2825SOL    HW2 9375   5.021   0.670   6.714
 2826SOL     OW 9376   1.329   3.213   6.357
 2826SOL    HW1 9377   1.260   3.204   6.429
 2826SOL    HW2 9378   1.391   3.135   6.361
 2827SOL     OW 9379   6.883   0.576   6.796
 2827SOL    HW1 9380   6.869   0.491   6.745
 2827SOL    HW2 9381   6.796   0.609   6.830
 2828SOL     OW 9382   1.205   3.557   1.410
 2828SOL    HW1 9383   1.274   3.582   1.479
 2828SOL    HW2 9384   1.243   3.568   1.319
 2829SOL     OW 9385   3.416   4.101   3.503
 2829SOL    HW1 9386   3.440   4.134   3.594
 2829SOL    HW2 9387   3.334   4.044   3.509
 2830SOL     OW 9388   4.609   5.258   5.577
 2830SOL    HW1 9389   4.641   5.167   5.551
 2830SOL    HW2 9390   4.532   5.284   5.518
 2831SOL     OW 9391   6.757   2.604   1.896
 2831SOL    HW1 9392   6.794   2.512   1.894
 2831SOL    HW2 9393   6.723   2.628   1.805
 2832SOL     OW 9394   0.958   3.129   1.025
 2832SOL    HW1 9395   0.992   3.189   0.952
 2832SOL    HW2 9396   1.028   3.118   1.095
 2833SOL     OW 9397   2.273   0.872   2.122
 2833SOL    HW1 9398   2.261   0.774   2.131
 2833SOL    HW2 9399   2.369   0.893   2.104
 2834SOL     OW 9400   4.341   6.345   4.987
 2834SOL    HW1 9401   4.361   6.285   4.909
 2834SOL    HW2 9402   4.395   6.429   4.980
 2835SOL     OW 9403   1.206   6.225   0.863
 2835SOL    HW1 9404   1.283   6.194   0.918
 2835SOL    HW2 9405   1.125   6.238   0.921
 2836SOL     OW 9406   3.438   6.992   3.265
 2836SOL    HW1 9407   3.418   6.906   3.218
 2836SOL    HW2 9408   3.355   0.003   3.310
 2837SOL     OW 9409   5.789   4.246   2.353
 2837SOL    HW1 9410   5.752   4.337   2.374
 2837SOL    HW2 9411   5.865   4.227   2.415
 2838SOL     OW 9412   4.668   3.977   6.457
 2838SOL    HW1 9413   4.761   3.964   6.423
 2838SOL    HW2 9414   4.603   3.937   6.393
 2839SOL     OW 9415   5.989   2.983   4.524
 2839SOL    HW1 9416   5.935   3.008   4.604
 2839SOL    HW2 9417   6.075   2.940   4.554
 2840SOL     OW 9418   1.001   5.855   2.701
 2840SOL    HW1 9419   0.967   5.777   2.649
 2840SOL    HW2 9420   0.929   5.923   2.710
 2841SOL     OW 9421   6.367   2.392   0.985
 2841SOL    HW1 9422   6.376   2.315   1.048
 2841SOL    HW2 9423   6.365   2.478   1.037
 2842SOL     OW 9424   1.422   6.275   4.396
 2842SOL    HW1 9425   1.509   6.272   4.347
 2842SOL    HW2 9426   1.430   6.225   4.482
 2843SOL     OW 9427   2.146   3.492   3.089
 2843SOL    HW1 9428   2.167   3.535   3.001
 2843SOL    HW2 9429   2.230   3.455   3.128
 2844SOL     OW 9430   4.898   4.828   0.876
 2844SOL    HW1 9431   4.983   4.785   0.846
 2844SOL    HW2 9432   4.878   4.906   0.817
 2845SOL     OW 9433   4.802   2.897   3.643
 2845SOL    HW1 9434   4.801   2.975   3.581
 2845SOL    HW2 9435   4.809   2.930   3.737
 2846SOL     OW 9436   4.759   0.311   0.208
 2846SOL    HW1 9437   4.834   0.326   0.144
 2846SOL    HW2 9438   4.674   0.343   0.167
 2847SOL     OW 9439   4.686   4.327   2.209
 2847SOL    HW1 9440   4.774   4.361   2.176
 2847SOL    HW2 9441   4.620   4.326   2.133
 2848SOL     OW 9442   0.619   3.141   4.871
 2848SOL    HW1 9443   0.579   3.085   4.944
 2848SOL    HW2 9444   0.719   3.133   4.873
 2849SOL     OW 9445   3.534   0.789   2.587
 2849SOL    HW1 9446   3.557   0.853   2.514
 2849SOL    HW2 9447   3.560   0.697   2.561
 2850SOL     OW 9448   2.610   6.805   3.207
 2850SOL    HW1 9449   2.578   6.746   3.282
 2850SOL    HW2 9450   2.710   6.813   3.212
 2851SOL     OW 9451   4.599   3.694   0.752
 2851SOL    HW1 9452   4.555   3.721   0.667
 2851SOL    HW2 9453   4.635   3.601   0.743
 2852SOL     OW 9454   6.540   4.150   6.403
 2852SOL    HW1 9455   6.473   4.080   6.379
 2852SOL    HW2 9456   6.493   4.237   6.417
 2853SOL     OW 9457   6.936   3.578   0.025
 2853SOL    HW1 9458   6.906   3.559   0.118
 2853SOL    HW2 9459   0.011   3.557   0.016
 2854SOL     OW 9460   2.960   0.987   6.653
 2854SOL    HW1 9461   2.984   0.966   6.748
 2854SOL    HW2 9462   2.900   0.915   6.617
 2855SOL     OW 9463   1.363   2.093   4.465
 2855SOL    HW1 9464   1.453   2.136   4.466
 2855SOL    HW2 9465   1.372   1.996   4.442
 2856SOL     OW 9466   1.534   4.023   3.048
 2856SOL    HW1 9467   1.525   4.066   3.138
 2856SOL    HW2 9468   1.460   4.054   2.988
 2857SOL     OW 9469   7.006   3.279   0.388
 2857SOL    HW1 9470   0.009   3.183   0.393
 2857SOL    HW2 9471   6.917   3.288   0.343
 2858SOL     OW 9472   5.011   5.786   2.933
 2858SOL    HW1 9473   5.024   5.798   3.032
 2858SOL    HW2 9474   5.032   5.692   2.908
 2859SOL     OW 9475   5.096   6.227   1.160
 2859SOL    HW1 9476   5.049   6.241   1.073
 2859SOL    HW2 9477   5.194   6.231   1.145
 2860SOL     OW 9478   1.487   5.978   1.721
 2860SOL    HW1 9479   1.562   6.040   1.699
 2860SOL    HW2 9480   1.404   6.032   1.739
 2861SOL     OW 9481   3.583   5.308   6.479
 2861SOL    HW1 9482   3.553   5.248   6.406
 2861SOL    HW2 9483   3.588   5.257   6.565
 2862SOL     OW 9484   4.330   3.058   1.081
 2862SOL    HW1 9485   4.380   3.131   1.127
 2862SOL    HW2 9486   4.375   3.036   0.994
 2863SOL     OW 9487   5.260   0.273   5.802
 2863SOL    HW1 9488   5.266   0.277   5.902
 2863SOL    HW2 9489   5.166   0.253   5.776
 2864SOL     OW 9490   3.919   3.257   1.668
 2864SOL    HW1 9491   3.982   3.277   1.594
 2864SOL    HW2 9492   3.951   3.177   1.719
 2865SOL     OW 9493   4.855   6.083   4.391
 2865SOL    HW1 9494   4.920   6.128   4.329
 2865SOL    HW2 9495   4.768   6.132   4.388
 2866SOL     OW 9496   5.458   4.712   6.473
 2866SOL    HW1 9497   5.456   4.648   6.396
 2866SOL    HW2 9498   5.545   4.761   6.472
 2867SOL     OW 9499   6.306   6.574   2.048
 2867SOL    HW1 9500   6.348   6.491   2.013
 2867SOL    HW2 9501   6.312   6.575   2.148
 2868SOL     OW 9502   1.555   1.470   5.592
 2868SOL    HW1 9503   1.638   1.442   5.544
 2868SOL    HW2 9504   1.488   1.397   5.590
 2869SOL     OW 9505   5.263   6.375   4.313
 2869SOL    HW1 9506   5.187   6.389   4.377
 2869SOL    HW2 9507   5.320   6.457   4.310
 2870SOL     OW 9508   1.147   1.515   1.044
 2870SOL    HW1 9509   1.118   1.453   0.971
 2870SOL    HW2 9510   1.182   1.600   1.004
 2871SOL     OW 9511   6.563   1.662   1.865
 2871SOL    HW1 9512   6.491   1.727   1.889
 2871SOL    HW2 9513   6.535   1.570   1.890
 2872SOL     OW 9514   2.425   2.065   2.613
 2872SOL    HW1 9515   2.458   2.059   2.519
 2872SOL    HW2 9516   2.373   1.982   2.635
 2873SOL     OW 9517   0.817   5.869   1.653
 2873SOL    HW1 9518   0.727   5.838   1.683
 2873SOL    HW2 9519   0.812   5.964   1.623
 2874SOL     OW 9520   2.981   0.322   3.071
 2874SOL    HW1 9521   2.892   0.335   3.027
 2874SOL    HW2 9522   3.052   0.369   3.017
 2875SOL     OW 9523   2.903   6.785   2.890
 2875SOL    HW1 9524   2.923   6.857   2.957
 2875SOL    HW2 9525   2.847   6.715   2.933
 2876SOL     OW 9526   1.871   6.170   1.938
 2876SOL    HW1 9527   1.872   6.096   1.871
 2876SOL    HW2 9528   1.779   6.181   1.975
 2877SOL     OW 9529   1.893   1.657   5.779
 2877SOL    HW1 9530   1.907   1.591   5.853
 2877SOL    HW2 9531   1.913   1.749   5.813
 2878SOL     OW 9532   3.391   2.920   5.068
 2878SOL    HW1 9533   3.429   2.889   4.981
 2878SOL    HW2 9534   3.433   2.869   5.143
 2879SOL     OW 9535   4.389   4.476   5.967
 2879SOL    HW1 9536   4.363   4.542   6.037
 2879SOL    HW2 9537   4.488   4.464   5.967
 2880SOL     OW 9538   0.786   1.943   4.224
 2880SOL    HW1 9539   0.783   2.002   4.305
 2880SOL    HW2 9540   0.847   1.984   4.155
 2881SOL     OW 9541   3.730   5.856   6.781
 2881SOL    HW1 9542   3.632   5.836   6.772
 2881SOL    HW2 9543   3.744   5.914   6.861
 2882SOL     OW 9544   5.175   6.207   0.484
 2882SOL    HW1 9545   5.214   6.299   0.479
 2882SOL    HW2 9546   5.241   6.144   0.525
 2883SOL     OW 9547   6.009   6.258   3.193
 2883SOL    HW1 9548   5.944   6.199   3.241
 2883SOL    HW2 9549   5.963   6.301   3.115
 2884SOL     OW 9550   6.885   5.168   2.723
 2884SOL    HW1 9551   6.937   5.083   2.727
 2884SOL    HW2 9552   6.821   5.172   2.800
 2885SOL     OW 9553   1.405   3.690   3.009
 2885SOL    HW1 9554   1.447   3.725   3.093
 2885SOL    HW2 9555   1.476   3.655   2.948
 2886SOL     OW 9556   2.660   4.539   6.608
 2886SOL    HW1 9557   2.671   4.631   6.645
 2886SOL    HW2 9558   2.677   4.541   6.509
 2887SOL     OW 9559   0.318   6.220   4.630
 2887SOL    HW1 9560   0.348   6.186   4.541
 2887SOL    HW2 9561   0.299   6.318   4.624
 2888SOL     OW 9562   7.003   6.248   0.342
 2888SOL    HW1 9563   6.923   6.270   0.287
 2888SOL    HW2 9564   7.005   6.149   0.361
 2889SOL     OW 9565   2.935   6.729   3.277
 2889SOL    HW1 9566   2.954   6.631   3.267
 2889SOL    HW2 9567   2.990   6.780   3.211
 2890SOL     OW 9568   1.890   6.109   1.318
 2890SOL    HW1 9569   1.872   6.109   1.416
 2890SOL    HW2 9570   1.850   6.191   1.276
 2891SOL     OW 9571   0.294   3.236   2.740
 2891SOL    HW1 9572   0.263   3.305   2.805
 2891SOL    HW2 9573   0.369   3.272   2.685
 2892SOL     OW 9574   6.243   4.103   0.778
 2892SOL    HW1 9575   6.275   4.140   0.690
 2892SOL    HW2 9576   6.189   4.173   0.826
 2893SOL     OW 9577   0.513   5.858   4.689
 2893SOL    HW1 9578   0.566   5.921   4.632
 2893SOL    HW2 9579   0.417   5.859   4.659
 2894SOL     OW 9580   1.112   4.389   2.032
 2894SOL    HW1 9581   1.165   4.348   1.958
 2894SOL    HW2 9582   1.060   4.467   1.997
 2895SOL     OW 9583   3.623   0.131   6.308
 2895SOL    HW1 9584   3.568   0.214   6.308
 2895SOL    HW2 9585   3.575   0.059   6.259
 2896SOL     OW 9586   5.871   6.537   5.602
 2896SOL    HW1 9587   5.788   6.481   5.592
 2896SOL    HW2 9588   5.864   6.617   5.542
 2897SOL     OW 9589   3.248   5.328   3.004
 2897SOL    HW1 9590   3.286   5.419   3.024
 2897SOL    HW2 9591   3.149   5.334   2.996
 2898SOL     OW 9592   5.926   3.947   2.616
 2898SOL    HW1 9593   5.943   4.044   2.634
 2898SOL    HW2 9594   5.994   3.912   2.552
 2899SOL     OW 9595   6.965   1.983   1.226
 2899SOL    HW1 9596   6.896   2.055   1.215
 2899SOL    HW2 9597   6.945   1.907   1.164
 2900SOL     OW 9598   3.176   3.509   0.096
 2900SOL    HW1 9599   3.145   3.579   0.160
 2900SOL    HW2 9600   3.227   3.439   0.145
 2901SOL     OW 9601   1.749   4.421   2.912
 2901SOL    HW1 9602   1.730   4.372   2.997
 2901SOL    HW2 9603   1.664   4.454   2.872
 2902SOL     OW 9604   0.492   6.131   3.877
 2902SOL    HW1 9605   0.408   6.179   3.899
 2902SOL    HW2 9606   0.479   6.032   3.889
 2903SOL     OW 9607   4.614   5.710   0.406
 2903SOL    HW1 9608   4.594   5.807   0.394
 2903SOL    HW2 9609   4.685   5.681   0.341
 2904SOL     OW 9610   2.543   4.570   5.141
 2904SOL    HW1 9611   2.631   4.565   5.093
 2904SOL    HW2 9612   2.472   4.529   5.083
 2905SOL     OW 9613   1.192   4.712   2.362
 2905SOL    HW1 9614   1.262   4.643   2.346
 2905SOL    HW2 9615   1.107   4.685   2.315
 2906SOL     OW 9616   5.299   6.128   2.623
 2906SOL    HW1 9617   5.208   6.139   2.581
 2906SOL    HW2 9618   5.310   6.034   2.653
 2907SOL     OW 9619   0.903   0.815   3.778
 2907SOL    HW1 9620   0.945   0.725   3.787
 2907SOL    HW2 9621   0.806   0.804   3.759
 2908SOL     OW 9622   5.041   0.402   3.332
 2908SOL    HW1 9623   5.120   0.446   3.290
 2908SOL    HW2 9624   5.000   0.463   3.399
 2909SOL     OW 9625   1.239   5.602   2.767
 2909SOL    HW1 9626   1.157   5.607   2.709
 2909SOL    HW2 9627   1.232   5.669   2.841
 2910SOL     OW 9628   6.556   1.061   3.961
 2910SOL    HW1 9629   6.627   1.119   3.922
 2910SOL    HW2 9630   6.482   1.118   3.997
 2911SOL     OW 9631   6.993   4.684   4.004
 2911SOL    HW1 9632   7.009   4.607   3.942
 2911SOL    HW2 9633   0.057   4.733   4.020
 2912SOL     OW 9634   0.124   6.338   0.665
 2912SOL    HW1 9635   0.158   6.406   0.600
 2912SOL    HW2 9636   0.030   6.313   0.641
 2913SOL     OW 9637   1.675   4.615   1.739
 2913SOL    HW1 9638   1.724   4.579   1.659
 2913SOL    HW2 9639   1.684   4.715   1.740
 2914SOL     OW 9640   5.526   4.660   0.322
 2914SOL    HW1 9641   5.560   4.668   0.229
 2914SOL    HW2 9642   5.597   4.687   0.387
 2915SOL     OW 9643   3.366   2.051   2.895
 2915SOL    HW1 9644   3.393   2.008   2.809
 2915SOL    HW2 9645   3.445   2.098   2.934
 2916SOL     OW 9646   2.321   5.271   0.655
 2916SOL    HW1 9647   2.329   5.359   0.608
 2916SOL    HW2 9648   2.296   5.201   0.588
 2917SOL     OW 9649   2.378   0.130   3.752
 2917SOL    HW1 9650   2.426   0.078   3.681
 2917SOL    HW2 9651   2.429   0.213   3.773
 2918SOL     OW 9652   5.879   4.225   1.579
 2918SOL    HW1 9653   5.856   4.177   1.664
 2918SOL    HW2 9654   5.798   4.233   1.521
 2919SOL     OW 9655   0.463   6.080   4.401
 2919SOL    HW1 9656   0.547   6.061   4.450
 2919SOL    HW2 9657   0.451   6.012   4.328
 2920SOL     OW 9658   1.737   0.524   2.130
 2920SOL    HW1 9659   1.776   0.599   2.077
 2920SOL    HW2 9660   1.809   0.462   2.160
 2921SOL     OW 9661   0.067   0.098   5.604
 2921SOL    HW1 9662   7.018   0.065   5.665
 2921SOL    HW2 9663   0.069   0.198   5.606
 2922SOL     OW 9664   4.573   0.508   3.095
 2922SOL    HW1 9665   4.643   0.441   3.070
 2922SOL    HW2 9666   4.509   0.520   3.020
 2923SOL     OW 9667   6.356   4.399   5.002
 2923SOL    HW1 9668   6.390   4.333   4.934
 2923SOL    HW2 9669   6.416   4.479   5.002
 2924SOL     OW 9670   6.946   2.052   5.129
 2924SOL    HW1 9671   6.986   1.968   5.166
 2924SOL    HW2 9672   6.983   2.131   5.179
 2925SOL     OW 9673   5.728   0.974   5.953
 2925SOL    HW1 9674   5.809   1.002   6.004
 2925SOL    HW2 9675   5.739   0.997   5.857
 2926SOL     OW 9676   0.413   2.078   4.965
 2926SOL    HW1 9677   0.511   2.067   4.981
 2926SOL    HW2 9678   0.373   1.989   4.944
 2927SOL     OW 9679   2.024   3.040   1.443
 2927SOL    HW1 9680   2.102   3.028   1.503
 2927SOL    HW2 9681   2.054   3.079   1.356
 2928SOL     OW 9682   6.498   1.915   6.883
 2928SOL    HW1 9683   6.544   1.990   6.931
 2928SOL    HW2 9684   6.490   1.836   6.945
 2929SOL     OW 9685   1.326   2.543   4.765
 2929SOL    HW1 9686   1.295   2.485   4.689
 2929SOL    HW2 9687   1.372   2.623   4.728
 2930SOL     OW 9688   6.428   5.606   5.040
 2930SOL    HW1 9689   6.405   5.527   5.095
 2930SOL    HW2 9690   6.394   5.689   5.084
 2931SOL     OW 9691   4.106   4.360   6.739
 2931SOL    HW1 9692   4.182   4.298   6.757
 2931SOL    HW2 9693   4.021   4.307   6.731
 2932SOL     OW 9694   7.015   6.563   1.315
 2932SOL    HW1 9695   0.025   6.469   1.316
 2932SOL    HW2 9696   6.915   6.564   1.319
 2933SOL     OW 9697   0.431   0.283   1.611
 2933SOL    HW1 9698   0.493   0.316   1.540
 2933SOL    HW2 9699   0.371   0.358   1.640
 2934SOL     OW 9700   4.029   3.278   0.916
 2934SOL    HW1 9701   4.118   3.321   0.899
 2934SOL    HW2 9702   4.042   3.195   0.970
 2935SOL     OW 9703   0.548   2.182   6.464
 2935SOL    HW1 9704   0.556   2.228   6.376
 2935SOL    HW2 9705   0.528   2.085   6.449
 2936SOL     OW 9706   4.441   0.122   0.513
 2936SOL    HW1 9707   4.418   0.172   0.596
 2936SOL    HW2 9708   4.537   0.139   0.490
 2937SOL     OW 9709   4.370   5.560   1.712
 2937SOL    HW1 9710   4.425   5.621   1.655
 2937SOL    HW2 9711   4.367   5.595   1.805
 2938SOL     OW 9712   6.281   5.807   6.590
 2938SOL    HW1 9713   6.231   5.836   6.508
 2938SOL    HW2 9714   6.370   5.770   6.563
 2939SOL     OW 9715   0.500   5.681   1.844
 2939SOL    HW1 9716   0.451   5.746   1.786
 2939SOL    HW2 9717   0.487   5.706   1.940
 2940SOL     OW 9718   5.823   6.168   4.011
 2940SOL    HW1 9719   5.837   6.095   4.078
 2940SOL    HW2 9720   5.742   6.148   3.956
 2941SOL     OW 9721   1.733   3.269   3.475
 2941SOL    HW1 9722   1.730   3.169   3.472
 2941SOL    HW2 9723   1.797   3.303   3.406
 2942SOL     OW 9724   2.250   1.537   6.713
 2942SOL    HW1 9725   2.194   1.560   6.793
 2942SOL    HW2 9726   2.334   1.492   6.743
 2943SOL     OW 9727   6.370   4.496   3.327
 2943SOL    HW1 9728   6.359   4.543   3.414
 2943SOL    HW2 9729   6.458   4.448   3.325
 2944SOL     OW 9730   2.792   6.247   4.010
 2944SOL    HW1 9731   2.727   6.308   4.055
 2944SOL    HW2 9732   2.806   6.276   3.915
 2945SOL     OW 9733   5.168   4.537   1.449
 2945SOL    HW1 9734   5.205   4.472   1.517
 2945SOL    HW2 9735   5.110   4.488   1.384
 2946SOL     OW 9736   3.130   3.869   5.864
 2946SOL    HW1 9737   3.230   3.861   5.863
 2946SOL    HW2 9738   3.106   3.966   5.871
 2947SOL     OW 9739   6.491   6.188   0.948
 2947SOL    HW1 9740   6.468   6.205   1.043
 2947SOL    HW2 9741   6.590   6.201   0.935
 2948SOL     OW 9742   6.086   4.755   3.542
 2948SOL    HW1 9743   6.096   4.680   3.607
 2948SOL    HW2 9744   6.162   4.819   3.553
 2949SOL     OW 9745   0.958   6.615   1.013
 2949SOL    HW1 9746   1.011   6.693   1.049
 2949SOL    HW2 9747   0.861   6.640   1.008
 2950SOL     OW 9748   4.525   4.949   2.334
 2950SOL    HW1 9749   4.606   4.913   2.289
 2950SOL    HW2 9750   4.508   4.898   2.418
 2951SOL     OW 9751   5.576   0.319   1.742
 2951SOL    HW1 9752   5.482   0.347   1.724
 2951SOL    HW2 9753   5.638   0.388   1.705
 2952SOL     OW 9754   5.928   0.704   4.288
 2952SOL    HW1 9755   5.950   0.801   4.301
 2952SOL    HW2 9756   5.899   0.690   4.193
 2953SOL     OW 9757   0.274   6.034   2.923
 2953SOL    HW1 9758   0.308   5.983   2.843
 2953SOL    HW2 9759   0.350   6.054   2.984
 2954SOL     OW 9760   1.056   4.553   6.228
 2954SOL    HW1 9761   0.965   4.521   6.255
 2954SOL    HW2 9762   1.102   4.593   6.307
 2955SOL     OW 9763   1.234   4.114   7.012
 2955SOL    HW1 9764   1.168   4.171   0.038
 2955SOL    HW2 9765   1.225   4.019   0.021
 2956SOL     OW 9766   6.669   4.661   4.246
 2956SOL    HW1 9767   6.595   4.647   4.312
 2956SOL    HW2 9768   6.751   4.613   4.277
 2957SOL     OW 9769   2.921   4.847   1.533
 2957SOL    HW1 9770   3.017   4.869   1.513
 2957SOL    HW2 9771   2.909   4.835   1.632
 2958SOL     OW 9772   1.966   5.102   2.867
 2958SOL    HW1 9773   2.059   5.070   2.885
 2958SOL    HW2 9774   1.969   5.192   2.824
 2959SOL     OW 9775   5.411   2.557   3.226
 2959SOL    HW1 9776   5.392   2.574   3.130
 2959SOL    HW2 9777   5.348   2.609   3.283
 2960SOL     OW 9778   3.923   0.944   0.146
 2960SOL    HW1 9779   3.940   1.033   0.105
 2960SOL    HW2 9780   4.008   0.892   0.149
 2961SOL     OW 9781   5.846   4.626   2.754
 2961SOL    HW1 9782   5.875   4.720   2.770
 2961SOL    HW2 9783   5.813   4.586   2.840
 2962SOL     OW 9784   5.804   6.454   2.464
 2962SOL    HW1 9785   5.746   6.467   2.545
 2962SOL    HW2 9786   5.761   6.497   2.385
 2963SOL     OW 9787   0.958   0.776   5.850
 2963SOL    HW1 9788   1.047   0.821   5.851
 2963SOL    HW2 9789   0.936   0.747   5.757
 2964SOL     OW 9790   0.343   2.858   6.893
 2964SOL    HW1 9791   0.345   2.891   6.799
 2964SOL    HW2 9792   0.258   2.807   6.909
 2965SOL     OW 9793   0.769   0.480   4.707
 2965SOL    HW1 9794   0.796   0.383   4.704
 2965SOL    HW2 9795   0.722   0.504   4.623
 2966SOL     OW 9796   4.530   5.522   3.428
 2966SOL    HW1 9797   4.529   5.431   3.386
 2966SOL    HW2 9798   4.620   5.563   3.416
 2967SOL     OW 9799   6.751   0.518   5.345
 2967SOL    HW1 9800   6.780   0.562   5.430
 2967SOL    HW2 9801   6.809   0.549   5.270
 2968SOL     OW 9802   2.279   2.920   1.299
 2968SOL    HW1 9803   2.298   2.834   1.346
 2968SOL    HW2 9804   2.337   2.992   1.337
 2969SOL     OW 9805   4.985   3.980   4.428
 2969SOL    HW1 9806   5.056   3.916   4.457
 2969SOL    HW2 9807   5.005   4.070   4.465
 2970SOL     OW 9808   2.685   2.839   5.348
 2970SOL    HW1 9809   2.784   2.839   5.362
 2970SOL    HW2 9810   2.659   2.920   5.295
 2971SOL     OW 9811   5.512   4.278   0.168
 2971SOL    HW1 9812   5.605   4.314   0.157
 2971SOL    HW2 9813   5.469   4.321   0.247
 2972SOL     OW 9814   6.293   4.990   6.602
 2972SOL    HW1 9815   6.322   4.993   6.506
 2972SOL    HW2 9816   6.269   5.082   6.632
 2973SOL     OW 9817   4.771   6.488   2.275
 2973SOL    HW1 9818   4.725   6.424   2.214
 2973SOL    HW2 9819   4.842   6.441   2.327
 2974SOL     OW 9820   6.410   4.595   3.033
 2974SOL    HW1 9821   6.428   4.581   3.130
 2974SOL    HW2 9822   6.496   4.598   2.983
 2975SOL     OW 9823   4.578   4.778   3.944
 2975SOL    HW1 9824   4.523   4.783   3.860
 2975SOL    HW2 9825   4.613   4.685   3.956
 2976SOL     OW 9826   4.821   2.055   2.933
 2976SOL    HW1 9827   4.827   1.980   2.998
 2976SOL    HW2 9828   4.905   2.059   2.879
 2977SOL     OW 9829   0.617   0.593   2.004
 2977SOL    HW1 9830   0.600   0.674   2.061
 2977SOL    HW2 9831   0.617   0.619   1.908
 2978SOL     OW 9832   4.454   4.467   6.249
 2978SOL    HW1 9833   4.513   4.427   6.179
 2978SOL    HW2 9834   4.363   4.483   6.209
 2979SOL     OW 9835   3.289   1.710   4.772
 2979SOL    HW1 9836   3.314   1.751   4.860
 2979SOL    HW2 9837   3.200   1.666   4.780
 2980SOL     OW 9838   3.793   4.306   6.179
 2980SOL    HW1 9839   3.888   4.276   6.170
 2980SOL    HW2 9840   3.782   4.396   6.136
 2981SOL     OW 9841   1.883   1.386   0.547
 2981SOL    HW1 9842   1.961   1.324   0.538
 2981SOL    HW2 9843   1.839   1.397   0.457
 2982SOL     OW 9844   1.610   6.749   2.539
 2982SOL    HW1 9845   1.612   6.678   2.469
 2982SOL    HW2 9846   1.515   6.775   2.557
 2983SOL     OW 9847   6.767   2.732   6.534
 2983SOL    HW1 9848   6.770   2.680   6.449
 2983SOL    HW2 9849   6.694   2.800   6.529
 2984SOL     OW 9850   6.567   5.180   0.112
 2984SOL    HW1 9851   6.568   5.210   0.207
 2984SOL    HW2 9852   6.495   5.229   0.062
 2985SOL     OW 9853   0.661   6.989   4.375
 2985SOL    HW1 9854   0.680   6.907   4.428
 2985SOL    HW2 9855   0.605   6.965   4.295
 2986SOL     OW 9856   3.293   3.998   2.656
 2986SOL    HW1 9857   3.213   3.961   2.609
 2986SOL    HW2 9858   3.296   3.964   2.750
 2987SOL     OW 9859   0.903   2.315   4.280
 2987SOL    HW1 9860   0.846   2.249   4.329
 2987SOL    HW2 9861   0.958   2.268   4.211
 2988SOL     OW 9862   1.237   1.208   1.265
 2988SOL    HW1 9863   1.243   1.113   1.293
 2988SOL    HW2 9864   1.145   1.228   1.232
 2989SOL     OW 9865   5.295   3.701   5.176
 2989SOL    HW1 9866   5.311   3.798   5.158
 2989SOL    HW2 9867   5.201   3.689   5.210
 2990SOL     OW 9868   5.273   2.073   4.213
 2990SOL    HW1 9869   5.244   2.093   4.307
 2990SOL    HW2 9870   5.327   1.989   4.212
 2991SOL     OW 9871   5.839   3.223   0.937
 2991SOL    HW1 9872   5.782   3.291   0.983
 2991SOL    HW2 9873   5.933   3.230   0.971
 2992SOL     OW 9874   0.489   3.910   4.524
 2992SOL    HW1 9875   0.555   3.955   4.586
 2992SOL    HW2 9876   0.447   3.832   4.572
 2993SOL     OW 9877   0.949   4.727   0.005
 2993SOL    HW1 9878   1.034   4.778   7.013
 2993SOL    HW2 9879   0.922   4.685   6.940
 2994SOL     OW 9880   4.561   5.783   6.619
 2994SOL    HW1 9881   4.522   5.799   6.528
 2994SOL    HW2 9882   4.558   5.868   6.672
 2995SOL     OW 9883   4.454   0.302   0.714
 2995SOL    HW1 9884   4.433   0.394   0.680
 2995SOL    HW2 9885   4.451   0.302   0.814
 2996SOL     OW 9886   1.314   2.215   4.849
 2996SOL    HW1 9887   1.297   2.261   4.935
 2996SOL    HW2 9888   1.402   2.244   4.812
 2997SOL     OW 9889   4.831   0.645   3.763
 2997SOL    HW1 9890   4.738   0.615   3.785
 2997SOL    HW2 9891   4.895   0.604   3.827
 2998SOL     OW 9892   2.631   0.432   3.488
 2998SOL    HW1 9893   2.729   0.433   3.505
 2998SOL    HW2 9894   2.613   0.407   3.393
 2999SOL     OW 9895   3.169   4.502   6.790
 2999SOL    HW1 9896   3.230   4.468   6.861
 2999SOL    HW2 9897   3.089   4.442   6.782
 3000SOL     OW 9898   3.024   3.372   5.475
 3000SOL    HW1 9899   2.983   3.458   5.505
 3000SOL    HW2 9900   3.108   3.391   5.425
 3001SOL     OW 9901   5.688   1.059   6.554
 3001SOL    HW1 9902   5.779   1.067   6.513
 3001SOL    HW2 9903   5.687   1.104   6.643
 3002SOL     OW 9904   2.948   1.134   1.211
 3002SOL    HW1 9905   2.851   1.125   1.232
 3002SOL    HW2 9906   2.982   1.046   1.175
 3003SOL     OW 9907   0.859   5.988   0.575
 3003SOL    HW1 9908   0.955   6.014   0.570
 3003SOL    HW2 9909   0.848   5.917   0.645
 3004SOL     OW 9910   2.578   4.589   4.298
 3004SOL    HW1 9911   2.556   4.520   4.367
 3004SOL    HW2 9912   2.658   4.641   4.328
 3005SOL     OW 9913   1.059   3.162   5.523
 3005SOL    HW1 9914   1.060   3.219   5.605
 3005SOL    HW2 9915   1.111   3.208   5.450
 3006SOL     OW 9916   5.620   2.012   5.477
 3006SOL    HW1 9917   5.705   1.998   5.426
 3006SOL    HW2 9918   5.639   2.059   5.563
 3007SOL     OW 9919   5.120   5.398   0.145
 3007SOL    HW1 9920   5.047   5.349   0.191
 3007SOL    HW2 9921   5.121   5.494   0.175
 3008SOL     OW 9922   4.488   1.562   5.970
 3008SOL    HW1 9923   4.396   1.563   5.931
 3008SOL    HW2 9924   4.507   1.651   6.012
 3009SOL     OW 9925   7.002   2.678   2.902
 3009SOL    HW1 9926   6.909   2.692   2.935
 3009SOL    HW2 9927   0.000   2.744   2.830
 3010SOL     OW 9928   4.586   5.485   5.852
 3010SOL    HW1 9929   4.658   5.528   5.906
 3010SOL    HW2 9930   4.555   5.402   5.898
 3011SOL     OW 9931   6.525   6.910   1.736
 3011SOL    HW1 9932   6.540   7.008   1.745
 3011SOL    HW2 9933   6.428   6.890   1.749
 3012SOL     OW 9934   2.774   3.340   6.601
 3012SOL    HW1 9935   2.707   3.415   6.598
 3012SOL    HW2 9936   2.774   3.293   6.513
 3013SOL     OW 9937   6.879   6.189   3.582
 3013SOL    HW1 9938   6.816   6.119   3.616
 3013SOL    HW2 9939   6.915   6.242   3.659
 3014SOL     OW 9940   5.447   0.613   5.800
 3014SOL    HW1 9941   5.415   0.701   5.837
 3014SOL    HW2 9942   5.392   0.539   5.840
 3015SOL     OW 9943   1.707   1.100   6.959
 3015SOL    HW1 9944   1.765   1.122   0.016
 3015SOL    HW2 9945   1.614   1.081   6.990
 3016SOL     OW 9946   3.056   6.982   4.315
 3016SOL    HW1 9947   3.087   0.056   4.315
 3016SOL    HW2 9948   3.019   6.959   4.226
 3017SOL     OW 9949   6.625   6.167   1.785
 3017SOL    HW1 9950   6.706   6.147   1.840
 3017SOL    HW2 9951   6.543   6.158   1.842
 3018SOL     OW 9952   3.632   6.775   0.280
 3018SOL    HW1 9953   3.640   6.785   0.379
 3018SOL    HW2 9954   3.536   6.784   0.253
 3019SOL     OW 9955   1.645   6.803   6.545
 3019SOL    HW1 9956   1.579   6.736   6.577
 3019SOL    HW2 9957   1.599   6.890   6.527
 3020SOL     OW 9958   5.194   3.063   6.879
 3020SOL    HW1 9959   5.255   2.992   6.914
 3020SOL    HW2 9960   5.101   3.045   6.912
 3021SOL     OW 9961   3.535   6.401   4.645
 3021SOL    HW1 9962   3.567   6.394   4.551
 3021SOL    HW2 9963   3.579   6.479   4.690
 3022SOL     OW 9964   3.956   5.868   3.463
 3022SOL    HW1 9965   3.960   5.778   3.419
 3022SOL    HW2 9966   3.866   5.881   3.504
 3023SOL     OW 9967   3.942   6.618   2.786
 3023SOL    HW1 9968   3.899   6.704   2.813
 3023SOL    HW2 9969   3.995   6.582   2.863
 3024SOL     OW 9970   6.942   6.356   5.533
 3024SOL    HW1 9971   6.858   6.398   5.499
 3024SOL    HW2 9972   6.920   6.275   5.587
 3025SOL     OW 9973   4.442   5.463   0.345
 3025SOL    HW1 9974   4.417   5.451   0.441
 3025SOL    HW2 9975   4.485   5.552   0.333
 3026SOL     OW 9976   5.421   0.867   1.010
 3026SOL    HW1 9977   5.458   0.892   0.921
 3026SOL    HW2 9978   5.496   0.845   1.073
 3027SOL     OW 9979   4.724   1.607   1.836
 3027SOL    HW1 9980   4.637   1.573   1.801
 3027SOL    HW2 9981   4.712   1.701   1.869
 3028SOL     OW 9982   2.146   3.743   6.494
 3028SOL    HW1 9983   2.148   3.668   6.560
 3028SOL    HW2 9984   2.057   3.746   6.448
 3029SOL     OW 9985   0.422   2.449   4.120
 3029SOL    HW1 9986   0.358   2.417   4.050
 3029SOL    HW2 9987   0.512   2.408   4.104
 3030SOL     OW 9988   1.546   4.587   1.424
 3030SOL    HW1 9989   1.573   4.509   1.480
 3030SOL    HW2 9990   1.467   4.563   1.368
 3031SOL     OW 9991   1.437   5.564   1.548
 3031SOL    HW1 9992   1.499   5.510   1.605
 3031SOL    HW2 9993   1.355   5.510   1.527
 3032SOL     OW 9994   1.778   7.001   3.240
 3032SOL    HW1 9995   1.768   0.079   3.240
 3032SOL    HW2 9996   1.872   6.977   3.217
 3033SOL     OW 9997   6.202   2.932   4.046
 3033SOL    HW1 9998   6.220   2.846   4.093
 3033SOL    HW2 9999   6.187   3.005   4.114
 3034SOL     OW10000   0.684   6.255   3.643
 3034SOL    HW110001   0.651   6.290   3.555
 3034SOL    HW210002   0.606   6.228   3.699
 3035SOL     OW10003   1.403   2.661   6.339
 3035SOL    HW110004   1.486   2.616   6.307
 3035SOL    HW210005   1.327   2.596   6.337
 3036SOL     OW10006   1.579   2.107   5.994
 3036SOL    HW110007   1.497   2.053   6.012
 3036SOL    HW210008   1.620   2.078   5.907
 3037SOL     OW10009   0.577   4.793   5.863
 3037SOL    HW110010   0.558   4.887   5.891
 3037SOL    HW210011   0.674   4.784   5.842
 3038SOL     OW10012   5.087   5.227   6.055
 3038SOL    HW110013   5.081   5.318   6.096
 3038SOL    HW210014   5.177   5.216   6.012
 3039SOL     OW10015   6.299   3.176   0.492
 3039SOL    HW110016   6.232   3.102   0.487
 3039SOL    HW210017   6.351   3.180   0.407
 3040SOL     OW10018   3.667   4.271   5.573
 3040SOL    HW110019   3.711   4.220   5.647
 3040SOL    HW210020   3.650   4.210   5.496
 3041SOL     OW10021   1.388   4.133   4.914
 3041SOL    HW110022   1.307   4.177   4.954
 3041SOL    HW210023   1.441   4.090   4.986
 3042SOL     OW10024   0.509   4.699   3.086
 3042SOL    HW110025   0.443   4.749   3.030
 3042SOL    HW210026   0.600   4.739   3.073
 3043SOL     OW10027   2.445   3.098   0.510
 3043SOL    HW110028   2.387   3.094   0.592
 3043SOL    HW210029   2.541   3.103   0.538
 3044SOL     OW10030   3.452   3.391   5.137
 3044SOL    HW110031   3.548   3.418   5.134
 3044SOL    HW210032   3.415   3.389   5.044
 3045SOL     OW10033   5.073   1.177   3.364
 3045SOL    HW110034   5.053   1.246   3.295
 3045SOL    HW210035   4.991   1.161   3.420
 3046SOL     OW10036   5.607   5.657   0.516
 3046SOL    HW110037   5.568   5.608   0.438
 3046SOL    HW210038   5.681   5.603   0.556
 3047SOL     OW10039   6.080   6.970   0.279
 3047SOL    HW110040   6.014   6.932   0.343
 3047SOL    HW210041   6.135   0.018   0.325
 3048SOL     OW10042   4.556   3.381   0.994
 3048SOL    HW110043   4.588   3.443   1.065
 3048SOL    HW210044   4.616   3.388   0.915
 3049SOL     OW10045   0.965   0.870   4.502
 3049SOL    HW110046   1.027   0.944   4.530
 3049SOL    HW210047   0.871   0.904   4.503
 3050SOL     OW10048   2.498   2.334   1.283
 3050SOL    HW110049   2.559   2.355   1.360
 3050SOL    HW210050   2.515   2.399   1.209
 3051SOL     OW10051   3.250   6.853   5.761
 3051SOL    HW110052   3.187   6.809   5.698
 3051SOL    HW210053   3.219   6.946   5.780
 3052SOL     OW10054   5.647   6.149   2.354
 3052SOL    HW110055   5.550   6.135   2.335
 3052SOL    HW210056   5.662   6.148   2.453
 3053SOL     OW10057   2.020   4.104   0.305
 3053SOL    HW110058   2.092   4.065   0.248
 3053SOL    HW210059   1.945   4.137   0.248
 3054SOL     OW10060   5.432   1.164   3.161
 3054SOL    HW110061   5.518   1.125   3.126
 3054SOL    HW210062   5.386   1.214   3.089
 3055SOL     OW10063   6.270   6.189   6.339
 3055SOL    HW110064   6.247   6.259   6.271
 3055SOL    HW210065   6.367   6.167   6.333
 3056SOL     OW10066   5.373   2.141   6.257
 3056SOL    HW110067   5.318   2.085   6.195
 3056SOL    HW210068   5.382   2.233   6.218
 3057SOL     OW10069   5.252   6.278   3.306
 3057SOL    HW110070   5.268   6.217   3.383
 3057SOL    HW210071   5.157   6.310   3.308
 3058SOL     OW10072   5.987   4.265   0.556
 3058SOL    HW110073   5.937   4.208   0.621
 3058SOL    HW210074   5.923   4.325   0.508
 3059SOL     OW10075   2.214   2.554   4.256
 3059SOL    HW110076   2.288   2.488   4.269
 3059SOL    HW210077   2.218   2.590   4.163
 3060SOL     OW10078   2.885   4.784   5.787
 3060SOL    HW110079   2.790   4.811   5.767
 3060SOL    HW210080   2.885   4.699   5.838
 3061SOL     OW10081   5.616   4.821   5.897
 3061SOL    HW110082   5.601   4.750   5.828
 3061SOL    HW210083   5.591   4.786   5.987
 3062SOL     OW10084   4.030   4.489   1.547
 3062SOL    HW110085   4.053   4.392   1.535
 3062SOL    HW210086   3.951   4.497   1.609
 3063SOL     OW10087   0.785   4.298   0.776
 3063SOL    HW110088   0.723   4.341   0.842
 3063SOL    HW210089   0.879   4.308   0.808
 3064SOL     OW10090   3.769   2.746   6.835
 3064SOL    HW110091   3.827   2.671   6.802
 3064SOL    HW210092   3.730   2.721   6.924
 3065SOL     OW10093   1.158   0.917   6.754
 3065SOL    HW110094   1.197   1.004   6.782
 3065SOL    HW210095   1.166   0.851   6.830
 3066SOL     OW10096   4.980   5.218   5.284
 3066SOL    HW110097   4.991   5.169   5.197
 3066SOL    HW210098   4.918   5.295   5.271
 3067SOL     OW10099   2.578   1.507   6.596
 3067SOL    HW110100   2.556   1.501   6.693
 3067SOL    HW210101   2.639   1.585   6.580
 3068SOL     OW10102   0.961   1.484   1.578
 3068SOL    HW110103   1.000   1.415   1.639
 3068SOL    HW210104   0.861   1.479   1.581
 3069SOL     OW10105   5.522   0.283   3.410
 3069SOL    HW110106   5.500   0.292   3.313
 3069SOL    HW210107   5.454   0.223   3.454
 3070SOL     OW10108   2.957   1.492   6.822
 3070SOL    HW110109   2.925   1.493   6.917
 3070SOL    HW210110   2.896   1.434   6.768
 3071SOL     OW10111   0.077   3.870   3.588
 3071SOL    HW110112   7.021   3.916   3.546
 3071SOL    HW210113   0.054   3.774   3.605
 3072SOL     OW10114   1.873   6.086   0.011
 3072SOL    HW110115   1.870   6.038   6.946
 3072SOL    HW210116   1.906   6.024   0.083
 3073SOL     OW10117   6.478   5.009   0.415
 3073SOL    HW110118   6.466   5.100   0.376
 3073SOL    HW210119   6.405   4.991   0.481
 3074SOL     OW10120   1.285   3.995   0.719
 3074SOL    HW110121   1.274   3.940   0.802
 3074SOL    HW210122   1.203   4.052   0.706
 3075SOL     OW10123   2.559   5.040   3.768
 3075SOL    HW110124   2.592   5.128   3.734
 3075SOL    HW210125   2.580   5.031   3.865
 3076SOL     OW10126   0.523   1.296   4.921
 3076SOL    HW110127   0.447   1.336   4.870
 3076SOL    HW210128   0.495   1.284   5.017
 3077SOL     OW10129   6.180   3.524   1.792
 3077SOL    HW110130   6.136   3.600   1.745
 3077SOL    HW210131   6.110   3.462   1.829
 3078SOL     OW10132   6.181   3.090   1.698
 3078SOL    HW110133   6.274   3.087   1.737
 3078SOL    HW210134   6.167   3.009   1.640
 3079SOL     OW10135   2.271   2.547   5.075
 3079SOL    HW110136   2.176   2.514   5.074
 3079SOL    HW210137   2.276   2.636   5.030
 3080SOL     OW10138   4.027   4.930   1.461
 3080SOL    HW110139   4.066   4.986   1.387
 3080SOL    HW210140   4.077   4.844   1.467
 3081SOL     OW10141   1.078   4.133   0.580
 3081SOL    HW110142   1.004   4.196   0.558
 3081SOL    HW210143   1.044   4.039   0.577
 3082SOL     OW10144   3.535   5.150   4.232
 3082SOL    HW110145   3.557   5.246   4.250
 3082SOL    HW210146   3.504   5.141   4.137
 3083SOL     OW10147   2.717   5.648   2.787
 3083SOL    HW110148   2.810   5.659   2.822
 3083SOL    HW210149   2.666   5.586   2.847
 3084SOL     OW10150   0.777   3.695   3.164
 3084SOL    HW110151   0.741   3.673   3.073
 3084SOL    HW210152   0.706   3.676   3.233
 3085SOL     OW10153   4.666   5.051   0.818
 3085SOL    HW110154   4.619   4.965   0.838
 3085SOL    HW210155   4.607   5.108   0.761
 3086SOL     OW10156   6.042   1.219   6.963
 3086SOL    HW110157   6.044   1.120   6.949
 3086SOL    HW210158   5.977   1.241   0.013
 3087SOL     OW10159   2.485   6.481   2.201
 3087SOL    HW110160   2.438   6.394   2.193
 3087SOL    HW210161   2.424   6.548   2.243
 3088SOL     OW10162   0.218   2.936   5.223
 3088SOL    HW110163   0.136   2.913   5.275
 3088SOL    HW210164   0.203   2.913   5.126
 3089SOL     OW10165   4.818   0.683   4.627
 3089SOL    HW110166   4.750   0.611   4.617
 3089SOL    HW210167   4.815   0.744   4.548
 3090SOL     OW10168   1.337   1.636   1.415
 3090SOL    HW110169   1.341   1.536   1.408
 3090SOL    HW210170   1.345   1.675   1.323
 3091SOL     OW10171   1.123   1.618   0.636
 3091SOL    HW110172   1.132   1.590   0.540
 3091SOL    HW210173   1.117   1.537   0.694
 3092SOL     OW10174   5.222   6.728   2.475
 3092SOL    HW110175   5.209   6.704   2.571
 3092SOL    HW210176   5.263   6.820   2.469
 3093SOL     OW10177   5.783   5.477   6.328
 3093SOL    HW110178   5.768   5.395   6.274
 3093SOL    HW210179   5.877   5.479   6.361
 3094SOL     OW10180   2.605   0.969   5.291
 3094SOL    HW110181   2.625   0.882   5.335
 3094SOL    HW210182   2.628   0.964   5.194
 3095SOL     OW10183   2.661   3.136   5.343
 3095SOL    HW110184   2.751   3.161   5.307
 3095SOL    HW210185   2.608   3.091   5.271
 3096SOL     OW10186   0.645   3.366   5.162
 3096SOL    HW110187   0.557   3.360   5.210
 3096SOL    HW210188   0.714   3.313   5.212
 3097SOL     OW10189   6.209   2.264   6.605
 3097SOL    HW110190   6.187   2.250   6.701
 3097SOL    HW210191   6.132   2.307   6.558
 3098SOL     OW10192   2.016   1.662   2.255
 3098SOL    HW110193   2.021   1.642   2.353
 3098SOL    HW210194   1.995   1.760   2.243
 3099SOL     OW10195   0.440   6.417   3.627
 3099SOL    HW110196   0.513   6.425   3.694
 3099SOL    HW210197   0.446   6.493   3.562
 3100SOL     OW10198   6.288   6.462   3.049
 3100SOL    HW110199   6.194   6.495   3.058
 3100SOL    HW210200   6.351   6.540   3.042
 3101SOL     OW10201   4.695   6.965   6.274
 3101SOL    HW110202   4.600   6.983   6.298
 3101SOL    HW210203   4.705   6.872   6.241
 3102SOL     OW10204   0.389   5.432   0.254
 3102SOL    HW110205   0.318   5.441   0.184
 3102SOL    HW210206   0.347   5.401   0.340
 3103SOL     OW10207   3.798   0.330   0.749
 3103SOL    HW110208   3.809   0.411   0.807
 3103SOL    HW210209   3.834   0.250   0.797
 3104SOL     OW10210   4.488   0.054   6.027
 3104SOL    HW110211   4.460   6.982   6.006
 3104SOL    HW210212   4.506   0.103   5.941
 3105SOL     OW10213   5.177   3.157   0.670
 3105SOL    HW110214   5.222   3.105   0.742
 3105SOL    HW210215   5.216   3.134   0.581
 3106SOL     OW10216   5.460   0.611   5.229
 3106SOL    HW110217   5.371   0.641   5.196
 3106SOL    HW210218   5.479   0.519   5.195
 3107SOL     OW10219   4.788   1.985   4.635
 3107SOL    HW110220   4.832   1.968   4.547
 3107SOL    HW210221   4.689   1.992   4.623
 3108SOL     OW10222   2.477   4.463   4.519
 3108SOL    HW110223   2.410   4.404   4.563
 3108SOL    HW210224   2.503   4.536   4.583
 3109SOL     OW10225   6.253   0.160   4.678
 3109SOL    HW110226   6.235   0.117   4.589
 3109SOL    HW210227   6.170   0.203   4.712
 3110SOL     OW10228   2.275   4.913   3.561
 3110SOL    HW110229   2.249   4.826   3.519
 3110SOL    HW210230   2.373   4.912   3.582
 3111SOL     OW10231   6.483   4.638   4.905
 3111SOL    HW110232   6.534   4.652   4.990
 3111SOL    HW210233   6.481   4.724   4.854
 3112SOL     OW10234   3.929   2.796   0.170
 3112SOL    HW110235   3.829   2.791   0.162
 3112SOL    HW210236   3.964   2.711   0.209
 3113SOL     OW10237   2.812   5.929   2.680
 3113SOL    HW110238   2.726   5.958   2.638
 3113SOL    HW210239   2.793   5.867   2.756
 3114SOL     OW10240   3.638   1.541   0.123
 3114SOL    HW110241   3.582   1.556   0.042
 3114SOL    HW210242   3.581   1.503   0.197
 3115SOL     OW10243   4.129   4.230   5.581
 3115SOL    HW110244   4.114   4.226   5.483
 3115SOL    HW210245   4.094   4.317   5.616
 3116SOL     OW10246   0.426   2.166   0.889
 3116SOL    HW110247   0.445   2.154   0.791
 3116SOL    HW210248   0.456   2.085   0.939
 3117SOL     OW10249   4.939   2.147   5.586
 3117SOL    HW110250   4.951   2.096   5.672
 3117SOL    HW210251   5.027   2.156   5.540
 3118SOL     OW10252   1.558   0.284   2.962
 3118SOL    HW110253   1.602   0.232   2.889
 3118SOL    HW210254   1.533   0.375   2.929
 3119SOL     OW10255   3.873   2.731   5.726
 3119SOL    HW110256   3.904   2.637   5.741
 3119SOL    HW210257   3.821   2.737   5.641
 3120SOL     OW10258   2.791   0.478   5.056
 3120SOL    HW110259   2.801   0.451   5.152
 3120SOL    HW210260   2.841   0.563   5.040
 3121SOL     OW10261   5.016   1.940   4.141
 3121SOL    HW110262   5.100   1.993   4.154
 3121SOL    HW210263   5.005   1.876   4.217
 3122SOL     OW10264   4.322   4.619   4.197
 3122SOL    HW110265   4.266   4.543   4.164
 3122SOL    HW210266   4.306   4.699   4.139
 3123SOL     OW10267   2.079   1.384   3.308
 3123SOL    HW110268   2.109   1.467   3.354
 3123SOL    HW210269   2.149   1.313   3.318
 3124SOL     OW10270   5.168   6.228   4.835
 3124SOL    HW110271   5.218   6.224   4.921
 3124SOL    HW210272   5.209   6.165   4.769
 3125SOL     OW10273   0.907   3.124   4.911
 3125SOL    HW110274   0.912   3.027   4.932
 3125SOL    HW210275   0.983   3.148   4.850
 3126SOL     OW10276   5.841   5.768   4.557
 3126SOL    HW110277   5.765   5.760   4.621
 3126SOL    HW210278   5.871   5.677   4.529
 3127SOL     OW10279   0.903   2.521   4.708
 3127SOL    HW110280   0.974   2.525   4.638
 3127SOL    HW210281   0.826   2.580   4.682
 3128SOL     OW10282   3.556   0.433   0.391
 3128SOL    HW110283   3.496   0.504   0.428
 3128SOL    HW210284   3.583   0.370   0.463
 3129SOL     OW10285   5.009   3.480   1.336
 3129SOL    HW110286   4.926   3.459   1.284
 3129SOL    HW210287   5.046   3.396   1.376
 3130SOL     OW10288   1.635   4.264   1.434
 3130SOL    HW110289   1.649   4.311   1.347
 3130SOL    HW210290   1.710   4.200   1.450
 3131SOL     OW10291   6.966   3.896   1.700
 3131SOL    HW110292   6.969   3.992   1.673
 3131SOL    HW210293   6.958   3.890   1.800
 3132SOL     OW10294   3.789   4.344   0.398
 3132SOL    HW110295   3.839   4.347   0.312
 3132SOL    HW210296   3.853   4.336   0.474
 3133SOL     OW10297   3.620   0.424   3.463
 3133SOL    HW110298   3.627   0.473   3.376
 3133SOL    HW210299   3.666   0.477   3.534
 3134SOL     OW10300   3.221   4.773   1.724
 3134SOL    HW110301   3.295   4.777   1.656
 3134SOL    HW210302   3.137   4.743   1.679
 3135SOL     OW10303   5.387   6.719   6.135
 3135SOL    HW110304   5.470   6.773   6.123
 3135SOL    HW210305   5.312   6.778   6.165
 3136SOL     OW10306   5.844   0.924   2.128
 3136SOL    HW110307   5.806   0.836   2.155
 3136SOL    HW210308   5.938   0.932   2.162
 3137SOL     OW10309   6.383   0.361   0.946
 3137SOL    HW110310   6.438   0.327   0.870
 3137SOL    HW210311   6.294   0.393   0.912
 3138SOL     OW10312   5.710   5.769   4.010
 3138SOL    HW110313   5.692   5.867   4.006
 3138SOL    HW210314   5.647   5.721   3.949
 3139SOL     OW10315   2.623   4.829   1.412
 3139SOL    HW110316   2.582   4.739   1.425
 3139SOL    HW210317   2.602   4.886   1.492
 3140SOL     OW10318   6.127   6.328   5.566
 3140SOL    HW110319   6.191   6.315   5.641
 3140SOL    HW210320   6.043   6.370   5.601
 3141SOL     OW10321   0.427   2.392   0.285
 3141SOL    HW110322   0.416   2.487   0.256
 3141SOL    HW210323   0.500   2.349   0.232
 3142SOL     OW10324   4.409   0.740   2.617
 3142SOL    HW110325   4.467   0.768   2.540
 3142SOL    HW210326   4.467   0.711   2.693
 3143SOL     OW10327   5.931   2.148   0.462
 3143SOL    HW110328   5.902   2.134   0.368
 3143SOL    HW210329   6.019   2.196   0.463
 3144SOL     OW10330   4.454   3.781   6.838
 3144SOL    HW110331   4.537   3.736   6.870
 3144SOL    HW210332   4.478   3.866   6.790
 3145SOL     OW10333   2.642   6.440   1.741
 3145SOL    HW110334   2.635   6.537   1.765
 3145SOL    HW210335   2.556   6.408   1.703
 3146SOL     OW10336   0.322   0.507   4.942
 3146SOL    HW110337   0.393   0.441   4.966
 3146SOL    HW210338   0.352   0.563   4.865
 3147SOL     OW10339   3.557   5.164   6.695
 3147SOL    HW110340   3.467   5.145   6.734
 3147SOL    HW210341   3.596   5.079   6.659
 3148SOL     OW10342   0.523   6.686   2.900
 3148SOL    HW110343   0.488   6.593   2.909
 3148SOL    HW210344   0.618   6.683   2.869
 3149SOL     OW10345   3.158   1.371   0.112
 3149SOL    HW110346   3.091   1.435   0.075
 3149SOL    HW210347   3.114   1.307   0.174
 3150SOL     OW10348   6.552   5.895   4.863
 3150SOL    HW110349   6.473   5.924   4.917
 3150SOL    HW210350   6.614   5.972   4.850
 3151SOL     OW10351   6.517   1.725   5.953
 3151SOL    HW110352   6.502   1.799   5.888
 3151SOL    HW210353   6.564   1.650   5.908
 3152SOL     OW10354   1.483   4.088   6.501
 3152SOL    HW110355   1.433   4.174   6.507
 3152SOL    HW210356   1.419   4.011   6.503
 3153SOL     OW10357   6.404   5.287   0.334
 3153SOL    HW110358   6.380   5.271   0.430
 3153SOL    HW210359   6.429   5.383   0.321
 3154SOL     OW10360   6.206   1.427   1.716
 3154SOL    HW110361   6.198   1.505   1.654
 3154SOL    HW210362   6.207   1.459   1.811
 3155SOL     OW10363   6.504   4.610   0.451
 3155SOL    HW110364   6.481   4.657   0.537
 3155SOL    HW210365   6.427   4.554   0.422
 3156SOL     OW10366   3.594   4.164   2.298
 3156SOL    HW110367   3.600   4.221   2.217
 3156SOL    HW210368   3.685   4.152   2.337
 3157SOL     OW10369   1.076   2.125   5.185
 3157SOL    HW110370   1.003   2.139   5.118
 3157SOL    HW210371   1.147   2.193   5.171
 3158SOL     OW10372   2.915   2.203   5.790
 3158SOL    HW110373   2.847   2.137   5.822
 3158SOL    HW210374   2.928   2.273   5.860
 3159SOL     OW10375   4.420   6.556   0.567
 3159SOL    HW110376   4.327   6.555   0.530
 3159SOL    HW210377   4.471   6.633   0.528
 3160SOL     OW10378   2.000   6.961   5.559
 3160SOL    HW110379   2.017   6.888   5.626
 3160SOL    HW210380   1.910   6.949   5.519
 3161SOL     OW10381   1.771   2.742   2.544
 3161SOL    HW110382   1.790   2.778   2.636
 3161SOL    HW210383   1.695   2.793   2.504
 3162SOL     OW10384   2.163   5.345   6.965
 3162SOL    HW110385   2.132   5.439   6.979
 3162SOL    HW210386   2.229   5.342   6.890
 3163SOL     OW10387   4.487   3.579   0.296
 3163SOL    HW110388   4.434   3.502   0.331
 3163SOL    HW210389   4.448   3.609   0.209
 3164SOL     OW10390   3.129   5.543   2.407
 3164SOL    HW110391   3.097   5.638   2.415
 3164SOL    HW210392   3.112   5.510   2.314
 3165SOL     OW10393   0.588   5.243   0.225
 3165SOL    HW110394   0.488   5.248   0.233
 3165SOL    HW210395   0.626   5.335   0.225
 3166SOL     OW10396   4.438   1.268   4.544
 3166SOL    HW110397   4.519   1.267   4.603
 3166SOL    HW210398   4.362   1.313   4.591
 3167SOL     OW10399   5.049   4.421   0.325
 3167SOL    HW110400   5.146   4.434   0.347
 3167SOL    HW210401   5.014   4.342   0.376
 3168SOL     OW10402   4.861   2.884   1.216
 3168SOL    HW110403   4.903   2.830   1.289
 3168SOL    HW210404   4.861   2.831   1.131
 3169SOL     OW10405   1.503   5.045   2.437
 3169SOL    HW110406   1.563   5.039   2.358
 3169SOL    HW210407   1.557   5.034   2.521
 3170SOL     OW10408   4.082   6.000   2.109
 3170SOL    HW110409   3.996   5.961   2.141
 3170SOL    HW210410   4.090   6.094   2.142
 3171SOL     OW10411   5.411   2.930   2.232
 3171SOL    HW110412   5.430   3.020   2.272
 3171SOL    HW210413   5.322   2.898   2.262
 3172SOL     OW10414   0.236   4.764   0.094
 3172SOL    HW110415   0.137   4.748   0.088
 3172SOL    HW210416   0.280   4.730   0.011
 3173SOL     OW10417   2.746   1.744   6.611
 3173SOL    HW110418   2.714   1.815   6.548
 3173SOL    HW210419   2.839   1.717   6.587
 3174SOL     OW10420   2.504   2.724   5.839
 3174SOL    HW110421   2.495   2.807   5.893
 3174SOL    HW210422   2.507   2.747   5.742
 3175SOL     OW10423   6.376   1.245   2.909
 3175SOL    HW110424   6.411   1.208   2.822
 3175SOL    HW210425   6.438   1.220   2.983
 3176SOL     OW10426   6.957   3.812   4.521
 3176SOL    HW110427   6.992   3.905   4.527
 3176SOL    HW210428   7.019   3.756   4.466
 3177SOL     OW10429   5.407   4.180   3.434
 3177SOL    HW110430   5.405   4.081   3.424
 3177SOL    HW210431   5.476   4.218   3.373
 3178SOL     OW10432   5.485   2.160   0.359
 3178SOL    HW110433   5.569   2.214   0.367
 3178SOL    HW210434   5.483   2.090   0.430
 3179SOL     OW10435   1.190   1.538   2.168
 3179SOL    HW110436   1.225   1.451   2.203
 3179SOL    HW210437   1.151   1.591   2.244
 3180SOL     OW10438   5.797   6.462   0.046
 3180SOL    HW110439   5.895   6.453   0.031
 3180SOL    HW210440   5.749   6.389   7.019
 3181SOL     OW10441   0.132   1.416   4.288
 3181SOL    HW110442   0.041   1.456   4.276
 3181SOL    HW210443   0.133   1.323   4.249
 3182SOL     OW10444   3.051   0.276   0.680
 3182SOL    HW110445   3.070   0.237   0.589
 3182SOL    HW210446   3.002   0.362   0.669
 3183SOL     OW10447   4.744   4.775   2.223
 3183SOL    HW110448   4.687   4.698   2.252
 3183SOL    HW210449   4.840   4.756   2.247
 3184SOL     OW10450   0.544   2.018   3.602
 3184SOL    HW110451   0.496   2.011   3.515
 3184SOL    HW210452   0.541   1.930   3.650
 3185SOL     OW10453   6.420   6.771   5.245
 3185SOL    HW110454   6.403   6.705   5.318
 3185SOL    HW210455   6.366   6.854   5.261
 3186SOL     OW10456   1.751   0.861   6.841
 3186SOL    HW110457   1.743   0.945   6.894
 3186SOL    HW210458   1.668   0.848   6.786
 3187SOL     OW10459   3.515   5.167   2.300
 3187SOL    HW110460   3.595   5.109   2.284
 3187SOL    HW210461   3.436   5.129   2.252
 3188SOL     OW10462   1.998   5.100   4.762
 3188SOL    HW110463   1.963   5.044   4.687
 3188SOL    HW210464   2.025   5.190   4.727
 3189SOL     OW10465   2.341   1.028   0.127
 3189SOL    HW110466   2.269   1.097   0.133
 3189SOL    HW210467   2.410   1.047   0.198
 3190SOL     OW10468   6.595   5.467   6.135
 3190SOL    HW110469   6.656   5.416   6.075
 3190SOL    HW210470   6.506   5.479   6.091
 3191SOL     OW10471   4.606   5.368   2.105
 3191SOL    HW110472   4.519   5.335   2.070
 3191SOL    HW210473   4.594   5.404   2.197
 3192SOL     OW10474   6.804   2.808   1.426
 3192SOL    HW110475   6.804   2.904   1.396
 3192SOL    HW210476   6.897   2.782   1.452
 3193SOL     OW10477   4.034   1.126   5.198
 3193SOL    HW110478   4.025   1.151   5.295
 3193SOL    HW210479   4.061   1.207   5.146
 3194SOL     OW10480   0.784   1.371   5.751
 3194SOL    HW110481   0.795   1.352   5.653
 3194SOL    HW210482   0.740   1.294   5.796
 3195SOL     OW10483   0.964   1.595   1.992
 3195SOL    HW110484   1.034   1.585   2.063
 3195SOL    HW210485   0.909   1.511   1.988
 3196SOL     OW10486   0.046   0.969   6.141
 3196SOL    HW110487   0.062   0.872   6.160
 3196SOL    HW210488   0.107   1.024   6.198
 3197SOL     OW10489   2.589   6.723   5.768
 3197SOL    HW110490   2.526   6.645   5.766
 3197SOL    HW210491   2.577   6.778   5.685
 3198SOL     OW10492   6.213   2.223   3.939
 3198SOL    HW110493   6.131   2.281   3.946
 3198SOL    HW210494   6.268   2.234   4.021
 3199SOL     OW10495   5.473   4.777   2.954
 3199SOL    HW110496   5.384   4.819   2.976
 3199SOL    HW210497   5.491   4.704   3.019
 3200SOL     OW10498   6.435   3.245   3.524
 3200SOL    HW110499   6.364   3.187   3.564
 3200SOL    HW210500   6.510   3.188   3.491
 3201SOL     OW10501   6.500   4.792   3.292
 3201SOL    HW110502   6.503   4.863   3.362
 3201SOL    HW210503   6.405   4.761   3.281
 3202SOL     OW10504   1.074   5.269   0.896
 3202SOL    HW110505   1.029   5.358   0.895
 3202SOL    HW210506   1.006   5.198   0.878
 3203SOL     OW10507   4.561   0.613   1.522
 3203SOL    HW110508   4.606   0.695   1.554
 3203SOL    HW210509   4.497   0.580   1.592
 3204SOL     OW10510   3.122   1.860   3.294
 3204SOL    HW110511   3.193   1.908   3.242
 3204SOL    HW210512   3.080   1.790   3.237
 3205SOL     OW10513   5.261   3.310   6.083
 3205SOL    HW110514   5.166   3.331   6.058
 3205SOL    HW210515   5.262   3.244   6.158
 3206SOL     OW10516   3.011   3.213   1.638
 3206SOL    HW110517   3.060   3.127   1.631
 3206SOL    HW210518   3.033   3.270   1.559
 3207SOL     OW10519   0.948   0.909   6.182
 3207SOL    HW110520   1.001   0.832   6.147
 3207SOL    HW210521   0.866   0.875   6.228
 3208SOL     OW10522   5.671   5.547   6.086
 3208SOL    HW110523   5.741   5.522   6.019
 3208SOL    HW210524   5.703   5.524   6.178
 3209SOL     OW10525   3.817   5.662   5.081
 3209SOL    HW110526   3.857   5.701   4.998
 3209SOL    HW210527   3.869   5.581   5.108
 3210SOL     OW10528   0.339   5.144   1.457
 3210SOL    HW110529   0.312   5.136   1.553
 3210SOL    HW210530   0.280   5.210   1.410
 3211SOL     OW10531   1.761   4.632   0.840
 3211SOL    HW110532   1.768   4.532   0.844
 3211SOL    HW210533   1.669   4.660   0.867
 3212SOL     OW10534   3.421   0.126   2.489
 3212SOL    HW110535   3.409   0.216   2.447
 3212SOL    HW210536   3.331   0.087   2.510
 3213SOL     OW10537   1.693   0.558   6.230
 3213SOL    HW110538   1.731   0.619   6.300
 3213SOL    HW210539   1.712   0.596   6.140
 3214SOL     OW10540   4.950   6.968   3.277
 3214SOL    HW110541   4.884   6.969   3.202
 3214SOL    HW210542   4.945   0.032   3.327
 3215SOL     OW10543   0.775   3.450   0.119
 3215SOL    HW110544   0.803   3.364   0.076
 3215SOL    HW210545   0.721   3.504   0.054
 3216SOL     OW10546   5.620   5.205   1.309
 3216SOL    HW110547   5.714   5.237   1.325
 3216SOL    HW210548   5.580   5.257   1.234
 3217SOL     OW10549   0.234   5.141   2.445
 3217SOL    HW110550   0.195   5.228   2.413
 3217SOL    HW210551   0.222   5.072   2.373
 3218SOL     OW10552   5.587   2.552   3.478
 3218SOL    HW110553   5.661   2.488   3.496
 3218SOL    HW210554   5.613   2.643   3.508
 3219SOL     OW10555   6.981   1.111   5.067
 3219SOL    HW110556   0.055   1.124   5.045
 3219SOL    HW210557   6.942   1.197   5.099
 3220SOL     OW10558   0.707   5.854   6.666
 3220SOL    HW110559   0.793   5.842   6.616
 3220SOL    HW210560   0.703   5.790   6.743
 3221SOL     OW10561   4.028   0.018   2.528
 3221SOL    HW110562   3.949   0.063   2.485
 3221SOL    HW210563   4.112   0.049   2.484
 3222SOL     OW10564   2.579   1.329   2.712
 3222SOL    HW110565   2.655   1.264   2.704
 3222SOL    HW210566   2.499   1.282   2.748
 3223SOL     OW10567   2.095   6.592   0.312
 3223SOL    HW110568   2.075   6.622   0.405
 3223SOL    HW210569   2.113   6.494   0.312
 3224SOL     OW10570   5.150   2.351   5.331
 3224SOL    HW110571   5.170   2.289   5.407
 3224SOL    HW210572   5.186   2.442   5.353
 3225SOL     OW10573   4.462   1.367   4.952
 3225SOL    HW110574   4.557   1.353   4.981
 3225SOL    HW210575   4.418   1.434   5.012
 3226SOL     OW10576   1.598   0.322   1.958
 3226SOL    HW110577   1.644   0.294   1.873
 3226SOL    HW210578   1.650   0.395   2.001
 3227SOL     OW10579   3.583   2.158   6.544
 3227SOL    HW110580   3.626   2.071   6.569
 3227SOL    HW210581   3.639   2.234   6.577
 3228SOL     OW10582   0.128   3.886   0.497
 3228SOL    HW110583   0.207   3.881   0.557
 3228SOL    HW210584   0.116   3.799   0.449
 3229SOL     OW10585   3.338   0.746   5.611
 3229SOL    HW110586   3.403   0.718   5.540
 3229SOL    HW210587   3.352   0.691   5.693
 3230SOL     OW10588   2.046   5.612   6.280
 3230SOL    HW110589   2.103   5.694   6.280
 3230SOL    HW210590   2.092   5.540   6.228
 3231SOL     OW10591   2.993   1.088   2.732
 3231SOL    HW110592   3.058   1.046   2.796
 3231SOL    HW210593   3.002   1.187   2.736
 3232SOL     OW10594   4.030   5.628   3.897
 3232SOL    HW110595   4.035   5.694   3.972
 3232SOL    HW210596   3.952   5.650   3.839
 3233SOL     OW10597   6.692   2.961   0.905
 3233SOL    HW110598   6.713   2.995   0.997
 3233SOL    HW210599   6.777   2.951   0.853
 3234SOL     OW10600   1.696   2.661   0.054
 3234SOL    HW110601   1.671   2.572   0.090
 3234SOL    HW210602   1.769   2.701   0.109
 3235SOL     OW10603   6.398   6.090   1.935
 3235SOL    HW110604   6.370   6.017   1.872
 3235SOL    HW210605   6.419   6.050   2.025
 3236SOL     OW10606   2.015   4.050   0.769
 3236SOL    HW110607   2.100   3.998   0.776
 3236SOL    HW210608   2.014   4.101   0.683
 3237SOL     OW10609   6.359   1.794   4.148
 3237SOL    HW110610   6.406   1.830   4.067
 3237SOL    HW210611   6.331   1.870   4.206
 3238SOL     OW10612   6.046   5.318   0.014
 3238SOL    HW110613   6.083   5.411   0.027
 3238SOL    HW210614   6.112   5.251   0.049
 3239SOL     OW10615   6.865   0.368   3.980
 3239SOL    HW110616   6.863   0.270   4.001
 3239SOL    HW210617   6.801   0.386   3.905
 3240SOL     OW10618   0.037   0.706   6.179
 3240SOL    HW110619   0.027   0.685   6.082
 3240SOL    HW210620   0.048   0.621   6.230
 3241SOL     OW10621   4.606   1.433   6.497
 3241SOL    HW110622   4.568   1.371   6.428
 3241SOL    HW210623   4.705   1.425   6.498
 3242SOL     OW10624   4.545   3.813   6.074
 3242SOL    HW110625   4.494   3.888   6.115
 3242SOL    HW210626   4.586   3.757   6.145
 3243SOL     OW10627   4.813   4.734   0.174
 3243SOL    HW110628   4.738   4.746   0.109
 3243SOL    HW210629   4.786   4.668   0.245
 3244SOL     OW10630   5.586   6.066   0.074
 3244SOL    HW110631   5.645   6.079   0.154
 3244SOL    HW210632   5.627   6.110   7.017
 3245SOL     OW10633   4.523   2.481   4.137
 3245SOL    HW110634   4.616   2.482   4.099
 3245SOL    HW210635   4.521   2.421   4.217
 3246SOL     OW10636   6.797   0.059   2.862
 3246SOL    HW110637   6.797   0.152   2.823
 3246SOL    HW210638   6.784   0.065   2.961
 3247SOL     OW10639   6.927   4.647   2.367
 3247SOL    HW110640   6.994   4.705   2.413
 3247SOL    HW210641   6.881   4.701   2.296
 3248SOL     OW10642   5.705   2.659   2.142
 3248SOL    HW110643   5.678   2.566   2.166
 3248SOL    HW210644   5.801   2.674   2.167
 3249SOL     OW10645   4.083   3.663   4.200
 3249SOL    HW110646   3.988   3.689   4.185
 3249SOL    HW210647   4.094   3.629   4.293
 3250SOL     OW10648   5.022   6.635   3.499
 3250SOL    HW110649   4.961   6.556   3.493
 3250SOL    HW210650   4.973   6.711   3.542
 3251SOL     OW10651   2.524   1.221   4.419
 3251SOL    HW110652   2.622   1.241   4.414
 3251SOL    HW210653   2.503   1.179   4.507
 3252SOL     OW10654   2.885   1.347   2.671
 3252SOL    HW110655   2.886   1.408   2.751
 3252SOL    HW210656   2.818   1.381   2.605
 3253SOL     OW10657   4.616   3.681   1.413
 3253SOL    HW110658   4.606   3.601   1.472
 3253SOL    HW210659   4.527   3.727   1.405
 3254SOL     OW10660   5.061   6.766   6.241
 3254SOL    HW110661   4.985   6.765   6.306
 3254SOL    HW210662   5.139   6.813   6.282
 3255SOL     OW10663   5.918   6.145   1.133
 3255SOL    HW110664   5.946   6.188   1.219
 3255SOL    HW210665   5.873   6.212   1.075
 3256SOL     OW10666   4.297   2.271   1.302
 3256SOL    HW110667   4.255   2.346   1.353
 3256SOL    HW210668   4.247   2.256   1.217
 3257SOL     OW10669   3.054   2.116   1.983
 3257SOL    HW110670   3.127   2.084   2.043
 3257SOL    HW210671   3.001   2.187   2.031
 3258SOL     OW10672   3.258   5.136   3.195
 3258SOL    HW110673   3.165   5.099   3.204
 3258SOL    HW210674   3.263   5.194   3.113
 3259SOL     OW10675   5.324   5.166   4.076
 3259SOL    HW110676   5.374   5.081   4.061
 3259SOL    HW210677   5.226   5.149   4.068
 3260SOL     OW10678   1.856   3.758   2.501
 3260SOL    HW110679   1.927   3.782   2.435
 3260SOL    HW210680   1.767   3.788   2.465
 3261SOL     OW10681   4.789   0.691   2.455
 3261SOL    HW110682   4.856   0.617   2.454
 3261SOL    HW210683   4.697   0.653   2.457
 3262SOL     OW10684   4.011   2.217   2.313
 3262SOL    HW110685   3.962   2.132   2.289
 3262SOL    HW210686   3.960   2.266   2.383
 3263SOL     OW10687   3.508   1.342   3.822
 3263SOL    HW110688   3.496   1.416   3.888
 3263SOL    HW210689   3.465   1.368   3.735
 3264SOL     OW10690   2.011   4.760   0.885
 3264SOL    HW110691   1.921   4.716   0.885
 3264SOL    HW210692   2.069   4.716   0.954
 3265SOL     OW10693   6.001   5.993   5.831
 3265SOL    HW110694   5.957   6.056   5.895
 3265SOL    HW210695   6.003   6.035   5.740
 3266SOL     OW10696   2.798   4.392   0.019
 3266SOL    HW110697   2.727   4.452   7.005
 3266SOL    HW210698   2.868   4.447   0.064
 3267SOL     OW10699   3.497   0.276   2.004
 3267SOL    HW110700   3.481   0.233   1.915
 3267SOL    HW210701   3.572   0.229   2.051
 3268SOL     OW10702   1.182   4.790   1.399
 3268SOL    HW110703   1.160   4.827   1.489
 3268SOL    HW210704   1.129   4.706   1.384
 3269SOL     OW10705   0.260   5.128   2.089
 3269SOL    HW110706   0.232   5.104   2.182
 3269SOL    HW210707   0.199   5.198   2.052
 3270SOL     OW10708   1.821   2.910   6.189
 3270SOL    HW110709   1.744   2.884   6.248
 3270SOL    HW210710   1.794   2.896   6.093
 3271SOL     OW10711   6.724   3.533   1.734
 3271SOL    HW110712   6.660   3.487   1.672
 3271SOL    HW210713   6.673   3.583   1.803
 3272SOL     OW10714   3.505   4.410   6.779
 3272SOL    HW110715   3.460   4.425   6.867
 3272SOL    HW210716   3.456   4.339   6.728
 3273SOL     OW10717   5.495   4.704   6.140
 3273SOL    HW110718   5.423   4.769   6.115
 3273SOL    HW210719   5.455   4.624   6.183
 3274SOL     OW10720   5.814   0.215   0.752
 3274SOL    HW110721   5.795   0.136   0.694
 3274SOL    HW210722   5.752   0.215   0.831
 3275SOL     OW10723   4.646   1.060   0.384
 3275SOL    HW110724   4.695   0.981   0.422
 3275SOL    HW210725   4.694   1.144   0.410
 3276SOL     OW10726   4.437   6.501   0.215
 3276SOL    HW110727   4.494   6.433   0.260
 3276SOL    HW210728   4.491   6.584   0.198
 3277SOL     OW10729   3.208   1.108   1.045
 3277SOL    HW110730   3.242   1.190   1.091
 3277SOL    HW210731   3.148   1.135   0.969
 3278SOL     OW10732   6.880   0.455   5.594
 3278SOL    HW110733   6.837   0.370   5.565
 3278SOL    HW210734   6.922   0.443   5.684
 3279SOL     OW10735   4.881   6.837   1.027
 3279SOL    HW110736   4.976   6.865   1.030
 3279SOL    HW210737   4.842   6.842   1.119
 3280SOL     OW10738   4.901   4.639   4.033
 3280SOL    HW110739   4.920   4.561   4.092
 3280SOL    HW210740   4.970   4.710   4.048
 3281SOL     OW10741   0.151   4.585   1.303
 3281SOL    HW110742   0.193   4.668   1.266
 3281SOL    HW210743   0.163   4.510   1.239
 3282SOL     OW10744   0.015   3.845   4.994
 3282SOL    HW110745   7.002   3.907   4.924
 3282SOL    HW210746   0.018   3.892   5.082
 3283SOL     OW10747   4.034   1.335   1.100
 3283SOL    HW110748   4.109   1.269   1.091
 3283SOL    HW210749   3.958   1.308   1.041
 3284SOL     OW10750   0.789   5.518   4.896
 3284SOL    HW110751   0.734   5.580   4.953
 3284SOL    HW210752   0.881   5.554   4.888
 3285SOL     OW10753   5.761   1.847   4.703
 3285SOL    HW110754   5.676   1.802   4.675
 3285SOL    HW210755   5.830   1.779   4.725
 3286SOL     OW10756   3.359   2.491   1.616
 3286SOL    HW110757   3.444   2.494   1.564
 3286SOL    HW210758   3.286   2.456   1.557
 3287SOL     OW10759   0.425   0.356   0.267
 3287SOL    HW110760   0.399   0.266   0.235
 3287SOL    HW210761   0.361   0.425   0.231
 3288SOL     OW10762   2.052   6.768   0.830
 3288SOL    HW110763   2.117   6.757   0.904
 3288SOL    HW210764   2.040   6.865   0.809
 3289SOL     OW10765   2.523   1.855   6.245
 3289SOL    HW110766   2.575   1.909   6.311
 3289SOL    HW210767   2.540   1.758   6.261
 3290SOL     OW10768   6.976   5.588   1.023
 3290SOL    HW110769   6.972   5.581   1.122
 3290SOL    HW210770   7.010   5.502   0.985
 3291SOL     OW10771   3.264   0.587   5.828
 3291SOL    HW110772   3.353   0.554   5.857
 3291SOL    HW210773   3.214   0.513   5.782
 3292SOL     OW10774   6.843   1.145   1.074
 3292SOL    HW110775   6.938   1.151   1.042
 3292SOL    HW210776   6.841   1.151   1.174
 3293SOL     OW10777   6.832   4.869   1.729
 3293SOL    HW110778   6.760   4.828   1.673
 3293SOL    HW210779   6.894   4.920   1.670
 3294SOL     OW10780   5.255   2.107   5.829
 3294SOL    HW110781   5.233   2.045   5.753
 3294SOL    HW210782   5.198   2.189   5.822
 3295SOL     OW10783   1.961   3.367   0.878
 3295SOL    HW110784   1.975   3.453   0.928
 3295SOL    HW210785   2.038   3.352   0.817
 3296SOL     OW10786   6.906   0.305   4.749
 3296SOL    HW110787   7.001   0.326   4.728
 3296SOL    HW210788   6.848   0.383   4.725
 3297SOL     OW10789   3.658   1.776   5.234
 3297SOL    HW110790   3.605   1.840   5.289
 3297SOL    HW210791   3.661   1.687   5.279
 3298SOL     OW10792   6.691   2.586   5.753
 3298SOL    HW110793   6.598   2.621   5.738
 3298SOL    HW210794   6.690   2.486   5.752
 3299SOL     OW10795   4.426   6.289   2.802
 3299SOL    HW110796   4.421   6.347   2.883
 3299SOL    HW210797   4.506   6.314   2.748
 3300SOL     OW10798   1.621   0.449   5.813
 3300SOL    HW110799   1.576   0.407   5.734
 3300SOL    HW210800   1.650   0.378   5.877
 3301SOL     OW10801   1.548   3.960   3.435
 3301SOL    HW110802   1.549   4.053   3.400
 3301SOL    HW210803   1.635   3.940   3.481
 3302SOL     OW10804   1.691   4.353   6.843
 3302SOL    HW110805   1.623   4.321   6.908
 3302SOL    HW210806   1.774   4.380   6.892
 3303SOL     OW10807   3.430   2.786   0.328
 3303SOL    HW110808   3.395   2.826   0.243
 3303SOL    HW210809   3.360   2.794   0.399
 3304SOL     OW10810   2.091   4.982   5.889
 3304SOL    HW110811   2.088   4.927   5.806
 3304SOL    HW210812   2.143   5.065   5.873
 3305SOL     OW10813   3.080   0.572   1.713
 3305SOL    HW110814   3.035   0.558   1.801
 3305SOL    HW210815   3.017   0.548   1.639
 3306SOL     OW10816   1.274   6.081   5.881
 3306SOL    HW110817   1.357   6.118   5.923
 3306SOL    HW210818   1.287   5.984   5.861
 3307SOL     OW10819   0.996   6.926   5.793
 3307SOL    HW110820   0.949   6.841   5.818
 3307SOL    HW210821   0.933   7.003   5.800
 3308SOL     OW10822   3.566   5.492   0.921
 3308SOL    HW110823   3.587   5.399   0.894
 3308SOL    HW210824   3.573   5.552   0.841
 3309SOL     OW10825   6.128   4.521   3.671
 3309SOL    HW110826   6.185   4.455   3.719
 3309SOL    HW210827   6.041   4.477   3.646
 3310SOL     OW10828   0.285   4.187   4.579
 3310SOL    HW110829   0.341   4.159   4.500
 3310SOL    HW210830   0.270   4.285   4.576
 3311SOL     OW10831   3.175   3.047   0.964
 3311SOL    HW110832   3.113   3.125   0.960
 3311SOL    HW210833   3.124   2.964   0.985
 3312SOL     OW10834   4.207   2.897   5.684
 3312SOL    HW110835   4.223   2.800   5.698
 3312SOL    HW210836   4.148   2.910   5.604
 3313SOL     OW10837   0.580   0.580   3.268
 3313SOL    HW110838   0.572   0.659   3.206
 3313SOL    HW210839   0.649   0.517   3.233
 3314SOL     OW10840   2.793   0.361   2.479
 3314SOL    HW110841   2.877   0.319   2.512
 3314SOL    HW210842   2.793   0.458   2.501
 3315SOL     OW10843   0.522   4.932   5.497
 3315SOL    HW110844   0.545   4.885   5.411
 3315SOL    HW210845   0.597   4.994   5.521
 3316SOL     OW10846   3.748   1.075   5.140
 3316SOL    HW110847   3.746   1.059   5.239
 3316SOL    HW210848   3.834   1.119   5.115
 3317SOL     OW10849   5.844   1.820   2.412
 3317SOL    HW110850   5.888   1.736   2.444
 3317SOL    HW210851   5.751   1.799   2.382
 3318SOL     OW10852   2.097   0.703   6.437
 3318SOL    HW110853   2.179   0.726   6.489
 3318SOL    HW210854   2.017   0.707   6.498
 3319SOL     OW10855   6.258   0.077   3.093
 3319SOL    HW110856   6.196   0.098   3.168
 3319SOL    HW210857   6.345   0.125   3.108
 3320SOL     OW10858   6.458   0.350   0.333
 3320SOL    HW110859   6.535   0.350   0.396
 3320SOL    HW210860   6.388   0.414   0.365
 3321SOL     OW10861   6.008   1.050   0.941
 3321SOL    HW110862   5.910   1.069   0.947
 3321SOL    HW210863   6.057   1.110   1.004
 3322SOL     OW10864   0.035   2.877   0.966
 3322SOL    HW110865   0.012   2.973   0.945
 3322SOL    HW210866   0.114   2.875   1.027
 3323SOL     OW10867   2.627   1.703   1.036
 3323SOL    HW110868   2.551   1.638   1.036
 3323SOL    HW210869   2.654   1.723   1.130
 3324SOL     OW10870   4.710   5.149   5.008
 3324SOL    HW110871   4.699   5.117   5.102
 3324SOL    HW210872   4.691   5.247   5.003
 3325SOL     OW10873   0.355   3.100   6.308
 3325SOL    HW110874   0.450   3.112   6.333
 3325SOL    HW210875   0.306   3.186   6.318
 3326SOL     OW10876   4.966   1.588   1.943
 3326SOL    HW110877   4.868   1.585   1.922
 3326SOL    HW210878   5.010   1.506   1.907
 3327SOL     OW10879   2.415   5.645   1.489
 3327SOL    HW110880   2.326   5.662   1.447
 3327SOL    HW210881   2.406   5.579   1.564
 3328SOL     OW10882   3.436   1.803   1.242
 3328SOL    HW110883   3.461   1.811   1.339
 3328SOL    HW210884   3.459   1.711   1.210
 3329SOL     OW10885   6.600   0.042   5.367
 3329SOL    HW110886   6.651   0.128   5.364
 3329SOL    HW210887   6.512   0.054   5.321
 3330SOL     OW10888   5.964   3.644   2.033
 3330SOL    HW110889   5.897   3.696   2.086
 3330SOL    HW210890   6.047   3.698   2.023
 3331SOL     OW10891   2.560   2.741   1.071
 3331SOL    HW110892   2.496   2.805   1.029
 3331SOL    HW210893   2.587   2.775   1.161
 3332SOL     OW10894   5.855   5.661   0.013
 3332SOL    HW110895   5.829   5.601   0.089
 3332SOL    HW210896   5.853   5.756   0.043
 3333SOL     OW10897   4.287   5.436   6.267
 3333SOL    HW110898   4.372   5.394   6.236
 3333SOL    HW210899   4.249   5.382   6.342
 3334SOL     OW10900   3.260   3.492   1.620
 3334SOL    HW110901   3.314   3.420   1.664
 3334SOL    HW210902   3.316   3.574   1.611
 3335SOL     OW10903   4.716   5.720   5.478
 3335SOL    HW110904   4.728   5.625   5.508
 3335SOL    HW210905   4.744   5.728   5.382
 3336SOL     OW10906   3.040   5.171   5.392
 3336SOL    HW110907   3.121   5.119   5.364
 3336SOL    HW210908   2.984   5.193   5.312
 3337SOL     OW10909   3.097   2.352   1.516
 3337SOL    HW110910   3.095   2.374   1.614
 3337SOL    HW210911   3.032   2.409   1.467
 3338SOL     OW10912   6.274   3.339   1.593
 3338SOL    HW110913   6.260   3.410   1.662
 3338SOL    HW210914   6.242   3.251   1.628
 3339SOL     OW10915   0.090   6.407   6.833
 3339SOL    HW110916   0.036   6.491   6.834
 3339SOL    HW210917   0.029   6.328   6.844
 3340SOL     OW10918   3.778   0.233   1.676
 3340SOL    HW110919   3.731   0.151   1.709
 3340SOL    HW210920   3.877   0.220   1.684
 3341SOL     OW10921   1.336   0.084   3.700
 3341SOL    HW110922   1.416   0.025   3.707
 3341SOL    HW210923   1.356   0.172   3.744
 3342SOL     OW10924   2.345   0.055   4.005
 3342SOL    HW110925   2.360   0.099   3.916
 3342SOL    HW210926   2.424   0.074   4.064
 3343SOL     OW10927   4.925   2.859   0.158
 3343SOL    HW110928   4.993   2.831   0.226
 3343SOL    HW210929   4.947   2.950   0.125
 3344SOL     OW10930   5.537   4.231   4.856
 3344SOL    HW110931   5.483   4.148   4.870
 3344SOL    HW210932   5.598   4.218   4.778
 3345SOL     OW10933   2.669   3.865   6.049
 3345SOL    HW110934   2.734   3.931   6.011
 3345SOL    HW210935   2.576   3.898   6.036
 3346SOL     OW10936   0.951   1.046   1.911
 3346SOL    HW110937   1.000   1.042   1.998
 3346SOL    HW210938   0.973   1.132   1.865
 3347SOL     OW10939   0.236   4.838   3.533
 3347SOL    HW110940   0.183   4.753   3.526
 3347SOL    HW210941   0.193   4.899   3.600
 3348SOL     OW10942   3.057   3.042   3.652
 3348SOL    HW110943   2.961   3.068   3.660
 3348SOL    HW210944   3.114   3.125   3.649
 3349SOL     OW10945   0.287   4.448   4.573
 3349SOL    HW110946   0.365   4.479   4.520
 3349SOL    HW210947   0.205   4.497   4.543
 3350SOL     OW10948   1.632   1.742   6.435
 3350SOL    HW110949   1.669   1.803   6.364
 3350SOL    HW210950   1.546   1.703   6.402
 3351SOL     OW10951   5.137   0.649   2.279
 3351SOL    HW110952   5.118   0.686   2.371
 3351SOL    HW210953   5.078   0.571   2.262
 3352SOL     OW10954   6.805   3.301   0.189
 3352SOL    HW110955   6.705   3.301   0.196
 3352SOL    HW210956   6.831   3.322   0.094
 3353SOL     OW10957   1.543   6.905   2.227
 3353SOL    HW110958   1.513   6.908   2.132
 3353SOL    HW210959   1.631   6.953   2.236
 3354SOL     OW10960   6.866   2.595   3.756
 3354SOL    HW110961   6.901   2.605   3.849
 3354SOL    HW210962   6.787   2.535   3.756
 3355SOL     OW10963   0.871   1.435   0.104
 3355SOL    HW110964   0.839   1.521   0.063
 3355SOL    HW210965   0.963   1.449   0.142
 3356SOL     OW10966   2.443   2.483   0.273
 3356SOL    HW110967   2.381   2.478   0.351
 3356SOL    HW210968   2.425   2.566   0.221
 3357SOL     OW10969   2.349   4.699   1.936
 3357SOL    HW110970   2.326   4.671   2.030
 3357SOL    HW210971   2.333   4.622   1.874
 3358SOL     OW10972   4.671   6.215   1.760
 3358SOL    HW110973   4.639   6.121   1.749
 3358SOL    HW210974   4.751   6.216   1.820
 3359SOL     OW10975   0.219   0.528   3.637
 3359SOL    HW110976   0.174   0.617   3.645
 3359SOL    HW210977   0.284   0.530   3.560
 3360SOL     OW10978   0.148   1.090   1.037
 3360SOL    HW110979   0.183   1.086   1.131
 3360SOL    HW210980   0.147   0.998   0.999
 3361SOL     OW10981   6.704   4.818   2.617
 3361SOL    HW110982   6.761   4.834   2.697
 3361SOL    HW210983   6.612   4.852   2.634
 3362SOL     OW10984   3.271   1.370   4.745
 3362SOL    HW110985   3.310   1.338   4.659
 3362SOL    HW210986   3.343   1.408   4.803
 3363SOL     OW10987   0.349   0.322   6.395
 3363SOL    HW110988   0.396   0.398   6.349
 3363SOL    HW210989   0.406   0.240   6.393
 3364SOL     OW10990   0.860   4.960   5.493
 3364SOL    HW110991   0.958   4.952   5.472
 3364SOL    HW210992   0.836   5.057   5.502
 3365SOL     OW10993   0.196   2.865   4.438
 3365SOL    HW110994   0.177   2.892   4.344
 3365SOL    HW210995   0.219   2.947   4.492
 3366SOL     OW10996   6.249   0.737   4.720
 3366SOL    HW110997   6.174   0.802   4.707
 3366SOL    HW210998   6.335   0.781   4.698
 3367SOL     OW10999   2.277   2.891   1.873
 3367SOL    HW111000   2.196   2.866   1.822
 3367SOL    HW211001   2.331   2.810   1.894
 3368SOL     OW11002   0.243   5.760   6.754
 3368SOL    HW111003   0.233   5.829   6.826
 3368SOL    HW211004   0.318   5.785   6.694
 3369SOL     OW11005   3.810   2.001   6.597
 3369SOL    HW111006   3.863   2.009   6.682
 3369SOL    HW211007   3.850   1.929   6.540
 3370SOL     OW11008   6.367   6.227   5.222
 3370SOL    HW111009   6.442   6.225   5.156
 3370SOL    HW211010   6.291   6.172   5.188
 3371SOL     OW11011   1.087   4.533   2.598
 3371SOL    HW111012   0.991   4.527   2.626
 3371SOL    HW211013   1.120   4.627   2.610
 3372SOL     OW11014   1.276   1.672   2.472
 3372SOL    HW111015   1.374   1.688   2.471
 3372SOL    HW211016   1.227   1.759   2.468
 3373SOL     OW11017   6.722   1.467   3.904
 3373SOL    HW111018   6.762   1.384   3.866
 3373SOL    HW211019   6.794   1.523   3.945
 3374SOL     OW11020   3.256   5.579   4.698
 3374SOL    HW111021   3.309   5.496   4.683
 3374SOL    HW211022   3.220   5.580   4.791
 3375SOL     OW11023   4.258   4.720   4.809
 3375SOL    HW111024   4.266   4.664   4.727
 3375SOL    HW211025   4.286   4.667   4.889
 3376SOL     OW11026   4.114   3.349   2.864
 3376SOL    HW111027   4.119   3.280   2.937
 3376SOL    HW211028   4.023   3.348   2.823
 3377SOL     OW11029   0.780   6.281   4.667
 3377SOL    HW111030   0.728   6.270   4.752
 3377SOL    HW211031   0.720   6.320   4.597
 3378SOL     OW11032   6.766   0.480   1.852
 3378SOL    HW111033   6.671   0.468   1.825
 3378SOL    HW211034   6.811   0.544   1.789
 3379SOL     OW11035   0.469   4.595   6.089
 3379SOL    HW111036   0.369   4.594   6.075
 3379SOL    HW211037   0.510   4.665   6.031
 3380SOL     OW11038   6.339   5.516   6.051
 3380SOL    HW111039   6.334   5.610   6.018
 3380SOL    HW211040   6.248   5.486   6.080
 3381SOL     OW11041   1.736   2.283   0.416
 3381SOL    HW111042   1.814   2.295   0.354
 3381SOL    HW211043   1.675   2.213   0.380
 3382SOL     OW11044   0.793   1.657   0.350
 3382SOL    HW111045   0.754   1.590   0.412
 3382SOL    HW211046   0.724   1.685   0.283
 3383SOL     OW11047   5.667   4.957   2.309
 3383SOL    HW111048   5.662   4.867   2.266
 3383SOL    HW211049   5.744   4.960   2.373
 3384SOL     OW11050   3.047   3.336   5.089
 3384SOL    HW111051   2.999   3.406   5.036
 3384SOL    HW211052   3.063   3.256   5.032
 3385SOL     OW11053   0.356   4.238   3.780
 3385SOL    HW111054   0.280   4.181   3.812
 3385SOL    HW211055   0.442   4.197   3.810
 3386SOL     OW11056   6.004   3.347   5.823
 3386SOL    HW111057   5.978   3.340   5.919
 3386SOL    HW211058   6.058   3.431   5.810
 3387SOL     OW11059   2.145   1.347   2.820
 3387SOL    HW111060   2.057   1.345   2.774
 3387SOL    HW211061   2.171   1.441   2.841
 3388SOL     OW11062   5.668   3.594   1.219
 3388SOL    HW111063   5.739   3.564   1.155
 3388SOL    HW211064   5.625   3.514   1.260
 3389SOL     OW11065   4.616   4.910   4.199
 3389SOL    HW111066   4.547   4.882   4.265
 3389SOL    HW211067   4.596   4.869   4.110
 3390SOL     OW11068   4.776   3.814   5.862
 3390SOL    HW111069   4.858   3.775   5.906
 3390SOL    HW211070   4.695   3.788   5.915
 3391SOL     OW11071   5.052   2.527   4.824
 3391SOL    HW111072   4.960   2.518   4.784
 3391SOL    HW211073   5.061   2.463   4.900
 3392SOL     OW11074   3.028   0.946   3.523
 3392SOL    HW111075   3.051   0.963   3.619
 3392SOL    HW211076   2.941   0.991   3.502
 3393SOL     OW11077   6.652   6.694   0.873
 3393SOL    HW111078   6.560   6.668   0.844
 3393SOL    HW211079   6.647   6.777   0.929
 3394SOL     OW11080   5.987   3.538   1.284
 3394SOL    HW111081   6.086   3.528   1.287
 3394SOL    HW211082   5.947   3.488   1.361
 3395SOL     OW11083   6.517   3.163   4.108
 3395SOL    HW111084   6.502   3.074   4.064
 3395SOL    HW211085   6.524   3.234   4.037
 3396SOL     OW11086   7.008   3.145   3.779
 3396SOL    HW111087   6.956   3.156   3.863
 3396SOL    HW211088   0.033   3.056   3.781
 3397SOL     OW11089   3.051   1.224   5.308
 3397SOL    HW111090   2.955   1.216   5.333
 3397SOL    HW211091   3.081   1.138   5.267
 3398SOL     OW11092   1.268   6.843   4.321
 3398SOL    HW111093   1.220   6.917   4.272
 3398SOL    HW211094   1.201   6.777   4.354
 3399SOL     OW11095   4.862   4.477   3.778
 3399SOL    HW111096   4.881   4.557   3.834
 3399SOL    HW211097   4.837   4.400   3.836
 3400SOL     OW11098   4.380   1.236   5.530
 3400SOL    HW111099   4.392   1.159   5.594
 3400SOL    HW211100   4.452   1.303   5.545
 3401SOL     OW11101   0.210   3.927   0.792
 3401SOL    HW111102   0.173   4.020   0.793
 3401SOL    HW211103   0.309   3.931   0.802
 3402SOL     OW11104   5.025   5.929   0.607
 3402SOL    HW111105   4.997   5.986   0.530
 3402SOL    HW211106   5.075   5.850   0.573
 3403SOL     OW11107   3.586   0.602   4.606
 3403SOL    HW111108   3.572   0.688   4.557
 3403SOL    HW211109   3.593   0.527   4.540
 3404SOL     OW11110   3.958   1.534   0.728
 3404SOL    HW111111   4.017   1.532   0.809
 3404SOL    HW211112   4.013   1.520   0.646
 3405SOL     OW11113   6.349   3.355   4.753
 3405SOL    HW111114   6.349   3.300   4.837
 3405SOL    HW211115   6.258   3.352   4.711
 3406SOL     OW11116   1.547   4.184   1.837
 3406SOL    HW111117   1.634   4.230   1.850
 3406SOL    HW211118   1.489   4.238   1.776
 3407SOL     OW11119   1.862   4.820   1.301
 3407SOL    HW111120   1.847   4.850   1.207
 3407SOL    HW211121   1.796   4.749   1.325
 3408SOL     OW11122   4.982   4.308   4.298
 3408SOL    HW111123   4.947   4.402   4.295
 3408SOL    HW211124   5.021   4.290   4.389
 3409SOL     OW11125   3.659   6.753   5.652
 3409SOL    HW111126   3.578   6.725   5.704
 3409SOL    HW211127   3.729   6.682   5.660
 3410SOL     OW11128   5.951   5.719   6.746
 3410SOL    HW111129   5.866   5.716   6.798
 3410SOL    HW211130   5.933   5.759   6.655
 3411SOL     OW11131   0.150   3.007   2.112
 3411SOL    HW111132   0.209   2.977   2.037
 3411SOL    HW211133   0.083   3.073   2.077
 3412SOL     OW11134   4.459   3.015   6.770
 3412SOL    HW111135   4.401   3.023   6.689
 3412SOL    HW211136   4.418   2.950   6.834
 3413SOL     OW11137   4.383   1.238   2.629
 3413SOL    HW111138   4.337   1.225   2.541
 3413SOL    HW211139   4.461   1.299   2.618
 3414SOL     OW11140   2.087   1.067   5.177
 3414SOL    HW111141   2.128   1.158   5.172
 3414SOL    HW211142   2.132   1.013   5.248
 3415SOL     OW11143   1.563   4.287   4.771
 3415SOL    HW111144   1.589   4.264   4.677
 3415SOL    HW211145   1.486   4.230   4.799
 3416SOL     OW11146   6.453   4.742   6.398
 3416SOL    HW111147   6.531   4.722   6.338
 3416SOL    HW211148   6.461   4.689   6.482
 3417SOL     OW11149   6.503   5.845   2.853
 3417SOL    HW111150   6.522   5.892   2.939
 3417SOL    HW211151   6.459   5.757   2.872
 3418SOL     OW11152   4.173   0.370   4.606
 3418SOL    HW111153   4.223   0.293   4.646
 3418SOL    HW211154   4.080   0.372   4.643
 3419SOL     OW11155   3.074   5.580   5.802
 3419SOL    HW111156   3.087   5.514   5.728
 3419SOL    HW211157   3.080   5.533   5.890
 3420SOL     OW11158   5.372   2.364   3.506
 3420SOL    HW111159   5.442   2.429   3.477
 3420SOL    HW211160   5.383   2.344   3.604
 3421SOL     OW11161   6.421   0.222   6.108
 3421SOL    HW111162   6.495   0.265   6.055
 3421SOL    HW211163   6.361   0.171   6.046
 3422SOL     OW11164   2.338   6.711   1.474
 3422SOL    HW111165   2.384   6.626   1.446
 3422SOL    HW211166   2.379   6.745   1.559
 3423SOL     OW11167   2.362   0.089   0.511
 3423SOL    HW111168   2.351   0.169   0.452
 3423SOL    HW211169   2.455   0.088   0.548
 3424SOL     OW11170   3.167   0.221   2.270
 3424SOL    HW111171   3.211   0.308   2.249
 3424SOL    HW211172   3.208   0.148   2.215
 3425SOL     OW11173   4.762   4.529   2.490
 3425SOL    HW111174   4.686   4.543   2.426
 3425SOL    HW211175   4.846   4.509   2.439
 3426SOL     OW11176   3.619   2.977   0.019
 3426SOL    HW111177   3.533   3.004   6.997
 3426SOL    HW211178   3.696   2.997   6.979
 3427SOL     OW11179   6.792   6.305   0.141
 3427SOL    HW111180   6.717   6.323   0.078
 3427SOL    HW211181   6.864   6.253   0.094
 3428SOL     OW11182   3.773   4.881   1.647
 3428SOL    HW111183   3.768   4.807   1.715
 3428SOL    HW211184   3.814   4.962   1.689
 3429SOL     OW11185   0.421   1.736   6.945
 3429SOL    HW111186   0.396   1.655   6.891
 3429SOL    HW211187   0.341   1.795   6.956
 3430SOL     OW11188   0.551   7.004   6.106
 3430SOL    HW111189   0.558   0.028   6.018
 3430SOL    HW211190   0.514   6.912   6.093
 3431SOL     OW11191   2.546   6.753   1.032
 3431SOL    HW111192   2.607   6.676   1.051
 3431SOL    HW211193   2.493   6.774   1.114
 3432SOL     OW11194   2.874   2.368   6.028
 3432SOL    HW111195   2.788   2.409   5.997
 3432SOL    HW211196   2.919   2.430   6.091
 3433SOL     OW11197   1.551   6.916   6.271
 3433SOL    HW111198   1.477   6.945   6.211
 3433SOL    HW211199   1.597   6.837   6.230
 3434SOL     OW11200   3.592   2.756   1.015
 3434SOL    HW111201   3.537   2.681   1.050
 3434SOL    HW211202   3.594   2.752   0.915
 3435SOL     OW11203   0.400   2.129   2.151
 3435SOL    HW111204   0.352   2.195   2.207
 3435SOL    HW211205   0.494   2.120   2.182
 3436SOL     OW11206   4.151   6.475   5.259
 3436SOL    HW111207   4.186   6.561   5.222
 3436SOL    HW211208   4.220   6.404   5.250
 3437SOL     OW11209   4.401   0.727   6.572
 3437SOL    HW111210   4.328   0.705   6.637
 3437SOL    HW211211   4.415   0.649   6.510
 3438SOL     OW11212   1.158   2.526   6.595
 3438SOL    HW111213   1.106   2.611   6.610
 3438SOL    HW211214   1.254   2.541   6.615
 3439SOL     OW11215   2.424   0.356   5.320
 3439SOL    HW111216   2.334   0.397   5.332
 3439SOL    HW211217   2.440   0.287   5.391
 3440SOL     OW11218   4.862   3.814   1.502
 3440SOL    HW111219   4.779   3.762   1.483
 3440SOL    HW211220   4.916   3.766   1.571
 3441SOL     OW11221   5.448   0.610   3.602
 3441SOL    HW111222   5.410   0.663   3.678
 3441SOL    HW211223   5.409   0.642   3.516
 3442SOL     OW11224   2.515   5.268   2.681
 3442SOL    HW111225   2.551   5.187   2.727
 3442SOL    HW211226   2.418   5.255   2.662
 3443SOL     OW11227   5.872   0.655   2.565
 3443SOL    HW111228   5.965   0.647   2.531
 3443SOL    HW211229   5.821   0.571   2.543
 3444SOL     OW11230   5.454   4.719   6.860
 3444SOL    HW111231   5.370   4.683   6.819
 3444SOL    HW211232   5.533   4.688   6.807
 3445SOL     OW11233   5.855   4.543   4.015
 3445SOL    HW111234   5.853   4.446   4.041
 3445SOL    HW211235   5.950   4.576   4.018
 3446SOL     OW11236   6.306   0.815   3.155
 3446SOL    HW111237   6.250   0.748   3.202
 3446SOL    HW211238   6.319   0.895   3.215
 3447SOL     OW11239   4.840   4.546   0.820
 3447SOL    HW111240   4.874   4.640   0.825
 3447SOL    HW211241   4.804   4.519   0.910
 3448SOL     OW11242   3.028   6.928   0.890
 3448SOL    HW111243   2.931   6.906   0.887
 3448SOL    HW211244   3.041   0.005   0.887
 3449SOL     OW11245   5.381   6.239   3.068
 3449SOL    HW111246   5.330   6.242   3.154
 3449SOL    HW211247   5.318   6.228   2.992
 3450SOL     OW11248   0.848   2.817   0.756
 3450SOL    HW111249   0.847   2.752   0.832
 3450SOL    HW211250   0.940   2.824   0.719
 3451SOL     OW11251   0.296   5.464   3.249
 3451SOL    HW111252   0.258   5.526   3.318
 3451SOL    HW211253   0.343   5.389   3.296
 3452SOL     OW11254   5.866   1.605   0.216
 3452SOL    HW111255   5.798   1.620   0.288
 3452SOL    HW211256   5.956   1.631   0.248
 3453SOL     OW11257   6.510   5.643   5.383
 3453SOL    HW111258   6.486   5.699   5.304
 3453SOL    HW211259   6.503   5.698   5.467
 3454SOL     OW11260   2.155   0.581   5.621
 3454SOL    HW111261   2.170   0.668   5.667
 3454SOL    HW211262   2.083   0.531   5.669
 3455SOL     OW11263   1.535   3.332   4.271
 3455SOL    HW111264   1.612   3.273   4.244
 3455SOL    HW211265   1.555   3.426   4.246
 3456SOL     OW11266   5.393   6.417   1.929
 3456SOL    HW111267   5.328   6.344   1.950
 3456SOL    HW211268   5.374   6.497   1.986
 3457SOL     OW11269   2.419   5.205   3.958
 3457SOL    HW111270   2.392   5.178   4.051
 3457SOL    HW211271   2.501   5.262   3.963
 3458SOL     OW11272   4.931   6.804   6.825
 3458SOL    HW111273   4.984   6.861   6.762
 3458SOL    HW211274   4.973   6.806   6.915
 3459SOL     OW11275   6.972   4.457   3.410
 3459SOL    HW111276   6.993   4.531   3.347
 3459SOL    HW211277   6.883   4.474   3.454
 3460SOL     OW11278   2.903   3.565   0.385
 3460SOL    HW111279   2.855   3.599   0.466
 3460SOL    HW211280   2.929   3.470   0.399
 3461SOL     OW11281   4.769   5.955   3.948
 3461SOL    HW111282   4.862   5.949   3.985
 3461SOL    HW211283   4.720   6.030   3.992
 3462SOL     OW11284   6.254   3.789   2.067
 3462SOL    HW111285   6.313   3.822   1.993
 3462SOL    HW211286   6.310   3.744   2.137
 3463SOL     OW11287   1.150   3.286   2.615
 3463SOL    HW111288   1.208   3.363   2.590
 3463SOL    HW211289   1.181   3.204   2.567
 3464SOL     OW11290   6.180   2.225   6.912
 3464SOL    HW111291   6.175   2.161   6.988
 3464SOL    HW211292   6.096   2.280   6.910
 3465SOL     OW11293   1.455   3.165   2.140
 3465SOL    HW111294   1.531   3.231   2.137
 3465SOL    HW211295   1.369   3.214   2.152
 3466SOL     OW11296   6.732   5.373   5.911
 3466SOL    HW111297   6.685   5.292   5.876
 3466SOL    HW211298   6.829   5.353   5.924
 3467SOL     OW11299   1.592   1.748   0.610
 3467SOL    HW111300   1.671   1.810   0.614
 3467SOL    HW211301   1.605   1.675   0.677
 3468SOL     OW11302   5.678   1.459   3.206
 3468SOL    HW111303   5.757   1.515   3.230
 3468SOL    HW211304   5.595   1.499   3.245
 3469SOL     OW11305   4.823   0.463   4.842
 3469SOL    HW111306   4.772   0.389   4.886
 3469SOL    HW211307   4.786   0.551   4.871
 3470SOL     OW11308   0.389   2.736   2.043
 3470SOL    HW111309   0.295   2.706   2.031
 3470SOL    HW211310   0.411   2.807   1.976
 3471SOL     OW11311   4.398   4.588   3.548
 3471SOL    HW111312   4.316   4.601   3.603
 3471SOL    HW211313   4.475   4.566   3.608
 3472SOL     OW11314   3.382   1.026   1.855
 3472SOL    HW111315   3.414   0.989   1.943
 3472SOL    HW211316   3.282   1.032   1.857
 3473SOL     OW11317   5.849   3.156   2.776
 3473SOL    HW111318   5.763   3.204   2.794
 3473SOL    HW211319   5.832   3.078   2.716
 3474SOL     OW11320   6.916   3.961   2.292
 3474SOL    HW111321   6.998   3.958   2.234
 3474SOL    HW211322   6.935   4.016   2.373
 3475SOL     OW11323   0.958   4.683   5.034
 3475SOL    HW111324   1.057   4.691   5.020
 3475SOL    HW211325   0.937   4.703   5.130
 3476SOL     OW11326   2.037   2.046   2.617
 3476SOL    HW111327   2.057   2.078   2.524
 3476SOL    HW211328   2.020   1.948   2.615
 3477SOL     OW11329   1.039   4.355   0.905
 3477SOL    HW111330   1.137   4.339   0.896
 3477SOL    HW211331   1.023   4.449   0.936
 3478SOL     OW11332   2.868   6.230   0.064
 3478SOL    HW111333   2.881   6.275   6.998
 3478SOL    HW211334   2.956   6.197   0.099
 3479SOL     OW11335   0.655   0.962   3.088
 3479SOL    HW111336   0.563   0.969   3.048
 3479SOL    HW211337   0.650   0.979   3.187
 3480SOL     OW11338   0.405   6.531   5.309
 3480SOL    HW111339   0.391   6.493   5.218
 3480SOL    HW211340   0.337   6.495   5.372
 3481SOL     OW11341   5.344   0.539   0.250
 3481SOL    HW111342   5.322   0.472   0.321
 3481SOL    HW211343   5.298   0.625   0.271
 3482SOL     OW11344   5.998   1.642   2.086
 3482SOL    HW111345   5.909   1.663   2.126
 3482SOL    HW211346   6.071   1.671   2.148
 3483SOL     OW11347   5.581   1.626   2.812
 3483SOL    HW111348   5.578   1.614   2.911
 3483SOL    HW211349   5.547   1.543   2.768
 3484SOL     OW11350   1.254   3.034   0.165
 3484SOL    HW111351   1.326   2.971   0.193
 3484SOL    HW211352   1.208   2.999   0.084
 3485SOL     OW11353   1.314   2.225   4.243
 3485SOL    HW111354   1.314   2.200   4.340
 3485SOL    HW211355   1.400   2.197   4.202
 3486SOL     OW11356   1.733   0.528   3.351
 3486SOL    HW111357   1.680   0.486   3.425
 3486SOL    HW211358   1.829   0.534   3.377
 3487SOL     OW11359   6.477   1.891   0.511
 3487SOL    HW111360   6.508   1.818   0.573
 3487SOL    HW211361   6.379   1.906   0.525
 3488SOL     OW11362   5.490   1.134   5.312
 3488SOL    HW111363   5.446   1.182   5.236
 3488SOL    HW211364   5.532   1.050   5.279
 3489SOL     OW11365   3.987   0.124   2.228
 3489SOL    HW111366   3.930   0.045   2.205
 3489SOL    HW211367   4.077   0.112   2.186
 3490SOL     OW11368   3.591   4.599   1.286
 3490SOL    HW111369   3.575   4.643   1.197
 3490SOL    HW211370   3.616   4.669   1.353
 3491SOL     OW11371   3.921   3.004   6.059
 3491SOL    HW111372   3.924   3.075   6.130
 3491SOL    HW211373   4.008   3.004   6.009
 3492SOL     OW11374   6.121   4.500   0.657
 3492SOL    HW111375   6.219   4.484   0.672
 3492SOL    HW211376   6.075   4.412   0.647
 3493SOL     OW11377   5.456   3.979   3.981
 3493SOL    HW111378   5.436   3.893   4.028
 3493SOL    HW211379   5.494   4.045   4.046
 3494SOL     OW11380   2.531   0.942   2.009
 3494SOL    HW111381   2.551   1.040   2.012
 3494SOL    HW211382   2.601   0.893   2.062
 3495SOL     OW11383   7.009   4.121   1.872
 3495SOL    HW111384   0.018   4.187   1.941
 3495SOL    HW211385   0.062   4.102   1.808
 3496SOL     OW11386   5.942   5.562   1.019
 3496SOL    HW111387   5.867   5.531   0.960
 3496SOL    HW211388   5.957   5.660   1.004
 3497SOL     OW11389   2.459   1.652   3.938
 3497SOL    HW111390   2.464   1.565   3.889
 3497SOL    HW211391   2.507   1.722   3.886
 3498SOL     OW11392   3.233   0.958   2.125
 3498SOL    HW111393   3.133   0.951   2.133
 3498SOL    HW211394   3.269   0.873   2.087
 3499SOL     OW11395   6.137   4.746   4.417
 3499SOL    HW111396   6.147   4.786   4.508
 3499SOL    HW211397   6.209   4.782   4.357
 3500SOL     OW11398   1.565   3.305   3.147
 3500SOL    HW111399   1.664   3.315   3.155
 3500SOL    HW211400   1.519   3.363   3.214
 3501SOL     OW11401   3.397   6.639   5.787
 3501SOL    HW111402   3.330   6.713   5.791
 3501SOL    HW211403   3.419   6.609   5.880
 3502SOL     OW11404   6.844   2.480   1.463
 3502SOL    HW111405   6.911   2.469   1.389
 3502SOL    HW211406   6.782   2.401   1.463
 3503SOL     OW11407   6.157   6.041   5.202
 3503SOL    HW111408   6.207   6.051   5.288
 3503SOL    HW211409   6.125   5.946   5.193
 3504SOL     OW11410   2.388   0.715   1.803
 3504SOL    HW111411   2.442   0.786   1.847
 3504SOL    HW211412   2.413   0.626   1.841
 3505SOL     OW11413   5.176   4.244   5.568
 3505SOL    HW111414   5.234   4.287   5.638
 3505SOL    HW211415   5.173   4.302   5.487
 3506SOL     OW11416   5.381   4.464   4.876
 3506SOL    HW111417   5.439   4.383   4.876
 3506SOL    HW211418   5.286   4.437   4.862
 3507SOL     OW11419   2.899   0.509   0.586
 3507SOL    HW111420   2.801   0.502   0.567
 3507SOL    HW211421   2.921   0.602   0.615
 3508SOL     OW11422   2.005   1.454   5.937
 3508SOL    HW111423   1.983   1.402   5.855
 3508SOL    HW211424   1.926   1.455   5.998
 3509SOL     OW11425   5.825   6.712   6.954
 3509SOL    HW111426   5.781   6.750   6.872
 3509SOL    HW211427   5.778   6.628   6.981
 3510SOL     OW11428   1.350   0.785   2.117
 3510SOL    HW111429   1.265   0.761   2.070
 3510SOL    HW211430   1.397   0.701   2.145
 3511SOL     OW11431   1.935   3.916   1.625
 3511SOL    HW111432   2.001   3.870   1.566
 3511SOL    HW211433   1.973   3.925   1.717
 3512SOL     OW11434   0.259   4.284   0.693
 3512SOL    HW111435   0.194   4.208   0.688
 3512SOL    HW211436   0.210   4.371   0.689
 3513SOL     OW11437   5.780   2.167   0.669
 3513SOL    HW111438   5.759   2.265   0.667
 3513SOL    HW211439   5.837   2.143   0.591
 3514SOL     OW11440   7.015   0.870   1.785
 3514SOL    HW111441   7.022   0.966   1.757
 3514SOL    HW211442   7.021   0.864   1.885
 3515SOL     OW11443   4.544   5.988   3.140
 3515SOL    HW111444   4.513   6.017   3.049
 3515SOL    HW211445   4.467   5.984   3.203
 3516SOL     OW11446   4.263   6.303   0.841
 3516SOL    HW111447   4.212   6.307   0.927
 3516SOL    HW211448   4.321   6.384   0.832
 3517SOL     OW11449   6.605   0.825   1.618
 3517SOL    HW111450   6.633   0.849   1.525
 3517SOL    HW211451   6.686   0.803   1.672
 3518SOL     OW11452   5.336   2.831   5.260
 3518SOL    HW111453   5.257   2.771   5.270
 3518SOL    HW211454   5.320   2.915   5.312
 3519SOL     OW11455   1.808   6.861   5.863
 3519SOL    HW111456   1.728   6.864   5.923
 3519SOL    HW211457   1.857   6.775   5.876
 3520SOL     OW11458   3.578   6.026   0.092
 3520SOL    HW111459   3.522   5.948   0.064
 3520SOL    HW211460   3.531   6.078   0.163
 3521SOL     OW11461   4.603   2.625   6.941
 3521SOL    HW111462   4.665   2.562   6.988
 3521SOL    HW211463   4.642   2.649   6.852
 3522SOL     OW11464   0.238   5.725   0.296
 3522SOL    HW111465   0.256   5.670   0.377
 3522SOL    HW211466   0.141   5.723   0.274
 3523SOL     OW11467   1.257   4.675   4.952
 3523SOL    HW111468   1.247   4.590   5.003
 3523SOL    HW211469   1.312   4.740   5.006
 3524SOL     OW11470   4.639   1.850   1.951
 3524SOL    HW111471   4.588   1.779   1.999
 3524SOL    HW211472   4.700   1.896   2.015
 3525SOL     OW11473   6.765   3.540   3.848
 3525SOL    HW111474   6.768   3.440   3.851
 3525SOL    HW211475   6.688   3.569   3.792
 3526SOL     OW11476   1.896   6.875   3.865
 3526SOL    HW111477   1.941   6.859   3.778
 3526SOL    HW211478   1.862   6.789   3.902
 3527SOL     OW11479   5.716   3.512   6.625
 3527SOL    HW111480   5.767   3.441   6.576
 3527SOL    HW211481   5.631   3.531   6.576
 3528SOL     OW11482   1.731   6.478   5.357
 3528SOL    HW111483   1.789   6.404   5.322
 3528SOL    HW211484   1.785   6.562   5.364
 3529SOL     OW11485   3.883   0.082   0.876
 3529SOL    HW111486   3.968   0.133   0.885
 3529SOL    HW211487   3.896   0.007   0.811
 3530SOL     OW11488   6.411   5.721   0.974
 3530SOL    HW111489   6.510   5.713   0.985
 3530SOL    HW211490   6.384   5.816   0.987
 3531SOL     OW11491   5.225   2.101   0.543
 3531SOL    HW111492   5.248   2.053   0.459
 3531SOL    HW211493   5.136   2.146   0.532
 3532SOL     OW11494   2.539   0.074   1.984
 3532SOL    HW111495   2.629   0.049   2.021
 3532SOL    HW211496   2.549   0.107   1.891
 3533SOL     OW11497   0.525   1.407   2.451
 3533SOL    HW111498   0.471   1.328   2.421
 3533SOL    HW211499   0.609   1.374   2.493
 3534SOL     OW11500   0.909   1.943   0.409
 3534SOL    HW111501   0.885   1.854   0.369
 3534SOL    HW211502   0.836   2.009   0.390
 3535SOL     OW11503   1.990   5.254   6.077
 3535SOL    HW111504   2.006   5.183   6.009
 3535SOL    HW211505   1.954   5.336   6.032
 3536SOL     OW11506   3.505   1.625   3.067
 3536SOL    HW111507   3.544   1.584   2.985
 3536SOL    HW211508   3.547   1.714   3.083
 3537SOL     OW11509   2.252   5.708   2.678
 3537SOL    HW111510   2.216   5.797   2.652
 3537SOL    HW211511   2.352   5.710   2.674
 3538SOL     OW11512   2.064   6.507   5.554
 3538SOL    HW111513   2.076   6.416   5.594
 3538SOL    HW211514   2.124   6.516   5.474
 3539SOL     OW11515   3.620   3.339   5.483
 3539SOL    HW111516   3.686   3.290   5.540
 3539SOL    HW211517   3.528   3.327   5.521
 3540SOL     OW11518   1.947   3.028   4.876
 3540SOL    HW111519   2.010   3.075   4.814
 3540SOL    HW211520   1.971   2.931   4.879
 3541SOL     OW11521   2.196   2.725   6.045
 3541SOL    HW111522   2.174   2.728   5.948
 3541SOL    HW211523   2.266   2.793   6.065
 3542SOL     OW11524   1.349   5.738   3.575
 3542SOL    HW111525   1.330   5.657   3.630
 3542SOL    HW211526   1.274   5.804   3.584
 3543SOL     OW11527   0.220   2.667   4.802
 3543SOL    HW111528   0.200   2.585   4.856
 3543SOL    HW211529   0.287   2.724   4.851
 3544SOL     OW11530   1.780   4.061   5.940
 3544SOL    HW111531   1.877   4.082   5.925
 3544SOL    HW211532   1.725   4.142   5.921
 3545SOL     OW11533   4.189   5.343   6.551
 3545SOL    HW111534   4.107   5.286   6.547
 3545SOL    HW211535   4.183   5.404   6.630
 3546SOL     OW11536   1.747   4.710   3.918
 3546SOL    HW111537   1.811   4.733   3.991
 3546SOL    HW211538   1.662   4.759   3.932
 3547SOL     OW11539   6.101   4.630   4.089
 3547SOL    HW111540   6.184   4.597   4.133
 3547SOL    HW211541   6.113   4.725   4.060
 3548SOL     OW11542   6.008   1.813   6.250
 3548SOL    HW111543   5.953   1.888   6.212
 3548SOL    HW211544   5.993   1.807   6.348
 3549SOL     OW11545   6.747   4.436   5.779
 3549SOL    HW111546   6.765   4.407   5.685
 3549SOL    HW211547   6.781   4.366   5.842
 3550SOL     OW11548   5.138   2.063   2.581
 3550SOL    HW111549   5.179   2.149   2.549
 3550SOL    HW211550   5.153   2.053   2.679
 3551SOL     OW11551   4.188   6.906   2.880
 3551SOL    HW111552   4.226   6.963   2.952
 3551SOL    HW211553   4.088   6.916   2.878
 3552SOL     OW11554   4.986   6.337   1.400
 3552SOL    HW111555   5.038   6.324   1.484
 3552SOL    HW211556   5.029   6.285   1.326
 3553SOL     OW11557   5.609   3.906   1.648
 3553SOL    HW111558   5.521   3.900   1.602
 3553SOL    HW211559   5.634   3.816   1.683
 3554SOL     OW11560   3.676   2.505   1.211
 3554SOL    HW111561   3.581   2.535   1.221
 3554SOL    HW211562   3.679   2.422   1.156
 3555SOL     OW11563   1.295   4.133   3.374
 3555SOL    HW111564   1.245   4.060   3.421
 3555SOL    HW211565   1.235   4.175   3.306
 3556SOL     OW11566   4.326   0.828   4.312
 3556SOL    HW111567   4.323   0.746   4.370
 3556SOL    HW211568   4.265   0.898   4.350
 3557SOL     OW11569   0.777   0.263   3.826
 3557SOL    HW111570   0.701   0.307   3.872
 3557SOL    HW211571   0.743   0.186   3.771
 3558SOL     OW11572   1.575   5.562   0.776
 3558SOL    HW111573   1.567   5.550   0.875
 3558SOL    HW211574   1.555   5.657   0.752
 3559SOL     OW11575   1.027   6.827   4.703
 3559SOL    HW111576   1.086   6.895   4.747
 3559SOL    HW211577   1.074   6.738   4.701
 3560SOL     OW11578   1.305   5.798   1.208
 3560SOL    HW111579   1.251   5.852   1.273
 3560SOL    HW211580   1.299   5.701   1.233
 3561SOL     OW11581   3.799   5.021   5.328
 3561SOL    HW111582   3.878   4.963   5.311
 3561SOL    HW211583   3.825   5.117   5.320
 3562SOL     OW11584   5.290   0.604   4.700
 3562SOL    HW111585   5.203   0.635   4.738
 3562SOL    HW211586   5.275   0.559   4.613
 3563SOL     OW11587   5.100   0.549   1.233
 3563SOL    HW111588   5.131   0.643   1.219
 3563SOL    HW211589   5.012   0.536   1.188
 3564SOL     OW11590   1.344   4.572   4.174
 3564SOL    HW111591   1.336   4.520   4.089
 3564SOL    HW211592   1.415   4.531   4.231
 3565SOL     OW11593   3.574   6.629   5.099
 3565SOL    HW111594   3.621   6.624   5.010
 3565SOL    HW211595   3.475   6.620   5.084
 3566SOL     OW11596   6.595   3.483   6.693
 3566SOL    HW111597   6.571   3.422   6.769
 3566SOL    HW211598   6.683   3.525   6.712
 3567SOL     OW11599   0.818   2.918   7.018
 3567SOL    HW111600   0.865   2.830   0.001
 3567SOL    HW211601   0.721   2.905   0.017
 3568SOL     OW11602   4.874   5.586   3.770
 3568SOL    HW111603   4.850   5.521   3.697
 3568SOL    HW211604   4.820   5.669   3.758
 3569SOL     OW11605   2.795   2.744   6.302
 3569SOL    HW111606   2.891   2.772   6.298
 3569SOL    HW211607   2.790   2.647   6.324
 3570SOL     OW11608   5.524   0.470   4.791
 3570SOL    HW111609   5.557   0.427   4.707
 3570SOL    HW211610   5.454   0.538   4.769
 3571SOL     OW11611   2.289   0.536   4.863
 3571SOL    HW111612   2.315   0.473   4.935
 3571SOL    HW211613   2.218   0.598   4.896
 3572SOL     OW11614   5.581   3.671   2.917
 3572SOL    HW111615   5.580   3.654   2.818
 3572SOL    HW211616   5.515   3.742   2.939
 3573SOL     OW11617   5.653   3.903   2.576
 3573SOL    HW111618   5.753   3.899   2.586
 3573SOL    HW211619   5.617   3.810   2.571
 3574SOL     OW11620   1.536   3.692   0.363
 3574SOL    HW111621   1.448   3.649   0.384
 3574SOL    HW211622   1.540   3.783   0.404
 3575SOL     OW11623   5.051   5.931   1.971
 3575SOL    HW111624   4.982   5.895   2.034
 3575SOL    HW211625   5.142   5.911   2.007
 3576SOL     OW11626   0.743   2.157   0.469
 3576SOL    HW111627   0.681   2.106   0.528
 3576SOL    HW211628   0.821   2.189   0.524
 3577SOL     OW11629   1.957   2.636   6.210
 3577SOL    HW111630   1.986   2.610   6.118
 3577SOL    HW211631   1.960   2.736   6.218
 3578SOL     OW11632   4.768   2.192   0.895
 3578SOL    HW111633   4.827   2.196   0.814
 3578SOL    HW211634   4.816   2.234   0.973
 3579SOL     OW11635   6.781   2.875   2.670
 3579SOL    HW111636   6.713   2.802   2.677
 3579SOL    HW211637   6.742   2.952   2.621
 3580SOL     OW11638   6.343   3.146   0.085
 3580SOL    HW111639   6.297   3.156   0.174
 3580SOL    HW211640   6.354   3.048   0.065
 3581SOL     OW11641   0.730   6.289   2.764
 3581SOL    HW111642   0.806   6.349   2.787
 3581SOL    HW211643   0.763   6.196   2.752
 3582SOL     OW11644   1.869   4.991   5.348
 3582SOL    HW111645   1.863   4.940   5.434
 3582SOL    HW211646   1.848   4.930   5.272
 3583SOL     OW11647   1.435   4.643   0.557
 3583SOL    HW111648   1.382   4.650   0.473
 3583SOL    HW211649   1.533   4.651   0.535
 3584SOL     OW11650   5.642   4.583   5.702
 3584SOL    HW111651   5.556   4.565   5.654
 3584SOL    HW211652   5.717   4.585   5.637
 3585SOL     OW11653   3.345   1.834   5.001
 3585SOL    HW111654   3.281   1.891   5.052
 3585SOL    HW211655   3.383   1.764   5.062
 3586SOL     OW11656   6.974   2.250   4.845
 3586SOL    HW111657   6.962   2.345   4.873
 3586SOL    HW211658   0.041   2.217   4.878
 3587SOL     OW11659   2.801   5.512   6.145
 3587SOL    HW111660   2.702   5.514   6.159
 3587SOL    HW211661   2.846   5.556   6.223
 3588SOL     OW11662   6.637   3.520   5.039
 3588SOL    HW111663   6.544   3.550   5.058
 3588SOL    HW211664   6.689   3.595   5.000
 3589SOL     OW11665   6.408   6.867   6.813
 3589SOL    HW111666   6.416   6.938   6.883
 3589SOL    HW211667   6.359   6.789   6.850
 3590SOL     OW11668   0.313   3.866   0.290
 3590SOL    HW111669   0.283   3.771   0.274
 3590SOL    HW211670   0.411   3.873   0.271
 3591SOL     OW11671   5.361   3.704   0.974
 3591SOL    HW111672   5.436   3.698   0.909
 3591SOL    HW211673   5.325   3.613   0.993
 3592SOL     OW11674   0.502   6.909   2.750
 3592SOL    HW111675   0.520   6.987   2.810
 3592SOL    HW211676   0.496   6.826   2.805
 3593SOL     OW11677   0.809   4.340   6.042
 3593SOL    HW111678   0.906   4.318   6.054
 3593SOL    HW211679   0.800   4.415   5.977
 3594SOL     OW11680   5.420   0.461   4.040
 3594SOL    HW111681   5.332   0.483   3.997
 3594SOL    HW211682   5.488   0.528   4.012
 3595SOL     OW11683   5.517   5.346   6.610
 3595SOL    HW111684   5.457   5.338   6.690
 3595SOL    HW211685   5.549   5.441   6.601
 3596SOL     OW11686   4.494   2.533   3.598
 3596SOL    HW111687   4.494   2.433   3.600
 3596SOL    HW211688   4.497   2.568   3.692
 3597SOL     OW11689   1.797   2.714   5.655
 3597SOL    HW111690   1.791   2.636   5.718
 3597SOL    HW211691   1.892   2.745   5.651
 3598SOL     OW11692   1.987   6.262   5.181
 3598SOL    HW111693   1.998   6.256   5.082
 3598SOL    HW211694   1.900   6.221   5.208
 3599SOL     OW11695   4.246   2.413   6.960
 3599SOL    HW111696   4.296   2.393   0.022
 3599SOL    HW211697   4.309   2.451   6.892
 3600SOL     OW11698   1.014   3.407   1.239
 3600SOL    HW111699   1.047   3.379   1.148
 3600SOL    HW211700   1.091   3.436   1.295
 3601SOL     OW11701   5.589   2.445   6.126
 3601SOL    HW111702   5.588   2.500   6.043
 3601SOL    HW211703   5.495   2.426   6.155
 3602SOL     OW11704   1.701   3.247   0.583
 3602SOL    HW111705   1.739   3.332   0.547
 3602SOL    HW211706   1.615   3.227   0.536
 3603SOL     OW11707   3.727   1.005   5.413
 3603SOL    HW111708   3.798   0.997   5.484
 3603SOL    HW211709   3.637   1.012   5.457
 3604SOL     OW11710   6.245   0.729   3.698
 3604SOL    HW111711   6.313   0.801   3.711
 3604SOL    HW211712   6.285   0.653   3.647
 3605SOL     OW11713   1.109   5.578   4.224
 3605SOL    HW111714   1.020   5.623   4.235
 3605SOL    HW211715   1.102   5.482   4.250
 3606SOL     OW11716   1.478   6.903   2.907
 3606SOL    HW111717   1.430   6.819   2.933
 3606SOL    HW211718   1.576   6.892   2.924
 3607SOL     OW11719   5.603   2.934   2.027
 3607SOL    HW111720   5.598   2.941   2.126
 3607SOL    HW211721   5.520   2.970   1.986
 3608SOL     OW11722   5.122   1.525   3.939
 3608SOL    HW111723   5.219   1.513   3.917
 3608SOL    HW211724   5.080   1.586   3.872
 3609SOL     OW11725   2.138   7.020   4.399
 3609SOL    HW111726   2.170   0.086   4.435
 3609SOL    HW211727   2.040   7.012   4.415
 3610SOL     OW11728   1.545   0.312   5.584
 3610SOL    HW111729   1.608   0.322   5.507
 3610SOL    HW211730   1.568   0.229   5.634
 3611SOL     OW11731   4.281   4.849   4.057
 3611SOL    HW111732   4.182   4.838   4.047
 3611SOL    HW211733   4.325   4.832   3.969
 3612SOL     OW11734   6.583   0.945   6.474
 3612SOL    HW111735   6.502   1.004   6.469
 3612SOL    HW211736   6.592   0.894   6.389
 3613SOL     OW11737   3.906   5.248   2.012
 3613SOL    HW111738   3.828   5.206   1.966
 3613SOL    HW211739   3.902   5.347   2.002
 3614SOL     OW11740   2.935   3.387   6.956
 3614SOL    HW111741   3.000   3.454   6.991
 3614SOL    HW211742   2.843   3.410   6.987
 3615SOL     OW11743   5.657   2.786   6.423
 3615SOL    HW111744   5.744   2.761   6.380
 3615SOL    HW211745   5.585   2.789   6.354
 3616SOL     OW11746   1.474   0.981   6.173
 3616SOL    HW111747   1.441   0.896   6.132
 3616SOL    HW211748   1.541   0.959   6.244
 3617SOL     OW11749   4.299   0.516   6.138
 3617SOL    HW111750   4.299   0.488   6.234
 3617SOL    HW211751   4.297   0.435   6.080
 3618SOL     OW11752   2.591   3.385   5.418
 3618SOL    HW111753   2.501   3.401   5.458
 3618SOL    HW211754   2.593   3.295   5.375
 3619SOL     OW11755   5.486   3.096   0.234
 3619SOL    HW111756   5.480   3.157   0.154
 3619SOL    HW211757   5.581   3.086   0.261
 3620SOL     OW11758   6.131   5.392   5.337
 3620SOL    HW111759   6.052   5.378   5.277
 3620SOL    HW211760   6.163   5.486   5.330
 3621SOL     OW11761   3.195   3.431   4.528
 3621SOL    HW111762   3.187   3.333   4.551
 3621SOL    HW211763   3.108   3.462   4.489
 3622SOL     OW11764   1.223   0.446   0.716
 3622SOL    HW111765   1.136   0.417   0.675
 3622SOL    HW211766   1.281   0.489   0.647
 3623SOL     OW11767   0.098   5.379   5.452
 3623SOL    HW111768   0.154   5.310   5.407
 3623SOL    HW211769   0.097   5.463   5.397
 3624SOL     OW11770   1.338   0.101   2.440
 3624SOL    HW111771   1.376   0.174   2.385
 3624SOL    HW211772   1.409   0.062   2.499
 3625SOL     OW11773   7.013   3.424   6.724
 3625SOL    HW111774   0.076   3.446   6.772
 3625SOL    HW211775   0.013   3.376   6.639
 3626SOL     OW11776   0.643   3.578   4.125
 3626SOL    HW111777   0.659   3.669   4.165
 3626SOL    HW211778   0.545   3.562   4.117
 3627SOL     OW11779   4.864   3.390   1.626
 3627SOL    HW111780   4.826   3.302   1.656
 3627SOL    HW211781   4.956   3.401   1.664
 3628SOL     OW11782   1.548   1.012   2.616
 3628SOL    HW111783   1.635   1.044   2.580
 3628SOL    HW211784   1.539   1.039   2.712
 3629SOL     OW11785   1.223   0.638   4.037
 3629SOL    HW111786   1.321   0.652   4.024
 3629SOL    HW211787   1.196   0.672   4.127
 3630SOL     OW11788   6.252   2.860   3.794
 3630SOL    HW111789   6.214   2.880   3.885
 3630SOL    HW211790   6.195   2.791   3.749
 3631SOL     OW11791   1.620   6.637   3.600
 3631SOL    HW111792   1.608   6.562   3.666
 3631SOL    HW211793   1.675   6.605   3.523
 3632SOL     OW11794   4.548   4.097   0.700
 3632SOL    HW111795   4.549   4.111   0.799
 3632SOL    HW211796   4.641   4.081   0.667
 3633SOL     OW11797   4.279   2.348   5.724
 3633SOL    HW111798   4.270   2.325   5.821
 3633SOL    HW211799   4.334   2.279   5.678
 3634SOL     OW11800   1.938   6.530   6.160
 3634SOL    HW111801   1.896   6.439   6.160
 3634SOL    HW211802   2.037   6.520   6.174
 3635SOL     OW11803   1.916   1.405   0.955
 3635SOL    HW111804   1.917   1.397   1.054
 3635SOL    HW211805   1.914   1.313   0.914
 3636SOL     OW11806   0.391   6.100   1.145
 3636SOL    HW111807   0.294   6.079   1.150
 3636SOL    HW211808   0.423   6.134   1.234
 3637SOL     OW11809   0.825   2.891   1.044
 3637SOL    HW111810   0.868   2.976   1.014
 3637SOL    HW211811   0.727   2.905   1.053
 3638SOL     OW11812   6.754   3.736   2.346
 3638SOL    HW111813   6.828   3.803   2.336
 3638SOL    HW211814   6.766   3.686   2.431
 3639SOL     OW11815   3.550   4.600   5.946
 3639SOL    HW111816   3.470   4.611   6.004
 3639SOL    HW211817   3.554   4.506   5.912
 3640SOL     OW11818   5.208   2.328   0.898
 3640SOL    HW111819   5.231   2.239   0.938
 3640SOL    HW211820   5.128   2.365   0.944
 3641SOL     OW11821   5.197   4.772   1.240
 3641SOL    HW111822   5.143   4.696   1.203
 3641SOL    HW211823   5.152   4.808   1.322
 3642SOL     OW11824   5.386   2.008   6.672
 3642SOL    HW111825   5.467   1.968   6.628
 3642SOL    HW211826   5.394   2.000   6.771
 3643SOL     OW11827   4.034   6.693   5.868
 3643SOL    HW111828   4.093   6.631   5.920
 3643SOL    HW211829   4.026   6.661   5.774
 3644SOL     OW11830   2.918   0.522   1.499
 3644SOL    HW111831   2.826   0.558   1.509
 3644SOL    HW211832   2.917   0.440   1.443
 3645SOL     OW11833   1.528   3.907   4.485
 3645SOL    HW111834   1.451   3.871   4.538
 3645SOL    HW211835   1.536   3.857   4.399
 3646SOL     OW11836   2.181   4.941   4.427
 3646SOL    HW111837   2.144   4.852   4.454
 3646SOL    HW211838   2.279   4.934   4.413
 3647SOL     OW11839   2.686   6.429   6.765
 3647SOL    HW111840   2.771   6.400   6.809
 3647SOL    HW211841   2.664   6.522   6.794
 3648SOL     OW11842   4.827   5.936   3.171
 3648SOL    HW111843   4.734   5.970   3.165
 3648SOL    HW211844   4.835   5.850   3.121
 3649SOL     OW11845   5.890   4.123   0.212
 3649SOL    HW111846   5.836   4.041   0.193
 3649SOL    HW211847   5.964   4.101   0.275
 3650SOL     OW11848   5.790   4.334   0.981
 3650SOL    HW111849   5.790   4.429   1.012
 3650SOL    HW211850   5.763   4.330   0.885
 3651SOL     OW11851   1.740   1.981   5.168
 3651SOL    HW111852   1.720   1.945   5.259
 3651SOL    HW211853   1.741   1.905   5.102
 3652SOL     OW11854   5.659   0.490   2.489
 3652SOL    HW111855   5.627   0.505   2.583
 3652SOL    HW211856   5.582   0.494   2.426
 3653SOL     OW11857   0.974   1.190   2.672
 3653SOL    HW111858   1.039   1.132   2.722
 3653SOL    HW211859   0.948   1.268   2.728
 3654SOL     OW11860   4.703   6.074   0.706
 3654SOL    HW111861   4.748   6.040   0.623
 3654SOL    HW211862   4.687   5.998   0.768
 3655SOL     OW11863   3.031   1.169   4.499
 3655SOL    HW111864   3.053   1.254   4.547
 3655SOL    HW211865   2.970   1.114   4.556
 3656SOL     OW11866   0.900   4.936   1.241
 3656SOL    HW111867   0.949   4.937   1.328
 3656SOL    HW211868   0.860   4.845   1.226
 3657SOL     OW11869   5.031   5.771   5.446
 3657SOL    HW111870   4.958   5.837   5.426
 3657SOL    HW211871   5.025   5.741   5.541
 3658SOL     OW11872   1.804   4.893   6.361
 3658SOL    HW111873   1.879   4.904   6.426
 3658SOL    HW211874   1.809   4.802   6.319
 3659SOL     OW11875   0.580   1.352   6.430
 3659SOL    HW111876   0.614   1.308   6.347
 3659SOL    HW211877   0.593   1.291   6.509
 3660SOL     OW11878   6.055   6.290   5.250
 3660SOL    HW111879   6.096   6.202   5.228
 3660SOL    HW211880   6.121   6.344   5.303
 3661SOL     OW11881   0.161   0.487   4.435
 3661SOL    HW111882   0.066   0.487   4.406
 3661SOL    HW211883   0.212   0.417   4.384
 3662SOL     OW11884   3.544   1.129   4.957
 3662SOL    HW111885   3.608   1.075   5.011
 3662SOL    HW211886   3.585   1.150   4.868
 3663SOL     OW11887   2.529   2.218   6.567
 3663SOL    HW111888   2.430   2.223   6.575
 3663SOL    HW211889   2.565   2.308   6.544
 3664SOL     OW11890   3.830   1.437   2.091
 3664SOL    HW111891   3.837   1.424   2.190
 3664SOL    HW211892   3.918   1.416   2.048
 3665SOL     OW11893   0.366   6.219   5.734
 3665SOL    HW111894   0.327   6.163   5.661
 3665SOL    HW211895   0.299   6.286   5.765
 3666SOL     OW11896   1.128   2.901   3.171
 3666SOL    HW111897   1.034   2.918   3.201
 3666SOL    HW211898   1.150   2.961   3.094
 3667SOL     OW11899   0.731   1.361   3.863
 3667SOL    HW111900   0.680   1.374   3.778
 3667SOL    HW211901   0.676   1.393   3.940
 3668SOL     OW11902   1.277   0.589   1.677
 3668SOL    HW111903   1.235   0.537   1.752
 3668SOL    HW211904   1.210   0.653   1.639
 3669SOL     OW11905   6.063   1.760   4.418
 3669SOL    HW111906   5.976   1.810   4.417
 3669SOL    HW211907   6.045   1.662   4.420
 3670SOL     OW11908   3.113   4.883   1.328
 3670SOL    HW111909   3.137   4.798   1.281
 3670SOL    HW211910   3.191   4.945   1.327
 3671SOL     OW11911   6.526   1.312   2.582
 3671SOL    HW111912   6.549   1.216   2.593
 3671SOL    HW211913   6.428   1.325   2.595
 3672SOL     OW11914   5.563   1.319   2.361
 3672SOL    HW111915   5.499   1.393   2.340
 3672SOL    HW211916   5.592   1.274   2.277
 3673SOL     OW11917   3.987   5.218   6.877
 3673SOL    HW111918   3.957   5.184   6.966
 3673SOL    HW211919   4.023   5.311   6.887
 3674SOL     OW11920   1.372   5.774   6.060
 3674SOL    HW111921   1.400   5.776   5.964
 3674SOL    HW211922   1.278   5.808   6.068
 3675SOL     OW11923   6.811   2.566   3.486
 3675SOL    HW111924   6.838   2.557   3.581
 3675SOL    HW211925   6.890   2.553   3.426
 3676SOL     OW11926   5.202   2.979   3.089
 3676SOL    HW111927   5.166   2.992   3.182
 3676SOL    HW211928   5.148   3.033   3.025
 3677SOL     OW11929   2.120   0.693   4.975
 3677SOL    HW111930   2.022   0.714   4.966
 3677SOL    HW211931   2.146   0.698   5.071
 3678SOL     OW11932   1.263   1.794   4.623
 3678SOL    HW111933   1.355   1.774   4.589
 3678SOL    HW211934   1.198   1.791   4.548
 3679SOL     OW11935   5.857   0.040   3.166
 3679SOL    HW111936   5.772   0.030   3.219
 3679SOL    HW211937   5.935   0.034   3.228
 3680SOL     OW11938   4.902   2.150   3.526
 3680SOL    HW111939   4.864   2.114   3.441
 3680SOL    HW211940   4.978   2.212   3.505
 3681SOL     OW11941   0.476   0.534   6.302
 3681SOL    HW111942   0.474   0.596   6.224
 3681SOL    HW211943   0.556   0.474   6.296
 3682SOL     OW11944   4.969   2.346   1.037
 3682SOL    HW111945   5.018   2.311   1.116
 3682SOL    HW211946   4.920   2.430   1.062
 3683SOL     OW11947   0.162   0.779   4.576
 3683SOL    HW111948   0.091   0.775   4.646
 3683SOL    HW211949   0.172   0.689   4.533
 3684SOL     OW11950   2.225   6.426   6.592
 3684SOL    HW111951   2.176   6.491   6.532
 3684SOL    HW211952   2.182   6.336   6.584
 3685SOL     OW11953   2.769   5.964   5.185
 3685SOL    HW111954   2.746   5.889   5.248
 3685SOL    HW211955   2.827   5.928   5.111
 3686SOL     OW11956   6.636   4.322   3.981
 3686SOL    HW111957   6.539   4.308   3.996
 3686SOL    HW211958   6.653   4.333   3.883
 3687SOL     OW11959   5.253   6.712   3.379
 3687SOL    HW111960   5.244   6.774   3.301
 3687SOL    HW211961   5.167   6.707   3.429
 3688SOL     OW11962   6.051   3.536   0.406
 3688SOL    HW111963   5.970   3.594   0.412
 3688SOL    HW211964   6.126   3.587   0.365
 3689SOL     OW11965   2.386   1.761   5.576
 3689SOL    HW111966   2.430   1.848   5.596
 3689SOL    HW211967   2.302   1.776   5.523
 3690SOL     OW11968   5.024   5.696   0.863
 3690SOL    HW111969   5.095   5.674   0.796
 3690SOL    HW211970   5.015   5.795   0.872
 3691SOL     OW11971   2.536   2.234   6.021
 3691SOL    HW111972   2.588   2.241   6.106
 3691SOL    HW211973   2.545   2.319   5.969
 3692SOL     OW11974   6.946   4.390   6.175
 3692SOL    HW111975   6.959   4.354   6.267
 3692SOL    HW211976   0.003   4.447   6.151
 3693SOL     OW11977   1.346   2.046   2.553
 3693SOL    HW111978   1.349   2.144   2.534
 3693SOL    HW211979   1.282   2.002   2.491
 3694SOL     OW11980   0.991   0.569   1.813
 3694SOL    HW111981   0.937   0.652   1.794
 3694SOL    HW211982   0.931   0.499   1.851
 3695SOL     OW11983   6.160   2.435   2.229
 3695SOL    HW111984   6.178   2.411   2.134
 3695SOL    HW211985   6.246   2.441   2.280
 3696SOL     OW11986   5.231   0.699   5.128
 3696SOL    HW111987   5.243   0.792   5.094
 3696SOL    HW211988   5.187   0.642   5.058
 3697SOL     OW11989   6.143   6.087   3.019
 3697SOL    HW111990   6.113   5.994   3.035
 3697SOL    HW211991   6.087   6.150   3.072
 3698SOL     OW11992   2.246   0.882   3.845
 3698SOL    HW111993   2.253   0.787   3.877
 3698SOL    HW211994   2.272   0.944   3.919
 3699SOL     OW11995   2.301   2.468   3.440
 3699SOL    HW111996   2.401   2.464   3.448
 3699SOL    HW211997   2.266   2.382   3.404
 3700SOL     OW11998   1.409   5.722   5.155
 3700SOL    HW111999   1.310   5.736   5.152
 3700SOL    HW212000   1.437   5.666   5.076
 3701SOL     OW12001   0.541   6.317   2.332
 3701SOL    HW112002   0.620   6.377   2.320
 3701SOL    HW212003   0.472   6.338   2.261
 3702SOL     OW12004   4.890   6.412   4.068
 3702SOL    HW112005   4.830   6.390   4.145
 3702SOL    HW212006   4.869   6.353   3.991
 3703SOL     OW12007   0.755   1.124   6.408
 3703SOL    HW112008   0.817   1.154   6.480
 3703SOL    HW212009   0.758   1.025   6.399
 3704SOL     OW12010   5.127   3.841   1.034
 3704SOL    HW112011   5.210   3.786   1.032
 3704SOL    HW212012   5.076   3.821   1.118
 3705SOL     OW12013   4.923   4.831   3.383
 3705SOL    HW112014   4.854   4.809   3.451
 3705SOL    HW212015   4.883   4.825   3.291
 3706SOL     OW12016   0.587   4.087   6.924
 3706SOL    HW112017   0.589   4.017   6.853
 3706SOL    HW212018   0.674   4.088   6.973
 3707SOL     OW12019   3.806   5.072   4.099
 3707SOL    HW112020   3.827   5.130   4.019
 3707SOL    HW212021   3.731   5.113   4.150
 3708SOL     OW12022   4.109   0.010   1.479
 3708SOL    HW112023   4.125   0.078   1.408
 3708SOL    HW212024   4.167   0.031   1.559
 3709SOL     OW12025   2.286   0.024   1.839
 3709SOL    HW112026   2.352   6.977   1.868
 3709SOL    HW212027   2.332   0.091   1.780
 3710SOL     OW12028   0.594   5.438   5.772
 3710SOL    HW112029   0.550   5.390   5.696
 3710SOL    HW212030   0.567   5.396   5.858
 3711SOL     OW12031   1.498   6.392   5.175
 3711SOL    HW112032   1.503   6.347   5.264
 3711SOL    HW212033   1.521   6.327   5.103
 3712SOL     OW12034   2.377   5.387   6.417
 3712SOL    HW112035   2.354   5.320   6.347
 3712SOL    HW212036   2.422   5.466   6.375
 3713SOL     OW12037   0.074   6.546   5.127
 3713SOL    HW112038   7.016   6.605   5.114
 3713SOL    HW212039   0.045   6.456   5.159
 3714SOL     OW12040   1.041   4.826   6.715
 3714SOL    HW112041   1.108   4.887   6.670
 3714SOL    HW212042   0.958   4.823   6.660
 3715SOL     OW12043   0.171   5.263   2.772
 3715SOL    HW112044   0.118   5.297   2.850
 3715SOL    HW212045   0.158   5.164   2.764
 3716SOL     OW12046   5.953   5.542   4.407
 3716SOL    HW112047   5.927   5.587   4.322
 3716SOL    HW212048   6.039   5.493   4.394
 3717SOL     OW12049   5.452   1.457   0.288
 3717SOL    HW112050   5.550   1.454   0.309
 3717SOL    HW212051   5.440   1.478   0.191
 3718SOL     OW12052   0.668   0.325   0.070
 3718SOL    HW112053   0.707   0.236   0.094
 3718SOL    HW212054   0.618   0.318   7.006
 3719SOL     OW12055   4.427   2.969   6.172
 3719SOL    HW112056   4.501   3.034   6.190
 3719SOL    HW212057   4.365   3.008   6.104
 3720SOL     OW12058   5.678   3.814   1.030
 3720SOL    HW112059   5.695   3.912   1.034
 3720SOL    HW212060   5.708   3.771   1.114
 3721SOL     OW12061   6.912   5.396   6.892
 3721SOL    HW112062   6.835   5.386   6.829
 3721SOL    HW212063   6.879   5.397   6.986
 3722SOL     OW12064   4.666   0.063   1.420
 3722SOL    HW112065   4.706   0.080   1.510
 3722SOL    HW212066   4.573   0.101   1.418
 3723SOL     OW12067   4.313   5.050   0.203
 3723SOL    HW112068   4.381   4.977   0.210
 3723SOL    HW212069   4.303   5.077   0.107
 3724SOL     OW12070   1.393   5.087   5.064
 3724SOL    HW112071   1.362   5.154   5.132
 3724SOL    HW212072   1.323   5.078   4.993
 3725SOL     OW12073   0.372   6.131   6.814
 3725SOL    HW112074   0.337   6.193   6.884
 3725SOL    HW212075   0.345   6.037   6.835
 3726SOL     OW12076   5.255   4.166   5.196
 3726SOL    HW112077   5.227   4.246   5.249
 3726SOL    HW212078   5.211   4.170   5.106
 3727SOL     OW12079   6.750   3.458   4.741
 3727SOL    HW112080   6.685   3.493   4.808
 3727SOL    HW212081   6.735   3.503   4.653
 3728SOL     OW12082   2.803   3.584   0.107
 3728SOL    HW112083   2.851   3.606   0.192
 3728SOL    HW212084   2.719   3.638   0.102
 3729SOL     OW12085   0.556   0.284   4.572
 3729SOL    HW112086   0.643   0.255   4.612
 3729SOL    HW212087   0.482   0.261   4.635
 3730SOL     OW12088   4.073   5.949   5.783
 3730SOL    HW112089   4.051   6.024   5.720
 3730SOL    HW212090   3.993   5.929   5.840
 3731SOL     OW12091   0.594   1.676   0.154
 3731SOL    HW112092   0.567   1.580   0.148
 3731SOL    HW212093   0.527   1.732   0.105
 3732SOL     OW12094   1.524   1.950   0.838
 3732SOL    HW112095   1.532   1.918   0.932
 3732SOL    HW212096   1.467   1.887   0.785
 3733SOL     OW12097   1.760   2.985   3.497
 3733SOL    HW112098   1.787   2.892   3.523
 3733SOL    HW212099   1.666   2.984   3.462
 3734SOL     OW12100   3.964   0.601   1.503
 3734SOL    HW112101   3.972   0.654   1.588
 3734SOL    HW212102   3.868   0.574   1.490
 3735SOL     OW12103   4.061   0.460   2.613
 3735SOL    HW112104   4.014   0.379   2.649
 3735SOL    HW212105   4.106   0.509   2.687
 3736SOL     OW12106   6.625   0.884   1.091
 3736SOL    HW112107   6.586   0.951   1.029
 3736SOL    HW212108   6.719   0.862   1.063
 3737SOL     OW12109   6.038   2.599   3.959
 3737SOL    HW112110   5.969   2.590   4.031
 3737SOL    HW212111   6.117   2.648   3.996
 3738SOL     OW12112   6.291   5.970   0.898
 3738SOL    HW112113   6.316   5.965   0.802
 3738SOL    HW212114   6.330   6.052   0.939
 3739SOL     OW12115   3.025   4.535   1.616
 3739SOL    HW112116   2.945   4.520   1.558
 3739SOL    HW212117   2.998   4.532   1.712
 3740SOL     OW12118   5.798   5.888   0.149
 3740SOL    HW112119   5.855   5.956   0.102
 3740SOL    HW212120   5.707   5.886   0.107
 3741SOL     OW12121   4.884   3.378   6.833
 3741SOL    HW112122   4.865   3.280   6.841
 3741SOL    HW212123   4.826   3.428   6.898
 3742SOL     OW12124   4.841   5.642   0.258
 3742SOL    HW112125   4.923   5.611   0.306
 3742SOL    HW212126   4.799   5.565   0.211
 3743SOL     OW12127   4.757   4.393   1.505
 3743SOL    HW112128   4.733   4.358   1.595
 3743SOL    HW212129   4.673   4.417   1.455
 3744SOL     OW12130   0.769   6.474   2.332
 3744SOL    HW112131   0.801   6.449   2.241
 3744SOL    HW212132   0.728   6.566   2.329
 3745SOL     OW12133   5.003   3.904   2.448
 3745SOL    HW112134   4.963   3.937   2.533
 3745SOL    HW212135   4.959   3.949   2.370
 3746SOL     OW12136   6.925   0.656   3.330
 3746SOL    HW112137   6.900   0.560   3.337
 3746SOL    HW212138   7.010   0.665   3.278
 3747SOL     OW12139   4.937   6.362   5.888
 3747SOL    HW112140   4.916   6.321   5.976
 3747SOL    HW212141   5.034   6.352   5.868
 3748SOL     OW12142   6.082   0.567   2.231
 3748SOL    HW112143   6.156   0.633   2.243
 3748SOL    HW212144   6.120   0.479   2.203
 3749SOL     OW12145   1.723   5.454   2.860
 3749SOL    HW112146   1.729   5.544   2.903
 3749SOL    HW212147   1.740   5.383   2.929
 3750SOL     OW12148   5.759   4.620   0.954
 3750SOL    HW112149   5.781   4.666   1.041
 3750SOL    HW212150   5.661   4.601   0.951
 3751SOL     OW12151   0.249   2.372   0.938
 3751SOL    HW112152   0.314   2.301   0.910
 3751SOL    HW212153   0.156   2.333   0.939
 3752SOL     OW12154   0.349   6.865   6.992
 3752SOL    HW112155   0.312   6.888   0.060
 3752SOL    HW212156   0.429   6.806   7.003
 3753SOL     OW12157   0.571   6.478   4.844
 3753SOL    HW112158   0.557   6.558   4.786
 3753SOL    HW212159   0.493   6.469   4.906
 3754SOL     OW12160   5.425   6.473   1.593
 3754SOL    HW112161   5.471   6.469   1.504
 3754SOL    HW212162   5.492   6.491   1.665
 3755SOL     OW12163   5.577   5.430   4.473
 3755SOL    HW112164   5.493   5.377   4.468
 3755SOL    HW212165   5.649   5.375   4.514
 3756SOL     OW12166   2.105   0.548   6.217
 3756SOL    HW112167   2.202   0.535   6.197
 3756SOL    HW212168   2.095   0.601   6.301
 3757SOL     OW12169   3.380   5.684   5.939
 3757SOL    HW112170   3.479   5.691   5.954
 3757SOL    HW212171   3.358   5.719   5.848
 3758SOL     OW12172   1.908   1.567   4.683
 3758SOL    HW112173   1.821   1.552   4.636
 3758SOL    HW212174   1.895   1.629   4.760
 3759SOL     OW12175   4.718   5.006   5.553
 3759SOL    HW112176   4.693   4.916   5.519
 3759SOL    HW212177   4.760   4.998   5.643
 3760SOL     OW12178   1.431   4.026   3.820
 3760SOL    HW112179   1.512   3.989   3.866
 3760SOL    HW212180   1.441   4.125   3.810
 3761SOL     OW12181   0.817   6.630   4.863
 3761SOL    HW112182   0.805   6.727   4.841
 3761SOL    HW212183   0.728   6.591   4.888
 3762SOL     OW12184   1.008   4.558   6.781
 3762SOL    HW112185   1.082   4.501   6.816
 3762SOL    HW212186   1.043   4.649   6.759
 3763SOL     OW12187   6.917   4.769   0.039
 3763SOL    HW112188   6.829   4.796   0.001
 3763SOL    HW212189   6.926   4.808   0.131
 3764SOL     OW12190   1.793   0.828   4.723
 3764SOL    HW112191   1.725   0.789   4.661
 3764SOL    HW212192   1.862   0.878   4.670
 3765SOL     OW12193   4.956   0.776   2.092
 3765SOL    HW112194   5.009   0.748   2.171
 3765SOL    HW212195   4.881   0.711   2.078
 3766SOL     OW12196   0.610   0.616   4.488
 3766SOL    HW112197   0.577   0.568   4.407
 3766SOL    HW212198   0.616   0.714   4.469
 3767SOL     OW12199   2.425   4.701   0.440
 3767SOL    HW112200   2.432   4.742   0.349
 3767SOL    HW212201   2.511   4.713   0.489
 3768SOL     OW12202   3.574   5.986   6.092
 3768SOL    HW112203   3.614   5.901   6.056
 3768SOL    HW212204   3.548   6.045   6.016
 3769SOL     OW12205   5.722   5.677   5.275
 3769SOL    HW112206   5.695   5.761   5.322
 3769SOL    HW212207   5.744   5.698   5.180
 3770SOL     OW12208   1.968   0.424   6.714
 3770SOL    HW112209   1.874   0.415   6.682
 3770SOL    HW212210   2.031   0.393   6.642
 3771SOL     OW12211   5.432   1.659   0.746
 3771SOL    HW112212   5.402   1.572   0.784
 3771SOL    HW212213   5.479   1.712   0.816
 3772SOL     OW12214   6.198   1.337   0.886
 3772SOL    HW112215   6.111   1.384   0.903
 3772SOL    HW212216   6.235   1.368   0.799
 3773SOL     OW12217   5.558   3.233   5.858
 3773SOL    HW112218   5.570   3.282   5.943
 3773SOL    HW212219   5.496   3.283   5.798
 3774SOL     OW12220   1.181   6.801   6.711
 3774SOL    HW112221   1.188   6.841   6.620
 3774SOL    HW212222   1.268   6.756   6.734
 3775SOL     OW12223   5.481   3.817   2.074
 3775SOL    HW112224   5.477   3.881   2.150
 3775SOL    HW212225   5.415   3.843   2.004
 3776SOL     OW12226   3.021   1.046   1.457
 3776SOL    HW112227   2.994   1.093   1.372
 3776SOL    HW212228   3.116   1.069   1.479
 3777SOL     OW12229   2.665   4.626   4.676
 3777SOL    HW112230   2.689   4.699   4.740
 3777SOL    HW212231   2.716   4.543   4.699
 3778SOL     OW12232   2.216   6.146   2.920
 3778SOL    HW112233   2.276   6.076   2.881
 3778SOL    HW212234   2.124   6.135   2.884
 3779SOL     OW12235   2.674   5.023   6.886
 3779SOL    HW112236   2.671   4.942   6.945
 3779SOL    HW212237   2.584   5.066   6.885
 3780SOL     OW12238   3.741   5.012   4.793
 3780SOL    HW112239   3.775   5.046   4.705
 3780SOL    HW212240   3.816   4.970   4.844
 3781SOL     OW12241   1.833   6.632   3.967
 3781SOL    HW112242   1.746   6.616   4.014
 3781SOL    HW212243   1.872   6.545   3.938
 3782SOL     OW12244   2.589   2.276   4.147
 3782SOL    HW112245   2.636   2.313   4.227
 3782SOL    HW212246   2.655   2.259   4.074
 3783SOL     OW12247   6.633   6.560   4.888
 3783SOL    HW112248   6.716   6.539   4.837
 3783SOL    HW212249   6.558   6.504   4.854
 3784SOL     OW12250   4.592   1.488   3.099
 3784SOL    HW112251   4.636   1.483   3.009
 3784SOL    HW212252   4.493   1.485   3.087
 3785SOL     OW12253   2.191   1.239   0.082
 3785SOL    HW112254   2.144   1.203   0.002
 3785SOL    HW212255   2.185   1.339   0.083
 3786SOL     OW12256   2.936   5.935   3.287
 3786SOL    HW112257   2.936   5.919   3.386
 3786SOL    HW212258   2.851   5.900   3.247
 3787SOL     OW12259   5.550   6.241   3.789
 3787SOL    HW112260   5.518   6.292   3.868
 3787SOL    HW212261   5.639   6.276   3.760
 3788SOL     OW12262   6.693   3.148   3.437
 3788SOL    HW112263   6.696   3.162   3.338
 3788SOL    HW212264   6.654   3.057   3.457
 3789SOL     OW12265   1.679   4.450   3.887
 3789SOL    HW112266   1.757   4.399   3.923
 3789SOL    HW212267   1.692   4.548   3.904
 3790SOL     OW12268   1.583   3.972   5.015
 3790SOL    HW112269   1.596   3.873   5.019
 3790SOL    HW212270   1.654   4.018   5.068
 3791SOL     OW12271   6.009   0.030   0.902
 3791SOL    HW112272   5.910   0.018   0.906
 3791SOL    HW212273   6.051   6.974   0.855
 3792SOL     OW12274   6.774   0.513   4.673
 3792SOL    HW112275   6.698   0.524   4.609
 3792SOL    HW212276   6.799   0.602   4.711
 3793SOL     OW12277   2.476   0.451   3.008
 3793SOL    HW112278   2.389   0.500   3.001
 3793SOL    HW212279   2.467   0.377   3.075
 3794SOL     OW12280   3.618   5.432   1.882
 3794SOL    HW112281   3.696   5.372   1.902
 3794SOL    HW212282   3.540   5.376   1.853
 3795SOL     OW12283   4.010   6.481   6.778
 3795SOL    HW112284   3.967   6.567   6.805
 3795SOL    HW212285   4.009   6.417   6.855
 3796SOL     OW12286   2.127   2.554   1.555
 3796SOL    HW112287   2.075   2.630   1.595
 3796SOL    HW212288   2.116   2.473   1.611
 3797SOL     OW12289   6.616   5.340   2.428
 3797SOL    HW112290   6.616   5.439   2.437
 3797SOL    HW212291   6.709   5.305   2.442
 3798SOL     OW12292   2.647   5.111   3.344
 3798SOL    HW112293   2.627   5.138   3.249
 3798SOL    HW212294   2.701   5.183   3.387
 3799SOL     OW12295   0.803   2.543   4.382
 3799SOL    HW112296   0.849   2.467   4.338
 3799SOL    HW212297   0.717   2.511   4.423
 3800SOL     OW12298   5.054   2.369   5.070
 3800SOL    HW112299   5.093   2.362   5.162
 3800SOL    HW212300   5.030   2.278   5.037
 3801SOL     OW12301   6.546   5.938   5.258
 3801SOL    HW112302   6.533   6.024   5.208
 3801SOL    HW212303   6.641   5.931   5.288
 3802SOL     OW12304   0.675   1.705   4.684
 3802SOL    HW112305   0.656   1.696   4.782
 3802SOL    HW212306   0.614   1.773   4.644
 3803SOL     OW12307   3.539   1.227   1.985
 3803SOL    HW112308   3.491   1.165   1.923
 3803SOL    HW212309   3.593   1.293   1.933
 3804SOL     OW12310   4.945   2.305   4.537
 3804SOL    HW112311   4.878   2.361   4.489
 3804SOL    HW212312   5.027   2.360   4.555
 3805SOL     OW12313   2.928   3.897   1.782
 3805SOL    HW112314   2.938   3.993   1.759
 3805SOL    HW212315   2.999   3.844   1.736
 3806SOL     OW12316   2.491   2.729   6.982
 3806SOL    HW112317   2.552   2.750   6.905
 3806SOL    HW212318   2.545   2.695   0.037
 3807SOL     OW12319   2.436   1.656   4.540
 3807SOL    HW112320   2.463   1.583   4.602
 3807SOL    HW212321   2.384   1.617   4.463
 3808SOL     OW12322   3.130   0.657   2.107
 3808SOL    HW112323   3.104   0.568   2.068
 3808SOL    HW212324   3.230   0.660   2.118
 3809SOL     OW12325   5.912   2.061   0.175
 3809SOL    HW112326   6.007   2.082   0.154
 3809SOL    HW212327   5.873   2.006   0.102
 3810SOL     OW12328   4.033   2.888   5.474
 3810SOL    HW112329   4.029   2.988   5.484
 3810SOL    HW212330   3.958   2.858   5.416
 3811SOL     OW12331   0.911   4.458   4.259
 3811SOL    HW112332   0.954   4.407   4.334
 3811SOL    HW212333   0.960   4.545   4.247
 3812SOL     OW12334   5.631   1.540   5.633
 3812SOL    HW112335   5.694   1.533   5.711
 3812SOL    HW212336   5.626   1.453   5.586
 3813SOL     OW12337   4.320   4.321   1.339
 3813SOL    HW112338   4.387   4.257   1.302
 3813SOL    HW212339   4.236   4.271   1.362
 3814SOL     OW12340   0.438   6.253   0.917
 3814SOL    HW112341   0.407   6.348   0.914
 3814SOL    HW212342   0.406   6.210   1.001
 3815SOL     OW12343   4.758   2.003   0.549
 3815SOL    HW112344   4.826   2.002   0.622
 3815SOL    HW212345   4.767   1.920   0.494
 3816SOL     OW12346   0.222   6.625   1.420
 3816SOL    HW112347   0.199   6.663   1.510
 3816SOL    HW212348   0.138   6.609   1.369
 3817SOL     OW12349   4.766   2.835   3.983
 3817SOL    HW112350   4.807   2.761   3.930
 3817SOL    HW212351   4.786   2.922   3.940
 3818SOL     OW12352   4.560   6.637   1.564
 3818SOL    HW112353   4.516   6.681   1.485
 3818SOL    HW212354   4.510   6.554   1.588
 3819SOL     OW12355   5.499   4.608   0.739
 3819SOL    HW112356   5.412   4.648   0.713
 3819SOL    HW212357   5.485   4.515   0.773
 3820SOL     OW12358   6.244   6.575   3.575
 3820SOL    HW112359   6.216   6.537   3.486
 3820SOL    HW212360   6.330   6.533   3.603
 3821SOL     OW12361   1.712   3.284   2.164
 3821SOL    HW112362   1.728   3.373   2.121
 3821SOL    HW212363   1.793   3.226   2.153
 3822SOL     OW12364   1.113   5.271   2.176
 3822SOL    HW112365   1.169   5.339   2.129
 3822SOL    HW212366   1.070   5.210   2.109
 3823SOL     OW12367   4.196   2.178   5.036
 3823SOL    HW112368   4.137   2.156   4.959
 3823SOL    HW212369   4.218   2.275   5.035
 3824SOL     OW12370   5.984   1.774   5.457
 3824SOL    HW112371   6.007   1.680   5.430
 3824SOL    HW212372   6.026   1.795   5.545
 3825SOL     OW12373   0.057   0.287   0.003
 3825SOL    HW112374   0.038   0.255   0.096
 3825SOL    HW212375   0.034   0.384   7.018
 3826SOL     OW12376   0.256   3.656   0.089
 3826SOL    HW112377   0.234   3.569   0.134
 3826SOL    HW212378   0.330   3.642   0.024
 3827SOL     OW12379   3.789   3.764   1.125
 3827SOL    HW112380   3.802   3.731   1.032
 3827SOL    HW212381   3.707   3.723   1.164
 3828SOL     OW12382   4.538   2.521   1.025
 3828SOL    HW112383   4.468   2.593   1.024
 3828SOL    HW212384   4.628   2.562   1.038
 3829SOL     OW12385   2.160   5.071   4.039
 3829SOL    HW112386   2.218   5.077   3.958
 3829SOL    HW212387   2.206   5.116   4.116
 3830SOL     OW12388   1.104   0.083   5.518
 3830SOL    HW112389   1.161   0.165   5.514
 3830SOL    HW212390   1.083   0.062   5.613
 3831SOL     OW12391   4.654   2.091   2.414
 3831SOL    HW112392   4.701   2.115   2.329
 3831SOL    HW212393   4.712   2.031   2.469
 3832SOL     OW12394   6.561   0.588   2.246
 3832SOL    HW112395   6.654   0.591   2.208
 3832SOL    HW212396   6.513   0.672   2.221
 3833SOL     OW12397   0.934   5.465   6.712
 3833SOL    HW112398   0.916   5.377   6.668
 3833SOL    HW212399   0.964   5.532   6.644
 3834SOL     OW12400   3.085   2.097   0.156
 3834SOL    HW112401   3.045   2.036   0.224
 3834SOL    HW212402   3.121   2.043   0.080
 3835SOL     OW12403   3.322   5.282   5.216
 3835SOL    HW112404   3.419   5.288   5.243
 3835SOL    HW212405   3.292   5.187   5.220
 3836SOL     OW12406   1.957   3.356   5.173
 3836SOL    HW112407   1.888   3.312   5.115
 3836SOL    HW212408   2.028   3.289   5.195
 3837SOL     OW12409   4.701   3.440   0.761
 3837SOL    HW112410   4.684   3.379   0.684
 3837SOL    HW212411   4.796   3.431   0.791
 3838SOL     OW12412   5.438   3.664   4.919
 3838SOL    HW112413   5.507   3.592   4.906
 3838SOL    HW212414   5.433   3.688   5.016
 3839SOL     OW12415   4.639   0.245   4.889
 3839SOL    HW112416   4.709   0.223   4.957
 3839SOL    HW212417   4.549   0.219   4.925
 3840SOL     OW12418   0.894   0.619   5.284
 3840SOL    HW112419   0.905   0.665   5.196
 3840SOL    HW212420   0.798   0.595   5.298
 3841SOL     OW12421   0.470   3.983   5.322
 3841SOL    HW112422   0.453   3.957   5.227
 3841SOL    HW212423   0.554   3.939   5.353
 3842SOL     OW12424   1.142   5.533   0.227
 3842SOL    HW112425   1.095   5.446   0.216
 3842SOL    HW212426   1.075   5.607   0.237
 3843SOL     OW12427   0.457   3.551   0.936
 3843SOL    HW112428   0.546   3.526   0.975
 3843SOL    HW212429   0.391   3.479   0.956
 3844SOL     OW12430   1.286   5.325   5.618
 3844SOL    HW112431   1.271   5.305   5.715
 3844SOL    HW212432   1.377   5.364   5.606
 3845SOL     OW12433   3.361   2.884   2.610
 3845SOL    HW112434   3.328   2.885   2.704
 3845SOL    HW212435   3.293   2.929   2.551
 3846SOL     OW12436   0.191   5.038   4.155
 3846SOL    HW112437   0.256   5.100   4.109
 3846SOL    HW212438   0.180   4.955   4.100
 3847SOL     OW12439   6.223   0.816   6.400
 3847SOL    HW112440   6.240   0.829   6.498
 3847SOL    HW212441   6.310   0.818   6.351
 3848SOL     OW12442   2.014   5.559   2.658
 3848SOL    HW112443   2.107   5.596   2.661
 3848SOL    HW212444   1.956   5.609   2.723
 3849SOL     OW12445   0.299   1.405   5.743
 3849SOL    HW112446   0.246   1.419   5.660
 3849SOL    HW212447   0.271   1.472   5.812
 3850SOL     OW12448   2.646   3.438   1.776
 3850SOL    HW112449   2.655   3.535   1.753
 3850SOL    HW212450   2.549   3.416   1.791
 3851SOL     OW12451   1.975   4.207   2.769
 3851SOL    HW112452   1.992   4.196   2.867
 3851SOL    HW212453   1.880   4.181   2.749
 3852SOL     OW12454   4.430   6.851   4.913
 3852SOL    HW112455   4.392   6.816   4.827
 3852SOL    HW212456   4.412   6.949   4.920
 3853SOL     OW12457   0.847   3.366   2.313
 3853SOL    HW112458   0.827   3.268   2.306
 3853SOL    HW212459   0.766   3.414   2.345
 3854SOL     OW12460   1.067   3.250   3.149
 3854SOL    HW112461   1.115   3.336   3.162
 3854SOL    HW212462   1.001   3.237   3.224
 3855SOL     OW12463   6.008   4.565   6.268
 3855SOL    HW112464   6.099   4.579   6.228
 3855SOL    HW212465   5.938   4.577   6.197
 3856SOL     OW12466   0.145   0.196   6.036
 3856SOL    HW112467   0.085   0.119   6.059
 3856SOL    HW212468   0.197   0.174   5.954
 3857SOL     OW12469   1.580   6.894   5.125
 3857SOL    HW112470   1.641   6.940   5.059
 3857SOL    HW212471   1.531   6.963   5.178
 3858SOL     OW12472   1.112   6.146   6.073
 3858SOL    HW112473   1.073   6.066   6.117
 3858SOL    HW212474   1.172   6.117   5.998
 3859SOL     OW12475   6.663   2.405   3.774
 3859SOL    HW112476   6.602   2.395   3.695
 3859SOL    HW212477   6.621   2.468   3.840
 3860SOL     OW12478   2.581   5.714   4.919
 3860SOL    HW112479   2.541   5.805   4.917
 3860SOL    HW212480   2.681   5.721   4.920
 3861SOL     OW12481   5.608   4.923   1.266
 3861SOL    HW112482   5.568   5.015   1.263
 3861SOL    HW212483   5.575   4.870   1.188
 3862SOL     OW12484   0.010   0.122   6.406
 3862SOL    HW112485   0.015   0.159   6.499
 3862SOL    HW212486   0.057   0.184   6.344
 3863SOL     OW12487   3.053   3.776   0.236
 3863SOL    HW112488   3.020   3.721   0.312
 3863SOL    HW212489   3.140   3.820   0.260
 3864SOL     OW12490   4.212   1.877   6.523
 3864SOL    HW112491   4.288   1.824   6.484
 3864SOL    HW212492   4.128   1.824   6.515
 3865SOL     OW12493   3.922   0.364   2.316
 3865SOL    HW112494   3.897   0.356   2.412
 3865SOL    HW212495   3.957   0.276   2.284
 3866SOL     OW12496   4.146   0.262   0.618
 3866SOL    HW112497   4.134   0.339   0.680
 3866SOL    HW212498   4.184   0.294   0.532
 3867SOL     OW12499   1.785   3.873   3.571
 3867SOL    HW112500   1.797   3.778   3.544
 3867SOL    HW212501   1.875   3.918   3.572
 3868SOL     OW12502   2.128   6.213   1.819
 3868SOL    HW112503   2.187   6.279   1.866
 3868SOL    HW212504   2.041   6.205   1.869
 3869SOL     OW12505   7.018   2.808   3.673
 3869SOL    HW112506   6.978   2.887   3.627
 3869SOL    HW212507   6.946   2.745   3.701
 3870SOL     OW12508   3.041   5.044   6.573
 3870SOL    HW112509   2.966   5.002   6.522
 3870SOL    HW212510   3.124   5.042   6.518
 3871SOL     OW12511   3.222   6.956   2.851
 3871SOL    HW112512   3.203   6.996   2.761
 3871SOL    HW212513   3.288   6.882   2.841
 3872SOL     OW12514   3.773   3.318   1.026
 3872SOL    HW112515   3.867   3.295   0.998
 3872SOL    HW212516   3.723   3.352   0.946
 3873SOL     OW12517   5.291   5.551   1.299
 3873SOL    HW112518   5.237   5.493   1.360
 3873SOL    HW212519   5.229   5.609   1.246
 3874SOL     OW12520   4.433   6.351   6.917
 3874SOL    HW112521   4.437   6.271   6.977
 3874SOL    HW212522   4.522   6.395   6.914
 3875SOL     OW12523   1.631   3.879   2.414
 3875SOL    HW112524   1.533   3.869   2.397
 3875SOL    HW212525   1.667   3.953   2.358
 3876SOL     OW12526   5.665   4.815   5.278
 3876SOL    HW112527   5.755   4.858   5.282
 3876SOL    HW212528   5.594   4.884   5.292
 3877SOL     OW12529   5.713   0.888   1.600
 3877SOL    HW112530   5.663   0.971   1.625
 3877SOL    HW212531   5.655   0.808   1.615
 3878SOL     OW12532   3.635   6.627   6.440
 3878SOL    HW112533   3.710   6.674   6.392
 3878SOL    HW212534   3.672   6.562   6.506
 3879SOL     OW12535   4.610   5.335   1.540
 3879SOL    HW112536   4.513   5.317   1.522
 3879SOL    HW212537   4.618   5.410   1.606
 3880SOL     OW12538   5.947   3.752   2.348
 3880SOL    HW112539   5.872   3.783   2.290
 3880SOL    HW212540   5.915   3.678   2.407
 3881SOL     OW12541   1.707   5.140   1.096
 3881SOL    HW112542   1.789   5.083   1.101
 3881SOL    HW212543   1.656   5.116   1.013
 3882SOL     OW12544   6.461   1.199   6.174
 3882SOL    HW112545   6.544   1.145   6.158
 3882SOL    HW212546   6.429   1.237   6.087
 3883SOL     OW12547   4.801   1.357   3.643
 3883SOL    HW112548   4.768   1.333   3.552
 3883SOL    HW212549   4.730   1.335   3.711
 3884SOL     OW12550   1.670   6.073   5.082
 3884SOL    HW112551   1.673   6.165   5.044
 3884SOL    HW212552   1.713   6.071   5.172
 3885SOL     OW12553   0.110   1.125   4.182
 3885SOL    HW112554   0.039   1.176   4.134
 3885SOL    HW212555   0.166   1.075   4.116
 3886SOL     OW12556   0.042   0.437   5.290
 3886SOL    HW112557   0.131   0.482   5.282
 3886SOL    HW212558   7.020   0.432   5.201
 3887SOL     OW12559   4.048   1.603   5.290
 3887SOL    HW112560   4.143   1.626   5.313
 3887SOL    HW212561   4.034   1.613   5.192
 3888SOL     OW12562   6.302   1.549   0.696
 3888SOL    HW112563   6.223   1.542   0.636
 3888SOL    HW212564   6.309   1.643   0.731
 3889SOL     OW12565   0.750   5.363   6.385
 3889SOL    HW112566   0.779   5.379   6.291
 3889SOL    HW212567   0.659   5.323   6.386
 3890SOL     OW12568   5.534   5.256   3.150
 3890SOL    HW112569   5.561   5.216   3.063
 3890SOL    HW212570   5.578   5.346   3.160
 3891SOL     OW12571   4.922   5.760   4.707
 3891SOL    HW112572   4.961   5.759   4.799
 3891SOL    HW212573   4.856   5.685   4.698
 3892SOL     OW12574   6.147   6.695   3.102
 3892SOL    HW112575   6.107   6.739   3.021
 3892SOL    HW212576   6.083   6.704   3.179
 3893SOL     OW12577   3.207   5.514   3.967
 3893SOL    HW112578   3.177   5.419   3.965
 3893SOL    HW212579   3.181   5.556   4.054
 3894SOL     OW12580   4.663   3.288   0.516
 3894SOL    HW112581   4.635   3.199   0.550
 3894SOL    HW212582   4.609   3.312   0.435
 3895SOL     OW12583   0.944   0.674   5.555
 3895SOL    HW112584   0.946   0.774   5.552
 3895SOL    HW212585   0.903   0.639   5.471
 3896SOL     OW12586   6.860   2.528   5.246
 3896SOL    HW112587   6.853   2.573   5.335
 3896SOL    HW212588   6.774   2.539   5.197
 3897SOL     OW12589   3.563   6.763   2.224
 3897SOL    HW112590   3.536   6.782   2.130
 3897SOL    HW212591   3.620   6.682   2.227
 3898SOL     OW12592   4.071   3.243   4.467
 3898SOL    HW112593   4.170   3.234   4.474
 3898SOL    HW212594   4.044   3.233   4.371
 3899SOL     OW12595   4.919   1.227   5.914
 3899SOL    HW112596   4.982   1.224   5.992
 3899SOL    HW212597   4.956   1.289   5.844
 3900SOL     OW12598   6.479   1.951   3.317
 3900SOL    HW112599   6.558   2.011   3.302
 3900SOL    HW212600   6.415   1.996   3.380
 3901SOL     OW12601   1.267   6.448   5.002
 3901SOL    HW112602   1.311   6.414   5.086
 3901SOL    HW212603   1.324   6.426   4.923
 3902SOL     OW12604   5.193   5.042   1.636
 3902SOL    HW112605   5.163   4.963   1.582
 3902SOL    HW212606   5.271   5.085   1.591
 3903SOL     OW12607   4.533   3.068   0.083
 3903SOL    HW112608   4.461   3.008   0.047
 3903SOL    HW212609   4.515   3.162   0.054
 3904SOL     OW12610   1.082   6.628   0.656
 3904SOL    HW112611   1.079   6.699   0.726
 3904SOL    HW212612   1.054   6.541   0.697
 3905SOL     OW12613   6.546   0.009   5.861
 3905SOL    HW112614   6.601   0.004   5.778
 3905SOL    HW212615   6.480   0.084   5.853
 3906SOL     OW12616   1.737   5.262   4.206
 3906SOL    HW112617   1.742   5.227   4.300
 3906SOL    HW212618   1.656   5.319   4.195
 3907SOL     OW12619   0.025   1.324   4.576
 3907SOL    HW112620   0.029   1.229   4.544
 3907SOL    HW212621   0.073   1.383   4.511
 3908SOL     OW12622   1.200   0.403   4.935
 3908SOL    HW112623   1.295   0.372   4.940
 3908SOL    HW212624   1.146   0.356   5.005
 3909SOL     OW12625   5.348   3.053   5.862
 3909SOL    HW112626   5.268   3.111   5.849
 3909SOL    HW212627   5.431   3.106   5.847
 3910SOL     OW12628   3.573   2.783   0.750
 3910SOL    HW112629   3.597   2.815   0.658
 3910SOL    HW212630   3.485   2.735   0.746
 3911SOL     OW12631   6.132   1.113   1.592
 3911SOL    HW112632   6.088   1.198   1.563
 3911SOL    HW212633   6.212   1.134   1.647
 3912SOL     OW12634   4.028   2.147   0.235
 3912SOL    HW112635   4.071   2.085   0.300
 3912SOL    HW212636   4.098   2.189   0.178
 3913SOL     OW12637   4.599   5.548   0.623
 3913SOL    HW112638   4.594   5.607   0.542
 3913SOL    HW212639   4.656   5.592   0.692
 3914SOL     OW12640   5.807   0.476   0.704
 3914SOL    HW112641   5.808   0.377   0.716
 3914SOL    HW212642   5.787   0.498   0.608
 3915SOL     OW12643   4.906   4.969   0.270
 3915SOL    HW112644   4.872   4.883   0.233
 3915SOL    HW212645   4.943   4.954   0.362
 3916SOL     OW12646   1.990   0.833   2.861
 3916SOL    HW112647   2.022   0.836   2.766
 3916SOL    HW212648   1.934   0.914   2.879
 3917SOL     OW12649   3.093   4.758   0.478
 3917SOL    HW112650   3.051   4.670   0.497
 3917SOL    HW212651   3.183   4.762   0.522
 3918SOL     OW12652   5.450   0.053   0.535
 3918SOL    HW112653   5.481   0.143   0.503
 3918SOL    HW212654   5.412   0.062   0.627
 3919SOL     OW12655   3.868   0.361   1.175
 3919SOL    HW112656   3.779   0.321   1.151
 3919SOL    HW212657   3.854   0.440   1.234
 3920SOL     OW12658   3.261   0.980   5.770
 3920SOL    HW112659   3.351   1.019   5.787
 3920SOL    HW212660   3.269   0.900   5.711
 3921SOL     OW12661   0.587   2.335   6.238
 3921SOL    HW112662   0.600   2.417   6.181
 3921SOL    HW212663   0.515   2.278   6.199
 3922SOL     OW12664   4.103   5.115   2.467
 3922SOL    HW112665   4.124   5.212   2.452
 3922SOL    HW212666   4.148   5.060   2.397
 3923SOL     OW12667   4.837   0.632   1.713
 3923SOL    HW112668   4.919   0.597   1.758
 3923SOL    HW212669   4.756   0.590   1.754
 3924SOL     OW12670   6.288   4.375   4.544
 3924SOL    HW112671   6.249   4.362   4.453
 3924SOL    HW212672   6.258   4.463   4.581
 3925SOL     OW12673   4.720   3.861   0.925
 3925SOL    HW112674   4.692   3.788   0.987
 3925SOL    HW212675   4.668   3.853   0.839
 3926SOL     OW12676   0.499   0.024   5.317
 3926SOL    HW112677   0.507   0.062   5.409
 3926SOL    HW212678   0.421   0.067   5.270
 3927SOL     OW12679   6.638   2.955   5.056
 3927SOL    HW112680   6.658   2.925   5.149
 3927SOL    HW212681   6.638   3.055   5.054
 3928SOL     OW12682   2.251   6.414   2.885
 3928SOL    HW112683   2.246   6.322   2.925
 3928SOL    HW212684   2.329   6.463   2.923
 3929SOL     OW12685   0.670   1.961   5.280
 3929SOL    HW112686   0.725   1.942   5.361
 3929SOL    HW212687   0.576   1.929   5.296
 3930SOL     OW12688   1.257   3.448   3.803
 3930SOL    HW112689   1.167   3.489   3.822
 3930SOL    HW212690   1.307   3.508   3.740
 3931SOL     OW12691   1.338   2.401   1.618
 3931SOL    HW112692   1.334   2.354   1.706
 3931SOL    HW212693   1.254   2.454   1.605
 3932SOL     OW12694   1.426   5.888   4.343
 3932SOL    HW112695   1.446   5.899   4.246
 3932SOL    HW212696   1.495   5.935   4.398
 3933SOL     OW12697   2.210   5.003   0.506
 3933SOL    HW112698   2.176   5.094   0.481
 3933SOL    HW212699   2.201   4.942   0.427
 3934SOL     OW12700   0.821   1.823   2.031
 3934SOL    HW112701   0.879   1.746   2.003
 3934SOL    HW212702   0.819   1.829   2.131
 3935SOL     OW12703   6.447   3.257   6.885
 3935SOL    HW112704   6.396   3.252   6.799
 3935SOL    HW212705   6.407   3.195   6.952
 3936SOL     OW12706   0.438   5.294   5.592
 3936SOL    HW112707   0.394   5.302   5.503
 3936SOL    HW212708   0.420   5.204   5.631
 3937SOL     OW12709   0.267   6.993   2.468
 3937SOL    HW112710   0.365   7.011   2.472
 3937SOL    HW212711   0.250   6.896   2.483
 3938SOL     OW12712   0.019   4.216   3.033
 3938SOL    HW112713   0.098   4.187   2.979
 3938SOL    HW212714   0.022   4.315   3.046
 3939SOL     OW12715   0.732   1.153   2.382
 3939SOL    HW112716   0.699   1.163   2.288
 3939SOL    HW212717   0.753   1.243   2.420
 3940SOL     OW12718   3.224   4.701   1.127
 3940SOL    HW112719   3.138   4.664   1.092
 3940SOL    HW212720   3.280   4.626   1.163
 3941SOL     OW12721   5.799   6.537   4.302
 3941SOL    HW112722   5.863   6.557   4.377
 3941SOL    HW212723   5.711   6.508   4.340
 3942SOL     OW12724   0.595   6.047   6.349
 3942SOL    HW112725   0.614   5.956   6.312
 3942SOL    HW212726   0.673   6.077   6.405
 3943SOL     OW12727   1.434   3.196   0.536
 3943SOL    HW112728   1.419   3.234   0.444
 3943SOL    HW212729   1.347   3.167   0.575
 3944SOL     OW12730   6.048   1.933   6.800
 3944SOL    HW112731   6.014   2.020   6.764
 3944SOL    HW212732   6.143   1.921   6.772
 3945SOL     OW12733   6.989   1.319   2.902
 3945SOL    HW112734   0.031   1.301   2.827
 3945SOL    HW212735   6.919   1.383   2.872
 3946SOL     OW12736   0.956   3.053   0.701
 3946SOL    HW112737   0.889   3.000   0.753
 3946SOL    HW212738   0.933   3.050   0.604
 3947SOL     OW12739   6.037   5.422   1.244
 3947SOL    HW112740   6.003   5.473   1.166
 3947SOL    HW212741   6.089   5.343   1.213
 3948SOL     OW12742   1.680   2.499   5.805
 3948SOL    HW112743   1.741   2.458   5.737
 3948SOL    HW212744   1.734   2.536   5.881
 3949SOL     OW12745   6.264   6.177   2.261
 3949SOL    HW112746   6.240   6.263   2.215
 3949SOL    HW212747   6.265   6.192   2.360
 3950SOL     OW12748   3.236   4.238   1.251
 3950SOL    HW112749   3.188   4.216   1.166
 3950SOL    HW212750   3.269   4.332   1.248
 3951SOL     OW12751   0.829   1.901   5.560
 3951SOL    HW112752   0.905   1.949   5.514
 3951SOL    HW212753   0.858   1.874   5.652
 3952SOL     OW12754   6.729   3.693   5.768
 3952SOL    HW112755   6.728   3.633   5.688
 3952SOL    HW212756   6.654   3.759   5.761
 3953SOL     OW12757   3.587   4.328   5.946
 3953SOL    HW112758   3.534   4.253   5.905
 3953SOL    HW212759   3.684   4.305   5.945
 3954SOL     OW12760   0.668   3.777   5.382
 3954SOL    HW112761   0.759   3.749   5.352
 3954SOL    HW212762   0.620   3.698   5.421
 3955SOL     OW12763   5.490   5.005   0.209
 3955SOL    HW112764   5.412   5.066   0.220
 3955SOL    HW212765   5.570   5.045   0.254
 3956SOL     OW12766   0.508   2.972   5.834
 3956SOL    HW112767   0.583   3.006   5.777
 3956SOL    HW212768   0.530   2.986   5.930
 3957SOL     OW12769   1.857   0.256   3.283
 3957SOL    HW112770   1.869   0.196   3.362
 3957SOL    HW212771   1.861   0.351   3.312
 3958SOL     OW12772   5.795   6.287   5.235
 3958SOL    HW112773   5.747   6.313   5.318
 3958SOL    HW212774   5.894   6.301   5.248
 3959SOL     OW12775   2.805   4.997   0.139
 3959SOL    HW112776   2.785   5.023   0.044
 3959SOL    HW212777   2.765   4.908   0.159
 3960SOL     OW12778   3.816   3.224   6.982
 3960SOL    HW112779   3.803   3.209   0.058
 3960SOL    HW212780   3.911   3.208   6.957
 3961SOL     OW12781   4.574   0.381   1.371
 3961SOL    HW112782   4.531   0.306   1.421
 3961SOL    HW212783   4.570   0.465   1.426
 3962SOL     OW12784   0.724   0.098   6.524
 3962SOL    HW112785   0.658   0.098   6.449
 3962SOL    HW212786   0.688   0.154   6.600
 3963SOL     OW12787   4.308   5.672   3.316
 3963SOL    HW112788   4.396   5.629   3.338
 3963SOL    HW212789   4.246   5.664   3.394
 3964SOL     OW12790   5.254   5.784   5.260
 3964SOL    HW112791   5.238   5.855   5.192
 3964SOL    HW212792   5.167   5.753   5.298
 3965SOL     OW12793   3.281   3.336   0.282
 3965SOL    HW112794   3.377   3.312   0.265
 3965SOL    HW212795   3.272   3.374   0.374
 3966SOL     OW12796   6.210   3.943   5.100
 3966SOL    HW112797   6.304   3.926   5.071
 3966SOL    HW212798   6.201   4.040   5.126
 3967SOL     OW12799   0.487   5.626   6.047
 3967SOL    HW112800   0.451   5.655   6.135
 3967SOL    HW212801   0.482   5.701   5.982
 3968SOL     OW12802   5.738   1.414   1.983
 3968SOL    HW112803   5.810   1.358   1.940
 3968SOL    HW212804   5.658   1.357   2.000
 3969SOL     OW12805   0.529   5.145   2.450
 3969SOL    HW112806   0.454   5.182   2.395
 3969SOL    HW212807   0.515   5.170   2.546
 3970SOL     OW12808   5.487   4.537   2.797
 3970SOL    HW112809   5.473   4.631   2.827
 3970SOL    HW212810   5.414   4.479   2.834
 3971SOL     OW12811   1.586   5.879   3.023
 3971SOL    HW112812   1.541   5.790   3.020
 3971SOL    HW212813   1.598   5.914   2.930
 3972SOL     OW12814   0.654   6.949   0.222
 3972SOL    HW112815   0.748   6.942   0.258
 3972SOL    HW212816   0.604   7.018   0.275
 3973SOL     OW12817   2.946   3.769   4.464
 3973SOL    HW112818   2.995   3.834   4.407
 3973SOL    HW212819   2.850   3.797   4.470
 3974SOL     OW12820   6.266   1.310   6.591
 3974SOL    HW112821   6.180   1.309   6.540
 3974SOL    HW212822   6.261   1.245   6.667
 3975SOL     OW12823   6.975   0.708   5.930
 3975SOL    HW112824   6.876   0.721   5.941
 3975SOL    HW212825   6.999   0.716   5.833
 3976SOL     OW12826   1.094   3.361   0.428
 3976SOL    HW112827   1.025   3.294   0.456
 3976SOL    HW212828   1.050   3.435   0.377
 3977SOL     OW12829   3.351   6.079   6.561
 3977SOL    HW112830   3.393   6.080   6.470
 3977SOL    HW212831   3.299   5.994   6.572
 3978SOL     OW12832   6.219   2.935   6.430
 3978SOL    HW112833   6.162   2.878   6.490
 3978SOL    HW212834   6.297   2.970   6.482
 3979SOL     OW12835   0.605   6.689   2.304
 3979SOL    HW112836   0.564   6.693   2.395
 3979SOL    HW212837   0.647   6.777   2.283
 3980SOL     OW12838   5.216   3.131   4.361
 3980SOL    HW112839   5.130   3.081   4.371
 3980SOL    HW212840   5.219   3.174   4.271
 3981SOL     OW12841   6.948   2.034   6.881
 3981SOL    HW112842   6.899   1.993   6.803
 3981SOL    HW212843   6.888   2.036   6.960
 3982SOL     OW12844   2.297   1.911   3.724
 3982SOL    HW112845   2.229   1.970   3.680
 3982SOL    HW212846   2.386   1.924   3.681
 3983SOL     OW12847   3.010   5.957   4.288
 3983SOL    HW112848   2.935   5.924   4.230
 3983SOL    HW212849   2.994   5.929   4.382
 3984SOL     OW12850   2.047   6.370   1.548
 3984SOL    HW112851   2.043   6.465   1.580
 3984SOL    HW212852   2.080   6.312   1.622
 3985SOL     OW12853   2.438   3.103   1.415
 3985SOL    HW112854   2.379   3.184   1.422
 3985SOL    HW212855   2.480   3.085   1.504
 3986SOL     OW12856   0.330   2.198   1.882
 3986SOL    HW112857   0.380   2.273   1.838
 3986SOL    HW212858   0.313   2.220   1.978
 3987SOL     OW12859   2.658   4.813   6.675
 3987SOL    HW112860   2.676   4.845   6.768
 3987SOL    HW212861   2.718   4.862   6.611
 3988SOL     OW12862   4.192   2.915   0.689
 3988SOL    HW112863   4.194   2.859   0.607
 3988SOL    HW212864   4.107   2.898   0.740
 3989SOL     OW12865   5.517   6.489   6.775
 3989SOL    HW112866   5.452   6.502   6.850
 3989SOL    HW212867   5.469   6.457   6.694
 3990SOL     OW12868   0.906   3.544   3.455
 3990SOL    HW112869   0.832   3.527   3.390
 3990SOL    HW212870   0.869   3.545   3.548
 3991SOL     OW12871   0.454   2.095   4.004
 3991SOL    HW112872   0.400   2.173   3.974
 3991SOL    HW212873   0.416   2.011   3.965
 3992SOL     OW12874   4.511   3.598   6.513
 3992SOL    HW112875   4.438   3.661   6.538
 3992SOL    HW212876   4.471   3.511   6.483
 3993SOL     OW12877   2.830   2.329   2.964
 3993SOL    HW112878   2.905   2.298   2.906
 3993SOL    HW212879   2.756   2.364   2.906
 3994SOL     OW12880   2.198   2.751   3.451
 3994SOL    HW112881   2.278   2.761   3.510
 3994SOL    HW212882   2.216   2.681   3.383
 3995SOL     OW12883   2.179   3.989   3.336
 3995SOL    HW112884   2.125   3.966   3.417
 3995SOL    HW212885   2.185   3.910   3.275
 3996SOL     OW12886   6.993   1.477   3.216
 3996SOL    HW112887   6.998   1.379   3.197
 3996SOL    HW212888   0.039   1.525   3.160
 3997SOL     OW12889   5.743   3.930   3.347
 3997SOL    HW112890   5.683   3.962   3.273
 3997SOL    HW212891   5.763   3.833   3.334
 3998SOL     OW12892   6.651   1.749   3.229
 3998SOL    HW112893   6.649   1.704   3.318
 3998SOL    HW212894   6.583   1.821   3.226
 3999SOL     OW12895   5.650   3.611   2.637
 3999SOL    HW112896   5.596   3.556   2.574
 3999SOL    HW212897   5.747   3.602   2.613
 4000SOL     OW12898   2.406   5.635   2.310
 4000SOL    HW112899   2.335   5.584   2.360
 4000SOL    HW212900   2.461   5.571   2.256
 4001SOL     OW12901   2.516   4.030   5.324
 4001SOL    HW112902   2.594   4.001   5.268
 4001SOL    HW212903   2.434   4.034   5.267
 4002SOL     OW12904   3.563   2.984   4.626
 4002SOL    HW112905   3.585   2.947   4.535
 4002SOL    HW212906   3.555   3.084   4.619
 4003SOL     OW12907   1.942   0.962   5.628
 4003SOL    HW112908   2.025   1.014   5.610
 4003SOL    HW212909   1.870   1.023   5.662
 4004SOL     OW12910   0.095   3.742   2.779
 4004SOL    HW112911   0.047   3.776   2.699
 4004SOL    HW212912   0.178   3.797   2.794
 4005SOL     OW12913   4.623   3.526   1.651
 4005SOL    HW112914   4.719   3.499   1.660
 4005SOL    HW212915   4.565   3.464   1.703
 4006SOL     OW12916   5.002   5.038   2.683
 4006SOL    HW112917   4.955   5.061   2.768
 4006SOL    HW212918   4.935   5.033   2.609
 4007SOL     OW12919   0.701   1.848   3.092
 4007SOL    HW112920   0.637   1.797   3.035
 4007SOL    HW212921   0.673   1.841   3.188
 4008SOL     OW12922   2.310   0.059   0.869
 4008SOL    HW112923   2.224   0.064   0.816
 4008SOL    HW212924   2.288   0.048   0.966
 4009SOL     OW12925   4.439   1.829   1.041
 4009SOL    HW112926   4.478   1.794   1.126
 4009SOL    HW212927   4.354   1.878   1.061
 4010SOL     OW12928   3.321   4.486   1.289
 4010SOL    HW112929   3.297   4.473   1.385
 4010SOL    HW212930   3.415   4.519   1.282
 4011SOL     OW12931   6.466   6.055   0.600
 4011SOL    HW112932   6.425   6.010   0.520
 4011SOL    HW212933   6.506   6.142   0.572
 4012SOL     OW12934   4.241   6.753   1.622
 4012SOL    HW112935   4.152   6.783   1.655
 4012SOL    HW212936   4.278   6.685   1.685
 4013SOL     OW12937   1.560   0.696   0.751
 4013SOL    HW112938   1.616   0.779   0.742
 4013SOL    HW212939   1.505   0.703   0.834
 4014SOL     OW12940   2.995   5.934   3.573
 4014SOL    HW112941   2.989   5.955   3.671
 4014SOL    HW212942   3.057   5.857   3.559
 4015SOL     OW12943   4.575   5.366   6.267
 4015SOL    HW112944   4.556   5.278   6.312
 4015SOL    HW212945   4.673   5.376   6.252
 4016SOL     OW12946   3.193   5.675   6.395
 4016SOL    HW112947   3.236   5.721   6.317
 4016SOL    HW212948   3.251   5.598   6.423
 4017SOL     OW12949   0.873   5.386   5.805
 4017SOL    HW112950   0.777   5.414   5.797
 4017SOL    HW212951   0.895   5.322   5.732
 4018SOL     OW12952   3.556   6.392   1.654
 4018SOL    HW112953   3.640   6.355   1.694
 4018SOL    HW212954   3.494   6.421   1.728
 4019SOL     OW12955   5.412   3.216   2.486
 4019SOL    HW112956   5.382   3.121   2.491
 4019SOL    HW212957   5.510   3.220   2.465
 4020SOL     OW12958   6.873   4.256   4.107
 4020SOL    HW112959   6.961   4.287   4.070
 4020SOL    HW212960   6.801   4.278   4.042
 4021SOL     OW12961   3.391   3.863   5.927
 4021SOL    HW112962   3.449   3.782   5.923
 4021SOL    HW212963   3.430   3.935   5.868
 4022SOL     OW12964   3.622   6.850   0.766
 4022SOL    HW112965   3.534   6.850   0.814
 4022SOL    HW212966   3.681   6.779   0.804
 4023SOL     OW12967   0.332   1.766   5.625
 4023SOL    HW112968   0.306   1.783   5.529
 4023SOL    HW212969   0.426   1.797   5.640
 4024SOL     OW12970   1.548   5.087   4.095
 4024SOL    HW112971   1.457   5.123   4.118
 4024SOL    HW212972   1.617   5.134   4.149
 4025SOL     OW12973   0.933   6.136   4.067
 4025SOL    HW112974   0.970   6.044   4.084
 4025SOL    HW212975   0.988   6.182   3.998
 4026SOL     OW12976   6.564   5.930   4.054
 4026SOL    HW112977   6.624   6.005   4.028
 4026SOL    HW212978   6.475   5.966   4.082
 4027SOL     OW12979   2.706   2.241   6.806
 4027SOL    HW112980   2.683   2.160   6.860
 4027SOL    HW212981   2.673   2.229   6.713
 4028SOL     OW12982   4.570   1.706   3.269
 4028SOL    HW112983   4.511   1.642   3.318
 4028SOL    HW212984   4.600   1.665   3.183
 4029SOL     OW12985   2.945   3.979   6.396
 4029SOL    HW112986   2.888   3.910   6.352
 4029SOL    HW212987   2.888   4.037   6.454
 4030SOL     OW12988   7.014   0.843   2.050
 4030SOL    HW112989   6.940   0.776   2.039
 4030SOL    HW212990   7.012   0.879   2.144
 4031SOL     OW12991   5.436   0.527   2.323
 4031SOL    HW112992   5.345   0.554   2.356
 4031SOL    HW212993   5.432   0.434   2.286
 4032SOL     OW12994   6.319   6.751   1.840
 4032SOL    HW112995   6.327   6.684   1.766
 4032SOL    HW212996   6.310   6.703   1.927
 4033SOL     OW12997   2.993   2.185   2.717
 4033SOL    HW112998   2.997   2.255   2.645
 4033SOL    HW212999   2.905   2.137   2.712
 4034SOL     OW13000   6.455   2.651   5.383
 4034SOL    HW113001   6.381   2.586   5.366
 4034SOL    HW213002   6.443   2.731   5.323
 4035SOL     OW13003   6.551   1.951   1.743
 4035SOL    HW113004   6.540   2.024   1.676
 4035SOL    HW213005   6.502   1.976   1.827
 4036SOL     OW13006   3.732   4.893   2.391
 4036SOL    HW113007   3.785   4.977   2.375
 4036SOL    HW213008   3.782   4.834   2.454
 4037SOL     OW13009   2.939   0.890   5.994
 4037SOL    HW113010   2.860   0.854   6.045
 4037SOL    HW213011   3.009   0.819   5.987
 4038SOL     OW13012   4.725   3.495   0.026
 4038SOL    HW113013   4.744   3.424   0.094
 4038SOL    HW213014   4.627   3.498   0.007
 4039SOL     OW13015   5.152   5.996   1.471
 4039SOL    HW113016   5.091   6.041   1.536
 4039SOL    HW213017   5.231   5.959   1.519
 4040SOL     OW13018   3.356   5.819   4.574
 4040SOL    HW113019   3.385   5.848   4.665
 4040SOL    HW213020   3.315   5.728   4.579
 4041SOL     OW13021   1.743   6.363   1.477
 4041SOL    HW113022   1.744   6.462   1.489
 4041SOL    HW213023   1.828   6.324   1.511
 4042SOL     OW13024   5.882   6.383   2.990
 4042SOL    HW113025   5.869   6.478   3.018
 4042SOL    HW213026   5.905   6.380   2.893
 4043SOL     OW13027   6.736   1.971   6.713
 4043SOL    HW113028   6.757   2.036   6.639
 4043SOL    HW213029   6.642   1.984   6.743
 4044SOL     OW13030   5.366   4.605   2.512
 4044SOL    HW113031   5.320   4.693   2.525
 4044SOL    HW213032   5.441   4.597   2.576
 4045SOL     OW13033   3.941   6.419   6.116
 4045SOL    HW113034   3.962   6.322   6.108
 4045SOL    HW213035   4.024   6.472   6.100
 4046SOL     OW13036   0.791   1.800   2.617
 4046SOL    HW113037   0.823   1.888   2.652
 4046SOL    HW213038   0.696   1.809   2.588
 4047SOL     OW13039   2.023   2.317   6.914
 4047SOL    HW113040   2.057   2.393   6.859
 4047SOL    HW213041   1.925   2.327   6.928
 4048SOL     OW13042   5.504   1.147   1.933
 4048SOL    HW113043   5.443   1.226   1.940
 4048SOL    HW213044   5.450   1.063   1.926
 4049SOL     OW13045   4.473   6.343   6.615
 4049SOL    HW113046   4.442   6.398   6.693
 4049SOL    HW213047   4.399   6.337   6.548
 4050SOL     OW13048   0.869   6.429   2.087
 4050SOL    HW113049   0.886   6.387   1.998
 4050SOL    HW213050   0.890   6.526   2.082
 4051SOL     OW13051   4.889   1.480   6.497
 4051SOL    HW113052   4.956   1.466   6.569
 4051SOL    HW213053   4.891   1.576   6.467
 4052SOL     OW13054   6.041   2.086   3.264
 4052SOL    HW113055   6.047   2.185   3.256
 4052SOL    HW213056   6.130   2.045   3.243
 4053SOL     OW13057   1.785   6.122   4.735
 4053SOL    HW113058   1.745   6.181   4.664
 4053SOL    HW213059   1.810   6.034   4.696
 4054SOL     OW13060   4.720   4.474   1.050
 4054SOL    HW113061   4.650   4.407   1.074
 4054SOL    HW213062   4.704   4.558   1.103
 4055SOL     OW13063   1.354   4.188   1.310
 4055SOL    HW113064   1.438   4.188   1.257
 4055SOL    HW213065   1.350   4.105   1.365
 4056SOL     OW13066   5.022   3.748   1.280
 4056SOL    HW113067   4.981   3.798   1.357
 4056SOL    HW213068   5.020   3.650   1.299
 4057SOL     OW13069   6.749   3.191   6.709
 4057SOL    HW113070   6.737   3.275   6.656
 4057SOL    HW213071   6.666   3.136   6.704
 4058SOL     OW13072   2.741   6.331   4.945
 4058SOL    HW113073   2.695   6.280   5.017
 4058SOL    HW213074   2.790   6.268   4.885
 4059SOL     OW13075   0.160   2.937   3.159
 4059SOL    HW113076   0.171   2.839   3.175
 4059SOL    HW213077   0.175   2.956   3.062
 4060SOL     OW13078   6.243   4.794   5.737
 4060SOL    HW113079   6.207   4.825   5.649
 4060SOL    HW213080   6.168   4.757   5.792
 4061SOL     OW13081   2.593   4.605   2.183
 4061SOL    HW113082   2.675   4.614   2.126
 4061SOL    HW213083   2.595   4.675   2.255
 4062SOL     OW13084   2.819   0.344   1.947
 4062SOL    HW113085   2.783   0.326   2.039
 4062SOL    HW213086   2.829   0.258   1.897
 4063SOL     OW13087   6.071   6.834   0.753
 4063SOL    HW113088   6.128   6.754   0.773
 4063SOL    HW213089   5.996   6.808   0.693
 4064SOL     OW13090   2.702   2.409   4.746
 4064SOL    HW113091   2.768   2.349   4.791
 4064SOL    HW213092   2.724   2.505   4.767
 4065SOL     OW13093   0.552   0.367   1.338
 4065SOL    HW113094   0.531   0.431   1.264
 4065SOL    HW213095   0.613   0.412   1.404
 4066SOL     OW13096   6.788   4.094   3.022
 4066SOL    HW113097   6.794   3.995   3.024
 4066SOL    HW213098   6.880   4.133   3.014
 4067SOL     OW13099   5.303   3.933   3.670
 4067SOL    HW113100   5.362   3.937   3.751
 4067SOL    HW213101   5.358   3.911   3.590
 4068SOL     OW13102   2.014   2.393   4.150
 4068SOL    HW113103   2.079   2.461   4.184
 4068SOL    HW213104   2.047   2.356   4.063
 4069SOL     OW13105   3.291   5.499   0.084
 4069SOL    HW113106   3.304   5.550   7.021
 4069SOL    HW213107   3.195   5.474   0.094
 4070SOL     OW13108   0.735   3.027   2.922
 4070SOL    HW113109   0.736   3.023   2.822
 4070SOL    HW213110   0.791   3.104   2.953
 4071SOL     OW13111   1.382   1.153   4.719
 4071SOL    HW113112   1.417   1.078   4.776
 4071SOL    HW213113   1.289   1.132   4.690
 4072SOL     OW13114   0.439   5.268   5.087
 4072SOL    HW113115   0.531   5.238   5.112
 4072SOL    HW213116   0.382   5.189   5.066
 4073SOL     OW13117   2.709   5.430   5.911
 4073SOL    HW113118   2.678   5.507   5.855
 4073SOL    HW213119   2.728   5.461   6.004
 4074SOL     OW13120   0.530   4.737   1.217
 4074SOL    HW113121   0.564   4.788   1.296
 4074SOL    HW213122   0.432   4.753   1.206
 4075SOL     OW13123   4.841   2.049   1.260
 4075SOL    HW113124   4.802   2.117   1.323
 4075SOL    HW213125   4.805   1.959   1.281
 4076SOL     OW13126   3.148   3.600   5.758
 4076SOL    HW113127   3.150   3.700   5.763
 4076SOL    HW213128   3.055   3.569   5.740
 4077SOL     OW13129   3.953   1.841   1.073
 4077SOL    HW113130   4.041   1.875   1.103
 4077SOL    HW213131   3.880   1.884   1.127
 4078SOL     OW13132   2.343   5.114   2.436
 4078SOL    HW113133   2.265   5.085   2.380
 4078SOL    HW213134   2.400   5.035   2.456
 4079SOL     OW13135   2.564   1.210   3.020
 4079SOL    HW113136   2.576   1.162   3.107
 4079SOL    HW213137   2.588   1.149   2.945
 4080SOL     OW13138   5.147   2.564   6.024
 4080SOL    HW113139   5.067   2.601   6.071
 4080SOL    HW213140   5.185   2.633   5.962
 4081SOL     OW13141   1.415   2.699   3.994
 4081SOL    HW113142   1.395   2.797   3.995
 4081SOL    HW213143   1.423   2.666   4.088
 4082SOL     OW13144   0.467   4.168   0.514
 4082SOL    HW113145   0.557   4.169   0.558
 4082SOL    HW213146   0.397   4.186   0.583
 4083SOL     OW13147   6.244   3.295   3.173
 4083SOL    HW113148   6.246   3.331   3.079
 4083SOL    HW213149   6.327   3.325   3.221
 4084SOL     OW13150   5.749   1.771   3.680
 4084SOL    HW113151   5.836   1.724   3.661
 4084SOL    HW213152   5.680   1.741   3.615
 4085SOL     OW13153   3.834   5.317   0.329
 4085SOL    HW113154   3.738   5.306   0.356
 4085SOL    HW213155   3.861   5.412   0.340
 4086SOL     OW13156   2.680   6.401   1.259
 4086SOL    HW113157   2.602   6.418   1.319
 4086SOL    HW213158   2.716   6.309   1.276
 4087SOL     OW13159   2.951   2.212   3.180
 4087SOL    HW113160   2.898   2.261   3.111
 4087SOL    HW213161   3.025   2.161   3.136
 4088SOL     OW13162   6.845   1.680   1.026
 4088SOL    HW113163   6.808   1.734   0.950
 4088SOL    HW213164   6.930   1.635   0.997
 4089SOL     OW13165   6.467   6.312   3.517
 4089SOL    HW113166   6.475   6.374   3.595
 4089SOL    HW213167   6.372   6.311   3.485
 4090SOL     OW13168   2.753   4.318   5.770
 4090SOL    HW113169   2.673   4.301   5.712
 4090SOL    HW213170   2.837   4.302   5.718
 4091SOL     OW13171   6.698   6.727   0.588
 4091SOL    HW113172   6.713   6.702   0.492
 4091SOL    HW213173   6.734   6.655   0.648
 4092SOL     OW13174   6.569   3.237   5.028
 4092SOL    HW113175   6.598   3.330   5.053
 4092SOL    HW213176   6.471   3.228   5.042
 4093SOL     OW13177   4.428   0.760   3.603
 4093SOL    HW113178   4.417   0.853   3.568
 4093SOL    HW213179   4.400   0.757   3.699
 4094SOL     OW13180   2.304   5.559   4.626
 4094SOL    HW113181   2.327   5.656   4.629
 4094SOL    HW213182   2.224   5.542   4.683
 4095SOL     OW13183   1.058   3.537   6.778
 4095SOL    HW113184   1.036   3.610   6.714
 4095SOL    HW213185   1.138   3.487   6.744
 4096SOL     OW13186   4.168   5.084   1.198
 4096SOL    HW113187   4.186   5.183   1.205
 4096SOL    HW213188   4.253   5.034   1.209
 4097SOL     OW13189   3.841   4.001   6.155
 4097SOL    HW113190   3.791   3.925   6.114
 4097SOL    HW213191   3.813   4.087   6.111
 4098SOL     OW13192   0.021   3.239   2.001
 4098SOL    HW113193   6.964   3.269   2.054
 4098SOL    HW213194   0.102   3.287   2.032
 4099SOL     OW13195   2.788   4.598   1.450
 4099SOL    HW113196   2.816   4.689   1.480
 4099SOL    HW213197   2.689   4.596   1.437
 4100SOL     OW13198   6.341   5.979   4.996
 4100SOL    HW113199   6.266   6.040   5.022
 4100SOL    HW213200   6.351   5.906   5.063
 4101SOL     OW13201   5.651   0.817   0.324
 4101SOL    HW113202   5.672   0.912   0.347
 4101SOL    HW213203   5.673   0.800   0.228
 4102SOL     OW13204   6.826   0.608   2.108
 4102SOL    HW113205   6.896   0.559   2.160
 4102SOL    HW213206   6.819   0.568   2.016
 4103SOL     OW13207   0.367   1.025   1.712
 4103SOL    HW113208   0.409   0.953   1.658
 4103SOL    HW213209   0.342   0.990   1.802
 4104SOL     OW13210   0.904   4.644   2.284
 4104SOL    HW113211   0.892   4.725   2.225
 4104SOL    HW213212   0.818   4.592   2.287
 4105SOL     OW13213   3.877   5.512   1.476
 4105SOL    HW113214   3.950   5.473   1.532
 4105SOL    HW213215   3.812   5.440   1.452
 4106SOL     OW13216   0.306   2.132   5.227
 4106SOL    HW113217   0.346   2.217   5.259
 4106SOL    HW213218   0.350   2.105   5.141
 4107SOL     OW13219   1.175   6.062   0.638
 4107SOL    HW113220   1.214   6.087   0.549
 4107SOL    HW213221   1.183   6.140   0.700
 4108SOL     OW13222   0.344   5.105   5.763
 4108SOL    HW113223   0.248   5.133   5.753
 4108SOL    HW213224   0.373   5.121   5.857
 4109SOL     OW13225   4.564   6.033   5.263
 4109SOL    HW113226   4.598   5.986   5.344
 4109SOL    HW213227   4.636   6.037   5.194
 4110SOL     OW13228   4.761   3.377   6.542
 4110SOL    HW113229   4.726   3.430   6.619
 4110SOL    HW213230   4.756   3.431   6.458
 4111SOL     OW13231   4.091   2.980   6.385
 4111SOL    HW113232   4.098   3.035   6.301
 4111SOL    HW213233   4.066   2.886   6.361
 4112SOL     OW13234   4.996   0.951   5.599
 4112SOL    HW113235   4.984   0.851   5.595
 4112SOL    HW213236   5.060   0.979   5.528
 4113SOL     OW13237   4.468   6.503   4.689
 4113SOL    HW113238   4.461   6.532   4.594
 4113SOL    HW213239   4.456   6.404   4.695
 4114SOL     OW13240   4.001   2.129   3.454
 4114SOL    HW113241   3.921   2.115   3.513
 4114SOL    HW213242   3.973   2.122   3.358
 4115SOL     OW13243   4.599   5.594   1.956
 4115SOL    HW113244   4.558   5.661   2.018
 4115SOL    HW213245   4.611   5.507   2.004
 4116SOL     OW13246   4.416   2.079   1.460
 4116SOL    HW113247   4.363   2.091   1.544
 4116SOL    HW213248   4.399   2.156   1.399
 4117SOL     OW13249   0.775   5.045   1.745
 4117SOL    HW113250   0.707   5.053   1.819
 4117SOL    HW213251   0.749   5.104   1.669
 4118SOL     OW13252   1.662   6.210   0.702
 4118SOL    HW113253   1.732   6.190   0.771
 4118SOL    HW213254   1.689   6.290   0.649
 4119SOL     OW13255   4.196   1.684   3.219
 4119SOL    HW113256   4.193   1.768   3.274
 4119SOL    HW213257   4.256   1.618   3.262
 4120SOL     OW13258   4.408   0.619   0.624
 4120SOL    HW113259   4.317   0.613   0.665
 4120SOL    HW213260   4.451   0.705   0.651
 4121SOL     OW13261   5.806   1.204   5.115
 4121SOL    HW113262   5.872   1.279   5.110
 4121SOL    HW213263   5.730   1.223   5.052
 4122SOL     OW13264   0.859   6.673   5.749
 4122SOL    HW113265   0.860   6.719   5.661
 4122SOL    HW213266   0.935   6.607   5.753
 4123SOL     OW13267   4.926   4.770   5.502
 4123SOL    HW113268   4.909   4.738   5.595
 4123SOL    HW213269   4.966   4.862   5.507
 4124SOL     OW13270   6.208   5.162   6.003
 4124SOL    HW113271   6.190   5.189   5.909
 4124SOL    HW213272   6.144   5.090   6.031
 4125SOL     OW13273   4.570   1.116   1.921
 4125SOL    HW113274   4.559   1.183   1.848
 4125SOL    HW213275   4.527   1.030   1.894
 4126SOL     OW13276   1.225   4.791   3.992
 4126SOL    HW113277   1.129   4.772   3.970
 4126SOL    HW213278   1.242   4.767   4.088
 4127SOL     OW13279   4.939   4.607   4.600
 4127SOL    HW113280   4.905   4.616   4.693
 4127SOL    HW213281   4.978   4.695   4.570
 4128SOL     OW13282   1.841   3.686   2.206
 4128SOL    HW113283   1.823   3.593   2.237
 4128SOL    HW213284   1.933   3.692   2.168
 4129SOL     OW13285   5.384   1.174   6.587
 4129SOL    HW113286   5.354   1.176   6.683
 4129SOL    HW213287   5.413   1.081   6.563
 4130SOL     OW13288   7.008   3.664   5.775
 4130SOL    HW113289   6.912   3.693   5.777
 4130SOL    HW213290   7.013   3.564   5.782
 4131SOL     OW13291   1.043   6.014   3.797
 4131SOL    HW113292   1.012   5.968   3.880
 4131SOL    HW213293   1.139   6.039   3.807
 4132SOL     OW13294   5.399   4.571   3.738
 4132SOL    HW113295   5.385   4.477   3.705
 4132SOL    HW213296   5.335   4.633   3.693
 4133SOL     OW13297   2.914   6.933   1.885
 4133SOL    HW113298   2.866   6.985   1.956
 4133SOL    HW213299   2.961   6.855   1.927
 4134SOL     OW13300   1.900   2.154   0.627
 4134SOL    HW113301   1.822   2.207   0.593
 4134SOL    HW213302   1.985   2.197   0.596
 4135SOL     OW13303   1.878   0.569   2.964
 4135SOL    HW113304   1.830   0.608   3.042
 4135SOL    HW213305   1.927   0.642   2.915
 4136SOL     OW13306   0.910   2.071   2.795
 4136SOL    HW113307   0.993   2.059   2.848
 4136SOL    HW213308   0.840   2.117   2.850
 4137SOL     OW13309   1.816   4.034   1.325
 4137SOL    HW113310   1.884   4.036   1.252
 4137SOL    HW213311   1.784   3.940   1.338
 4138SOL     OW13312   3.884   5.534   3.524
 4138SOL    HW113313   3.830   5.590   3.586
 4138SOL    HW213314   3.982   5.548   3.543
 4139SOL     OW13315   2.341   2.280   5.430
 4139SOL    HW113316   2.257   2.321   5.396
 4139SOL    HW213317   2.355   2.191   5.388
 4140SOL     OW13318   2.780   0.509   5.481
 4140SOL    HW113319   2.745   0.452   5.556
 4140SOL    HW213320   2.836   0.452   5.420
 4141SOL     OW13321   5.021   5.974   1.218
 4141SOL    HW113322   5.021   6.066   1.179
 4141SOL    HW213323   5.063   5.976   1.309
 4142SOL     OW13324   6.836   5.859   0.585
 4142SOL    HW113325   6.807   5.914   0.663
 4142SOL    HW213326   6.845   5.763   0.612
 4143SOL     OW13327   6.898   2.961   6.891
 4143SOL    HW113328   6.803   2.938   6.870
 4143SOL    HW213329   6.908   2.972   6.990
 4144SOL     OW13330   5.791   2.820   0.437
 4144SOL    HW113331   5.698   2.836   0.403
 4144SOL    HW213332   5.841   2.763   0.372
 4145SOL     OW13333   0.089   6.176   1.717
 4145SOL    HW113334   0.068   6.080   1.700
 4145SOL    HW213335   0.183   6.195   1.689
 4146SOL     OW13336   6.257   0.473   5.303
 4146SOL    HW113337   6.231   0.466   5.399
 4146SOL    HW213338   6.291   0.384   5.271
 4147SOL     OW13339   3.937   1.740   5.489
 4147SOL    HW113340   3.964   1.683   5.412
 4147SOL    HW213341   3.921   1.834   5.458
 4148SOL     OW13342   0.468   0.131   3.776
 4148SOL    HW113343   0.426   0.157   3.863
 4148SOL    HW213344   0.399   0.139   3.703
 4149SOL     OW13345   0.552   3.181   0.113
 4149SOL    HW113346   0.524   3.086   0.098
 4149SOL    HW213347   0.472   3.237   0.135
 4150SOL     OW13348   6.706   0.690   5.945
 4150SOL    HW113349   6.676   0.599   5.973
 4150SOL    HW213350   6.708   0.695   5.845
 4151SOL     OW13351   4.748   6.274   6.511
 4151SOL    HW113352   4.754   6.178   6.485
 4151SOL    HW213353   4.654   6.296   6.540
 4152SOL     OW13354   2.910   5.445   1.084
 4152SOL    HW113355   2.954   5.433   0.995
 4152SOL    HW213356   2.972   5.415   1.156
 4153SOL     OW13357   4.914   5.017   6.099
 4153SOL    HW113358   4.931   4.947   6.029
 4153SOL    HW213359   4.985   5.086   6.096
 4154SOL     OW13360   0.057   4.020   5.246
 4154SOL    HW113361   0.069   3.973   5.333
 4154SOL    HW213362   0.128   4.089   5.235
 4155SOL     OW13363   5.840   2.745   3.292
 4155SOL    HW113364   5.797   2.655   3.281
 4155SOL    HW213365   5.869   2.757   3.387
 4156SOL     OW13366   5.273   0.139   5.490
 4156SOL    HW113367   5.287   0.118   5.587
 4156SOL    HW213368   5.269   0.239   5.478
 4157SOL     OW13369   3.949   6.920   3.852
 4157SOL    HW113370   3.926   6.824   3.842
 4157SOL    HW213371   3.994   6.935   3.940
 4158SOL     OW13372   1.710   5.697   4.245
 4158SOL    HW113373   1.637   5.663   4.186
 4158SOL    HW213374   1.702   5.796   4.255
 4159SOL     OW13375   1.768   3.241   4.192
 4159SOL    HW113376   1.778   3.234   4.093
 4159SOL    HW213377   1.827   3.314   4.227
 4160SOL     OW13378   6.641   0.636   1.311
 4160SOL    HW113379   6.610   0.717   1.360
 4160SOL    HW213380   6.587   0.625   1.228
 4161SOL     OW13381   2.215   6.466   6.150
 4161SOL    HW113382   2.293   6.528   6.156
 4161SOL    HW213383   2.240   6.377   6.187
 4162SOL     OW13384   6.514   0.352   5.218
 4162SOL    HW113385   6.516   0.429   5.153
 4162SOL    HW213386   6.608   0.320   5.233
 4163SOL     OW13387   6.005   1.256   3.135
 4163SOL    HW113388   5.969   1.346   3.111
 4163SOL    HW213389   6.051   1.261   3.223
 4164SOL     OW13390   1.157   6.777   6.034
 4164SOL    HW113391   1.129   6.682   6.046
 4164SOL    HW213392   1.076   6.833   6.011
 4165SOL     OW13393   4.734   0.173   0.656
 4165SOL    HW113394   4.648   0.188   0.705
 4165SOL    HW213395   4.718   0.179   0.558
 4166SOL     OW13396   5.795   2.969   0.951
 4166SOL    HW113397   5.886   2.932   0.930
 4166SOL    HW213398   5.801   3.068   0.959
 4167SOL     OW13399   2.551   3.541   0.425
 4167SOL    HW113400   2.497   3.462   0.396
 4167SOL    HW213401   2.608   3.516   0.504
 4168SOL     OW13402   0.710   5.006   1.068
 4168SOL    HW113403   0.774   5.009   1.145
 4168SOL    HW213404   0.750   4.954   0.992
 4169SOL     OW13405   5.530   3.760   4.191
 4169SOL    HW113406   5.436   3.741   4.164
 4169SOL    HW213407   5.556   3.701   4.268
 4170SOL     OW13408   3.458   3.134   5.263
 4170SOL    HW113409   3.454   3.093   5.171
 4170SOL    HW213410   3.460   3.233   5.254
 4171SOL     OW13411   5.507   4.517   1.048
 4171SOL    HW113412   5.466   4.460   0.977
 4171SOL    HW213413   5.472   4.490   1.137
 4172SOL     OW13414   0.057   2.115   6.018
 4172SOL    HW113415   0.080   2.203   5.977
 4172SOL    HW213416   6.988   2.119   6.059
 4173SOL     OW13417   6.049   3.278   4.664
 4173SOL    HW113418   6.028   3.194   4.713
 4173SOL    HW213419   6.036   3.264   4.566
 4174SOL     OW13420   5.583   1.098   3.563
 4174SOL    HW113421   5.652   1.149   3.512
 4174SOL    HW213422   5.495   1.103   3.515
 4175SOL     OW13423   2.782   6.291   4.473
 4175SOL    HW113424   2.701   6.342   4.505
 4175SOL    HW213425   2.761   6.194   4.471
 4176SOL     OW13426   3.668   0.008   2.367
 4176SOL    HW113427   3.714   6.957   2.417
 4176SOL    HW213428   3.583   0.031   2.414
 4177SOL     OW13429   0.701   5.183   5.521
 4177SOL    HW113430   0.621   5.201   5.578
 4177SOL    HW213431   0.724   5.265   5.469
 4178SOL     OW13432   3.469   1.036   4.368
 4178SOL    HW113433   3.432   0.947   4.340
 4178SOL    HW213434   3.566   1.040   4.346
 4179SOL     OW13435   4.890   3.450   4.144
 4179SOL    HW113436   4.898   3.515   4.219
 4179SOL    HW213437   4.906   3.498   4.057
 4180SOL     OW13438   5.416   4.034   2.627
 4180SOL    HW113439   5.354   3.966   2.589
 4180SOL    HW213440   5.507   3.994   2.637
 4181SOL     OW13441   2.125   1.968   6.043
 4181SOL    HW113442   2.222   1.992   6.050
 4181SOL    HW213443   2.115   1.869   6.033
 4182SOL     OW13444   0.065   7.012   3.158
 4182SOL    HW113445   0.125   6.987   3.234
 4182SOL    HW213446   0.106   6.983   3.072
 4183SOL     OW13447   3.446   1.132   1.340
 4183SOL    HW113448   3.360   1.173   1.370
 4183SOL    HW213449   3.504   1.203   1.298
 4184SOL     OW13450   3.890   4.677   1.381
 4184SOL    HW113451   3.938   4.609   1.436
 4184SOL    HW213452   3.807   4.706   1.428
 4185SOL     OW13453   0.454   5.159   3.146
 4185SOL    HW113454   0.500   5.234   3.098
 4185SOL    HW213455   0.454   5.178   3.244
 4186SOL     OW13456   2.240   4.323   0.356
 4186SOL    HW113457   2.225   4.308   0.259
 4186SOL    HW213458   2.216   4.417   0.379
 4187SOL     OW13459   3.545   3.324   5.971
 4187SOL    HW113460   3.532   3.278   6.059
 4187SOL    HW213461   3.619   3.280   5.921
 4188SOL     OW13462   5.094   6.880   4.705
 4188SOL    HW113463   5.083   6.968   4.752
 4188SOL    HW213464   5.094   6.807   4.772
 4189SOL     OW13465   2.991   1.659   4.618
 4189SOL    HW113466   3.015   1.753   4.591
 4189SOL    HW213467   2.894   1.643   4.597
 4190SOL     OW13468   2.435   6.992   6.417
 4190SOL    HW113469   2.530   6.991   6.385
 4190SOL    HW213470   2.395   0.060   6.399
 4191SOL     OW13471   5.851   3.588   3.014
 4191SOL    HW113472   5.758   3.617   2.992
 4191SOL    HW213473   5.902   3.665   3.053
 4192SOL     OW13474   0.100   1.647   3.616
 4192SOL    HW113475   0.078   1.627   3.711
 4192SOL    HW213476   0.029   1.609   3.556
 4193SOL     OW13477   2.172   6.390   1.272
 4193SOL    HW113478   2.118   6.396   1.356
 4193SOL    HW213479   2.134   6.319   1.213
 4194SOL     OW13480   6.700   2.240   5.079
 4194SOL    HW113481   6.743   2.287   5.001
 4194SOL    HW213482   6.756   2.162   5.105
 4195SOL     OW13483   3.482   0.548   1.914
 4195SOL    HW113484   3.499   0.452   1.936
 4195SOL    HW213485   3.451   0.596   1.996
 4196SOL     OW13486   6.013   2.121   4.424
 4196SOL    HW113487   6.038   2.119   4.521
 4196SOL    HW213488   5.971   2.034   4.398
 4197SOL     OW13489   5.208   4.682   4.010
 4197SOL    HW113490   5.236   4.587   4.001
 4197SOL    HW213491   5.281   4.742   3.977
 4198SOL     OW13492   6.238   3.651   0.229
 4198SOL    HW113493   6.198   3.726   0.177
 4198SOL    HW213494   6.250   3.572   0.170
 4199SOL     OW13495   2.428   3.378   5.951
 4199SOL    HW113496   2.341   3.421   5.929
 4199SOL    HW213497   2.466   3.420   6.034
 4200SOL     OW13498   2.858   6.535   5.636
 4200SOL    HW113499   2.832   6.489   5.551
 4200SOL    HW213500   2.922   6.610   5.615
 4201SOL     OW13501   5.436   6.370   3.999
 4201SOL    HW113502   5.461   6.324   4.084
 4201SOL    HW213503   5.495   6.449   3.985
 4202SOL     OW13504   4.391   4.818   5.833
 4202SOL    HW113505   4.422   4.795   5.925
 4202SOL    HW213506   4.417   4.912   5.812
 4203SOL     OW13507   4.183   5.937   2.858
 4203SOL    HW113508   4.281   5.958   2.865
 4203SOL    HW213509   4.134   6.017   2.825
 4204SOL     OW13510   3.301   2.825   1.944
 4204SOL    HW113511   3.362   2.882   2.000
 4204SOL    HW213512   3.207   2.856   1.954
 4205SOL     OW13513   3.901   4.883   4.275
 4205SOL    HW113514   3.876   4.956   4.211
 4205SOL    HW213515   3.830   4.876   4.345
 4206SOL     OW13516   4.802   0.766   5.936
 4206SOL    HW113517   4.799   0.828   5.857
 4206SOL    HW213518   4.826   0.674   5.904
 4207SOL     OW13519   2.126   1.527   1.703
 4207SOL    HW113520   2.117   1.431   1.730
 4207SOL    HW213521   2.068   1.544   1.624
 4208SOL     OW13522   1.502   2.340   0.970
 4208SOL    HW113523   1.575   2.326   0.903
 4208SOL    HW213524   1.413   2.319   0.928
 4209SOL     OW13525   1.144   1.332   5.013
 4209SOL    HW113526   1.111   1.336   4.918
 4209SOL    HW213527   1.209   1.256   5.022
 4210SOL     OW13528   3.151   3.247   1.946
 4210SOL    HW113529   3.074   3.309   1.927
 4210SOL    HW213530   3.227   3.269   1.884
 4211SOL     OW13531   5.192   5.423   5.704
 4211SOL    HW113532   5.233   5.398   5.617
 4211SOL    HW213533   5.213   5.353   5.772
 4212SOL     OW13534   6.447   2.102   2.286
 4212SOL    HW113535   6.433   2.168   2.212
 4212SOL    HW213536   6.480   2.150   2.368
 4213SOL     OW13537   2.427   0.631   2.486
 4213SOL    HW113538   2.347   0.585   2.447
 4213SOL    HW213539   2.404   0.671   2.574
 4214SOL     OW13540   0.948   4.004   6.326
 4214SOL    HW113541   0.949   4.012   6.426
 4214SOL    HW213542   0.862   4.042   6.291
 4215SOL     OW13543   0.224   5.931   4.674
 4215SOL    HW113544   0.206   6.027   4.652
 4215SOL    HW213545   0.176   5.906   4.758
 4216SOL     OW13546   1.362   2.055   3.931
 4216SOL    HW113547   1.394   2.035   4.024
 4216SOL    HW213548   1.270   2.094   3.936
 4217SOL     OW13549   6.732   6.804   2.878
 4217SOL    HW113550   6.787   6.790   2.960
 4217SOL    HW213551   6.736   6.900   2.851
 4218SOL     OW13552   5.134   6.797   1.613
 4218SOL    HW113553   5.074   6.854   1.669
 4218SOL    HW213554   5.229   6.824   1.628
 4219SOL     OW13555   2.933   4.846   5.113
 4219SOL    HW113556   2.872   4.898   5.173
 4219SOL    HW213557   2.889   4.759   5.088
 4220SOL     OW13558   6.599   3.486   2.938
 4220SOL    HW113559   6.548   3.527   3.013
 4220SOL    HW213560   6.550   3.500   2.852
 4221SOL     OW13561   6.276   5.667   6.297
 4221SOL    HW113562   6.304   5.591   6.238
 4221SOL    HW213563   6.356   5.725   6.316
 4222SOL     OW13564   6.154   1.975   2.238
 4222SOL    HW113565   6.214   2.050   2.267
 4222SOL    HW213566   6.059   1.997   2.262
 4223SOL     OW13567   3.752   2.918   3.273
 4223SOL    HW113568   3.782   2.896   3.180
 4223SOL    HW213569   3.655   2.896   3.282
 4224SOL     OW13570   4.875   3.165   4.134
 4224SOL    HW113571   4.820   3.128   4.209
 4224SOL    HW213572   4.866   3.264   4.131
 4225SOL     OW13573   5.553   0.361   5.435
 4225SOL    HW113574   5.577   0.340   5.529
 4225SOL    HW213575   5.634   0.396   5.387
 4226SOL     OW13576   1.992   1.546   3.588
 4226SOL    HW113577   2.058   1.621   3.591
 4226SOL    HW213578   2.032   1.464   3.630
 4227SOL     OW13579   3.461   4.279   6.479
 4227SOL    HW113580   3.553   4.247   6.458
 4227SOL    HW213581   3.403   4.272   6.398
 4228SOL     OW13582   5.633   6.038   4.371
 4228SOL    HW113583   5.560   6.070   4.310
 4228SOL    HW213584   5.592   5.990   4.448
 4229SOL     OW13585   4.004   5.229   5.970
 4229SOL    HW113586   3.904   5.229   5.976
 4229SOL    HW213587   4.039   5.318   5.999
 4230SOL     OW13588   2.295   0.036   4.837
 4230SOL    HW113589   2.233   7.008   4.777
 4230SOL    HW213590   2.254   0.123   4.864
 4231SOL     OW13591   5.096   6.467   5.527
 4231SOL    HW113592   5.103   6.441   5.431
 4231SOL    HW213593   5.027   6.539   5.538
 4232SOL     OW13594   1.096   5.417   2.405
 4232SOL    HW113595   1.112   5.337   2.347
 4232SOL    HW213596   1.180   5.471   2.412
 4233SOL     OW13597   6.120   0.316   0.294
 4233SOL    HW113598   6.163   0.237   0.337
 4233SOL    HW213599   6.138   0.398   0.349
 4234SOL     OW13600   1.915   5.512   5.952
 4234SOL    HW113601   1.939   5.458   5.872
 4234SOL    HW213602   1.959   5.602   5.947
 4235SOL     OW13603   6.492   4.262   5.386
 4235SOL    HW113604   6.456   4.338   5.441
 4235SOL    HW213605   6.560   4.212   5.439
 4236SOL     OW13606   6.827   3.151   3.985
 4236SOL    HW113607   6.737   3.195   3.976
 4236SOL    HW213608   6.829   3.097   4.069
 4237SOL     OW13609   6.170   4.281   4.331
 4237SOL    HW113610   6.161   4.200   4.388
 4237SOL    HW213611   6.173   4.254   4.235
 4238SOL     OW13612   4.370   4.850   3.774
 4238SOL    HW113613   4.351   4.947   3.758
 4238SOL    HW213614   4.304   4.794   3.724
 4239SOL     OW13615   4.676   7.011   4.435
 4239SOL    HW113616   4.773   6.992   4.452
 4239SOL    HW213617   4.645   0.060   4.498
 4240SOL     OW13618   2.819   6.025   6.292
 4240SOL    HW113619   2.804   6.089   6.217
 4240SOL    HW213620   2.912   6.035   6.326
 4241SOL     OW13621   5.456   0.390   1.029
 4241SOL    HW113622   5.512   0.414   1.108
 4241SOL    HW213623   5.492   0.436   0.948
 4242SOL     OW13624   2.586   6.740   2.941
 4242SOL    HW113625   2.622   6.804   2.874
 4242SOL    HW213626   2.594   6.779   3.032
 4243SOL     OW13627   0.460   3.801   2.473
 4243SOL    HW113628   0.522   3.880   2.474
 4243SOL    HW213629   0.498   3.731   2.413
 4244SOL     OW13630   5.054   5.993   0.861
 4244SOL    HW113631   5.035   5.989   0.763
 4244SOL    HW213632   5.150   5.968   0.878
 4245SOL     OW13633   6.437   2.865   0.044
 4245SOL    HW113634   6.461   2.871   0.141
 4245SOL    HW213635   6.453   2.773   0.011
 4246SOL     OW13636   5.383   2.590   2.930
 4246SOL    HW113637   5.295   2.637   2.931
 4246SOL    HW213638   5.439   2.625   2.855
 4247SOL     OW13639   2.643   5.419   3.965
 4247SOL    HW113640   2.689   5.413   4.054
 4247SOL    HW213641   2.682   5.494   3.912
 4248SOL     OW13642   1.658   0.692   3.090
 4248SOL    HW113643   1.633   0.622   3.156
 4248SOL    HW213644   1.643   0.783   3.131
 4249SOL     OW13645   0.426   1.478   3.839
 4249SOL    HW113646   0.380   1.551   3.888
 4249SOL    HW213647   0.432   1.501   3.742
 4250SOL     OW13648   0.362   5.859   3.891
 4250SOL    HW113649   0.264   5.866   3.872
 4250SOL    HW213650   0.396   5.772   3.855
 4251SOL     OW13651   5.580   2.740   0.039
 4251SOL    HW113652   5.661   2.769   7.010
 4251SOL    HW213653   5.542   2.658   7.019
 4252SOL     OW13654   5.929   5.523   5.899
 4252SOL    HW113655   5.925   5.495   5.803
 4252SOL    HW213656   6.010   5.484   5.942
 4253SOL     OW13657   3.932   6.519   2.019
 4253SOL    HW113658   3.931   6.424   2.050
 4253SOL    HW213659   3.960   6.523   1.923
 4254SOL     OW13660   2.144   3.775   0.483
 4254SOL    HW113661   2.118   3.693   0.433
 4254SOL    HW213662   2.099   3.855   0.443
 4255SOL     OW13663   0.624   4.530   3.783
 4255SOL    HW113664   0.570   4.508   3.864
 4255SOL    HW213665   0.716   4.493   3.794
 4256SOL     OW13666   0.691   5.278   0.992
 4256SOL    HW113667   0.674   5.185   1.023
 4256SOL    HW213668   0.729   5.276   0.900
 4257SOL     OW13669   5.862   1.698   5.121
 4257SOL    HW113670   5.923   1.768   5.085
 4257SOL    HW213671   5.767   1.727   5.106
 4258SOL     OW13672   3.610   5.611   1.161
 4258SOL    HW113673   3.582   5.591   1.068
 4258SOL    HW213674   3.541   5.576   1.225
 4259SOL     OW13675   1.602   0.000   1.947
 4259SOL    HW113676   1.656   7.017   2.031
 4259SOL    HW213677   1.576   0.095   1.930
 4260SOL     OW13678   4.986   0.364   4.162
 4260SOL    HW113679   5.047   0.285   4.166
 4260SOL    HW213680   5.014   0.431   4.231
 4261SOL     OW13681   1.962   0.371   4.442
 4261SOL    HW113682   1.872   0.362   4.399
 4261SOL    HW213683   2.009   0.451   4.405
 4262SOL     OW13684   1.796   5.130   5.696
 4262SOL    HW113685   1.711   5.166   5.732
 4262SOL    HW213686   1.796   5.030   5.705
 4263SOL     OW13687   2.790   2.340   3.443
 4263SOL    HW113688   2.774   2.325   3.346
 4263SOL    HW213689   2.888   2.352   3.459
 4264SOL     OW13690   5.872   1.137   4.293
 4264SOL    HW113691   5.907   1.060   4.346
 4264SOL    HW213692   5.777   1.154   4.318
 4265SOL     OW13693   3.563   0.127   0.885
 4265SOL    HW113694   3.510   0.163   0.808
 4265SOL    HW213695   3.659   0.118   0.858
 4266SOL     OW13696   0.986   0.488   0.041
 4266SOL    HW113697   1.001   0.531   0.130
 4266SOL    HW213698   1.037   0.402   0.036
 4267SOL     OW13699   2.236   4.015   3.951
 4267SOL    HW113700   2.241   4.107   3.990
 4267SOL    HW213701   2.224   3.948   4.025
 4268SOL     OW13702   1.241   4.809   6.959
 4268SOL    HW113703   1.213   4.904   6.971
 4268SOL    HW213704   1.276   4.773   0.023
 4269SOL     OW13705   3.693   1.658   3.665
 4269SOL    HW113706   3.719   1.754   3.668
 4269SOL    HW213707   3.626   1.644   3.592
 4270SOL     OW13708   3.634   2.893   1.265
 4270SOL    HW113709   3.636   2.814   1.204
 4270SOL    HW213710   3.652   2.976   1.212
 4271SOL     OW13711   5.930   0.788   1.746
 4271SOL    HW113712   5.930   0.701   1.696
 4271SOL    HW213713   5.860   0.848   1.708
 4272SOL     OW13714   6.995   3.392   5.875
 4272SOL    HW113715   6.917   3.441   5.914
 4272SOL    HW213716   6.962   3.325   5.809
 4273SOL     OW13717   4.581   6.623   5.354
 4273SOL    HW113718   4.488   6.625   5.392
 4273SOL    HW213719   4.628   6.541   5.386
 4274SOL     OW13720   0.334   6.570   1.942
 4274SOL    HW113721   0.335   6.498   2.011
 4274SOL    HW213722   0.304   6.656   1.984
 4275SOL     OW13723   7.003   2.308   3.930
 4275SOL    HW113724   6.972   2.218   3.961
 4275SOL    HW213725   6.977   2.321   3.834
 4276SOL     OW13726   2.852   4.920   3.895
 4276SOL    HW113727   2.857   4.833   3.845
 4276SOL    HW213728   2.771   4.920   3.953
 4277SOL     OW13729   6.792   4.848   4.088
 4277SOL    HW113730   6.865   4.790   4.052
 4277SOL    HW213731   6.730   4.794   4.144
 4278SOL     OW13732   6.504   6.559   3.309
 4278SOL    HW113733   6.424   6.509   3.341
 4278SOL    HW213734   6.483   6.657   3.305
 4279SOL     OW13735   1.429   1.691   2.821
 4279SOL    HW113736   1.349   1.639   2.851
 4279SOL    HW213737   1.499   1.629   2.786
 4280SOL     OW13738   6.639   6.524   6.496
 4280SOL    HW113739   6.732   6.542   6.466
 4280SOL    HW213740   6.575   6.547   6.423
 4281SOL     OW13741   4.381   5.489   3.687
 4281SOL    HW113742   4.431   5.502   3.601
 4281SOL    HW213743   4.436   5.434   3.750
 4282SOL     OW13744   3.052   3.858   0.852
 4282SOL    HW113745   2.960   3.826   0.831
 4282SOL    HW213746   3.053   3.958   0.853
 4283SOL     OW13747   5.286   0.679   2.805
 4283SOL    HW113748   5.206   0.620   2.811
 4283SOL    HW213749   5.281   0.735   2.722
 4284SOL     OW13750   4.578   5.233   0.255
 4284SOL    HW113751   4.500   5.295   0.263
 4284SOL    HW213752   4.545   5.140   0.239
 4285SOL     OW13753   3.513   0.543   6.227
 4285SOL    HW113754   3.592   0.563   6.284
 4285SOL    HW213755   3.538   0.549   6.131
 4286SOL     OW13756   6.650   0.994   0.142
 4286SOL    HW113757   6.626   1.050   0.221
 4286SOL    HW213758   6.636   0.898   0.164
 4287SOL     OW13759   4.357   0.542   0.144
 4287SOL    HW113760   4.392   0.635   0.155
 4287SOL    HW213761   4.433   0.478   0.138
 4288SOL     OW13762   6.477   6.341   2.010
 4288SOL    HW113763   6.443   6.267   1.951
 4288SOL    HW213764   6.502   6.303   2.099
 4289SOL     OW13765   0.181   2.582   5.129
 4289SOL    HW113766   0.165   2.533   5.215
 4289SOL    HW213767   0.279   2.587   5.111
 4290SOL     OW13768   0.297   0.320   3.254
 4290SOL    HW113769   0.207   0.303   3.214
 4290SOL    HW213770   0.290   0.394   3.321
 4291SOL     OW13771   4.718   3.197   6.004
 4291SOL    HW113772   4.621   3.181   5.988
 4291SOL    HW213773   4.770   3.172   5.922
 4292SOL     OW13774   4.913   2.000   6.932
 4292SOL    HW113775   4.862   1.937   6.990
 4292SOL    HW213776   4.964   1.949   6.862
 4293SOL     OW13777   5.287   3.903   6.909
 4293SOL    HW113778   5.312   3.952   6.825
 4293SOL    HW213779   5.292   3.966   6.987
 4294SOL     OW13780   2.962   1.931   6.243
 4294SOL    HW113781   2.880   1.980   6.211
 4294SOL    HW213782   3.039   1.953   6.183
 4295SOL     OW13783   4.280   6.466   2.277
 4295SOL    HW113784   4.310   6.553   2.237
 4295SOL    HW213785   4.300   6.466   2.375
 4296SOL     OW13786   2.760   6.549   0.952
 4296SOL    HW113787   2.820   6.541   1.032
 4296SOL    HW213788   2.709   6.464   0.939
 4297SOL     OW13789   6.737   5.266   1.088
 4297SOL    HW113790   6.774   5.319   1.164
 4297SOL    HW213791   6.805   5.202   1.055
 4298SOL     OW13792   3.782   6.182   1.426
 4298SOL    HW113793   3.861   6.125   1.402
 4298SOL    HW213794   3.762   6.245   1.350
 4299SOL     OW13795   0.682   2.505   6.920
 4299SOL    HW113796   0.730   2.545   6.842
 4299SOL    HW213797   0.616   2.572   6.955
 4300SOL     OW13798   3.004   0.523   0.980
 4300SOL    HW113799   2.994   0.558   0.886
 4300SOL    HW213800   3.050   0.592   1.036
 4301SOL     OW13801   2.928   6.109   1.646
 4301SOL    HW113802   2.854   6.043   1.658
 4301SOL    HW213803   3.009   6.062   1.610
 4302SOL     OW13804   0.350   6.728   6.666
 4302SOL    HW113805   0.379   6.749   6.759
 4302SOL    HW213806   0.362   6.630   6.649
 4303SOL     OW13807   6.951   5.012   3.913
 4303SOL    HW113808   6.881   5.057   3.857
 4303SOL    HW213809   6.907   4.965   3.989
 4304SOL     OW13810   3.326   4.086   1.765
 4304SOL    HW113811   3.277   4.129   1.688
 4304SOL    HW213812   3.270   4.093   1.848
 4305SOL     OW13813   0.765   0.044   5.562
 4305SOL    HW113814   0.835   0.094   5.613
 4305SOL    HW213815   0.788   6.968   5.561
 4306SOL     OW13816   4.869   3.782   4.580
 4306SOL    HW113817   4.868   3.773   4.680
 4306SOL    HW213818   4.860   3.878   4.555
 4307SOL     OW13819   6.256   2.861   5.776
 4307SOL    HW113820   6.209   2.854   5.688
 4307SOL    HW213821   6.219   2.939   5.827
 4308SOL     OW13822   5.285   5.424   1.839
 4308SOL    HW113823   5.195   5.445   1.800
 4308SOL    HW213824   5.273   5.393   1.934
 4309SOL     OW13825   0.879   3.319   6.856
 4309SOL    HW113826   0.781   3.332   6.872
 4309SOL    HW213827   0.927   3.405   6.872
 4310SOL     OW13828   1.448   2.257   2.879
 4310SOL    HW113829   1.463   2.302   2.790
 4310SOL    HW213830   1.452   2.158   2.867
 4311SOL     OW13831   1.214   6.505   2.083
 4311SOL    HW113832   1.206   6.458   2.171
 4311SOL    HW213833   1.310   6.527   2.065
 4312SOL     OW13834   1.032   5.030   2.025
 4312SOL    HW113835   0.968   4.984   2.086
 4312SOL    HW213836   1.093   4.963   1.984
 4313SOL     OW13837   5.017   1.926   0.642
 4313SOL    HW113838   5.018   1.849   0.705
 4313SOL    HW213839   5.067   1.901   0.559
 4314SOL     OW13840   6.734   2.484   6.114
 4314SOL    HW113841   6.736   2.404   6.053
 4314SOL    HW213842   6.725   2.567   6.059
 4315SOL     OW13843   1.928   1.955   2.984
 4315SOL    HW113844   2.009   1.974   3.039
 4315SOL    HW213845   1.876   2.040   2.970
 4316SOL     OW13846   5.036   0.516   2.533
 4316SOL    HW113847   5.064   0.530   2.628
 4316SOL    HW213848   4.974   0.438   2.529
 4317SOL     OW13849   4.429   0.910   5.330
 4317SOL    HW113850   4.447   0.989   5.270
 4317SOL    HW213851   4.517   0.873   5.361
 4318SOL     OW13852   0.596   0.851   4.371
 4318SOL    HW113853   0.508   0.808   4.353
 4318SOL    HW213854   0.613   0.922   4.302
 4319SOL     OW13855   1.460   2.035   1.816
 4319SOL    HW113856   1.451   2.012   1.719
 4319SOL    HW213857   1.507   2.122   1.826
 4320SOL     OW13858   3.936   6.162   0.530
 4320SOL    HW113859   3.903   6.164   0.435
 4320SOL    HW213860   3.897   6.240   0.579
 4321SOL     OW13861   6.874   5.878   3.148
 4321SOL    HW113862   6.873   5.873   3.048
 4321SOL    HW213863   6.907   5.791   3.185
 4322SOL     OW13864   0.643   2.715   5.261
 4322SOL    HW113865   0.587   2.670   5.192
 4322SOL    HW213866   0.593   2.717   5.348
 4323SOL     OW13867   4.196   5.357   0.140
 4323SOL    HW113868   4.227   5.344   0.234
 4323SOL    HW213869   4.223   5.278   0.085
 4324SOL     OW13870   0.202   3.804   5.667
 4324SOL    HW113871   0.127   3.760   5.716
 4324SOL    HW213872   0.287   3.754   5.685
 4325SOL     OW13873   3.326   1.127   2.981
 4325SOL    HW113874   3.333   1.113   2.883
 4325SOL    HW213875   3.236   1.096   3.013
 4326SOL     OW13876   5.157   2.883   2.311
 4326SOL    HW113877   5.104   2.802   2.286
 4326SOL    HW213878   5.130   2.914   2.402
 4327SOL     OW13879   3.750   5.169   3.552
 4327SOL    HW113880   3.740   5.204   3.459
 4327SOL    HW213881   3.762   5.069   3.549
 4328SOL     OW13882   5.911   4.919   5.257
 4328SOL    HW113883   5.983   4.985   5.280
 4328SOL    HW213884   5.952   4.831   5.233
 4329SOL     OW13885   5.681   3.254   5.283
 4329SOL    HW113886   5.709   3.342   5.244
 4329SOL    HW213887   5.639   3.199   5.211
 4330SOL     OW13888   2.317   6.133   5.172
 4330SOL    HW113889   2.271   6.153   5.259
 4330SOL    HW213890   2.411   6.167   5.175
 4331SOL     OW13891   0.070   0.402   1.409
 4331SOL    HW113892   6.992   0.411   1.408
 4331SOL    HW213893   0.106   0.418   1.317
 4332SOL     OW13894   6.145   3.610   3.074
 4332SOL    HW113895   6.159   3.687   3.013
 4332SOL    HW213896   6.159   3.524   3.024
 4333SOL     OW13897   4.779   2.426   5.023
 4333SOL    HW113898   4.778   2.388   4.931
 4333SOL    HW213899   4.872   2.421   5.060
 4334SOL     OW13900   0.933   2.744   2.704
 4334SOL    HW113901   0.977   2.661   2.671
 4334SOL    HW213902   0.953   2.756   2.802
 4335SOL     OW13903   3.166   2.815   0.494
 4335SOL    HW113904   3.096   2.802   0.424
 4335SOL    HW213905   3.146   2.898   0.547
 4336SOL     OW13906   1.991   5.312   5.773
 4336SOL    HW113907   2.088   5.288   5.777
 4336SOL    HW213908   1.940   5.236   5.733
 4337SOL     OW13909   1.510   5.928   2.557
 4337SOL    HW113910   1.419   5.938   2.518
 4337SOL    HW213911   1.578   5.950   2.487
 4338SOL     OW13912   6.257   0.104   5.931
 4338SOL    HW113913   6.269   0.092   5.833
 4338SOL    HW213914   6.160   0.097   5.954
 4339SOL     OW13915   3.941   2.477   6.710
 4339SOL    HW113916   3.865   2.423   6.672
 4339SOL    HW213917   3.992   2.421   6.775
 4340SOL     OW13918   6.256   3.381   0.945
 4340SOL    HW113919   6.202   3.446   0.892
 4340SOL    HW213920   6.328   3.342   0.887
 4341SOL     OW13921   0.792   5.842   1.961
 4341SOL    HW113922   0.724   5.908   1.993
 4341SOL    HW213923   0.861   5.889   1.906
 4342SOL     OW13924   4.935   3.521   2.695
 4342SOL    HW113925   5.014   3.541   2.636
 4342SOL    HW213926   4.915   3.423   2.691
 4343SOL     OW13927   3.786   0.363   5.619
 4343SOL    HW113928   3.692   0.357   5.652
 4343SOL    HW213929   3.803   0.287   5.556
 4344SOL     OW13930   0.492   3.265   3.954
 4344SOL    HW113931   0.479   3.182   3.899
 4344SOL    HW213932   0.518   3.240   4.047
 4345SOL     OW13933   2.915   3.638   2.633
 4345SOL    HW113934   2.944   3.698   2.558
 4345SOL    HW213935   2.816   3.643   2.643
 4346SOL     OW13936   2.232   2.974   3.118
 4346SOL    HW113937   2.204   3.067   3.097
 4346SOL    HW213938   2.249   2.924   3.032
 4347SOL     OW13939   6.246   5.641   1.196
 4347SOL    HW113940   6.333   5.690   1.198
 4347SOL    HW213941   6.227   5.610   1.103
 4348SOL     OW13942   6.985   6.308   3.803
 4348SOL    HW113943   0.055   6.302   3.766
 4348SOL    HW213944   6.977   6.389   3.861
 4349SOL     OW13945   0.349   4.384   3.566
 4349SOL    HW113946   0.352   4.320   3.642
 4349SOL    HW213947   0.296   4.344   3.491
 4350SOL     OW13948   5.843   1.483   4.722
 4350SOL    HW113949   5.892   1.570   4.713
 4350SOL    HW213950   5.745   1.501   4.731
 4351SOL     OW13951   1.233   6.326   1.482
 4351SOL    HW113952   1.216   6.243   1.536
 4351SOL    HW213953   1.146   6.361   1.446
 4352SOL     OW13954   5.461   4.430   1.317
 4352SOL    HW113955   5.434   4.524   1.338
 4352SOL    HW213956   5.383   4.370   1.329
 4353SOL     OW13957   3.214   3.501   6.861
 4353SOL    HW113958   3.174   3.573   6.804
 4353SOL    HW213959   3.200   3.524   6.958
 4354SOL     OW13960   0.135   0.404   4.699
 4354SOL    HW113961   0.215   0.427   4.753
 4354SOL    HW213962   0.133   0.460   4.616
 4355SOL     OW13963   1.216   0.304   4.156
 4355SOL    HW113964   1.217   0.331   4.060
 4355SOL    HW213965   1.282   0.359   4.207
 4356SOL     OW13966   5.173   2.935   6.078
 4356SOL    HW113967   5.268   2.958   6.058
 4356SOL    HW213968   5.127   3.014   6.119
 4357SOL     OW13969   6.779   1.530   2.296
 4357SOL    HW113970   6.866   1.489   2.323
 4357SOL    HW213971   6.761   1.509   2.199
 4358SOL     OW13972   0.238   1.129   0.291
 4358SOL    HW113973   0.332   1.158   0.276
 4358SOL    HW213974   0.237   1.033   0.319
 4359SOL     OW13975   2.424   0.734   6.126
 4359SOL    HW113976   2.415   0.734   6.026
 4359SOL    HW213977   2.446   0.642   6.158
 4360SOL     OW13978   0.664   2.789   3.463
 4360SOL    HW113979   0.703   2.822   3.549
 4360SOL    HW213980   0.690   2.694   3.449
 4361SOL     OW13981   1.871   2.137   1.049
 4361SOL    HW113982   1.869   2.209   0.979
 4361SOL    HW213983   1.933   2.064   1.020
 4362SOL     OW13984   0.821   6.537   3.973
 4362SOL    HW113985   0.772   6.455   4.002
 4362SOL    HW213986   0.844   6.593   4.053
 4363SOL     OW13987   4.101   0.749   3.190
 4363SOL    HW113988   4.173   0.681   3.184
 4363SOL    HW213989   4.138   0.839   3.166
 4364SOL     OW13990   2.989   3.771   2.395
 4364SOL    HW113991   3.041   3.856   2.394
 4364SOL    HW213992   2.958   3.749   2.302
 4365SOL     OW13993   3.004   1.910   1.563
 4365SOL    HW113994   2.944   1.988   1.548
 4365SOL    HW213995   3.034   1.909   1.658
 4366SOL     OW13996   5.417   5.550   5.547
 4366SOL    HW113997   5.404   5.639   5.503
 4366SOL    HW213998   5.345   5.488   5.518
 4367SOL     OW13999   2.935   4.913   2.931
 4367SOL    HW114000   2.938   4.841   3.000
 4367SOL    HW214001   3.027   4.948   2.914
 4368SOL     OW14002   4.594   5.918   2.637
 4368SOL    HW114003   4.683   5.884   2.670
 4368SOL    HW214004   4.609   5.995   2.575
 4369SOL     OW14005   5.236   5.298   3.023
 4369SOL    HW114006   5.244   5.239   2.943
 4369SOL    HW214007   5.324   5.301   3.071
 4370SOL     OW14008   3.872   4.027   1.638
 4370SOL    HW114009   3.906   4.115   1.606
 4370SOL    HW214010   3.861   3.965   1.560
 4371SOL     OW14011   2.576   0.509   2.182
 4371SOL    HW114012   2.598   0.480   2.275
 4371SOL    HW214013   2.617   0.598   2.164
 4372SOL     OW14014   1.569   2.492   4.863
 4372SOL    HW114015   1.546   2.467   4.957
 4372SOL    HW214016   1.486   2.503   4.809
 4373SOL     OW14017   4.649   0.783   6.160
 4373SOL    HW114018   4.692   0.776   6.070
 4373SOL    HW214019   4.630   0.880   6.180
 4374SOL     OW14020   2.460   1.975   1.344
 4374SOL    HW114021   2.365   1.958   1.317
 4374SOL    HW214022   2.505   2.032   1.275
 4375SOL     OW14023   3.732   0.175   3.583
 4375SOL    HW114024   3.794   0.206   3.654
 4375SOL    HW214025   3.695   0.254   3.534
 4376SOL     OW14026   6.490   6.249   1.198
 4376SOL    HW114027   6.531   6.206   1.279
 4376SOL    HW214028   6.471   6.345   1.218
 4377SOL     OW14029   6.155   6.252   0.314
 4377SOL    HW114030   6.139   6.351   0.322
 4377SOL    HW214031   6.114   6.206   0.392
 4378SOL     OW14032   1.636   5.420   2.178
 4378SOL    HW114033   1.701   5.463   2.240
 4378SOL    HW214034   1.685   5.362   2.113
 4379SOL     OW14035   1.770   0.497   1.786
 4379SOL    HW114036   1.680   0.520   1.748
 4379SOL    HW214037   1.826   0.580   1.792
 4380SOL     OW14038   2.015   5.847   4.754
 4380SOL    HW114039   2.029   5.936   4.710
 4380SOL    HW214040   2.079   5.837   4.830
 4381SOL     OW14041   3.637   5.522   4.618
 4381SOL    HW114042   3.554   5.476   4.650
 4381SOL    HW214043   3.613   5.593   4.553
 4382SOL     OW14044   4.902   4.571   4.323
 4382SOL    HW114045   4.889   4.581   4.421
 4382SOL    HW214046   4.867   4.652   4.276
 4383SOL     OW14047   1.669   2.019   5.768
 4383SOL    HW114048   1.629   2.098   5.721
 4383SOL    HW214049   1.649   1.936   5.717
 4384SOL     OW14050   4.139   0.224   1.297
 4384SOL    HW114051   4.204   0.176   1.238
 4384SOL    HW214052   4.055   0.244   1.246
 4385SOL     OW14053   0.104   1.486   3.926
 4385SOL    HW114054   0.142   1.472   3.834
 4385SOL    HW214055   0.165   1.546   3.978
 4386SOL     OW14056   1.111   3.927   6.708
 4386SOL    HW114057   1.089   4.010   6.657
 4386SOL    HW214058   1.082   3.937   6.803
 4387SOL     OW14059   6.550   2.744   0.823
 4387SOL    HW114060   6.599   2.825   0.857
 4387SOL    HW214061   6.466   2.773   0.778
 4388SOL     OW14062   3.968   0.683   6.543
 4388SOL    HW114063   3.895   0.684   6.611
 4388SOL    HW214064   4.037   0.616   6.569
 4389SOL     OW14065   5.388   2.299   1.469
 4389SOL    HW114066   5.421   2.386   1.505
 4389SOL    HW214067   5.371   2.308   1.371
 4390SOL     OW14068   4.478   2.110   1.870
 4390SOL    HW114069   4.402   2.050   1.895
 4390SOL    HW214070   4.541   2.060   1.811
 4391SOL     OW14071   1.229   5.821   6.373
 4391SOL    HW114072   1.301   5.761   6.338
 4391SOL    HW214073   1.271   5.901   6.416
 4392SOL     OW14074   5.087   3.234   4.859
 4392SOL    HW114075   5.052   3.195   4.945
 4392SOL    HW214076   5.057   3.328   4.850
 4393SOL     OW14077   4.720   6.969   4.176
 4393SOL    HW114078   4.711   7.000   4.271
 4393SOL    HW214079   4.799   6.907   4.169
 4394SOL     OW14080   5.972   5.803   2.798
 4394SOL    HW114081   5.977   5.802   2.698
 4394SOL    HW214082   5.927   5.887   2.828
 4395SOL     OW14083   4.602   1.636   1.239
 4395SOL    HW114084   4.552   1.695   1.304
 4395SOL    HW214085   4.536   1.580   1.189
 4396SOL     OW14086   1.940   1.804   4.281
 4396SOL    HW114087   1.970   1.800   4.376
 4396SOL    HW214088   2.017   1.783   4.221
 4397SOL     OW14089   0.295   1.620   4.097
 4397SOL    HW114090   0.376   1.666   4.060
 4397SOL    HW214091   0.323   1.555   4.167
 4398SOL     OW14092   1.247   4.381   4.652
 4398SOL    HW114093   1.247   4.352   4.556
 4398SOL    HW214094   1.341   4.390   4.684
 4399SOL     OW14095   2.636   0.576   0.570
 4399SOL    HW114096   2.548   0.587   0.522
 4399SOL    HW214097   2.619   0.571   0.668
 4400SOL     OW14098   1.972   6.736   4.190
 4400SOL    HW114099   2.009   6.822   4.156
 4400SOL    HW214100   1.936   6.682   4.115
 4401SOL     OW14101   5.882   6.002   5.344
 4401SOL    HW114102   5.898   6.049   5.257
 4401SOL    HW214103   5.790   5.963   5.344
 4402SOL     OW14104   1.165   5.837   2.927
 4402SOL    HW114105   1.098   5.866   2.858
 4402SOL    HW214106   1.124   5.842   3.018
 4403SOL     OW14107   6.772   6.961   3.321
 4403SOL    HW114108   6.806   6.928   3.233
 4403SOL    HW214109   6.773   6.885   3.387
 4404SOL     OW14110   1.231   3.724   4.338
 4404SOL    HW114111   1.184   3.670   4.269
 4404SOL    HW214112   1.198   3.699   4.429
 4405SOL     OW14113   3.039   4.576   5.628
 4405SOL    HW114114   2.977   4.636   5.677
 4405SOL    HW214115   3.133   4.608   5.641
 4406SOL     OW14116   4.686   5.048   1.242
 4406SOL    HW114117   4.616   5.091   1.185
 4406SOL    HW214118   4.668   5.070   1.338
 4407SOL     OW14119   0.023   5.974   0.424
 4407SOL    HW114120   6.978   5.913   0.467
 4407SOL    HW214121   0.111   5.964   0.470
 4408SOL     OW14122   4.476   0.248   0.979
 4408SOL    HW114123   4.550   0.183   0.998
 4408SOL    HW214124   4.389   0.209   1.008
 4409SOL     OW14125   4.032   1.287   1.643
 4409SOL    HW114126   4.058   1.294   1.546
 4409SOL    HW214127   3.970   1.362   1.666
 4410SOL     OW14128   2.454   4.368   0.059
 4410SOL    HW114129   2.371   4.382   0.111
 4410SOL    HW214130   2.455   4.276   0.020
 4411SOL     OW14131   3.296   3.162   2.998
 4411SOL    HW114132   3.314   3.218   2.917
 4411SOL    HW214133   3.380   3.150   3.050
 4412SOL     OW14134   4.674   1.307   5.534
 4412SOL    HW114135   4.736   1.316   5.456
 4412SOL    HW214136   4.717   1.344   5.616
 4413SOL     OW14137   4.335   5.842   4.717
 4413SOL    HW114138   4.320   5.922   4.774
 4413SOL    HW214139   4.334   5.869   4.621
 4414SOL     OW14140   4.848   5.026   2.461
 4414SOL    HW114141   4.795   5.110   2.451
 4414SOL    HW214142   4.920   5.023   2.391
 4415SOL     OW14143   5.719   3.911   6.439
 4415SOL    HW114144   5.809   3.882   6.408
 4415SOL    HW214145   5.656   3.915   6.361
 4416SOL     OW14146   2.874   1.593   3.952
 4416SOL    HW114147   2.833   1.584   3.862
 4416SOL    HW214148   2.847   1.681   3.992
 4417SOL     OW14149   6.929   4.390   2.360
 4417SOL    HW114150   6.955   4.485   2.343
 4417SOL    HW214151   6.830   4.380   2.344
 4418SOL     OW14152   4.216   6.629   3.912
 4418SOL    HW114153   4.117   6.634   3.925
 4418SOL    HW214154   4.255   6.567   3.980
 4419SOL     OW14155   5.783   5.510   0.235
 4419SOL    HW114156   5.685   5.500   0.253
 4419SOL    HW214157   5.830   5.535   0.320
 4420SOL     OW14158   4.559   0.858   0.628
 4420SOL    HW114159   4.552   0.952   0.592
 4420SOL    HW214160   4.628   0.855   0.700
 4421SOL     OW14161   2.639   1.552   2.182
 4421SOL    HW114162   2.709   1.621   2.203
 4421SOL    HW214163   2.562   1.597   2.135
 4422SOL     OW14164   3.072   3.073   5.982
 4422SOL    HW114165   2.980   3.052   5.949
 4422SOL    HW214166   3.111   3.147   5.927
 4423SOL     OW14167   1.548   2.240   5.626
 4423SOL    HW114168   1.643   2.272   5.630
 4423SOL    HW214169   1.494   2.289   5.695
 4424SOL     OW14170   5.058   6.507   3.232
 4424SOL    HW114171   4.973   6.521   3.283
 4424SOL    HW214172   5.135   6.541   3.286
 4425SOL     OW14173   3.822   5.534   6.183
 4425SOL    HW114174   3.858   5.488   6.264
 4425SOL    HW214175   3.877   5.508   6.103
 4426SOL     OW14176   7.021   1.023   5.628
 4426SOL    HW114177   0.025   1.005   5.533
 4426SOL    HW214178   6.944   0.964   5.653
 4427SOL     OW14179   0.383   1.002   3.294
 4427SOL    HW114180   0.430   1.088   3.312
 4427SOL    HW214181   0.389   0.981   3.196
 4428SOL     OW14182   2.753   4.742   4.446
 4428SOL    HW114183   2.842   4.784   4.465
 4428SOL    HW214184   2.698   4.740   4.529
 4429SOL     OW14185   2.911   0.372   3.533
 4429SOL    HW114186   2.933   0.455   3.584
 4429SOL    HW214187   2.962   0.372   3.447
 4430SOL     OW14188   4.663   2.357   3.297
 4430SOL    HW114189   4.678   2.322   3.205
 4430SOL    HW214190   4.603   2.295   3.347
 4431SOL     OW14191   2.728   1.099   2.597
 4431SOL    HW114192   2.818   1.099   2.639
 4431SOL    HW214193   2.735   1.071   2.501
 4432SOL     OW14194   3.439   2.926   3.451
 4432SOL    HW114195   3.528   2.946   3.492
 4432SOL    HW214196   3.449   2.921   3.352
 4433SOL     OW14197   6.069   0.120   3.309
 4433SOL    HW114198   6.099   0.082   3.396
 4433SOL    HW214199   6.020   0.206   3.325
 4434SOL     OW14200   4.632   1.417   4.056
 4434SOL    HW114201   4.728   1.403   4.034
 4434SOL    HW214202   4.624   1.448   4.151
 4435SOL     OW14203   3.585   3.063   0.836
 4435SOL    HW114204   3.557   2.968   0.846
 4435SOL    HW214205   3.685   3.068   0.837
 4436SOL     OW14206   3.223   1.847   6.698
 4436SOL    HW114207   3.290   1.852   6.624
 4436SOL    HW214208   3.160   1.771   6.681
 4437SOL     OW14209   4.116   0.917   4.505
 4437SOL    HW114210   4.082   0.824   4.492
 4437SOL    HW214211   4.048   0.982   4.472
 4438SOL     OW14212   4.514   1.666   6.878
 4438SOL    HW114213   4.587   1.700   6.938
 4438SOL    HW214214   4.459   1.743   6.846
 4439SOL     OW14215   0.886   5.232   1.465
 4439SOL    HW114216   0.907   5.326   1.439
 4439SOL    HW214217   0.790   5.212   1.447
 4440SOL     OW14218   1.868   5.441   0.165
 4440SOL    HW114219   1.840   5.357   0.119
 4440SOL    HW214220   1.950   5.477   0.121
 4441SOL     OW14221   6.268   2.076   1.918
 4441SOL    HW114222   6.254   2.154   1.979
 4441SOL    HW214223   6.192   2.071   1.853
 4442SOL     OW14224   3.619   6.133   3.494
 4442SOL    HW114225   3.660   6.223   3.509
 4442SOL    HW214226   3.640   6.101   3.402
 4443SOL     OW14227   1.421   2.055   6.680
 4443SOL    HW114228   1.497   2.074   6.742
 4443SOL    HW214229   1.432   2.110   6.597
 4444SOL     OW14230   3.839   5.990   6.564
 4444SOL    HW114231   3.927   6.036   6.558
 4444SOL    HW214232   3.831   5.944   6.652
 4445SOL     OW14233   1.250   1.054   6.360
 4445SOL    HW114234   1.335   1.057   6.307
 4445SOL    HW214235   1.175   1.088   6.303
 4446SOL     OW14236   5.919   1.009   1.463
 4446SOL    HW114237   5.864   0.953   1.524
 4446SOL    HW214238   5.999   1.044   1.512
 4447SOL     OW14239   5.048   3.341   5.430
 4447SOL    HW114240   5.031   3.379   5.339
 4447SOL    HW214241   5.130   3.384   5.469
 4448SOL     OW14242   3.099   4.172   6.972
 4448SOL    HW114243   3.079   4.076   6.987
 4448SOL    HW214244   3.015   4.220   6.947
 4449SOL     OW14245   3.492   0.505   5.915
 4449SOL    HW114246   3.584   0.536   5.937
 4449SOL    HW214247   3.496   0.412   5.877
 4450SOL     OW14248   3.299   2.926   2.855
 4450SOL    HW114249   3.299   2.990   2.931
 4450SOL    HW214250   3.340   2.839   2.884
 4451SOL     OW14251   5.942   4.243   2.652
 4451SOL    HW114252   5.897   4.225   2.739
 4451SOL    HW214253   5.933   4.340   2.629
 4452SOL     OW14254   6.137   6.485   4.802
 4452SOL    HW114255   6.138   6.530   4.891
 4452SOL    HW214256   6.057   6.425   4.795
 4453SOL     OW14257   5.963   3.012   1.267
 4453SOL    HW114258   5.963   2.960   1.182
 4453SOL    HW214259   5.889   3.080   1.264
 4454SOL     OW14260   5.205   2.073   0.997
 4454SOL    HW114261   5.185   2.007   1.069
 4454SOL    HW214262   5.259   2.028   0.925
 4455SOL     OW14263   3.060   6.157   1.236
 4455SOL    HW114264   2.976   6.174   1.289
 4455SOL    HW214265   3.055   6.065   1.196
 4456SOL     OW14266   2.501   5.340   2.294
 4456SOL    HW114267   2.512   5.393   2.378
 4456SOL    HW214268   2.467   5.248   2.317
 4457SOL     OW14269   4.289   2.615   6.541
 4457SOL    HW114270   4.373   2.631   6.490
 4457SOL    HW214271   4.214   2.599   6.477
 4458SOL     OW14272   2.055   2.915   6.663
 4458SOL    HW114273   1.957   2.914   6.643
 4458SOL    HW214274   2.101   2.975   6.598
 4459SOL     OW14275   5.124   0.132   4.170
 4459SOL    HW114276   5.064   0.052   4.180
 4459SOL    HW214277   5.203   0.122   4.229
 4460SOL     OW14278   2.433   3.052   6.386
 4460SOL    HW114279   2.441   3.152   6.383
 4460SOL    HW214280   2.492   3.011   6.318
 4461SOL     OW14281   1.216   0.082   2.729
 4461SOL    HW114282   1.141   0.068   2.665
 4461SOL    HW214283   1.213   0.175   2.766
 4462SOL     OW14284   6.485   4.266   0.896
 4462SOL    HW114285   6.452   4.176   0.923
 4462SOL    HW214286   6.477   4.329   0.974
 4463SOL     OW14287   1.752   2.865   6.898
 4463SOL    HW114288   1.744   2.795   6.969
 4463SOL    HW214289   1.804   2.942   6.934
 4464SOL     OW14290   6.001   4.929   0.579
 4464SOL    HW114291   6.095   4.907   0.556
 4464SOL    HW214292   5.967   4.866   0.648
 4465SOL     OW14293   1.922   6.427   2.460
 4465SOL    HW114294   2.001   6.465   2.508
 4465SOL    HW214295   1.944   6.419   2.363
 4466SOL     OW14296   0.854   0.913   2.698
 4466SOL    HW114297   0.835   0.869   2.610
 4466SOL    HW214298   0.878   1.009   2.683
 4467SOL     OW14299   1.047   6.827   3.352
 4467SOL    HW114300   1.051   6.899   3.422
 4467SOL    HW214301   1.100   6.748   3.383
 4468SOL     OW14302   0.951   1.965   0.054
 4468SOL    HW114303   0.905   1.876   0.056
 4468SOL    HW214304   0.883   2.038   0.067
 4469SOL     OW14305   3.085   6.782   2.033
 4469SOL    HW114306   3.043   6.694   2.056
 4469SOL    HW214307   3.148   6.769   1.956
 4470SOL     OW14308   5.384   3.670   1.715
 4470SOL    HW114309   5.368   3.720   1.630
 4470SOL    HW214310   5.426   3.582   1.695
 4471SOL     OW14311   0.228   2.848   0.139
 4471SOL    HW114312   0.244   2.806   0.228
 4471SOL    HW214313   0.182   2.783   0.079
 4472SOL     OW14314   1.475   4.440   2.690
 4472SOL    HW114315   1.462   4.395   2.602
 4472SOL    HW214316   1.501   4.535   2.676
 4473SOL     OW14317   0.016   0.390   5.011
 4473SOL    HW114318   0.108   0.369   4.978
 4473SOL    HW214319   6.971   0.336   4.960
 4474SOL     OW14320   3.181   0.028   2.531
 4474SOL    HW114321   3.136   6.979   2.478
 4474SOL    HW214322   3.141   0.117   2.509
 4475SOL     OW14323   1.475   3.881   1.200
 4475SOL    HW114324   1.398   3.919   1.252
 4475SOL    HW214325   1.484   3.929   1.113
 4476SOL     OW14326   5.108   6.357   3.002
 4476SOL    HW114327   5.114   6.401   3.092
 4476SOL    HW214328   5.076   6.263   3.012
 4477SOL     OW14329   1.751   0.305   6.610
 4477SOL    HW114330   1.769   0.220   6.660
 4477SOL    HW214331   1.719   0.283   6.518
 4478SOL     OW14332   2.575   6.488   2.628
 4478SOL    HW114333   2.476   6.495   2.615
 4478SOL    HW214334   2.595   6.409   2.686
 4479SOL     OW14335   1.405   0.346   6.303
 4479SOL    HW114336   1.399   0.359   6.204
 4479SOL    HW214337   1.360   0.261   6.329
 4480SOL     OW14338   2.133   3.416   4.464
 4480SOL    HW114339   2.212   3.473   4.485
 4480SOL    HW214340   2.079   3.402   4.547
 4481SOL     OW14341   2.292   6.651   4.591
 4481SOL    HW114342   2.392   6.643   4.582
 4481SOL    HW214343   2.248   6.611   4.510
 4482SOL     OW14344   0.901   3.991   4.026
 4482SOL    HW114345   0.824   3.954   3.975
 4482SOL    HW214346   0.951   4.057   3.968
 4483SOL     OW14347   0.055   3.484   1.166
 4483SOL    HW114348   0.053   3.404   1.106
 4483SOL    HW214349   0.022   3.459   1.257
 4484SOL     OW14350   3.681   2.145   5.373
 4484SOL    HW114351   3.611   2.075   5.384
 4484SOL    HW214352   3.730   2.131   5.286
 4485SOL     OW14353   5.070   2.670   6.602
 4485SOL    HW114354   4.991   2.698   6.547
 4485SOL    HW214355   5.154   2.681   6.548
 4486SOL     OW14356   6.890   4.074   4.864
 4486SOL    HW114357   6.930   4.163   4.887
 4486SOL    HW214358   6.794   4.072   4.892
 4487SOL     OW14359   2.533   3.385   6.876
 4487SOL    HW114360   2.447   3.434   6.891
 4487SOL    HW214361   2.568   3.352   6.964
 4488SOL     OW14362   5.545   2.741   6.177
 4488SOL    HW114363   5.578   2.703   6.091
 4488SOL    HW214364   5.450   2.714   6.192
 4489SOL     OW14365   5.507   5.692   4.300
 4489SOL    HW114366   5.530   5.630   4.225
 4489SOL    HW214367   5.591   5.720   4.347
 4490SOL     OW14368   5.645   1.610   1.477
 4490SOL    HW114369   5.616   1.676   1.547
 4490SOL    HW214370   5.744   1.595   1.484
 4491SOL     OW14371   0.870   3.316   2.686
 4491SOL    HW114372   0.949   3.285   2.633
 4491SOL    HW214373   0.879   3.285   2.780
 4492SOL     OW14374   5.347   2.544   0.583
 4492SOL    HW114375   5.273   2.584   0.638
 4492SOL    HW214376   5.357   2.447   0.605
 4493SOL     OW14377   4.137   5.063   4.592
 4493SOL    HW114378   4.157   5.159   4.572
 4493SOL    HW214379   4.207   5.026   4.653
 4494SOL     OW14380   6.978   2.402   5.696
 4494SOL    HW114381   6.885   2.374   5.672
 4494SOL    HW214382   6.995   2.494   5.660
 4495SOL     OW14383   5.177   6.883   3.180
 4495SOL    HW114384   5.154   6.809   3.117
 4495SOL    HW214385   5.093   6.926   3.213
 4496SOL     OW14386   5.299   4.841   0.514
 4496SOL    HW114387   5.283   4.872   0.420
 4496SOL    HW214388   5.277   4.744   0.521
 4497SOL     OW14389   5.390   5.891   6.982
 4497SOL    HW114390   5.434   5.972   7.022
 4497SOL    HW214391   5.450   5.812   6.992
 4498SOL     OW14392   0.269   3.491   6.801
 4498SOL    HW114393   0.248   3.535   6.714
 4498SOL    HW214394   0.347   3.430   6.790
 4499SOL     OW14395   6.188   3.339   3.994
 4499SOL    HW114396   6.272   3.383   4.026
 4499SOL    HW214397   6.113   3.365   4.054
 4500SOL     OW14398   2.970   3.538   4.163
 4500SOL    HW114399   2.906   3.571   4.094
 4500SOL    HW214400   3.017   3.457   4.130
 4501SOL     OW14401   1.044   3.654   6.015
 4501SOL    HW114402   1.126   3.597   6.009
 4501SOL    HW214403   1.068   3.749   5.999
 4502SOL     OW14404   2.125   2.568   5.803
 4502SOL    HW114405   2.161   2.478   5.826
 4502SOL    HW214406   2.155   2.593   5.710
 4503SOL     OW14407   2.329   0.938   3.391
 4503SOL    HW114408   2.367   0.940   3.483
 4503SOL    HW214409   2.274   0.856   3.379
 4504SOL     OW14410   6.601   2.421   5.378
 4504SOL    HW114411   6.632   2.433   5.284
 4504SOL    HW214412   6.546   2.500   5.405
 4505SOL     OW14413   0.458   6.009   4.925
 4505SOL    HW114414   0.484   5.967   4.838
 4505SOL    HW214415   0.386   5.955   4.969
 4506SOL     OW14416   3.935   1.889   4.641
 4506SOL    HW114417   3.925   1.967   4.580
 4506SOL    HW214418   3.844   1.858   4.670
 4507SOL     OW14419   4.801   4.731   1.487
 4507SOL    HW114420   4.791   4.660   1.417
 4507SOL    HW214421   4.753   4.703   1.570
 4508SOL     OW14422   1.591   3.996   6.743
 4508SOL    HW114423   1.550   4.024   6.657
 4508SOL    HW214424   1.559   3.904   6.768
 4509SOL     OW14425   4.520   1.884   4.392
 4509SOL    HW114426   4.602   1.918   4.348
 4509SOL    HW214427   4.505   1.788   4.366
 4510SOL     OW14428   5.315   0.130   4.964
 4510SOL    HW114429   5.359   0.196   5.024
 4510SOL    HW214430   5.382   0.063   4.933
 4511SOL     OW14431   0.321   2.969   6.638
 4511SOL    HW114432   0.358   2.987   6.547
 4511SOL    HW214433   0.232   3.012   6.647
 4512SOL     OW14434   2.464   6.615   6.141
 4512SOL    HW114435   2.514   6.536   6.178
 4512SOL    HW214436   2.529   6.682   6.107
 4513SOL     OW14437   4.823   6.679   1.521
 4513SOL    HW114438   4.725   6.660   1.513
 4513SOL    HW214439   4.875   6.612   1.468
 4514SOL     OW14440   3.705   1.234   4.720
 4514SOL    HW114441   3.736   1.258   4.628
 4514SOL    HW214442   3.782   1.201   4.774
 4515SOL     OW14443   6.677   4.270   0.281
 4515SOL    HW114444   6.609   4.289   0.352
 4515SOL    HW214445   6.633   4.225   0.204
 4516SOL     OW14446   1.078   1.165   6.176
 4516SOL    HW114447   1.005   1.097   6.176
 4516SOL    HW214448   1.087   1.204   6.085
 4517SOL     OW14449   2.605   6.807   6.044
 4517SOL    HW114450   2.606   6.790   5.946
 4517SOL    HW214451   2.697   6.792   6.081
 4518SOL     OW14452   0.280   2.378   3.894
 4518SOL    HW114453   0.183   2.354   3.904
 4518SOL    HW214454   0.317   2.336   3.811
 4519SOL     OW14455   0.057   1.648   2.602
 4519SOL    HW114456   0.054   1.747   2.615
 4519SOL    HW214457   0.152   1.618   2.598
 4520SOL     OW14458   5.874   4.825   3.148
 4520SOL    HW114459   5.862   4.764   3.226
 4520SOL    HW214460   5.846   4.917   3.173
 4521SOL     OW14461   5.186   2.025   6.104
 4521SOL    HW114462   5.088   2.012   6.089
 4521SOL    HW214463   5.231   2.046   6.017
 4522SOL     OW14464   5.005   6.919   4.056
 4522SOL    HW114465   5.071   6.953   3.990
 4522SOL    HW214466   4.972   6.829   4.027
 4523SOL     OW14467   2.296   4.205   6.774
 4523SOL    HW114468   2.334   4.113   6.777
 4523SOL    HW214469   2.203   4.204   6.810
 4524SOL     OW14470   5.373   1.649   5.682
 4524SOL    HW114471   5.368   1.624   5.778
 4524SOL    HW214472   5.461   1.620   5.644
 4525SOL     OW14473   6.655   1.786   4.130
 4525SOL    HW114474   6.680   1.869   4.179
 4525SOL    HW214475   6.665   1.707   4.191
 4526SOL     OW14476   5.247   0.129   1.307
 4526SOL    HW114477   5.277   0.216   1.270
 4526SOL    HW214478   5.186   0.145   1.385
 4527SOL     OW14479   4.186   1.100   3.682
 4527SOL    HW114480   4.245   1.076   3.759
 4527SOL    HW214481   4.235   1.083   3.596
 4528SOL     OW14482   4.679   6.504   6.961
 4528SOL    HW114483   4.779   6.509   6.960
 4528SOL    HW214484   4.643   6.573   0.002
 4529SOL     OW14485   2.594   1.067   3.289
 4529SOL    HW114486   2.671   1.078   3.351
 4529SOL    HW214487   2.508   1.071   3.341
 4530SOL     OW14488   0.428   3.377   5.854
 4530SOL    HW114489   0.407   3.465   5.812
 4530SOL    HW214490   0.346   3.341   5.899
 4531SOL     OW14491   1.203   3.845   3.294
 4531SOL    HW114492   1.133   3.875   3.228
 4531SOL    HW214493   1.187   3.749   3.318
 4532SOL     OW14494   7.017   1.739   1.705
 4532SOL    HW114495   6.928   1.769   1.738
 4532SOL    HW214496   0.067   1.788   1.754
 4533SOL     OW14497   1.579   0.772   3.352
 4533SOL    HW114498   1.624   0.860   3.337
 4533SOL    HW214499   1.647   0.699   3.349
 4534SOL     OW14500   6.183   3.450   5.103
 4534SOL    HW114501   6.274   3.491   5.113
 4534SOL    HW214502   6.116   3.521   5.082
 4535SOL     OW14503   4.378   2.014   2.437
 4535SOL    HW114504   4.465   2.064   2.431
 4535SOL    HW214505   4.304   2.078   2.456
 4536SOL     OW14506   4.939   1.444   4.584
 4536SOL    HW114507   4.897   1.513   4.643
 4536SOL    HW214508   4.873   1.372   4.564
 4537SOL     OW14509   3.718   3.186   6.368
 4537SOL    HW114510   3.763   3.100   6.341
 4537SOL    HW214511   3.626   3.189   6.329
 4538SOL     OW14512   3.149   2.187   3.970
 4538SOL    HW114513   3.060   2.158   3.934
 4538SOL    HW214514   3.208   2.107   3.982
 4539SOL     OW14515   2.830   2.222   4.019
 4539SOL    HW114516   2.828   2.246   3.922
 4539SOL    HW214517   2.884   2.140   4.033
 4540SOL     OW14518   3.893   3.635   3.743
 4540SOL    HW114519   3.856   3.543   3.733
 4540SOL    HW214520   3.819   3.701   3.753
 4541SOL     OW14521   5.292   0.347   0.053
 4541SOL    HW114522   5.324   0.416   0.117
 4541SOL    HW214523   5.314   0.375   6.981
 4542SOL     OW14524   6.004   6.264   1.967
 4542SOL    HW114525   6.093   6.247   1.924
 4542SOL    HW214526   6.008   6.237   2.063
 4543SOL     OW14527   4.453   1.411   7.018
 4543SOL    HW114528   4.353   1.411   7.017
 4543SOL    HW214529   4.487   1.497   6.978
 4544SOL     OW14530   2.568   6.115   6.434
 4544SOL    HW114531   2.667   6.107   6.444
 4544SOL    HW214532   2.527   6.132   6.524
 4545SOL     OW14533   4.600   2.352   5.205
 4545SOL    HW114534   4.597   2.253   5.215
 4545SOL    HW214535   4.666   2.376   5.134
 4546SOL     OW14536   1.001   6.922   6.314
 4546SOL    HW114537   0.990   6.901   6.217
 4546SOL    HW214538   0.911   6.936   6.355
 4547SOL     OW14539   5.837   2.957   1.906
 4547SOL    HW114540   5.760   2.939   1.967
 4547SOL    HW214541   5.923   2.941   1.955
 4548SOL     OW14542   1.274   5.341   3.921
 4548SOL    HW114543   1.335   5.354   3.999
 4548SOL    HW214544   1.322   5.293   3.848
 4549SOL     OW14545   6.746   3.650   3.193
 4549SOL    HW114546   6.717   3.610   3.106
 4549SOL    HW214547   6.840   3.622   3.213
 4550SOL     OW14548   0.789   5.649   3.911
 4550SOL    HW114549   0.695   5.670   3.939
 4550SOL    HW214550   0.796   5.657   3.811
 4551SOL     OW14551   0.041   1.753   5.378
 4551SOL    HW114552   0.036   1.666   5.328
 4551SOL    HW214553   0.136   1.784   5.380
 4552SOL     OW14554   0.229   3.072   5.901
 4552SOL    HW114555   0.210   3.164   5.934
 4552SOL    HW214556   0.323   3.047   5.924
 4553SOL     OW14557   4.065   4.944   6.556
 4553SOL    HW114558   4.053   4.906   6.647
 4553SOL    HW214559   4.155   4.918   6.520
 4554SOL     OW14560   4.211   1.178   2.038
 4554SOL    HW114561   4.225   1.191   1.940
 4554SOL    HW214562   4.295   1.141   2.078
 4555SOL     OW14563   4.280   1.222   6.800
 4555SOL    HW114564   4.329   1.154   6.856
 4555SOL    HW214565   4.341   1.298   6.780
 4556SOL     OW14566   3.985   1.248   3.816
 4556SOL    HW114567   4.067   1.195   3.794
 4556SOL    HW214568   3.903   1.193   3.795
 4557SOL     OW14569   4.964   0.323   4.623
 4557SOL    HW114570   4.925   0.383   4.692
 4557SOL    HW214571   5.031   0.261   4.666
 4558SOL     OW14572   6.521   3.950   6.782
 4558SOL    HW114573   6.600   3.963   6.843
 4558SOL    HW214574   6.438   3.978   6.830
 4559SOL     OW14575   1.651   6.427   2.119
 4559SOL    HW114576   1.620   6.420   2.214
 4559SOL    HW214577   1.748   6.453   2.117
 4560SOL     OW14578   5.291   4.246   3.030
 4560SOL    HW114579   5.291   4.336   2.986
 4560SOL    HW214580   5.198   4.224   3.060
 4561SOL     OW14581   2.600   0.543   0.886
 4561SOL    HW114582   2.512   0.516   0.926
 4561SOL    HW214583   2.675   0.502   0.938
 4562SOL     OW14584   3.013   5.740   5.305
 4562SOL    HW114585   3.052   5.816   5.254
 4562SOL    HW214586   3.086   5.687   5.347
 4563SOL     OW14587   5.379   3.459   0.259
 4563SOL    HW114588   5.307   3.527   0.274
 4563SOL    HW214589   5.350   3.370   0.294
 4564SOL     OW14590   1.310   5.520   1.247
 4564SOL    HW114591   1.348   5.429   1.266
 4564SOL    HW214592   1.212   5.511   1.227
 4565SOL     OW14593   0.375   1.549   5.384
 4565SOL    HW114594   0.384   1.576   5.289
 4565SOL    HW214595   0.453   1.584   5.436
 4566SOL     OW14596   6.859   0.693   0.502
 4566SOL    HW114597   6.914   0.737   0.431
 4566SOL    HW214598   6.768   0.735   0.505
 4567SOL     OW14599   0.531   1.169   0.739
 4567SOL    HW114600   0.465   1.129   0.803
 4567SOL    HW214601   0.484   1.233   0.679
 4568SOL     OW14602   1.797   4.137   5.168
 4568SOL    HW114603   1.885   4.142   5.120
 4568SOL    HW214604   1.750   4.225   5.162
 4569SOL     OW14605   1.631   2.153   3.886
 4569SOL    HW114606   1.622   2.235   3.829
 4569SOL    HW214607   1.540   2.113   3.901
 4570SOL     OW14608   6.933   6.133   3.196
 4570SOL    HW114609   6.910   6.036   3.188
 4570SOL    HW214610   6.850   6.187   3.211
 4571SOL     OW14611   3.549   3.817   4.861
 4571SOL    HW114612   3.528   3.824   4.958
 4571SOL    HW214613   3.479   3.762   4.815
 4572SOL     OW14614   0.378   6.954   1.098
 4572SOL    HW114615   0.293   6.918   1.060
 4572SOL    HW214616   0.428   6.881   1.144
 4573SOL     OW14617   6.099   5.667   0.647
 4573SOL    HW114618   6.068   5.674   0.742
 4573SOL    HW214619   6.139   5.754   0.619
 4574SOL     OW14620   0.155   4.876   0.871
 4574SOL    HW114621   0.210   4.811   0.818
 4574SOL    HW214622   0.169   4.969   0.835
 4575SOL     OW14623   0.110   2.004   0.559
 4575SOL    HW114624   0.149   1.934   0.498
 4575SOL    HW214625   0.152   1.996   0.649
 4576SOL     OW14626   2.928   5.697   6.308
 4576SOL    HW114627   3.007   5.658   6.356
 4576SOL    HW214628   2.959   5.739   6.223
 4577SOL     OW14629   0.272   3.514   2.870
 4577SOL    HW114630   0.185   3.559   2.849
 4577SOL    HW214631   0.344   3.552   2.813
 4578SOL     OW14632   0.917   3.812   3.518
 4578SOL    HW114633   0.922   3.717   3.487
 4578SOL    HW214634   0.974   3.824   3.599
 4579SOL     OW14635   4.434   1.267   2.920
 4579SOL    HW114636   4.465   1.311   2.835
 4579SOL    HW214637   4.490   1.186   2.937
 4580SOL     OW14638   6.257   4.959   0.585
 4580SOL    HW114639   6.256   5.011   0.671
 4580SOL    HW214640   6.313   4.877   0.597
 4581SOL     OW14641   3.281   4.891   2.626
 4581SOL    HW114642   3.345   4.897   2.549
 4581SOL    HW214643   3.316   4.827   2.693
 4582SOL     OW14644   5.902   6.494   4.569
 4582SOL    HW114645   5.949   6.431   4.507
 4582SOL    HW214646   5.894   6.450   4.659
 4583SOL     OW14647   2.938   1.892   5.027
 4583SOL    HW114648   3.021   1.935   5.064
 4583SOL    HW214649   2.953   1.794   5.016
 4584SOL     OW14650   0.428   5.637   6.308
 4584SOL    HW114651   0.431   5.672   6.402
 4584SOL    HW214652   0.333   5.615   6.284
 4585SOL     OW14653   2.770   6.408   3.110
 4585SOL    HW114654   2.850   6.416   3.168
 4585SOL    HW214655   2.788   6.452   3.022
 4586SOL     OW14656   3.266   4.952   0.964
 4586SOL    HW114657   3.253   4.867   1.015
 4586SOL    HW214658   3.262   5.029   1.027
 4587SOL     OW14659   4.236   3.442   1.767
 4587SOL    HW114660   4.195   3.427   1.857
 4587SOL    HW214661   4.327   3.400   1.765
 4588SOL     OW14662   4.098   3.535   5.439
 4588SOL    HW114663   4.124   3.439   5.442
 4588SOL    HW214664   4.067   3.559   5.347
 4589SOL     OW14665   5.566   1.863   2.641
 4589SOL    HW114666   5.551   1.817   2.553
 4589SOL    HW214667   5.542   1.802   2.716
 4590SOL     OW14668   4.572   5.943   1.792
 4590SOL    HW114669   4.488   5.961   1.742
 4590SOL    HW214670   4.601   5.849   1.776
 4591SOL     OW14671   6.965   5.936   5.563
 4591SOL    HW114672   6.914   6.021   5.577
 4591SOL    HW214673   0.015   5.929   5.631
 4592SOL     OW14674   4.008   3.030   1.328
 4592SOL    HW114675   3.985   3.065   1.237
 4592SOL    HW214676   4.045   2.938   1.320
 4593SOL     OW14677   4.643   5.124   3.128
 4593SOL    HW114678   4.614   5.194   3.062
 4593SOL    HW214679   4.562   5.076   3.162
 4594SOL     OW14680   4.293   1.299   1.785
 4594SOL    HW114681   4.367   1.293   1.717
 4594SOL    HW214682   4.208   1.265   1.745
 4595SOL     OW14683   3.529   2.913   6.604
 4595SOL    HW114684   3.484   3.002   6.610
 4595SOL    HW214685   3.620   2.919   6.646
 4596SOL     OW14686   5.998   6.578   1.991
 4596SOL    HW114687   5.996   6.609   1.896
 4596SOL    HW214688   6.075   6.516   2.004
 4597SOL     OW14689   5.247   5.392   6.763
 4597SOL    HW114690   5.148   5.390   6.772
 4597SOL    HW214691   5.284   5.300   6.781
 4598SOL     OW14692   1.152   5.237   6.541
 4598SOL    HW114693   1.056   5.209   6.551
 4598SOL    HW214694   1.187   5.203   6.454
 4599SOL     OW14695   1.315   3.603   1.171
 4599SOL    HW114696   1.381   3.678   1.174
 4599SOL    HW214697   1.294   3.581   1.076
 4600SOL     OW14698   3.288   5.193   6.163
 4600SOL    HW114699   3.331   5.267   6.110
 4600SOL    HW214700   3.273   5.114   6.103
 4601SOL     OW14701   1.609   1.101   5.164
 4601SOL    HW114702   1.695   1.055   5.145
 4601SOL    HW214703   1.533   1.043   5.136
 4602SOL     OW14704   1.384   6.663   1.481
 4602SOL    HW114705   1.436   6.669   1.395
 4602SOL    HW214706   1.415   6.734   1.543
 4603SOL     OW14707   3.446   6.454   1.171
 4603SOL    HW114708   3.356   6.421   1.144
 4603SOL    HW214709   3.445   6.554   1.174
 4604SOL     OW14710   4.150   1.073   1.086
 4604SOL    HW114711   4.068   1.057   1.141
 4604SOL    HW214712   4.123   1.090   0.991
 4605SOL     OW14713   5.127   0.797   4.066
 4605SOL    HW114714   5.116   0.821   4.163
 4605SOL    HW214715   5.061   0.727   4.041
 4606SOL     OW14716   0.130   6.894   2.902
 4606SOL    HW114717   0.087   6.938   2.823
 4606SOL    HW214718   0.142   6.797   2.884
 4607SOL     OW14719   2.466   2.080   0.744
 4607SOL    HW114720   2.382   2.026   0.739
 4607SOL    HW214721   2.522   2.048   0.821
 4608SOL     OW14722   1.053   5.066   5.130
 4608SOL    HW114723   1.068   5.035   5.035
 4608SOL    HW214724   0.972   5.124   5.134
 4609SOL     OW14725   4.412   5.666   6.230
 4609SOL    HW114726   4.499   5.634   6.192
 4609SOL    HW214727   4.351   5.588   6.246
 4610SOL     OW14728   0.048   2.406   0.359
 4610SOL    HW114729   0.074   2.379   0.452
 4610SOL    HW214730   0.030   2.505   0.357
 4611SOL     OW14731   6.671   3.965   0.211
 4611SOL    HW114732   6.663   3.950   0.309
 4611SOL    HW214733   6.735   4.039   0.192
 4612SOL     OW14734   1.894   6.279   6.755
 4612SOL    HW114735   1.895   6.193   6.807
 4612SOL    HW214736   1.802   6.296   6.721
 4613SOL     OW14737   2.403   5.966   2.814
 4613SOL    HW114738   2.448   5.953   2.903
 4613SOL    HW214739   2.443   5.903   2.748
 4614SOL     OW14740   1.793   4.989   6.061
 4614SOL    HW114741   1.805   5.086   6.038
 4614SOL    HW214742   1.775   4.980   6.159
 4615SOL     OW14743   1.735   1.522   0.340
 4615SOL    HW114744   1.673   1.584   0.388
 4615SOL    HW214745   1.717   1.527   0.242
 4616SOL     OW14746   6.811   0.644   6.466
 4616SOL    HW114747   6.831   0.728   6.416
 4616SOL    HW214748   6.731   0.658   6.525
 4617SOL     OW14749   1.004   2.515   2.309
 4617SOL    HW114750   1.073   2.454   2.272
 4617SOL    HW214751   0.919   2.506   2.256
 4618SOL     OW14752   1.540   2.396   5.115
 4618SOL    HW114753   1.508   2.447   5.195
 4618SOL    HW214754   1.619   2.339   5.141
 4619SOL     OW14755   4.618   0.007   3.591
 4619SOL    HW114756   4.571   7.018   3.504
 4619SOL    HW214757   4.604   0.100   3.625
 4620SOL     OW14758   3.400   3.945   6.807
 4620SOL    HW114759   3.306   3.927   6.777
 4620SOL    HW214760   3.403   4.033   6.855
 4621SOL     OW14761   6.542   2.317   4.597
 4621SOL    HW114762   6.516   2.356   4.509
 4621SOL    HW214763   6.509   2.376   4.671
 4622SOL     OW14764   1.588   2.673   0.886
 4622SOL    HW114765   1.637   2.739   0.942
 4622SOL    HW214766   1.507   2.641   0.935
 4623SOL     OW14767   0.362   5.290   1.061
 4623SOL    HW114768   0.346   5.327   0.970
 4623SOL    HW214769   0.445   5.332   1.100
 4624SOL     OW14770   4.657   0.707   4.002
 4624SOL    HW114771   4.595   0.750   4.068
 4624SOL    HW214772   4.731   0.771   3.979
 4625SOL     OW14773   1.509   4.151   6.965
 4625SOL    HW114774   1.538   4.077   6.904
 4625SOL    HW214775   1.410   4.148   6.976
 4626SOL     OW14776   6.285   4.957   1.561
 4626SOL    HW114777   6.349   4.893   1.602
 4626SOL    HW214778   6.207   4.906   1.523
 4627SOL     OW14779   3.409   5.754   5.420
 4627SOL    HW114780   3.447   5.808   5.345
 4627SOL    HW214781   3.333   5.699   5.386
 4628SOL     OW14782   5.842   4.368   3.078
 4628SOL    HW114783   5.822   4.455   3.033
 4628SOL    HW214784   5.847   4.382   3.177
 4629SOL     OW14785   2.214   4.832   6.054
 4629SOL    HW114786   2.197   4.852   6.151
 4629SOL    HW214787   2.177   4.907   5.998
 4630SOL     OW14788   3.099   5.725   3.801
 4630SOL    HW114789   3.117   5.714   3.703
 4630SOL    HW214790   3.148   5.653   3.851
 4631SOL     OW14791   2.608   6.841   3.756
 4631SOL    HW114792   2.600   6.900   3.675
 4631SOL    HW214793   2.525   6.849   3.811
 4632SOL     OW14794   4.554   4.868   2.996
 4632SOL    HW114795   4.481   4.861   3.063
 4632SOL    HW214796   4.613   4.946   3.019
 4633SOL     OW14797   6.683   1.544   4.582
 4633SOL    HW114798   6.760   1.484   4.603
 4633SOL    HW214799   6.697   1.633   4.625
 4634SOL     OW14800   3.043   4.455   6.364
 4634SOL    HW114801   3.019   4.437   6.460
 4634SOL    HW214802   3.140   4.477   6.357
 4635SOL     OW14803   5.921   3.155   2.266
 4635SOL    HW114804   5.980   3.232   2.292
 4635SOL    HW214805   5.966   3.101   2.195
 4636SOL     OW14806   2.816   5.166   6.723
 4636SOL    HW114807   2.890   5.120   6.674
 4636SOL    HW214808   2.762   5.098   6.774
 4637SOL     OW14809   1.536   0.767   6.704
 4637SOL    HW114810   1.497   0.850   6.664
 4637SOL    HW214811   1.472   0.692   6.693
 4638SOL     OW14812   4.032   2.737   6.255
 4638SOL    HW114813   4.124   2.739   6.215
 4638SOL    HW214814   4.036   2.693   6.345
 4639SOL     OW14815   1.262   4.113   5.792
 4639SOL    HW114816   1.236   4.198   5.838
 4639SOL    HW214817   1.354   4.123   5.753
 4640SOL     OW14818   5.060   5.177   3.971
 4640SOL    HW114819   4.969   5.159   3.933
 4640SOL    HW214820   5.095   5.263   3.934
 4641SOL     OW14821   2.812   5.123   4.507
 4641SOL    HW114822   2.766   5.154   4.424
 4641SOL    HW214823   2.842   5.202   4.561
 4642SOL     OW14824   6.328   5.774   5.216
 4642SOL    HW114825   6.230   5.759   5.230
 4642SOL    HW214826   6.362   5.835   5.287
 4643SOL     OW14827   4.714   2.344   0.102
 4643SOL    HW114828   4.792   2.407   0.106
 4643SOL    HW214829   4.672   2.350   0.012
 4644SOL     OW14830   1.482   5.359   5.219
 4644SOL    HW114831   1.434   5.294   5.277
 4644SOL    HW214832   1.430   5.375   5.136
 4645SOL     OW14833   1.872   0.023   4.293
 4645SOL    HW114834   1.773   0.021   4.300
 4645SOL    HW214835   1.899   0.047   4.200
 4646SOL     OW14836   2.832   6.791   2.235
 4646SOL    HW114837   2.786   6.712   2.274
 4646SOL    HW214838   2.923   6.800   2.276
 4647SOL     OW14839   0.963   6.544   3.029
 4647SOL    HW114840   0.928   6.535   2.936
 4647SOL    HW214841   1.056   6.582   3.026
 4648SOL     OW14842   3.351   6.804   1.444
 4648SOL    HW114843   3.447   6.780   1.428
 4648SOL    HW214844   3.292   6.740   1.396
 4649SOL     OW14845   4.991   0.672   5.628
 4649SOL    HW114846   4.940   0.601   5.578
 4649SOL    HW214847   5.089   0.652   5.624
 4650SOL     OW14848   3.868   6.016   2.992
 4650SOL    HW114849   3.937   5.984   3.057
 4650SOL    HW214850   3.896   6.104   2.954
 4651SOL     OW14851   0.467   2.406   1.758
 4651SOL    HW114852   0.552   2.378   1.716
 4651SOL    HW214853   0.437   2.493   1.718
 4652SOL     OW14854   0.609   6.953   3.654
 4652SOL    HW114855   0.540   7.016   3.689
 4652SOL    HW214856   0.686   7.005   3.617
 4653SOL     OW14857   6.693   6.015   0.371
 4653SOL    HW114858   6.745   5.939   0.409
 4653SOL    HW214859   6.730   6.039   0.281
 4654SOL     OW14860   0.580   0.128   0.397
 4654SOL    HW114861   0.559   0.225   0.389
 4654SOL    HW214862   0.666   0.116   0.447
 4655SOL     OW14863   0.582   4.906   2.300
 4655SOL    HW114864   0.565   4.977   2.367
 4655SOL    HW214865   0.505   4.900   2.237
 4656SOL     OW14866   0.997   6.929   3.080
 4656SOL    HW114867   1.025   0.002   3.071
 4656SOL    HW214868   1.021   6.895   3.171
 4657SOL     OW14869   5.385   6.937   2.007
 4657SOL    HW114870   5.436   6.997   1.945
 4657SOL    HW214871   5.435   6.929   2.093
 4658SOL     OW14872   3.638   0.533   2.563
 4658SOL    HW114873   3.657   0.510   2.658
 4658SOL    HW214874   3.681   0.465   2.503
 4659SOL     OW14875   1.809   3.205   5.006
 4659SOL    HW114876   1.845   3.118   4.971
 4659SOL    HW214877   1.792   3.267   4.930
 4660SOL     OW14878   1.165   2.146   4.624
 4660SOL    HW114879   1.228   2.107   4.557
 4660SOL    HW214880   1.216   2.182   4.702
 4661SOL     OW14881   3.806   3.670   4.880
 4661SOL    HW114882   3.752   3.644   4.800
 4661SOL    HW214883   3.758   3.743   4.929
 4662SOL     OW14884   4.794   0.559   5.429
 4662SOL    HW114885   4.737   0.640   5.420
 4662SOL    HW214886   4.865   0.561   5.358
 4663SOL     OW14887   6.614   1.833   2.736
 4663SOL    HW114888   6.572   1.823   2.826
 4663SOL    HW214889   6.701   1.783   2.734
 4664SOL     OW14890   2.236   2.342   6.655
 4664SOL    HW114891   2.165   2.382   6.598
 4664SOL    HW214892   2.251   2.400   6.735
 4665SOL     OW14893   4.579   6.877   6.669
 4665SOL    HW114894   4.639   6.797   6.669
 4665SOL    HW214895   4.629   6.956   6.634
 4666SOL     OW14896   2.479   1.210   6.991
 4666SOL    HW114897   2.513   1.146   6.923
 4666SOL    HW214898   2.407   1.167   0.023
 4667SOL     OW14899   6.663   4.827   6.991
 4667SOL    HW114900   6.644   4.921   6.960
 4667SOL    HW214901   6.632   4.817   0.063
 4668SOL     OW14902   0.303   1.505   4.482
 4668SOL    HW114903   0.249   1.489   4.400
 4668SOL    HW214904   0.271   1.588   4.528
 4669SOL     OW14905   2.926   6.742   0.300
 4669SOL    HW114906   2.917   6.840   0.282
 4669SOL    HW214907   2.904   6.724   0.396
 4670SOL     OW14908   3.249   1.180   5.048
 4670SOL    HW114909   3.297   1.168   5.134
 4670SOL    HW214910   3.316   1.188   4.974
 4671SOL     OW14911   5.967   3.277   1.443
 4671SOL    HW114912   5.929   3.264   1.535
 4671SOL    HW214913   6.030   3.203   1.423
 4672SOL     OW14914   2.670   4.964   6.161
 4672SOL    HW114915   2.766   4.937   6.151
 4672SOL    HW214916   2.664   5.063   6.169
 4673SOL     OW14917   3.826   0.023   1.135
 4673SOL    HW114918   3.753   0.068   1.185
 4673SOL    HW214919   3.836   0.065   1.045
 4674SOL     OW14920   5.614   6.062   6.235
 4674SOL    HW114921   5.515   6.068   6.235
 4674SOL    HW214922   5.642   5.967   6.247
 4675SOL     OW14923   0.951   3.657   0.939
 4675SOL    HW114924   0.886   3.627   0.869
 4675SOL    HW214925   0.902   3.704   1.012
 4676SOL     OW14926   0.782   5.343   3.372
 4676SOL    HW114927   0.873   5.343   3.414
 4676SOL    HW214928   0.761   5.433   3.335
 4677SOL     OW14929   1.532   1.742   0.357
 4677SOL    HW114930   1.549   1.749   0.455
 4677SOL    HW214931   1.453   1.681   0.342
 4678SOL     OW14932   2.459   4.428   2.792
 4678SOL    HW114933   2.403   4.510   2.807
 4678SOL    HW214934   2.427   4.380   2.711
 4679SOL     OW14935   4.852   6.758   2.225
 4679SOL    HW114936   4.814   6.666   2.225
 4679SOL    HW214937   4.859   6.791   2.131
 4680SOL     OW14938   4.000   1.026   1.544
 4680SOL    HW114939   3.908   1.018   1.505
 4680SOL    HW214940   4.003   1.105   1.606
 4681SOL     OW14941   4.681   4.838   6.752
 4681SOL    HW114942   4.717   4.754   6.793
 4681SOL    HW214943   4.754   4.886   6.703
 4682SOL     OW14944   5.434   3.458   6.295
 4682SOL    HW114945   5.436   3.553   6.266
 4682SOL    HW214946   5.369   3.407   6.238
 4683SOL     OW14947   6.114   5.247   3.194
 4683SOL    HW114948   6.083   5.169   3.249
 4683SOL    HW214949   6.192   5.219   3.138
 4684SOL     OW14950   4.518   5.760   5.855
 4684SOL    HW114951   4.506   5.664   5.832
 4684SOL    HW214952   4.556   5.769   5.947
 4685SOL     OW14953   2.110   3.696   6.099
 4685SOL    HW114954   2.145   3.788   6.079
 4685SOL    HW214955   2.131   3.635   6.022
 4686SOL     OW14956   3.725   5.618   0.120
 4686SOL    HW114957   3.761   5.711   0.109
 4686SOL    HW214958   3.798   5.552   0.100
 4687SOL     OW14959   4.011   1.871   3.732
 4687SOL    HW114960   3.965   1.824   3.808
 4687SOL    HW214961   3.942   1.907   3.668
 4688SOL     OW14962   5.966   2.687   6.073
 4688SOL    HW114963   6.047   2.629   6.064
 4688SOL    HW214964   5.994   2.781   6.089
 4689SOL     OW14965   5.588   0.306   1.299
 4689SOL    HW114966   5.499   0.351   1.305
 4689SOL    HW214967   5.650   0.345   1.367
 4690SOL     OW14968   1.761   0.889   0.439
 4690SOL    HW114969   1.728   0.894   0.533
 4690SOL    HW214970   1.859   0.909   0.437
 4691SOL     OW14971   4.346   4.193   0.523
 4691SOL    HW114972   4.412   4.166   0.593
 4691SOL    HW214973   4.283   4.260   0.561
 4692SOL     OW14974   6.137   4.351   3.270
 4692SOL    HW114975   6.140   4.359   3.170
 4692SOL    HW214976   6.217   4.397   3.309
 4693SOL     OW14977   1.355   1.326   4.261
 4693SOL    HW114978   1.446   1.305   4.225
 4693SOL    HW214979   1.295   1.353   4.186
 4694SOL     OW14980   2.454   1.905   0.464
 4694SOL    HW114981   2.538   1.920   0.517
 4694SOL    HW214982   2.412   1.992   0.443
 4695SOL     OW14983   1.575   5.857   0.720
 4695SOL    HW114984   1.665   5.814   0.729
 4695SOL    HW214985   1.584   5.941   0.667
 4696SOL     OW14986   0.478   5.332   6.372
 4696SOL    HW114987   0.448   5.376   6.457
 4696SOL    HW214988   0.448   5.387   6.294
 4697SOL     OW14989   1.275   3.431   2.246
 4697SOL    HW114990   1.338   3.504   2.223
 4697SOL    HW214991   1.191   3.469   2.284
 4698SOL     OW14992   3.659   6.941   3.421
 4698SOL    HW114993   3.585   6.959   3.357
 4698SOL    HW214994   3.715   0.001   3.432
 4699SOL     OW14995   0.493   6.703   2.552
 4699SOL    HW114996   0.452   6.760   2.623
 4699SOL    HW214997   0.479   6.606   2.573
 4700SOL     OW14998   6.868   1.803   2.287
 4700SOL    HW114999   6.967   1.799   2.279
 4700SOL    HW215000   6.831   1.710   2.292
 4701SOL     OW15001   3.297   2.008   2.123
 4701SOL    HW115002   3.354   1.981   2.201
 4701SOL    HW215003   3.356   2.033   2.046
 4702SOL     OW15004   4.970   5.362   0.652
 4702SOL    HW115005   4.944   5.424   0.726
 4702SOL    HW215006   4.905   5.371   0.576
 4703SOL     OW15007   1.483   5.652   2.610
 4703SOL    HW115008   1.498   5.748   2.634
 4703SOL    HW215009   1.392   5.625   2.641
 4704SOL     OW15010   0.221   6.417   5.502
 4704SOL    HW115011   0.266   6.494   5.547
 4704SOL    HW215012   0.125   6.413   5.532
 4705SOL     OW15013   3.278   2.433   0.858
 4705SOL    HW115014   3.296   2.500   0.929
 4705SOL    HW215015   3.271   2.479   0.769
 4706SOL     OW15016   1.460   0.231   0.840
 4706SOL    HW115017   1.509   0.173   0.774
 4706SOL    HW215018   1.403   0.297   0.790
 4707SOL     OW15019   1.601   5.829   1.939
 4707SOL    HW115020   1.526   5.789   1.991
 4707SOL    HW215021   1.564   5.891   1.869
 4708SOL     OW15022   1.131   2.270   5.548
 4708SOL    HW115023   1.187   2.187   5.547
 4708SOL    HW215024   1.179   2.341   5.600
 4709SOL     OW15025   4.635   5.160   4.432
 4709SOL    HW115026   4.596   5.068   4.445
 4709SOL    HW215027   4.701   5.157   4.357
 4710SOL     OW15028   6.254   0.213   5.195
 4710SOL    HW115029   6.199   0.234   5.114
 4710SOL    HW215030   6.350   0.231   5.176
 4711SOL     OW15031   6.112   2.624   3.231
 4711SOL    HW115032   6.184   2.688   3.256
 4711SOL    HW215033   6.026   2.673   3.218
 4712SOL     OW15034   4.099   4.581   5.907
 4712SOL    HW115035   4.043   4.664   5.909
 4712SOL    HW215036   4.088   4.535   5.819
 4713SOL     OW15037   5.418   5.795   1.127
 4713SOL    HW115038   5.379   5.871   1.179
 4713SOL    HW215039   5.440   5.720   1.189
 4714SOL     OW15040   6.896   1.493   6.639
 4714SOL    HW115041   6.969   1.430   6.615
 4714SOL    HW215042   6.919   1.540   6.724
 4715SOL     OW15043   6.033   2.686   1.163
 4715SOL    HW115044   6.114   2.704   1.219
 4715SOL    HW215045   6.033   2.746   1.084
 4716SOL     OW15046   4.942   5.478   5.788
 4716SOL    HW115047   5.035   5.452   5.764
 4716SOL    HW215048   4.899   5.405   5.842
 4717SOL     OW15049   1.855   5.275   5.341
 4717SOL    HW115050   1.846   5.176   5.326
 4717SOL    HW215051   1.822   5.324   5.261
 4718SOL     OW15052   4.849   2.812   0.943
 4718SOL    HW115053   4.943   2.835   0.918
 4718SOL    HW215054   4.786   2.869   0.890
 4719SOL     OW15055   5.256   3.615   2.898
 4719SOL    HW115056   5.315   3.537   2.875
 4719SOL    HW215057   5.195   3.633   2.821
 4720SOL     OW15058   2.499   4.326   6.036
 4720SOL    HW115059   2.475   4.264   5.961
 4720SOL    HW215060   2.491   4.421   6.005
 4721SOL     OW15061   5.721   2.545   1.578
 4721SOL    HW115062   5.763   2.608   1.643
 4721SOL    HW215063   5.744   2.572   1.485
 4722SOL     OW15064   1.424   5.131   0.173
 4722SOL    HW115065   1.411   5.069   0.251
 4722SOL    HW215066   1.363   5.106   0.099
 4723SOL     OW15067   3.707   4.386   5.244
 4723SOL    HW115068   3.762   4.303   5.253
 4723SOL    HW215069   3.766   4.467   5.256
 4724SOL     OW15070   6.863   6.564   3.923
 4724SOL    HW115071   6.963   6.558   3.925
 4724SOL    HW215072   6.836   6.658   3.901
 4725SOL     OW15073   6.172   4.927   0.237
 4725SOL    HW115074   6.211   4.889   0.320
 4725SOL    HW215075   6.073   4.937   0.248
 4726SOL     OW15076   1.128   3.028   6.019
 4726SOL    HW115077   1.124   2.934   5.987
 4726SOL    HW215078   1.107   3.032   6.116
 4727SOL     OW15079   0.441   5.891   0.185
 4727SOL    HW115080   0.453   5.970   0.245
 4727SOL    HW215081   0.372   5.830   0.224
 4728SOL     OW15082   6.379   1.888   2.587
 4728SOL    HW115083   6.465   1.909   2.633
 4728SOL    HW215084   6.340   1.971   2.548
 4729SOL     OW15085   4.675   0.126   0.397
 4729SOL    HW115086   4.727   0.042   0.414
 4729SOL    HW215087   4.720   0.179   0.325
 4730SOL     OW15088   3.510   6.271   5.087
 4730SOL    HW115089   3.502   6.198   5.155
 4730SOL    HW215090   3.441   6.342   5.106
 4731SOL     OW15091   3.004   0.704   0.725
 4731SOL    HW115092   3.096   0.690   0.690
 4731SOL    HW215093   2.995   0.798   0.760
 4732SOL     OW15094   0.704   4.045   5.123
 4732SOL    HW115095   0.619   4.018   5.076
 4732SOL    HW215096   0.777   3.981   5.100
 4733SOL     OW15097   1.889   4.678   2.980
 4733SOL    HW115098   1.860   4.592   2.938
 4733SOL    HW215099   1.813   4.719   3.029
 4734SOL     OW15100   5.293   3.452   6.926
 4734SOL    HW115101   5.245   3.436   6.839
 4734SOL    HW215102   5.228   3.440   7.002
 4735SOL     OW15103   6.761   5.578   3.622
 4735SOL    HW115104   6.707   5.636   3.560
 4735SOL    HW215105   6.741   5.603   3.717
 4736SOL     OW15106   5.817   1.899   4.418
 4736SOL    HW115107   5.757   1.881   4.497
 4736SOL    HW215108   5.763   1.891   4.334
 4737SOL     OW15109   2.437   4.209   0.912
 4737SOL    HW115110   2.537   4.203   0.911
 4737SOL    HW215111   2.409   4.303   0.895
 4738SOL     OW15112   3.665   6.741   4.150
 4738SOL    HW115113   3.679   6.809   4.078
 4738SOL    HW215114   3.569   6.740   4.177
 4739SOL     OW15115   5.846   2.096   3.889
 4739SOL    HW115116   5.762   2.090   3.835
 4739SOL    HW215117   5.878   2.191   3.890
 4740SOL     OW15118   0.684   0.918   1.010
 4740SOL    HW115119   0.601   0.866   0.990
 4740SOL    HW215120   0.740   0.923   0.927
 4741SOL     OW15121   4.377   4.917   1.270
 4741SOL    HW115122   4.395   4.871   1.358
 4741SOL    HW215123   4.459   4.963   1.239
 4742SOL     OW15124   2.852   5.118   1.450
 4742SOL    HW115125   2.783   5.162   1.507
 4742SOL    HW215126   2.875   5.029   1.489
 4743SOL     OW15127   1.932   1.310   5.726
 4743SOL    HW115128   1.874   1.230   5.712
 4743SOL    HW215129   1.986   1.327   5.643
 4744SOL     OW15130   2.305   2.822   5.308
 4744SOL    HW115131   2.363   2.741   5.311
 4744SOL    HW215132   2.350   2.893   5.253
 4745SOL     OW15133   2.488   4.894   5.460
 4745SOL    HW115134   2.477   4.855   5.368
 4745SOL    HW215135   2.412   4.957   5.477
 4746SOL     OW15136   5.844   5.925   1.036
 4746SOL    HW115137   5.878   5.860   1.104
 4746SOL    HW215138   5.887   6.014   1.050
 4747SOL     OW15139   0.837   3.263   6.569
 4747SOL    HW115140   0.877   3.308   6.648
 4747SOL    HW215141   0.824   3.329   6.495
 4748SOL     OW15142   1.424   0.313   1.482
 4748SOL    HW115143   1.398   0.221   1.455
 4748SOL    HW215144   1.393   0.331   1.575
 4749SOL     OW15145   3.060   6.371   6.035
 4749SOL    HW115146   3.083   6.468   6.029
 4749SOL    HW215147   3.042   6.335   5.943
 4750SOL     OW15148   0.147   1.967   4.082
 4750SOL    HW115149   0.219   2.002   4.142
 4750SOL    HW215150   0.186   1.941   3.994
 4751SOL     OW15151   2.208   3.336   0.173
 4751SOL    HW115152   2.212   3.239   0.196
 4751SOL    HW215153   2.179   3.346   0.078
 4752SOL     OW15154   2.821   6.674   0.556
 4752SOL    HW115155   2.812   6.575   0.554
 4752SOL    HW215156   2.732   6.716   0.575
 4753SOL     OW15157   5.617   6.736   4.428
 4753SOL    HW115158   5.609   6.822   4.377
 4753SOL    HW215159   5.689   6.744   4.497
 4754SOL     OW15160   6.400   0.518   6.110
 4754SOL    HW115161   6.495   0.546   6.097
 4754SOL    HW215162   6.391   0.471   6.197
 4755SOL     OW15163   2.373   0.242   6.478
 4755SOL    HW115164   2.282   0.281   6.489
 4755SOL    HW215165   2.427   0.259   6.561
 4756SOL     OW15166   5.986   2.255   1.848
 4756SOL    HW115167   5.949   2.280   1.758
 4756SOL    HW215168   5.950   2.317   1.918
 4757SOL     OW15169   2.293   2.128   2.014
 4757SOL    HW115170   2.367   2.163   1.957
 4757SOL    HW215171   2.259   2.042   1.975
 4758SOL     OW15172   3.245   5.794   5.082
 4758SOL    HW115173   3.230   5.872   5.143
 4758SOL    HW215174   3.336   5.756   5.098
 4759SOL     OW15175   4.767   5.565   4.573
 4759SOL    HW115176   4.757   5.480   4.624
 4759SOL    HW215177   4.789   5.544   4.477
 4760SOL     OW15178   3.238   1.525   1.387
 4760SOL    HW115179   3.168   1.595   1.400
 4760SOL    HW215180   3.307   1.558   1.324
 4761SOL     OW15181   6.692   0.370   0.152
 4761SOL    HW115182   6.631   0.446   0.173
 4761SOL    HW215183   6.777   0.379   0.205
 4762SOL     OW15184   2.439   4.844   3.253
 4762SOL    HW115185   2.415   4.910   3.182
 4762SOL    HW215186   2.369   4.844   3.324
 4763SOL     OW15187   5.788   5.859   3.151
 4763SOL    HW115188   5.884   5.831   3.144
 4763SOL    HW215189   5.739   5.830   3.068
 4764SOL     OW15190   4.709   4.105   5.104
 4764SOL    HW115191   4.779   4.054   5.053
 4764SOL    HW215192   4.702   4.067   5.196
 4765SOL     OW15193   4.863   6.462   4.606
 4765SOL    HW115194   4.853   6.395   4.680
 4765SOL    HW215195   4.843   6.554   4.641
 4766SOL     OW15196   4.071   0.814   3.939
 4766SOL    HW115197   3.975   0.822   3.966
 4766SOL    HW215198   4.123   0.889   3.980
 4767SOL     OW15199   4.382   5.970   0.384
 4767SOL    HW115200   4.456   6.026   0.422
 4767SOL    HW215201   4.297   5.990   0.432
 4768SOL     OW15202   5.372   1.790   4.849
 4768SOL    HW115203   5.365   1.731   4.930
 4768SOL    HW215204   5.388   1.884   4.878
 4769SOL     OW15205   4.319   5.169   1.594
 4769SOL    HW115206   4.272   5.187   1.680
 4769SOL    HW215207   4.341   5.071   1.587
 4770SOL     OW15208   2.121   0.059   3.730
 4770SOL    HW115209   2.129   6.982   3.722
 4770SOL    HW215210   2.212   0.100   3.728
 4771SOL     OW15211   2.930   4.877   6.162
 4771SOL    HW115212   3.006   4.848   6.219
 4771SOL    HW215213   2.962   4.943   6.094
 4772SOL     OW15214   2.431   6.307   1.627
 4772SOL    HW115215   2.398   6.213   1.627
 4772SOL    HW215216   2.390   6.357   1.703
 4773SOL     OW15217   6.811   5.574   4.567
 4773SOL    HW115218   6.792   5.661   4.613
 4773SOL    HW215219   6.878   5.588   4.494
 4774SOL     OW15220   0.580   2.859   2.501
 4774SOL    HW115221   0.498   2.873   2.445
 4774SOL    HW215222   0.658   2.837   2.442
 4775SOL     OW15223   5.534   0.537   3.075
 4775SOL    HW115224   5.565   0.626   3.043
 4775SOL    HW215225   5.561   0.467   3.009
 4776SOL     OW15226   2.505   6.635   3.395
 4776SOL    HW115227   2.530   6.574   3.470
 4776SOL    HW215228   2.434   6.592   3.338
 4777SOL     OW15229   2.535   4.377   1.131
 4777SOL    HW115230   2.467   4.329   1.075
 4777SOL    HW215231   2.622   4.382   1.081
 4778SOL     OW15232   5.532   2.325   1.974
 4778SOL    HW115233   5.549   2.401   1.912
 4778SOL    HW215234   5.441   2.287   1.955
 4779SOL     OW15235   5.949   6.967   1.694
 4779SOL    HW115236   5.935   0.001   1.612
 4779SOL    HW215237   6.024   7.005   1.747
 4780SOL     OW15238   0.814   6.867   6.672
 4780SOL    HW115239   0.899   6.866   6.726
 4780SOL    HW215240   0.799   6.778   6.631
 4781SOL     OW15241   2.881   6.071   0.916
 4781SOL    HW115242   2.926   6.108   0.835
 4781SOL    HW215243   2.802   6.016   0.890
 4782SOL     OW15244   4.620   6.689   0.148
 4782SOL    HW115245   4.678   6.671   0.227
 4782SOL    HW215246   4.604   6.788   0.140
 4783SOL     OW15247   4.466   4.579   0.519
 4783SOL    HW115248   4.496   4.619   0.433
 4783SOL    HW215249   4.379   4.531   0.506
 4784SOL     OW15250   6.289   4.872   6.986
 4784SOL    HW115251   6.243   4.915   0.042
 4784SOL    HW215252   6.387   4.863   7.005
 4785SOL     OW15253   6.624   6.179   1.420
 4785SOL    HW115254   6.668   6.092   1.439
 4785SOL    HW215255   6.655   6.248   1.485
 4786SOL     OW15256   1.825   2.397   2.409
 4786SOL    HW115257   1.852   2.425   2.502
 4786SOL    HW215258   1.809   2.298   2.408
 4787SOL     OW15259   3.390   2.130   3.495
 4787SOL    HW115260   3.306   2.159   3.450
 4787SOL    HW215261   3.368   2.067   3.569
 4788SOL     OW15262   1.576   5.352   6.362
 4788SOL    HW115263   1.500   5.288   6.355
 4788SOL    HW215264   1.621   5.343   6.451
 4789SOL     OW15265   5.700   0.741   0.054
 4789SOL    HW115266   5.676   0.831   0.017
 4789SOL    HW215267   5.756   0.692   7.010
 4790SOL     OW15268   6.312   3.529   6.826
 4790SOL    HW115269   6.325   3.537   6.925
 4790SOL    HW215270   6.273   3.614   6.791
 4791SOL     OW15271   5.609   1.822   1.647
 4791SOL    HW115272   5.562   1.910   1.634
 4791SOL    HW215273   5.637   1.813   1.742
 4792SOL     OW15274   1.352   3.072   2.563
 4792SOL    HW115275   1.415   3.120   2.624
 4792SOL    HW215276   1.314   2.993   2.611
 4793SOL     OW15277   1.218   2.464   5.703
 4793SOL    HW115278   1.143   2.494   5.762
 4793SOL    HW215279   1.294   2.432   5.759
 4794SOL     OW15280   3.901   0.698   3.009
 4794SOL    HW115281   3.811   0.720   3.046
 4794SOL    HW215282   3.971   0.736   3.070
 4795SOL     OW15283   6.660   2.155   3.951
 4795SOL    HW115284   6.756   2.134   3.969
 4795SOL    HW215285   6.653   2.243   3.904
 4796SOL     OW15286   4.731   1.916   6.653
 4796SOL    HW115287   4.784   1.907   6.737
 4796SOL    HW215288   4.790   1.902   6.574
 4797SOL     OW15289   1.414   6.072   4.943
 4797SOL    HW115290   1.467   6.051   5.025
 4797SOL    HW215291   1.317   6.060   4.963
 4798SOL     OW15292   0.437   4.132   5.735
 4798SOL    HW115293   0.416   4.132   5.637
 4798SOL    HW215294   0.459   4.225   5.765
 4799SOL     OW15295   4.938   2.024   5.809
 4799SOL    HW115296   4.977   1.949   5.863
 4799SOL    HW215297   4.838   2.020   5.816
 4800SOL     OW15298   3.286   2.959   6.098
 4800SOL    HW115299   3.198   2.994   6.067
 4800SOL    HW215300   3.349   2.952   6.020
 4801SOL     OW15301   2.576   1.713   0.258
 4801SOL    HW115302   2.648   1.648   0.281
 4801SOL    HW215303   2.511   1.719   0.334
 4802SOL     OW15304   1.461   6.514   1.915
 4802SOL    HW115305   1.532   6.492   1.981
 4802SOL    HW215306   1.473   6.457   1.833
 4803SOL     OW15307   0.970   6.615   0.344
 4803SOL    HW115308   1.013   6.658   0.423
 4803SOL    HW215309   0.986   6.516   0.346
 4804SOL     OW15310   4.157   5.070   6.129
 4804SOL    HW115311   4.122   4.985   6.169
 4804SOL    HW215312   4.090   5.106   6.064
 4805SOL     OW15313   6.793   6.831   1.155
 4805SOL    HW115314   6.883   6.846   1.198
 4805SOL    HW215315   6.776   6.733   1.147
 4806SOL     OW15316   6.539   3.668   3.751
 4806SOL    HW115317   6.478   3.592   3.734
 4806SOL    HW215318   6.552   3.720   3.666
 4807SOL     OW15319   1.467   5.279   1.179
 4807SOL    HW115320   1.508   5.316   1.095
 4807SOL    HW215321   1.534   5.221   1.226
 4808SOL     OW15322   6.138   3.590   0.804
 4808SOL    HW115323   6.096   3.678   0.782
 4808SOL    HW215324   6.114   3.522   0.735
 4809SOL     OW15325   3.721   3.981   6.852
 4809SOL    HW115326   3.655   3.936   6.791
 4809SOL    HW215327   3.801   3.921   6.864
 4810SOL     OW15328   1.587   4.525   1.977
 4810SOL    HW115329   1.625   4.538   1.886
 4810SOL    HW215330   1.611   4.433   2.010
 4811SOL     OW15331   2.534   4.536   2.502
 4811SOL    HW115332   2.539   4.569   2.408
 4811SOL    HW215333   2.599   4.587   2.559
 4812SOL     OW15334   6.575   4.912   5.491
 4812SOL    HW115335   6.637   4.982   5.454
 4812SOL    HW215336   6.504   4.956   5.545
 4813SOL     OW15337   5.074   1.349   1.835
 4813SOL    HW115338   5.016   1.268   1.849
 4813SOL    HW215339   5.116   1.345   1.745
 4814SOL     OW15340   5.982   4.594   0.214
 4814SOL    HW115341   6.068   4.551   0.243
 4814SOL    HW215342   5.959   4.668   0.277
 4815SOL     OW15343   5.286   4.741   1.953
 4815SOL    HW115344   5.225   4.749   2.032
 4815SOL    HW215345   5.248   4.674   1.889
 4816SOL     OW15346   6.203   5.381   2.854
 4816SOL    HW115347   6.201   5.331   2.768
 4816SOL    HW215348   6.116   5.430   2.866
 4817SOL     OW15349   0.353   2.131   6.246
 4817SOL    HW115350   0.254   2.149   6.250
 4817SOL    HW215351   0.394   2.149   6.335
 4818SOL     OW15352   0.954   0.026   4.445
 4818SOL    HW115353   0.916   6.979   4.383
 4818SOL    HW215354   1.030   7.008   4.496
 4819SOL     OW15355   1.955   3.404   0.483
 4819SOL    HW115356   1.880   3.424   0.420
 4819SOL    HW215357   1.961   3.305   0.496
 4820SOL     OW15358   0.307   2.932   1.845
 4820SOL    HW115359   0.402   2.944   1.814
 4820SOL    HW215360   0.253   2.890   1.772
 4821SOL     OW15361   1.211   5.910   2.521
 4821SOL    HW115362   1.198   5.837   2.455
 4821SOL    HW215363   1.135   5.910   2.587
 4822SOL     OW15364   1.464   3.776   4.199
 4822SOL    HW115365   1.422   3.804   4.112
 4822SOL    HW215366   1.392   3.762   4.267
 4823SOL     OW15367   1.442   1.964   2.826
 4823SOL    HW115368   1.439   1.867   2.851
 4823SOL    HW215369   1.438   1.973   2.726
 4824SOL     OW15370   5.199   2.110   5.476
 4824SOL    HW115371   5.272   2.125   5.408
 4824SOL    HW215372   5.223   2.030   5.532
 4825SOL     OW15373   0.902   1.381   4.134
 4825SOL    HW115374   0.916   1.424   4.224
 4825SOL    HW215375   0.985   1.392   4.079
 4826SOL     OW15376   4.967   0.389   0.432
 4826SOL    HW115377   4.894   0.406   0.366
 4826SOL    HW215378   4.932   0.405   0.524
 4827SOL     OW15379   6.126   1.694   0.324
 4827SOL    HW115380   6.146   1.787   0.356
 4827SOL    HW215381   6.203   1.660   0.271
 4828SOL     OW15382   4.315   0.743   1.288
 4828SOL    HW115383   4.330   0.813   1.218
 4828SOL    HW215384   4.403   0.703   1.314
 4829SOL     OW15385   4.010   6.264   6.596
 4829SOL    HW115386   3.963   6.268   6.507
 4829SOL    HW215387   3.973   6.334   6.656
 4830SOL     OW15388   4.023   5.800   4.106
 4830SOL    HW115389   4.108   5.767   4.148
 4830SOL    HW215390   3.956   5.821   4.177
 4831SOL     OW15391   2.517   5.212   5.474
 4831SOL    HW115392   2.427   5.173   5.455
 4831SOL    HW215393   2.563   5.235   5.388
 4832SOL     OW15394   3.875   3.006   4.611
 4832SOL    HW115395   3.816   3.075   4.654
 4832SOL    HW215396   3.899   2.936   4.679
 4833SOL     OW15397   5.761   2.198   3.348
 4833SOL    HW115398   5.837   2.133   3.345
 4833SOL    HW215399   5.782   2.271   3.414
 4834SOL     OW15400   2.743   5.950   2.186
 4834SOL    HW115401   2.764   5.863   2.140
 4834SOL    HW215402   2.793   5.954   2.273
 4835SOL     OW15403   6.042   3.359   6.095
 4835SOL    HW115404   5.969   3.410   6.140
 4835SOL    HW215405   6.078   3.291   6.159
 4836SOL     OW15406   4.889   1.633   5.523
 4836SOL    HW115407   4.862   1.641   5.619
 4836SOL    HW215408   4.988   1.640   5.516
 4837SOL     OW15409   6.567   3.208   2.868
 4837SOL    HW115410   6.579   3.303   2.895
 4837SOL    HW215411   6.633   3.185   2.796
 4838SOL     OW15412   1.831   5.299   6.516
 4838SOL    HW115413   1.915   5.289   6.462
 4838SOL    HW215414   1.853   5.341   6.604
 4839SOL     OW15415   1.304   3.451   0.073
 4839SOL    HW115416   1.310   3.415   0.166
 4839SOL    HW215417   1.236   3.399   0.021
 4840SOL     OW15418   5.033   4.004   5.337
 4840SOL    HW115419   5.111   3.977   5.395
 4840SOL    HW215420   5.066   4.033   5.248
 4841SOL     OW15421   3.108   5.600   3.221
 4841SOL    HW115422   3.155   5.638   3.142
 4841SOL    HW215423   3.031   5.659   3.245
 4842SOL     OW15424   2.616   5.444   3.306
 4842SOL    HW115425   2.603   5.541   3.329
 4842SOL    HW215426   2.540   5.413   3.248
 4843SOL     OW15427   6.349   2.794   1.784
 4843SOL    HW115428   6.420   2.846   1.737
 4843SOL    HW215429   6.350   2.816   1.882
 4844SOL     OW15430   1.428   3.827   5.607
 4844SOL    HW115431   1.467   3.745   5.565
 4844SOL    HW215432   1.339   3.846   5.566
 4845SOL     OW15433   4.697   4.795   5.042
 4845SOL    HW115434   4.694   4.851   4.959
 4845SOL    HW215435   4.607   4.753   5.058
 4846SOL     OW15436   0.148   1.925   3.290
 4846SOL    HW115437   0.168   1.852   3.225
 4846SOL    HW215438   0.055   1.913   3.326
 4847SOL     OW15439   2.632   0.729   5.435
 4847SOL    HW115440   2.534   0.717   5.453
 4847SOL    HW215441   2.678   0.641   5.443
 4848SOL     OW15442   2.127   1.313   3.659
 4848SOL    HW115443   2.178   1.290   3.742
 4848SOL    HW215444   2.067   1.237   3.635
 4849SOL     OW15445   1.937   0.209   1.122
 4849SOL    HW115446   1.965   0.210   1.218
 4849SOL    HW215447   1.953   0.299   1.082
 4850SOL     OW15448   4.200   0.440   1.487
 4850SOL    HW115449   4.219   0.394   1.400
 4850SOL    HW215450   4.129   0.508   1.474
 4851SOL     OW15451   3.712   5.392   6.709
 4851SOL    HW115452   3.677   5.300   6.724
 4851SOL    HW215453   3.692   5.421   6.615
 4852SOL     OW15454   3.524   5.687   4.414
 4852SOL    HW115455   3.458   5.759   4.436
 4852SOL    HW215456   3.549   5.693   4.318
 4853SOL     OW15457   3.691   1.120   2.774
 4853SOL    HW115458   3.761   1.188   2.750
 4853SOL    HW215459   3.640   1.095   2.693
 4854SOL     OW15460   5.547   6.612   1.791
 4854SOL    HW115461   5.475   6.571   1.847
 4854SOL    HW215462   5.513   6.699   1.752
 4855SOL     OW15463   0.216   3.384   4.752
 4855SOL    HW115464   0.184   3.417   4.664
 4855SOL    HW215465   0.191   3.449   4.823
 4856SOL     OW15466   0.531   3.434   2.394
 4856SOL    HW115467   0.435   3.420   2.415
 4856SOL    HW215468   0.581   3.349   2.411
 4857SOL     OW15469   3.411   2.046   3.772
 4857SOL    HW115470   3.420   2.135   3.726
 4857SOL    HW215471   3.432   2.057   3.870
 4858SOL     OW15472   0.973   0.131   4.894
 4858SOL    HW115473   0.955   0.066   4.967
 4858SOL    HW215474   1.036   0.090   4.827
 4859SOL     OW15475   1.184   4.894   1.711
 4859SOL    HW115476   1.123   4.973   1.706
 4859SOL    HW215477   1.278   4.925   1.727
 4860SOL     OW15478   3.807   4.608   6.974
 4860SOL    HW115479   3.900   4.637   6.999
 4860SOL    HW215480   3.789   4.517   7.013
 4861SOL     OW15481   6.652   4.645   5.897
 4861SOL    HW115482   6.680   4.617   5.988
 4861SOL    HW215483   6.655   4.566   5.835
 4862SOL     OW15484   2.722   4.796   4.879
 4862SOL    HW115485   2.749   4.737   4.955
 4862SOL    HW215486   2.623   4.811   4.881
 4863SOL     OW15487   4.865   3.651   2.442
 4863SOL    HW115488   4.862   3.749   2.422
 4863SOL    HW215489   4.867   3.638   2.541
 4864SOL     OW15490   3.207   1.396   1.709
 4864SOL    HW115491   3.155   1.480   1.691
 4864SOL    HW215492   3.198   1.373   1.806
 4865SOL     OW15493   2.972   5.130   6.044
 4865SOL    HW115494   2.965   5.202   6.113
 4865SOL    HW215495   2.970   5.171   5.953
 4866SOL     OW15496   6.488   4.991   1.856
 4866SOL    HW115497   6.441   4.991   1.944
 4866SOL    HW215498   6.464   4.908   1.805
 4867SOL     OW15499   5.084   5.786   3.197
 4867SOL    HW115500   5.071   5.827   3.287
 4867SOL    HW215501   5.075   5.686   3.204
 4868SOL     OW15502   1.039   5.573   1.235
 4868SOL    HW115503   1.039   5.645   1.305
 4868SOL    HW215504   0.963   5.510   1.251
 4869SOL     OW15505   0.112   2.299   0.590
 4869SOL    HW115506   0.113   2.336   0.682
 4869SOL    HW215507   0.073   2.206   0.592
 4870SOL     OW15508   4.014   5.921   1.765
 4870SOL    HW115509   3.995   5.867   1.847
 4870SOL    HW215510   3.943   5.904   1.697
 4871SOL     OW15511   1.304   1.702   3.302
 4871SOL    HW115512   1.253   1.730   3.221
 4871SOL    HW215513   1.394   1.667   3.276
 4872SOL     OW15514   1.098   0.161   3.045
 4872SOL    HW115515   1.187   0.120   3.061
 4872SOL    HW215516   1.100   0.257   3.074
 4873SOL     OW15517   0.076   4.797   5.095
 4873SOL    HW115518   0.107   4.790   5.000
 4873SOL    HW215519   0.091   4.709   5.141
 4874SOL     OW15520   5.559   4.003   2.276
 4874SOL    HW115521   5.640   4.057   2.252
 4874SOL    HW215522   5.565   3.974   2.371
 4875SOL     OW15523   5.531   1.369   1.115
 4875SOL    HW115524   5.523   1.426   1.196
 4875SOL    HW215525   5.504   1.275   1.137
 4876SOL     OW15526   5.754   0.365   5.723
 4876SOL    HW115527   5.668   0.316   5.719
 4876SOL    HW215528   5.736   0.464   5.727
 4877SOL     OW15529   6.446   1.715   0.994
 4877SOL    HW115530   6.347   1.707   0.999
 4877SOL    HW215531   6.488   1.627   1.015
 4878SOL     OW15532   0.414   1.913   2.001
 4878SOL    HW115533   0.502   1.895   1.957
 4878SOL    HW215534   0.416   2.003   2.044
 4879SOL     OW15535   4.264   4.777   2.641
 4879SOL    HW115536   4.203   4.835   2.695
 4879SOL    HW215537   4.342   4.749   2.698
 4880SOL     OW15538   5.256   1.800   0.455
 4880SOL    HW115539   5.340   1.842   0.422
 4880SOL    HW215540   5.278   1.720   0.511
 4881SOL     OW15541   2.705   6.358   5.773
 4881SOL    HW115542   2.608   6.380   5.764
 4881SOL    HW215543   2.759   6.430   5.729
 4882SOL     OW15544   6.212   1.532   5.284
 4882SOL    HW115545   6.209   1.630   5.264
 4882SOL    HW215546   6.192   1.518   5.381
 4883SOL     OW15547   5.919   4.506   2.533
 4883SOL    HW115548   5.873   4.560   2.604
 4883SOL    HW215549   5.896   4.542   2.443
 4884SOL     OW15550   4.667   0.323   1.777
 4884SOL    HW115551   4.621   0.234   1.771
 4884SOL    HW215552   4.760   0.315   1.741
 4885SOL     OW15553   2.024   6.637   1.709
 4885SOL    HW115554   1.936   6.659   1.668
 4885SOL    HW215555   2.071   6.722   1.734
 4886SOL     OW15556   0.275   6.469   6.650
 4886SOL    HW115557   0.230   6.436   6.733
 4886SOL    HW215558   0.291   6.393   6.588
 4887SOL     OW15559   6.453   1.985   3.951
 4887SOL    HW115560   6.528   2.048   3.932
 4887SOL    HW215561   6.371   2.036   3.977
 4888SOL     OW15562   1.788   6.704   3.360
 4888SOL    HW115563   1.795   6.781   3.423
 4888SOL    HW215564   1.708   6.716   3.302
 4889SOL     OW15565   0.731   2.261   0.223
 4889SOL    HW115566   0.740   2.256   0.322
 4889SOL    HW215567   0.809   2.310   0.184
 4890SOL     OW15568   0.657   1.382   4.209
 4890SOL    HW115569   0.746   1.379   4.164
 4890SOL    HW215570   0.661   1.443   4.288
 4891SOL     OW15571   1.182   5.065   0.341
 4891SOL    HW115572   1.123   4.990   0.371
 4891SOL    HW215573   1.250   5.084   0.412
 4892SOL     OW15574   1.057   5.713   2.248
 4892SOL    HW115575   1.028   5.644   2.182
 4892SOL    HW215576   1.088   5.795   2.200
 4893SOL     OW15577   6.774   4.412   0.052
 4893SOL    HW115578   6.769   4.480   0.125
 4893SOL    HW215579   6.762   4.458   6.986
 4894SOL     OW15580   1.978   0.453   3.456
 4894SOL    HW115581   2.067   0.413   3.434
 4894SOL    HW215582   1.991   0.547   3.487
 4895SOL     OW15583   1.332   3.544   0.467
 4895SOL    HW115584   1.239   3.578   0.480
 4895SOL    HW215585   1.330   3.444   0.464
 4896SOL     OW15586   3.208   5.306   3.612
 4896SOL    HW115587   3.279   5.254   3.566
 4896SOL    HW215588   3.153   5.355   3.544
 4897SOL     OW15589   3.267   4.940   6.465
 4897SOL    HW115590   3.257   4.864   6.529
 4897SOL    HW215591   3.273   4.904   6.372
 4898SOL     OW15592   5.667   2.337   5.633
 4898SOL    HW115593   5.688   2.350   5.536
 4898SOL    HW215594   5.716   2.257   5.668
 4899SOL     OW15595   6.454   4.911   2.645
 4899SOL    HW115596   6.424   4.841   2.581
 4899SOL    HW215597   6.439   5.002   2.606
 4900SOL     OW15598   0.046   6.667   5.699
 4900SOL    HW115599   0.009   6.593   5.755
 4900SOL    HW215600   6.994   6.715   5.653
 4901SOL     OW15601   1.478   0.388   4.304
 4901SOL    HW115602   1.484   0.291   4.329
 4901SOL    HW215603   1.400   0.429   4.351
 4902SOL     OW15604   1.348   3.832   2.344
 4902SOL    HW115605   1.272   3.888   2.310
 4902SOL    HW215606   1.381   3.773   2.270
 4903SOL     OW15607   3.919   6.732   6.830
 4903SOL    HW115608   3.999   6.779   6.793
 4903SOL    HW215609   3.836   6.780   6.802
 4904SOL     OW15610   2.216   5.751   4.371
 4904SOL    HW115611   2.142   5.692   4.337
 4904SOL    HW215612   2.292   5.749   4.307
 4905SOL     OW15613   4.557   2.617   2.144
 4905SOL    HW115614   4.481   2.564   2.183
 4905SOL    HW215615   4.624   2.554   2.105
 4906SOL     OW15616   4.664   6.699   0.496
 4906SOL    HW115617   4.728   6.716   0.570
 4906SOL    HW215618   4.704   6.633   0.432
 4907SOL     OW15619   4.116   6.317   3.258
 4907SOL    HW115620   4.026   6.347   3.226
 4907SOL    HW215621   4.160   6.261   3.188
 4908SOL     OW15622   4.169   5.533   6.764
 4908SOL    HW115623   4.076   5.570   6.764
 4908SOL    HW215624   4.235   5.608   6.763
 4909SOL     OW15625   5.927   7.007   5.560
 4909SOL    HW115626   5.899   6.969   5.648
 4909SOL    HW215627   5.858   0.050   5.528
 4910SOL     OW15628   5.012   0.147   5.407
 4910SOL    HW115629   4.989   0.054   5.380
 4910SOL    HW215630   5.103   0.149   5.449
 4911SOL     OW15631   0.001   1.826   6.025
 4911SOL    HW115632   6.974   1.814   6.112
 4911SOL    HW215633   0.047   1.915   6.025
 4912SOL     OW15634   4.315   1.532   1.922
 4912SOL    HW115635   4.320   1.442   1.879
 4912SOL    HW215636   4.299   1.601   1.851
 4913SOL     OW15637   3.498   4.112   3.772
 4913SOL    HW115638   3.587   4.074   3.746
 4913SOL    HW215639   3.503   4.147   3.866
 4914SOL     OW15640   2.777   0.908   4.462
 4914SOL    HW115641   2.773   0.991   4.408
 4914SOL    HW215642   2.837   0.922   4.541
 4915SOL     OW15643   4.485   6.577   4.355
 4915SOL    HW115644   4.521   6.638   4.426
 4915SOL    HW215645   4.409   6.621   4.308
 4916SOL     OW15646   2.690   2.100   3.076
 4916SOL    HW115647   2.642   2.116   2.990
 4916SOL    HW215648   2.709   2.187   3.121
 4917SOL     OW15649   1.590   3.806   0.847
 4917SOL    HW115650   1.690   3.808   0.855
 4917SOL    HW215651   1.564   3.749   0.769
 4918SOL     OW15652   2.720   0.393   2.914
 4918SOL    HW115653   2.721   0.313   2.855
 4918SOL    HW215654   2.626   0.424   2.928
 4919SOL     OW15655   1.571   1.947   3.077
 4919SOL    HW115656   1.640   1.875   3.064
 4919SOL    HW215657   1.530   1.970   2.989
 4920SOL     OW15658   4.031   0.595   0.060
 4920SOL    HW115659   4.045   0.558   0.152
 4920SOL    HW215660   4.104   0.662   0.040
 4921SOL     OW15661   2.451   3.877   1.710
 4921SOL    HW115662   2.416   3.808   1.646
 4921SOL    HW215663   2.386   3.888   1.786
 4922SOL     OW15664   1.216   3.248   5.313
 4922SOL    HW115665   1.184   3.196   5.233
 4922SOL    HW215666   1.302   3.210   5.345
 4923SOL     OW15667   5.115   6.884   2.268
 4923SOL    HW115668   5.019   6.857   2.256
 4923SOL    HW215669   5.163   6.812   2.318
 4924SOL     OW15670   1.733   3.536   4.387
 4924SOL    HW115671   1.733   3.584   4.300
 4924SOL    HW215672   1.797   3.581   4.450
 4925SOL     OW15673   5.379   6.424   0.909
 4925SOL    HW115674   5.308   6.479   0.953
 4925SOL    HW215675   5.468   6.445   0.948
 4926SOL     OW15676   5.296   2.925   1.468
 4926SOL    HW115677   5.245   2.849   1.428
 4926SOL    HW215678   5.329   2.899   1.558
 4927SOL     OW15679   3.623   2.925   2.906
 4927SOL    HW115680   3.706   2.972   2.935
 4927SOL    HW215681   3.629   2.905   2.808
 4928SOL     OW15682   0.405   6.662   6.362
 4928SOL    HW115683   0.399   6.744   6.419
 4928SOL    HW215684   0.453   6.685   6.277
 4929SOL     OW15685   1.028   4.393   5.200
 4929SOL    HW115686   0.987   4.349   5.280
 4929SOL    HW215687   0.963   4.392   5.124
 4930SOL     OW15688   0.921   0.996   0.409
 4930SOL    HW115689   0.950   1.083   0.448
 4930SOL    HW215690   0.914   0.927   0.481
 4931SOL     OW15691   0.386   0.784   0.118
 4931SOL    HW115692   0.435   0.849   0.175
 4931SOL    HW215693   0.408   0.801   0.022
 4932SOL     OW15694   2.600   2.828   1.722
 4932SOL    HW115695   2.592   2.917   1.678
 4932SOL    HW215696   2.697   2.809   1.741
 4933SOL     OW15697   2.270   1.316   4.307
 4933SOL    HW115698   2.179   1.280   4.328
 4933SOL    HW215699   2.339   1.268   4.361
 4934SOL     OW15700   0.658   5.168   4.248
 4934SOL    HW115701   0.562   5.192   4.256
 4934SOL    HW215702   0.668   5.069   4.249
 4935SOL     OW15703   1.428   0.987   6.551
 4935SOL    HW115704   1.506   0.971   6.491
 4935SOL    HW215705   1.345   1.000   6.496
 4936SOL     OW15706   2.676   5.925   1.687
 4936SOL    HW115707   2.635   5.834   1.675
 4936SOL    HW215708   2.604   5.994   1.686
 4937SOL     OW15709   0.812   3.391   6.330
 4937SOL    HW115710   0.712   3.398   6.332
 4937SOL    HW215711   0.841   3.358   6.240
 4938SOL     OW15712   3.321   4.424   1.574
 4938SOL    HW115713   3.280   4.507   1.612
 4938SOL    HW215714   3.420   4.426   1.587
 4939SOL     OW15715   1.928   1.573   1.995
 4939SOL    HW115716   1.926   1.607   2.089
 4939SOL    HW215717   1.974   1.641   1.937
 4940SOL     OW15718   6.893   1.973   4.858
 4940SOL    HW115719   6.901   2.049   4.792
 4940SOL    HW215720   6.890   2.010   4.951
 4941SOL     OW15721   4.107   2.393   5.435
 4941SOL    HW115722   4.008   2.382   5.440
 4941SOL    HW215723   4.128   2.490   5.421
 4942SOL     OW15724   5.565   3.197   3.734
 4942SOL    HW115725   5.590   3.158   3.823
 4942SOL    HW215726   5.641   3.252   3.700
 4943SOL     OW15727   5.847   3.572   0.080
 4943SOL    HW115728   5.759   3.564   0.127
 4943SOL    HW215729   5.838   3.537   7.009
 4944SOL     OW15730   2.284   4.667   0.706
 4944SOL    HW115731   2.352   4.673   0.633
 4944SOL    HW215732   2.293   4.745   0.767
 4945SOL     OW15733   1.684   1.371   5.213
 4945SOL    HW115734   1.704   1.376   5.310
 4945SOL    HW215735   1.668   1.276   5.187
 4946SOL     OW15736   1.159   4.424   0.118
 4946SOL    HW115737   1.060   4.438   0.132
 4946SOL    HW215738   1.174   4.382   0.029
 4947SOL     OW15739   2.811   0.629   2.572
 4947SOL    HW115740   2.722   0.659   2.538
 4947SOL    HW215741   2.881   0.647   2.503
 4948SOL     OW15742   1.892   2.522   2.666
 4948SOL    HW115743   1.884   2.538   2.765
 4948SOL    HW215744   1.844   2.594   2.617
 4949SOL     OW15745   6.590   3.686   6.215
 4949SOL    HW115746   6.508   3.631   6.202
 4949SOL    HW215747   6.582   3.739   6.300
 4950SOL     OW15748   2.055   4.160   5.014
 4950SOL    HW115749   2.142   4.113   5.000
 4950SOL    HW215750   2.073   4.255   5.042
 4951SOL     OW15751   6.368   5.975   3.713
 4951SOL    HW115752   6.437   6.040   3.745
 4951SOL    HW215753   6.293   5.971   3.780
 4952SOL     OW15754   6.763   0.379   6.442
 4952SOL    HW115755   6.781   0.475   6.463
 4952SOL    HW215756   6.792   0.322   6.518
 4953SOL     OW15757   1.718   1.664   4.166
 4953SOL    HW115758   1.794   1.708   4.212
 4953SOL    HW215759   1.714   1.694   4.071
 4954SOL     OW15760   2.151   3.931   5.496
 4954SOL    HW115761   2.160   3.998   5.423
 4954SOL    HW215762   2.154   3.839   5.457
 4955SOL     OW15763   2.974   5.247   0.322
 4955SOL    HW115764   3.004   5.151   0.316
 4955SOL    HW215765   2.981   5.289   0.231
 4956SOL     OW15766   2.887   0.791   5.486
 4956SOL    HW115767   2.952   0.760   5.416
 4956SOL    HW215768   2.799   0.745   5.474
 4957SOL     OW15769   5.883   3.742   0.393
 4957SOL    HW115770   5.958   3.799   0.361
 4957SOL    HW215771   5.796   3.779   0.360
 4958SOL     OW15772   2.064   6.075   5.400
 4958SOL    HW115773   1.995   6.009   5.432
 4958SOL    HW215774   2.043   6.103   5.307
 4959SOL     OW15775   6.763   2.066   1.042
 4959SOL    HW115776   6.808   2.107   0.963
 4959SOL    HW215777   6.690   2.005   1.011
 4960SOL     OW15778   4.103   4.737   3.711
 4960SOL    HW115779   4.044   4.809   3.749
 4960SOL    HW215780   4.067   4.647   3.738
 4961SOL     OW15781   3.025   0.893   6.885
 4961SOL    HW115782   3.114   0.865   6.922
 4961SOL    HW215783   2.958   0.822   6.905
 4962SOL     OW15784   5.841   2.085   0.925
 4962SOL    HW115785   5.847   2.130   0.836
 4962SOL    HW215786   5.932   2.077   0.965
 4963SOL     OW15787   1.320   5.923   0.859
 4963SOL    HW115788   1.270   5.945   0.775
 4963SOL    HW215789   1.418   5.917   0.839
 4964SOL     OW15790   2.475   6.810   4.866
 4964SOL    HW115791   2.488   6.721   4.909
 4964SOL    HW215792   2.381   6.841   4.880
 4965SOL     OW15793   0.795   6.903   2.894
 4965SOL    HW115794   0.863   6.883   2.965
 4965SOL    HW215795   0.719   6.954   2.934
 4966SOL     OW15796   2.500   6.406   4.377
 4966SOL    HW115797   2.506   6.328   4.314
 4966SOL    HW215798   2.506   6.491   4.326
 4967SOL     OW15799   3.264   4.640   6.005
 4967SOL    HW115800   3.238   4.695   5.926
 4967SOL    HW215801   3.199   4.565   6.017
 4968SOL     OW15802   0.349   0.773   4.286
 4968SOL    HW115803   0.304   0.844   4.341
 4968SOL    HW215804   0.283   0.702   4.262
 4969SOL     OW15805   0.320   6.442   2.541
 4969SOL    HW115806   0.393   6.374   2.550
 4969SOL    HW215807   0.255   6.412   2.470
 4970SOL     OW15808   2.063   1.267   1.741
 4970SOL    HW115809   2.151   1.223   1.761
 4970SOL    HW215810   1.992   1.228   1.799
 4971SOL     OW15811   5.963   5.518   2.835
 4971SOL    HW115812   5.969   5.617   2.830
 4971SOL    HW215813   5.941   5.490   2.929
 4972SOL     OW15814   1.453   4.357   0.378
 4972SOL    HW115815   1.547   4.385   0.401
 4972SOL    HW215816   1.456   4.293   0.301
 4973SOL     OW15817   0.227   0.667   2.021
 4973SOL    HW115818   0.163   0.618   1.962
 4973SOL    HW215819   0.280   0.602   2.075
 4974SOL     OW15820   4.964   4.429   6.815
 4974SOL    HW115821   4.910   4.348   6.839
 4974SOL    HW215822   5.050   4.400   6.772
 4975SOL     OW15823   5.167   4.084   0.915
 4975SOL    HW115824   5.147   3.990   0.943
 4975SOL    HW215825   5.131   4.099   0.823
 4976SOL     OW15826   1.186   0.799   4.260
 4976SOL    HW115827   1.099   0.842   4.285
 4976SOL    HW215828   1.261   0.861   4.283
 4977SOL     OW15829   3.450   3.676   6.737
 4977SOL    HW115830   3.387   3.599   6.744
 4977SOL    HW215831   3.455   3.723   6.826
 4978SOL     OW15832   4.973   4.527   5.399
 4978SOL    HW115833   4.988   4.626   5.408
 4978SOL    HW215834   4.907   4.497   5.467
 4979SOL     OW15835   0.653   6.815   7.003
 4979SOL    HW115836   0.655   6.876   6.925
 4979SOL    HW215837   0.659   6.868   0.065
 4980SOL     OW15838   6.595   4.416   2.754
 4980SOL    HW115839   6.610   4.477   2.832
 4980SOL    HW215840   6.646   4.449   2.675
 4981SOL     OW15841   3.130   5.644   1.714
 4981SOL    HW115842   3.177   5.585   1.780
 4981SOL    HW215843   3.192   5.716   1.683
 4982SOL     OW15844   4.088   1.940   6.900
 4982SOL    HW115845   3.994   1.910   6.884
 4982SOL    HW215846   4.096   2.038   6.881
 4983SOL     OW15847   6.167   5.064   4.133
 4983SOL    HW115848   6.213   4.999   4.072
 4983SOL    HW215849   6.232   5.095   4.204
 4984SOL     OW15850   4.709   4.191   2.684
 4984SOL    HW115851   4.731   4.182   2.587
 4984SOL    HW215852   4.629   4.249   2.695
 4985SOL     OW15853   4.805   6.265   2.859
 4985SOL    HW115854   4.857   6.188   2.897
 4985SOL    HW215855   4.772   6.322   2.934
 4986SOL     OW15856   6.511   4.801   1.277
 4986SOL    HW115857   6.416   4.832   1.273
 4986SOL    HW215858   6.570   4.878   1.302
 4987SOL     OW15859   1.178   6.436   2.783
 4987SOL    HW115860   1.103   6.502   2.784
 4987SOL    HW215861   1.140   6.343   2.780
 4988SOL     OW15862   6.044   1.333   3.380
 4988SOL    HW115863   5.993   1.418   3.384
 4988SOL    HW215864   6.051   1.294   3.472
 4989SOL     OW15865   4.516   0.549   1.874
 4989SOL    HW115866   4.564   0.465   1.848
 4989SOL    HW215867   4.429   0.555   1.826
 4990SOL     OW15868   3.813   1.865   6.956
 4990SOL    HW115869   3.817   1.959   6.920
 4990SOL    HW215870   3.718   1.833   6.954
 4991SOL     OW15871   0.074   5.890   3.866
 4991SOL    HW115872   0.109   5.963   3.924
 4991SOL    HW215873   0.077   5.918   3.770
 4992SOL     OW15874   6.193   1.707   2.627
 4992SOL    HW115875   6.248   1.789   2.611
 4992SOL    HW215876   6.107   1.714   2.576
 4993SOL     OW15877   4.025   6.765   4.956
 4993SOL    HW115878   3.958   6.696   4.985
 4993SOL    HW215879   4.026   6.770   4.857
 4994SOL     OW15880   2.100   5.361   4.694
 4994SOL    HW115881   2.065   5.396   4.607
 4994SOL    HW215882   2.026   5.362   4.762
 4995SOL     OW15883   0.430   0.833   5.145
 4995SOL    HW115884   0.497   0.761   5.125
 4995SOL    HW215885   0.422   0.844   5.244
 4996SOL     OW15886   0.091   1.309   3.655
 4996SOL    HW115887   0.031   1.356   3.589
 4996SOL    HW215888   0.048   1.223   3.683
 4997SOL     OW15889   3.584   2.492   1.501
 4997SOL    HW115890   3.631   2.496   1.413
 4997SOL    HW215891   3.650   2.501   1.575
 4998SOL     OW15892   1.769   3.587   3.533
 4998SOL    HW115893   1.848   3.526   3.537
 4998SOL    HW215894   1.708   3.559   3.459
 4999SOL     OW15895   0.231   3.628   4.941
 4999SOL    HW115896   0.200   3.722   4.955
 4999SOL    HW215897   0.310   3.628   4.880
 5000SOL     OW15898   3.303   6.206   3.280
 5000SOL    HW115899   3.281   6.184   3.375
 5000SOL    HW215900   3.390   6.162   3.256
 5001SOL     OW15901   0.346   5.590   2.478
 5001SOL    HW115902   0.402   5.667   2.509
 5001SOL    HW215903   0.405   5.521   2.436
 5002SOL     OW15904   0.384   4.882   2.091
 5002SOL    HW115905   0.335   4.798   2.113
 5002SOL    HW215906   0.317   4.956   2.075
 5003SOL     OW15907   4.120   6.505   2.955
 5003SOL    HW115908   4.211   6.542   2.937
 5003SOL    HW215909   4.124   6.405   2.959
 5004SOL     OW15910   2.262   5.081   5.484
 5004SOL    HW115911   2.198   5.024   5.534
 5004SOL    HW215912   2.240   5.178   5.499
 5005SOL     OW15913   2.241   3.280   6.139
 5005SOL    HW115914   2.191   3.193   6.143
 5005SOL    HW215915   2.310   3.275   6.067
 5006SOL     OW15916   5.617   1.106   2.176
 5006SOL    HW115917   5.605   1.101   2.077
 5006SOL    HW215918   5.690   1.044   2.204
 5007SOL     OW15919   6.862   0.763   1.011
 5007SOL    HW115920   6.950   0.763   1.058
 5007SOL    HW215921   6.875   0.743   0.914
 5008SOL     OW15922   6.629   5.627   1.302
 5008SOL    HW115923   6.608   5.725   1.301
 5008SOL    HW215924   6.656   5.598   1.211
 5009SOL     OW15925   1.084   2.773   0.651
 5009SOL    HW115926   1.093   2.717   0.568
 5009SOL    HW215927   1.175   2.795   0.686
 5010SOL     OW15928   4.026   2.533   0.681
 5010SOL    HW115929   3.975   2.521   0.597
 5010SOL    HW215930   4.104   2.469   0.682
 5011SOL     OW15931   2.244   3.990   1.448
 5011SOL    HW115932   2.166   3.928   1.439
 5011SOL    HW215933   2.236   4.043   1.533
 5012SOL     OW15934   6.076   3.240   5.244
 5012SOL    HW115935   6.130   3.312   5.202
 5012SOL    HW215936   5.986   3.275   5.269
 5013SOL     OW15937   5.703   0.624   5.703
 5013SOL    HW115938   5.620   0.630   5.758
 5013SOL    HW215939   5.679   0.638   5.606
 5014SOL     OW15940   6.735   4.593   0.264
 5014SOL    HW115941   6.680   4.613   0.345
 5014SOL    HW215942   6.823   4.640   0.271
 5015SOL     OW15943   5.043   0.663   4.820
 5015SOL    HW115944   5.053   0.584   4.880
 5015SOL    HW215945   4.959   0.653   4.766
 5016SOL     OW15946   0.728   3.141   4.583
 5016SOL    HW115947   0.723   3.155   4.485
 5016SOL    HW215948   0.665   3.068   4.610
 5017SOL     OW15949   1.355   2.184   1.146
 5017SOL    HW115950   1.407   2.131   1.213
 5017SOL    HW215951   1.419   2.238   1.090
 5018SOL     OW15952   1.423   5.309   2.310
 5018SOL    HW115953   1.454   5.214   2.309
 5018SOL    HW215954   1.484   5.365   2.253
 5019SOL     OW15955   2.432   6.012   5.713
 5019SOL    HW115956   2.461   6.040   5.805
 5019SOL    HW215957   2.484   5.931   5.686
 5020SOL     OW15958   7.017   6.860   5.334
 5020SOL    HW115959   0.057   6.937   5.327
 5020SOL    HW215960   0.047   6.775   5.339
 5021SOL     OW15961   1.443   0.571   1.339
 5021SOL    HW115962   1.350   0.590   1.307
 5021SOL    HW215963   1.449   0.476   1.369
 5022SOL     OW15964   1.146   3.018   1.314
 5022SOL    HW115965   1.053   3.053   1.325
 5022SOL    HW215966   1.212   3.090   1.336
 5023SOL     OW15967   0.134   4.412   1.561
 5023SOL    HW115968   0.087   4.415   1.472
 5023SOL    HW215969   0.141   4.317   1.591
 5024SOL     OW15970   6.229   5.073   0.828
 5024SOL    HW115971   6.165   5.004   0.861
 5024SOL    HW215972   6.229   5.151   0.890
 5025SOL     OW15973   4.135   2.136   3.693
 5025SOL    HW115974   4.102   2.165   3.603
 5025SOL    HW215975   4.075   2.063   3.727
 5026SOL     OW15976   6.873   5.161   4.773
 5026SOL    HW115977   6.910   5.186   4.862
 5026SOL    HW215978   6.784   5.205   4.760
 5027SOL     OW15979   6.048   0.464   1.832
 5027SOL    HW115980   6.100   0.540   1.870
 5027SOL    HW215981   6.110   0.392   1.800
 5028SOL     OW15982   6.453   1.887   3.708
 5028SOL    HW115983   6.423   1.912   3.799
 5028SOL    HW215984   6.497   1.797   3.710
 5029SOL     OW15985   6.384   2.526   2.356
 5029SOL    HW115986   6.371   2.598   2.425
 5029SOL    HW215987   6.475   2.486   2.366
 5030SOL     OW15988   6.749   6.117   6.054
 5030SOL    HW115989   6.755   6.141   6.151
 5030SOL    HW215990   6.841   6.103   6.018
 5031SOL     OW15991   0.003   1.269   5.379
 5031SOL    HW115992   7.021   1.175   5.346
 5031SOL    HW215993   6.935   1.297   5.412
 5032SOL     OW15994   2.694   1.483   5.906
 5032SOL    HW115995   2.751   1.402   5.888
 5032SOL    HW215996   2.598   1.458   5.896
 5033SOL     OW15997   2.159   0.380   0.107
 5033SOL    HW115998   2.070   0.414   0.079
 5033SOL    HW215999   2.198   0.325   0.034
 5034SOL     OW16000   5.402   6.604   4.321
 5034SOL    HW116001   5.475   6.636   4.382
 5034SOL    HW216002   5.329   6.673   4.318
 5035SOL     OW16003   0.830   4.048   5.579
 5035SOL    HW116004   0.921   4.007   5.584
 5035SOL    HW216005   0.817   4.091   5.490
 5036SOL     OW16006   6.672   4.918   6.634
 5036SOL    HW116007   6.596   4.861   6.667
 5036SOL    HW216008   6.755   4.863   6.632
 5037SOL     OW16009   4.653   4.647   1.273
 5037SOL    HW116010   4.667   4.735   1.318
 5037SOL    HW216011   4.558   4.640   1.241
 5038SOL     OW16012   3.883   3.044   3.954
 5038SOL    HW116013   3.797   2.993   3.943
 5038SOL    HW216014   3.944   2.993   4.014
 5039SOL     OW16015   1.913   3.534   5.392
 5039SOL    HW116016   1.913   3.483   5.305
 5039SOL    HW216017   1.864   3.480   5.461
 5040SOL     OW16018   1.193   6.242   5.335
 5040SOL    HW116019   1.199   6.201   5.244
 5040SOL    HW216020   1.119   6.199   5.386
 5041SOL     OW16021   1.089   2.517   1.772
 5041SOL    HW116022   1.172   2.546   1.820
 5041SOL    HW216023   1.011   2.570   1.804
 5042SOL     OW16024   0.003   2.729   0.443
 5042SOL    HW116025   6.953   2.713   0.376
 5042SOL    HW216026   6.990   2.711   0.535
 5043SOL     OW16027   4.187   0.789   7.015
 5043SOL    HW116028   4.182   0.865   6.950
 5043SOL    HW216029   4.235   0.818   0.076
 5044SOL     OW16030   0.779   5.417   1.220
 5044SOL    HW116031   0.705   5.391   1.282
 5044SOL    HW216032   0.767   5.371   1.132
 5045SOL     OW16033   6.428   5.761   5.920
 5045SOL    HW116034   6.486   5.742   5.840
 5045SOL    HW216035   6.485   5.768   6.001
 5046SOL     OW16036   3.825   3.939   3.515
 5046SOL    HW116037   3.911   3.889   3.502
 5046SOL    HW216038   3.799   3.984   3.430
 5047SOL     OW16039   2.336   4.328   3.070
 5047SOL    HW116040   2.241   4.359   3.066
 5047SOL    HW216041   2.386   4.366   2.992
 5048SOL     OW16042   1.326   1.140   3.975
 5048SOL    HW116043   1.291   1.232   3.959
 5048SOL    HW216044   1.253   1.073   3.962
 5049SOL     OW16045   4.577   0.911   0.098
 5049SOL    HW116046   4.640   0.857   0.155
 5049SOL    HW216047   4.590   1.008   0.118
 5050SOL     OW16048   1.650   1.444   6.658
 5050SOL    HW116049   1.720   1.395   6.710
 5050SOL    HW216050   1.579   1.379   6.629
 5051SOL     OW16051   4.628   4.262   1.701
 5051SOL    HW116052   4.672   4.173   1.699
 5051SOL    HW216053   4.538   4.254   1.744
 5052SOL     OW16054   3.148   1.991   5.786
 5052SOL    HW116055   3.085   2.046   5.732
 5052SOL    HW216056   3.216   1.950   5.726
 5053SOL     OW16057   0.794   5.043   3.133
 5053SOL    HW116058   0.766   5.134   3.165
 5053SOL    HW216059   0.889   5.047   3.102
 5054SOL     OW16060   2.688   5.084   4.891
 5054SOL    HW116061   2.663   4.987   4.896
 5054SOL    HW216062   2.612   5.136   4.853
 5055SOL     OW16063   0.745   2.359   5.837
 5055SOL    HW116064   0.726   2.266   5.868
 5055SOL    HW216065   0.843   2.371   5.826
 5056SOL     OW16066   5.282   3.760   5.825
 5056SOL    HW116067   5.240   3.703   5.754
 5056SOL    HW216068   5.264   3.856   5.805
 5057SOL     OW16069   6.901   6.810   3.082
 5057SOL    HW116070   6.917   6.732   3.143
 5057SOL    HW216071   6.976   6.875   3.092
 5058SOL     OW16072   3.324   3.707   6.426
 5058SOL    HW116073   3.421   3.686   6.411
 5058SOL    HW216074   3.304   3.799   6.392
 5059SOL     OW16075   0.182   0.703   3.190
 5059SOL    HW116076   0.139   0.631   3.136
 5059SOL    HW216077   0.153   0.793   3.156
 5060SOL     OW16078   0.165   2.367   6.384
 5060SOL    HW116079   0.156   2.381   6.285
 5060SOL    HW216080   0.209   2.447   6.425
 5061SOL     OW16081   4.770   2.670   0.403
 5061SOL    HW116082   4.815   2.654   0.315
 5061SOL    HW216083   4.797   2.599   0.468
 5062SOL     OW16084   5.708   0.198   2.593
 5062SOL    HW116085   5.730   0.151   2.507
 5062SOL    HW216086   5.752   0.288   2.593
 5063SOL     OW16087   0.116   6.939   2.235
 5063SOL    HW116088   0.091   6.843   2.248
 5063SOL    HW216089   0.189   6.964   2.300
 5064SOL     OW16090   5.121   3.508   1.077
 5064SOL    HW116091   5.091   3.507   1.173
 5064SOL    HW216092   5.049   3.469   1.020
 5065SOL     OW16093   3.093   0.406   5.652
 5065SOL    HW116094   3.112   0.310   5.669
 5065SOL    HW216095   3.124   0.432   5.561
 5066SOL     OW16096   4.954   4.825   1.961
 5066SOL    HW116097   4.933   4.730   1.936
 5066SOL    HW216098   5.022   4.825   2.035
 5067SOL     OW16099   4.901   1.457   1.022
 5067SOL    HW116100   4.890   1.384   1.089
 5067SOL    HW216101   4.978   1.435   0.962
 5068SOL     OW16102   2.445   4.818   0.955
 5068SOL    HW116103   2.420   4.862   0.869
 5068SOL    HW216104   2.544   4.806   0.959
 5069SOL     OW16105   1.878   4.956   3.267
 5069SOL    HW116106   1.916   4.923   3.353
 5069SOL    HW216107   1.948   5.008   3.217
 5070SOL     OW16108   4.862   3.455   3.767
 5070SOL    HW116109   4.860   3.538   3.824
 5070SOL    HW216110   4.818   3.380   3.817
 5071SOL     OW16111   4.519   2.547   4.589
 5071SOL    HW116112   4.601   2.596   4.617
 5071SOL    HW216113   4.485   2.491   4.666
 5072SOL     OW16114   0.756   6.303   0.666
 5072SOL    HW116115   0.793   6.240   0.597
 5072SOL    HW216116   0.737   6.252   0.751
 5073SOL     OW16117   6.356   6.836   3.213
 5073SOL    HW116118   6.335   6.932   3.197
 5073SOL    HW216119   6.313   6.780   3.142
 5074SOL     OW16120   3.456   3.173   6.592
 5074SOL    HW116121   3.491   3.266   6.600
 5074SOL    HW216122   3.360   3.175   6.562
 5075SOL     OW16123   0.512   1.221   5.814
 5075SOL    HW116124   0.517   1.147   5.747
 5075SOL    HW216125   0.463   1.298   5.775
 5076SOL     OW16126   3.708   0.991   1.029
 5076SOL    HW116127   3.799   0.989   1.070
 5076SOL    HW216128   3.641   0.955   1.094
 5077SOL     OW16129   0.354   2.722   4.094
 5077SOL    HW116130   0.378   2.633   4.133
 5077SOL    HW216131   0.423   2.749   4.027
 5078SOL     OW16132   0.787   1.741   3.428
 5078SOL    HW116133   0.840   1.691   3.496
 5078SOL    HW216134   0.849   1.796   3.371
 5079SOL     OW16135   2.830   4.664   6.352
 5079SOL    HW116136   2.900   4.592   6.361
 5079SOL    HW216137   2.812   4.681   6.255
 5080SOL     OW16138   5.652   6.401   5.467
 5080SOL    HW116139   5.643   6.315   5.517
 5080SOL    HW216140   5.562   6.441   5.452
 5081SOL     OW16141   4.105   3.263   3.129
 5081SOL    HW116142   4.128   3.360   3.141
 5081SOL    HW216143   4.110   3.217   3.218
 5082SOL     OW16144   5.784   5.254   5.491
 5082SOL    HW116145   5.737   5.324   5.544
 5082SOL    HW216146   5.771   5.272   5.393
 5083SOL     OW16147   2.066   6.497   2.674
 5083SOL    HW116148   2.004   6.571   2.699
 5083SOL    HW216149   2.126   6.476   2.751
 5084SOL     OW16150   0.821   5.061   4.685
 5084SOL    HW116151   0.817   5.132   4.615
 5084SOL    HW216152   0.861   4.978   4.647
 5085SOL     OW16153   5.654   2.306   6.530
 5085SOL    HW116154   5.688   2.212   6.521
 5085SOL    HW216155   5.588   2.310   6.605
 5086SOL     OW16156   6.300   5.364   4.173
 5086SOL    HW116157   6.399   5.349   4.170
 5086SOL    HW216158   6.270   5.368   4.269
 5087SOL     OW16159   6.716   5.923   3.578
 5087SOL    HW116160   6.751   5.888   3.491
 5087SOL    HW216161   6.646   5.861   3.613
 5088SOL     OW16162   5.945   1.440   5.165
 5088SOL    HW116163   6.042   1.447   5.184
 5088SOL    HW216164   5.908   1.530   5.144
 5089SOL     OW16165   6.472   3.387   3.276
 5089SOL    HW116166   6.457   3.352   3.368
 5089SOL    HW216167   6.567   3.369   3.249
 5090SOL     OW16168   2.080   3.779   1.439
 5090SOL    HW116169   2.020   3.713   1.484
 5090SOL    HW216170   2.088   3.756   1.342
 5091SOL     OW16171   0.764   6.019   2.982
 5091SOL    HW116172   0.789   6.011   2.886
 5091SOL    HW216173   0.829   6.080   3.029
 5092SOL     OW16174   3.397   2.586   1.239
 5092SOL    HW116175   3.380   2.642   1.321
 5092SOL    HW216176   3.333   2.509   1.238
 5093SOL     OW16177   1.452   1.999   1.534
 5093SOL    HW116178   1.359   1.978   1.504
 5093SOL    HW216179   1.504   2.037   1.457
 5094SOL     OW16180   1.276   0.328   5.535
 5094SOL    HW116181   1.376   0.327   5.545
 5094SOL    HW216182   1.240   0.415   5.569
 5095SOL     OW16183   1.111   1.073   4.636
 5095SOL    HW116184   1.124   1.101   4.541
 5095SOL    HW216185   1.075   1.150   4.688
 5096SOL     OW16186   4.181   3.846   0.818
 5096SOL    HW116187   4.275   3.822   0.795
 5096SOL    HW216188   4.133   3.764   0.850
 5097SOL     OW16189   1.670   0.299   6.371
 5097SOL    HW116190   1.694   0.385   6.326
 5097SOL    HW216191   1.572   0.281   6.359
 5098SOL     OW16192   0.189   0.775   1.570
 5098SOL    HW116193   0.129   0.779   1.649
 5098SOL    HW216194   0.171   0.853   1.510
 5099SOL     OW16195   1.099   0.680   6.069
 5099SOL    HW116196   1.040   0.713   5.995
 5099SOL    HW216197   1.181   0.737   6.075
 5100SOL     OW16198   4.700   6.700   6.134
 5100SOL    HW116199   4.762   6.622   6.134
 5100SOL    HW216200   4.736   6.772   6.074
 5101SOL     OW16201   5.206   6.316   6.901
 5101SOL    HW116202   5.247   6.406   6.912
 5101SOL    HW216203   5.270   6.255   6.854
 5102SOL     OW16204   6.099   0.764   5.548
 5102SOL    HW116205   6.170   0.831   5.525
 5102SOL    HW216206   6.133   0.672   5.528
 5103SOL     OW16207   6.784   1.057   4.497
 5103SOL    HW116208   6.742   1.064   4.587
 5103SOL    HW216209   6.882   1.044   4.506
 5104SOL     OW16210   1.725   6.621   1.556
 5104SOL    HW116211   1.688   6.689   1.620
 5104SOL    HW216212   1.792   6.665   1.496
 5105SOL     OW16213   4.135   3.653   7.016
 5105SOL    HW116214   4.096   3.613   0.077
 5105SOL    HW216215   4.066   3.708   6.969
 5106SOL     OW16216   3.758   0.216   2.517
 5106SOL    HW116217   3.703   0.147   2.470
 5106SOL    HW216218   3.726   0.225   2.612
 5107SOL     OW16219   3.179   0.604   0.022
 5107SOL    HW116220   3.219   0.639   0.107
 5107SOL    HW216221   3.079   0.606   0.028
 5108SOL     OW16222   2.954   3.766   3.825
 5108SOL    HW116223   2.908   3.853   3.846
 5108SOL    HW216224   3.053   3.780   3.827
 5109SOL     OW16225   1.015   1.915   0.643
 5109SOL    HW116226   0.980   1.952   0.557
 5109SOL    HW216227   1.062   1.828   0.625
 5110SOL     OW16228   1.230   6.890   6.454
 5110SOL    HW116229   1.271   6.804   6.423
 5110SOL    HW216230   1.141   6.902   6.409
 5111SOL     OW16231   0.912   0.937   5.564
 5111SOL    HW116232   0.939   1.018   5.616
 5111SOL    HW216233   0.905   0.961   5.467
 5112SOL     OW16234   0.743   6.920   3.306
 5112SOL    HW116235   0.759   6.969   3.392
 5112SOL    HW216236   0.813   6.947   3.240
 5113SOL     OW16237   1.380   0.036   0.995
 5113SOL    HW116238   1.432   0.117   0.969
 5113SOL    HW216239   1.364   7.000   0.915
 5114SOL     OW16240   3.312   2.876   0.094
 5114SOL    HW116241   3.320   2.930   0.010
 5114SOL    HW216242   3.314   2.778   0.071
 5115SOL     OW16243   1.575   4.280   5.431
 5115SOL    HW116244   1.654   4.330   5.396
 5115SOL    HW216245   1.579   4.185   5.400
 5116SOL     OW16246   5.136   5.547   5.994
 5116SOL    HW116247   5.036   5.541   5.993
 5116SOL    HW216248   5.172   5.536   5.902
 5117SOL     OW16249   2.233   4.489   3.924
 5117SOL    HW116250   2.307   4.498   3.858
 5117SOL    HW216251   2.230   4.570   3.983
 5118SOL     OW16252   4.657   6.327   0.297
 5118SOL    HW116253   4.738   6.368   0.339
 5118SOL    HW216254   4.665   6.227   0.299
 5119SOL     OW16255   4.908   0.321   1.690
 5119SOL    HW116256   4.964   0.378   1.749
 5119SOL    HW216257   4.952   0.314   1.600
 5120SOL     OW16258   6.060   1.543   3.039
 5120SOL    HW116259   6.073   1.579   3.132
 5120SOL    HW216260   6.112   1.598   2.974
 5121SOL     OW16261   1.297   2.829   6.698
 5121SOL    HW116262   1.339   2.750   6.742
 5121SOL    HW216263   1.368   2.885   6.654
 5122SOL     OW16264   2.915   0.823   3.931
 5122SOL    HW116265   2.857   0.898   3.963
 5122SOL    HW216266   2.866   0.771   3.860
 5123SOL     OW16267   5.293   3.559   4.698
 5123SOL    HW116268   5.290   3.461   4.717
 5123SOL    HW216269   5.342   3.607   4.770
 5124SOL     OW16270   2.524   5.333   6.657
 5124SOL    HW116271   2.498   5.307   6.564
 5124SOL    HW216272   2.622   5.351   6.661
 5125SOL     OW16273   0.126   3.767   4.314
 5125SOL    HW116274   0.076   3.709   4.250
 5125SOL    HW216275   0.213   3.724   4.339
 5126SOL     OW16276   6.305   4.451   5.800
 5126SOL    HW116277   6.287   4.412   5.891
 5126SOL    HW216278   6.363   4.532   5.810
 5127SOL     OW16279   5.977   4.044   1.202
 5127SOL    HW116280   5.971   3.988   1.284
 5127SOL    HW216281   5.906   4.115   1.203
 5128SOL     OW16282   0.779   0.382   0.291
 5128SOL    HW116283   0.719   0.381   0.211
 5128SOL    HW216284   0.849   0.312   0.280
 5129SOL     OW16285   5.372   0.834   2.998
 5129SOL    HW116286   5.344   0.799   2.908
 5129SOL    HW216287   5.469   0.815   3.013
 5130SOL     OW16288   0.937   5.898   4.785
 5130SOL    HW116289   1.009   5.901   4.716
 5130SOL    HW216290   0.928   5.988   4.828
 5131SOL     OW16291   3.007   5.050   3.242
 5131SOL    HW116292   2.991   5.122   3.309
 5131SOL    HW216293   2.946   4.973   3.260
 5132SOL     OW16294   3.165   1.400   6.377
 5132SOL    HW116295   3.230   1.453   6.431
 5132SOL    HW216296   3.137   1.453   6.297
 5133SOL     OW16297   3.379   5.414   6.060
 5133SOL    HW116298   3.282   5.431   6.043
 5133SOL    HW216299   3.419   5.494   6.105
 5134SOL     OW16300   6.361   6.979   2.006
 5134SOL    HW116301   6.359   6.898   1.947
 5134SOL    HW216302   6.445   6.978   2.060
 5135SOL     OW16303   6.407   3.422   2.677
 5135SOL    HW116304   6.387   3.350   2.611
 5135SOL    HW216305   6.458   3.495   2.632
 5136SOL     OW16306   6.779   1.356   5.414
 5136SOL    HW116307   6.709   1.303   5.462
 5136SOL    HW216308   6.741   1.442   5.383
 5137SOL     OW16309   4.745   2.960   5.156
 5137SOL    HW116310   4.743   3.056   5.185
 5137SOL    HW216311   4.818   2.947   5.090
 5138SOL     OW16312   3.656   3.902   4.022
 5138SOL    HW116313   3.738   3.952   4.050
 5138SOL    HW216314   3.655   3.893   3.922
 5139SOL     OW16315   0.995   0.492   4.494
 5139SOL    HW116316   0.969   0.411   4.442
 5139SOL    HW216317   0.927   0.564   4.480
 5140SOL     OW16318   3.959   1.764   6.460
 5140SOL    HW116319   3.912   1.710   6.530
 5140SOL    HW216320   4.022   1.706   6.409
 5141SOL     OW16321   6.361   2.353   0.720
 5141SOL    HW116322   6.393   2.417   0.649
 5141SOL    HW216323   6.353   2.401   0.807
 5142SOL     OW16324   5.768   0.021   4.022
 5142SOL    HW116325   5.835   0.089   3.994
 5142SOL    HW216326   5.796   6.952   3.991
 5143SOL     OW16327   0.711   4.079   4.231
 5143SOL    HW116328   0.668   3.995   4.265
 5143SOL    HW216329   0.771   4.057   4.155
 5144SOL     OW16330   2.203   3.501   6.722
 5144SOL    HW116331   2.246   3.536   6.806
 5144SOL    HW216332   2.110   3.472   6.743
 5145SOL     OW16333   3.497   6.023   6.350
 5145SOL    HW116334   3.526   5.934   6.387
 5145SOL    HW216335   3.513   6.025   6.251
 5146SOL     OW16336   4.062   4.496   5.635
 5146SOL    HW116337   3.977   4.505   5.582
 5146SOL    HW216338   4.110   4.584   5.636
 5147SOL     OW16339   5.395   3.845   3.061
 5147SOL    HW116340   5.457   3.908   3.107
 5147SOL    HW216341   5.368   3.772   3.125
 5148SOL     OW16342   0.875   0.727   2.131
 5148SOL    HW116343   0.928   0.646   2.158
 5148SOL    HW216344   0.792   0.733   2.186
 5149SOL     OW16345   5.645   4.762   4.032
 5149SOL    HW116346   5.724   4.708   4.060
 5149SOL    HW216347   5.625   4.831   4.102
 5150SOL     OW16348   1.312   5.431   3.494
 5150SOL    HW116349   1.375   5.466   3.425
 5150SOL    HW216350   1.294   5.334   3.476
 5151SOL     OW16351   5.777   4.764   1.549
 5151SOL    HW116352   5.813   4.835   1.488
 5151SOL    HW216353   5.688   4.793   1.584
 5152SOL     OW16354   1.395   6.418   6.782
 5152SOL    HW116355   1.333   6.398   6.706
 5152SOL    HW216356   1.418   6.333   6.830
 5153SOL     OW16357   1.663   1.133   0.352
 5153SOL    HW116358   1.680   1.049   0.403
 5153SOL    HW216359   1.734   1.146   0.283
 5154SOL     OW16360   1.036   2.763   6.620
 5154SOL    HW116361   1.128   2.802   6.626
 5154SOL    HW216362   0.975   2.829   6.576
 5155SOL     OW16363   2.681   1.500   0.652
 5155SOL    HW116364   2.725   1.506   0.741
 5155SOL    HW216365   2.583   1.485   0.664
 5156SOL     OW16366   5.484   5.032   5.332
 5156SOL    HW116367   5.425   5.014   5.254
 5156SOL    HW216368   5.476   5.128   5.359
 5157SOL     OW16369   3.476   1.549   1.885
 5157SOL    HW116370   3.564   1.588   1.911
 5157SOL    HW216371   3.471   1.542   1.785
 5158SOL     OW16372   3.729   1.679   0.884
 5158SOL    HW116373   3.782   1.749   0.932
 5158SOL    HW216374   3.792   1.619   0.834
 5159SOL     OW16375   6.122   3.725   6.788
 5159SOL    HW116376   6.024   3.732   6.808
 5159SOL    HW216377   6.134   3.699   6.692
 5160SOL     OW16378   6.243   6.457   3.329
 5160SOL    HW116379   6.228   6.359   3.343
 5160SOL    HW216380   6.234   6.478   3.232
 5161SOL     OW16381   1.330   3.205   6.699
 5161SOL    HW116382   1.426   3.180   6.709
 5161SOL    HW216383   1.290   3.222   6.789
 5162SOL     OW16384   0.128   5.373   2.367
 5162SOL    HW116385   0.104   5.392   2.463
 5162SOL    HW216386   0.150   5.459   2.321
 5163SOL     OW16387   3.189   6.275   1.746
 5163SOL    HW116388   3.187   6.234   1.655
 5163SOL    HW216389   3.238   6.363   1.742
 5164SOL     OW16390   2.918   2.981   0.346
 5164SOL    HW116391   2.915   2.881   0.340
 5164SOL    HW216392   2.968   3.017   0.267
 5165SOL     OW16393   1.539   4.654   0.158
 5165SOL    HW116394   1.487   4.583   0.109
 5165SOL    HW216395   1.522   4.742   0.114
 5166SOL     OW16396   1.735   5.259   1.987
 5166SOL    HW116397   1.654   5.272   1.930
 5166SOL    HW216398   1.806   5.212   1.935
 5167SOL     OW16399   5.890   4.074   5.494
 5167SOL    HW116400   5.858   4.150   5.550
 5167SOL    HW216401   5.931   4.110   5.410
 5168SOL     OW16402   4.865   2.343   2.340
 5168SOL    HW116403   4.839   2.372   2.432
 5168SOL    HW216404   4.962   2.318   2.340
 5169SOL     OW16405   4.198   1.471   3.821
 5169SOL    HW116406   4.110   1.428   3.803
 5169SOL    HW216407   4.219   1.536   3.749
 5170SOL     OW16408   1.466   3.432   6.298
 5170SOL    HW116409   1.545   3.401   6.244
 5170SOL    HW216410   1.428   3.354   6.349
 5171SOL     OW16411   1.351   5.150   5.338
 5171SOL    HW116412   1.425   5.127   5.402
 5171SOL    HW216413   1.279   5.081   5.345
 5172SOL     OW16414   1.412   5.348   4.180
 5172SOL    HW116415   1.354   5.333   4.260
 5172SOL    HW216416   1.412   5.445   4.156
 5173SOL     OW16417   4.416   3.867   6.327
 5173SOL    HW116418   4.385   3.884   6.234
 5173SOL    HW216419   4.371   3.931   6.390
 5174SOL     OW16420   1.548   6.944   3.693
 5174SOL    HW116421   1.633   6.990   3.667
 5174SOL    HW216422   1.556   6.846   3.674
 5175SOL     OW16423   3.313   4.522   6.366
 5175SOL    HW116424   3.360   4.585   6.428
 5175SOL    HW216425   3.360   4.434   6.367
 5176SOL     OW16426   5.300   5.278   5.897
 5176SOL    HW116427   5.360   5.356   5.882
 5176SOL    HW216428   5.335   5.199   5.848
 5177SOL     OW16429   5.302   6.868   1.022
 5177SOL    HW116430   5.235   6.908   1.085
 5177SOL    HW216431   5.272   6.775   0.997
 5178SOL     OW16432   0.771   4.452   2.065
 5178SOL    HW116433   0.838   4.488   2.000
 5178SOL    HW216434   0.704   4.523   2.085
 5179SOL     OW16435   5.134   3.897   3.001
 5179SOL    HW116436   5.069   3.828   2.968
 5179SOL    HW216437   5.227   3.867   2.980
 5180SOL     OW16438   2.802   6.854   1.217
 5180SOL    HW116439   2.850   6.767   1.201
 5180SOL    HW216440   2.715   6.836   1.263
 5181SOL     OW16441   0.117   0.586   6.981
 5181SOL    HW116442   0.044   0.651   6.999
 5181SOL    HW216443   0.156   0.603   6.890
 5182SOL     OW16444   4.572   4.569   2.319
 5182SOL    HW116445   4.575   4.486   2.264
 5182SOL    HW216446   4.477   4.592   2.339
 5183SOL     OW16447   4.032   2.200   2.918
 5183SOL    HW116448   4.068   2.151   2.838
 5183SOL    HW216449   4.109   2.235   2.972
 5184SOL     OW16450   2.153   2.502   3.661
 5184SOL    HW116451   2.179   2.436   3.732
 5184SOL    HW216452   2.204   2.484   3.578
 5185SOL     OW16453   4.738   0.449   2.718
 5185SOL    HW116454   4.773   0.370   2.769
 5185SOL    HW216455   4.756   0.437   2.621
 5186SOL     OW16456   6.429   3.225   6.017
 5186SOL    HW116457   6.359   3.190   5.956
 5186SOL    HW216458   6.518   3.225   5.970
 5187SOL     OW16459   2.415   5.344   4.491
 5187SOL    HW116460   2.359   5.416   4.532
 5187SOL    HW216461   2.510   5.375   4.486
 5188SOL     OW16462   6.978   6.401   1.667
 5188SOL    HW116463   6.987   6.463   1.745
 5188SOL    HW216464   0.003   6.315   1.687
 5189SOL     OW16465   5.664   6.770   6.227
 5189SOL    HW116466   5.649   6.671   6.223
 5189SOL    HW216467   5.739   6.789   6.291
 5190SOL     OW16468   1.816   3.095   2.695
 5190SOL    HW116469   1.913   3.087   2.721
 5190SOL    HW216470   1.805   3.170   2.630
 5191SOL     OW16471   3.035   6.107   2.709
 5191SOL    HW116472   2.984   6.021   2.718
 5191SOL    HW216473   3.106   6.111   2.779
 5192SOL     OW16474   1.849   6.068   1.648
 5192SOL    HW116475   1.783   6.137   1.679
 5192SOL    HW216476   1.806   6.011   1.578
 5193SOL     OW16477   5.313   0.360   6.605
 5193SOL    HW116478   5.218   0.379   6.583
 5193SOL    HW216479   5.330   0.262   6.600
 5194SOL     OW16480   3.394   1.770   6.483
 5194SOL    HW116481   3.324   1.780   6.412
 5194SOL    HW216482   3.471   1.718   6.446
 5195SOL     OW16483   0.486   0.788   3.468
 5195SOL    HW116484   0.422   0.712   3.460
 5195SOL    HW216485   0.445   0.870   3.428
 5196SOL     OW16486   4.581   6.768   2.938
 5196SOL    HW116487   4.617   6.854   2.902
 5196SOL    HW216488   4.648   6.728   3.001
 5197SOL     OW16489   1.988   3.378   6.479
 5197SOL    HW116490   2.040   3.294   6.462
 5197SOL    HW216491   2.031   3.455   6.432
 5198SOL     OW16492   4.506   5.377   2.984
 5198SOL    HW116493   4.464   5.414   2.901
 5198SOL    HW216494   4.528   5.452   3.047
 5199SOL     OW16495   0.206   5.309   1.286
 5199SOL    HW116496   0.259   5.301   1.202
 5199SOL    HW216497   0.169   5.402   1.293
 5200SOL     OW16498   0.410   3.785   5.106
 5200SOL    HW116499   0.337   3.735   5.153
 5200SOL    HW216500   0.442   3.731   5.028
 5201SOL     OW16501   0.437   6.679   3.925
 5201SOL    HW116502   0.351   6.684   3.875
 5201SOL    HW216503   0.420   6.640   4.016
 5202SOL     OW16504   7.012   3.316   6.449
 5202SOL    HW116505   6.974   3.227   6.475
 5202SOL    HW216506   6.951   3.359   6.382
 5203SOL     OW16507   0.885   2.662   0.036
 5203SOL    HW116508   0.802   2.609   0.017
 5203SOL    HW216509   0.946   2.608   0.093
 5204SOL     OW16510   3.954   5.081   0.420
 5204SOL    HW116511   3.893   5.031   0.482
 5204SOL    HW216512   3.913   5.168   0.395
 5205SOL     OW16513   1.914   0.151   1.747
 5205SOL    HW116514   1.814   0.150   1.735
 5205SOL    HW216515   1.948   0.245   1.737
 5206SOL     OW16516   0.749   4.535   6.821
 5206SOL    HW116517   0.703   4.510   6.736
 5206SOL    HW216518   0.846   4.552   6.804
 5207SOL     OW16519   1.396   5.616   4.137
 5207SOL    HW116520   1.304   5.613   4.176
 5207SOL    HW216521   1.414   5.707   4.100
 5208SOL     OW16522   3.643   1.125   0.499
 5208SOL    HW116523   3.733   1.137   0.459
 5208SOL    HW216524   3.649   1.134   0.599
 5209SOL     OW16525   5.995   5.910   3.728
 5209SOL    HW116526   6.082   5.914   3.777
 5209SOL    HW216527   5.933   5.848   3.777
 5210SOL     OW16528   5.404   3.945   5.153
 5210SOL    HW116529   5.496   3.932   5.191
 5210SOL    HW216530   5.367   4.033   5.186
 5211SOL     OW16531   3.605   3.197   3.881
 5211SOL    HW116532   3.687   3.253   3.890
 5211SOL    HW216533   3.629   3.100   3.891
 5212SOL     OW16534   6.706   2.512   0.853
 5212SOL    HW116535   6.634   2.581   0.847
 5212SOL    HW216536   6.715   2.466   0.764
 5213SOL     OW16537   5.263   1.636   6.547
 5213SOL    HW116538   5.182   1.677   6.506
 5213SOL    HW216539   5.287   1.685   6.631
 5214SOL     OW16540   5.376   1.286   6.338
 5214SOL    HW116541   5.435   1.232   6.278
 5214SOL    HW216542   5.381   1.250   6.431
 5215SOL     OW16543   5.676   5.487   3.133
 5215SOL    HW116544   5.636   5.534   3.054
 5215SOL    HW216545   5.774   5.476   3.119
 5216SOL     OW16546   4.785   5.886   1.368
 5216SOL    HW116547   4.730   5.956   1.412
 5216SOL    HW216548   4.827   5.923   1.285
 5217SOL     OW16549   3.074   5.249   3.916
 5217SOL    HW116550   3.115   5.199   3.992
 5217SOL    HW216551   3.058   5.186   3.840
 5218SOL     OW16552   1.763   0.580   3.683
 5218SOL    HW116553   1.702   0.633   3.740
 5218SOL    HW216554   1.712   0.509   3.635
 5219SOL     OW16555   3.671   6.827   6.668
 5219SOL    HW116556   3.663   6.751   6.603
 5219SOL    HW216557   3.609   6.901   6.641
 5220SOL     OW16558   1.001   5.582   2.625
 5220SOL    HW116559   0.910   5.551   2.653
 5220SOL    HW216560   1.032   5.527   2.547
 5221SOL     OW16561   5.419   2.239   4.600
 5221SOL    HW116562   5.466   2.281   4.522
 5221SOL    HW216563   5.384   2.149   4.574
 5222SOL     OW16564   2.747   6.846   4.421
 5222SOL    HW116565   2.826   6.843   4.482
 5222SOL    HW216566   2.663   6.849   4.475
 5223SOL     OW16567   4.541   0.463   1.101
 5223SOL    HW116568   4.505   0.386   1.049
 5223SOL    HW216569   4.557   0.435   1.196
 5224SOL     OW16570   6.964   1.503   3.480
 5224SOL    HW116571   6.867   1.511   3.504
 5224SOL    HW216572   6.973   1.481   3.383
 5225SOL     OW16573   6.272   0.860   2.852
 5225SOL    HW116574   6.180   0.899   2.850
 5225SOL    HW216575   6.310   0.869   2.944
 5226SOL     OW16576   0.284   6.787   5.466
 5226SOL    HW116577   0.276   6.724   5.542
 5226SOL    HW216578   0.352   6.753   5.401
 5227SOL     OW16579   0.897   5.039   4.004
 5227SOL    HW116580   0.799   5.054   3.989
 5227SOL    HW216581   0.945   5.127   4.004
 5228SOL     OW16582   6.431   2.567   0.180
 5228SOL    HW116583   6.365   2.492   0.178
 5228SOL    HW216584   6.454   2.589   0.275
 5229SOL     OW16585   2.103   4.361   6.543
 5229SOL    HW116586   2.151   4.387   6.460
 5229SOL    HW216587   2.169   4.327   6.610
 5230SOL     OW16588   0.539   0.380   0.752
 5230SOL    HW116589   0.450   0.336   0.736
 5230SOL    HW216590   0.532   0.478   0.732
 5231SOL     OW16591   3.110   3.128   4.758
 5231SOL    HW116592   3.022   3.176   4.748
 5231SOL    HW216593   3.122   3.100   4.853
 5232SOL     OW16594   3.379   2.067   6.305
 5232SOL    HW116595   3.390   1.990   6.243
 5232SOL    HW216596   3.467   2.113   6.318
 5233SOL     OW16597   6.899   6.740   1.540
 5233SOL    HW116598   6.855   6.789   1.615
 5233SOL    HW216599   6.887   6.641   1.554
 5234SOL     OW16600   3.165   0.164   0.152
 5234SOL    HW116601   3.263   0.179   0.169
 5234SOL    HW216602   3.112   0.239   0.190
 5235SOL     OW16603   1.761   3.073   1.451
 5235SOL    HW116604   1.739   3.039   1.542
 5235SOL    HW216605   1.860   3.069   1.437
 5236SOL     OW16606   5.497   3.318   1.242
 5236SOL    HW116607   5.479   3.367   1.157
 5236SOL    HW216608   5.411   3.284   1.280
 5237SOL     OW16609   2.675   1.866   5.201
 5237SOL    HW116610   2.750   1.901   5.146
 5237SOL    HW216611   2.613   1.812   5.144
 5238SOL     OW16612   1.753   5.314   0.452
 5238SOL    HW116613   1.814   5.352   0.522
 5238SOL    HW216614   1.807   5.272   0.379
 5239SOL     OW16615   3.819   3.688   4.144
 5239SOL    HW116616   3.744   3.642   4.192
 5239SOL    HW216617   3.783   3.733   4.062
 5240SOL     OW16618   3.267   2.282   5.640
 5240SOL    HW116619   3.265   2.379   5.615
 5240SOL    HW216620   3.180   2.240   5.617
 5241SOL     OW16621   1.556   5.789   6.578
 5241SOL    HW116622   1.544   5.827   6.487
 5241SOL    HW216623   1.565   5.863   6.645
 5242SOL     OW16624   5.775   0.188   5.071
 5242SOL    HW116625   5.693   0.165   5.123
 5242SOL    HW216626   5.852   0.197   5.134
 5243SOL     OW16627   1.409   6.180   1.038
 5243SOL    HW116628   1.440   6.087   1.056
 5243SOL    HW216629   1.441   6.240   1.112
 5244SOL     OW16630   4.335   4.211   5.877
 5244SOL    HW116631   4.368   4.190   5.785
 5244SOL    HW216632   4.368   4.301   5.905
 5245SOL     OW16633   4.287   4.112   6.499
 5245SOL    HW116634   4.215   4.058   6.542
 5245SOL    HW216635   4.250   4.200   6.468
 5246SOL     OW16636   6.661   4.070   2.241
 5246SOL    HW116637   6.743   4.025   2.279
 5246SOL    HW216638   6.602   4.099   2.316
 5247SOL     OW16639   1.092   6.719   0.127
 5247SOL    HW116640   1.061   6.695   0.035
 5247SOL    HW216641   1.033   6.676   0.194
 5248SOL     OW16642   5.242   6.910   5.698
 5248SOL    HW116643   5.261   6.853   5.777
 5248SOL    HW216644   5.156   6.880   5.655
 5249SOL     OW16645   0.301   5.506   5.026
 5249SOL    HW116646   0.360   5.576   4.985
 5249SOL    HW216647   0.357   5.433   5.064
 5250SOL     OW16648   0.325   1.301   6.071
 5250SOL    HW116649   0.272   1.278   5.989
 5250SOL    HW216650   0.414   1.256   6.066
 5251SOL     OW16651   0.313   2.975   1.112
 5251SOL    HW116652   0.342   2.971   1.208
 5251SOL    HW216653   0.359   2.903   1.060
 5252SOL     OW16654   2.188   5.525   1.118
 5252SOL    HW116655   2.255   5.488   1.182
 5252SOL    HW216656   2.220   5.614   1.084
 5253SOL     OW16657   5.660   3.934   4.600
 5253SOL    HW116658   5.582   3.889   4.644
 5253SOL    HW216659   5.639   4.030   4.585
 5254SOL     OW16660   5.225   1.446   3.391
 5254SOL    HW116661   5.178   1.500   3.460
 5254SOL    HW216662   5.168   1.368   3.365
 5255SOL     OW16663   3.861   0.417   4.671
 5255SOL    HW116664   3.884   0.515   4.670
 5255SOL    HW216665   3.779   0.402   4.616
 5256SOL     OW16666   5.096   0.775   3.157
 5256SOL    HW116667   5.160   0.837   3.113
 5256SOL    HW216668   5.011   0.823   3.178
 5257SOL     OW16669   4.719   0.002   2.189
 5257SOL    HW116670   4.737   6.952   2.123
 5257SOL    HW216671   4.640   0.056   2.159
 5258SOL     OW16672   5.098   4.806   1.508
 5258SOL    HW116673   5.013   4.793   1.458
 5258SOL    HW216674   5.133   4.718   1.539
 5259SOL     OW16675   4.636   6.367   1.366
 5259SOL    HW116676   4.601   6.314   1.288
 5259SOL    HW216677   4.696   6.439   1.333
 5260SOL     OW16678   5.041   3.367   0.804
 5260SOL    HW116679   5.081   3.455   0.777
 5260SOL    HW216680   5.100   3.293   0.772
 5261SOL     OW16681   1.133   2.559   5.452
 5261SOL    HW116682   1.141   2.497   5.530
 5261SOL    HW216683   1.036   2.578   5.435
 5262SOL     OW16684   2.355   0.005   2.845
 5262SOL    HW116685   2.330   0.071   2.917
 5262SOL    HW216686   2.454   7.017   2.843
 5263SOL     OW16687   0.966   0.242   6.449
 5263SOL    HW116688   0.885   0.184   6.460
 5263SOL    HW216689   0.949   0.331   6.491
 5264SOL     OW16690   6.381   1.180   1.730
 5264SOL    HW116691   6.386   1.278   1.708
 5264SOL    HW216692   6.367   1.169   1.828
 5265SOL     OW16693   5.093   4.218   2.321
 5265SOL    HW116694   5.142   4.234   2.235
 5265SOL    HW216695   5.157   4.222   2.397
 5266SOL     OW16696   2.407   6.431   1.384
 5266SOL    HW116697   2.319   6.424   1.337
 5266SOL    HW216698   2.401   6.386   1.473
 5267SOL     OW16699   4.530   4.684   5.599
 5267SOL    HW116700   4.486   4.735   5.673
 5267SOL    HW216701   4.503   4.588   5.604
 5268SOL     OW16702   6.330   5.259   5.531
 5268SOL    HW116703   6.351   5.282   5.436
 5268SOL    HW216704   6.315   5.343   5.583
 5269SOL     OW16705   2.193   6.431   4.043
 5269SOL    HW116706   2.172   6.433   4.141
 5269SOL    HW216707   2.272   6.490   4.025
 5270SOL     OW16708   4.755   2.134   1.927
 5270SOL    HW116709   4.771   2.199   1.853
 5270SOL    HW216710   4.658   2.106   1.927
 5271SOL     OW16711   4.451   5.224   4.165
 5271SOL    HW116712   4.536   5.172   4.153
 5271SOL    HW216713   4.380   5.163   4.200
 5272SOL     OW16714   0.906   6.104   3.579
 5272SOL    HW116715   0.982   6.080   3.640
 5272SOL    HW216716   0.849   6.174   3.623
 5273SOL     OW16717   1.013   3.006   3.773
 5273SOL    HW116718   1.008   2.995   3.872
 5273SOL    HW216719   1.070   3.085   3.750
 5274SOL     OW16720   6.276   5.162   3.021
 5274SOL    HW116721   6.267   5.216   2.937
 5274SOL    HW216722   6.334   5.083   3.003
 5275SOL     OW16723   3.193   1.043   6.116
 5275SOL    HW116724   3.093   1.040   6.116
 5275SOL    HW216725   3.229   0.955   6.085
 5276SOL     OW16726   0.278   5.958   0.560
 5276SOL    HW116727   0.330   6.018   0.499
 5276SOL    HW216728   0.257   6.008   0.644
 5277SOL     OW16729   1.816   2.190   2.968
 5277SOL    HW116730   1.731   2.244   2.961
 5277SOL    HW216731   1.883   2.226   2.904
 5278SOL     OW16732   5.500   7.001   5.637
 5278SOL    HW116733   5.527   6.947   5.558
 5278SOL    HW216734   5.408   6.974   5.667
 5279SOL     OW16735   0.995   6.579   6.262
 5279SOL    HW116736   1.004   6.508   6.192
 5279SOL    HW216737   0.991   6.536   6.352
 5280SOL     OW16738   3.481   6.066   5.253
 5280SOL    HW116739   3.557   6.010   5.220
 5280SOL    HW216740   3.402   6.007   5.272
 5281SOL     OW16741   1.056   1.818   3.900
 5281SOL    HW116742   1.054   1.898   3.840
 5281SOL    HW216743   0.996   1.747   3.863
 5282SOL     OW16744   1.988   0.316   2.463
 5282SOL    HW116745   1.921   0.246   2.436
 5282SOL    HW216746   2.044   0.280   2.538
 5283SOL     OW16747   1.348   0.995   3.053
 5283SOL    HW116748   1.343   1.065   3.125
 5283SOL    HW216749   1.277   0.926   3.069
 5284SOL     OW16750   4.669   2.647   3.203
 5284SOL    HW116751   4.664   2.554   3.240
 5284SOL    HW216752   4.693   2.711   3.276
 5285SOL     OW16753   1.142   3.517   4.139
 5285SOL    HW116754   1.181   3.425   4.137
 5285SOL    HW216755   1.051   3.513   4.181
 5286SOL     OW16756   6.254   3.187   1.175
 5286SOL    HW116757   6.274   3.091   1.154
 5286SOL    HW216758   6.208   3.230   1.097
 5287SOL     OW16759   3.004   5.340   1.330
 5287SOL    HW116760   2.954   5.268   1.379
 5287SOL    HW216761   3.000   5.425   1.381
 5288SOL     OW16762   4.364   0.507   2.938
 5288SOL    HW116763   4.327   0.488   3.029
 5288SOL    HW216764   4.315   0.584   2.897
 5289SOL     OW16765   2.380   5.174   6.209
 5289SOL    HW116766   2.375   5.074   6.214
 5289SOL    HW216767   2.471   5.201   6.179
 5290SOL     OW16768   1.476   3.615   5.416
 5290SOL    HW116769   1.517   3.599   5.326
 5290SOL    HW216770   1.491   3.535   5.474
 5291SOL     OW16771   2.898   4.548   5.896
 5291SOL    HW116772   2.835   4.483   5.855
 5291SOL    HW216773   2.990   4.508   5.902
 5292SOL     OW16774   5.768   4.650   6.117
 5292SOL    HW116775   5.827   4.731   6.110
 5292SOL    HW216776   5.673   4.679   6.126
 5293SOL     OW16777   1.782   6.938   5.388
 5293SOL    HW116778   1.804   6.933   5.291
 5293SOL    HW216779   1.704   6.879   5.408
 5294SOL     OW16780   4.768   1.999   4.993
 5294SOL    HW116781   4.690   1.995   4.931
 5294SOL    HW216782   4.750   1.942   5.073
 5295SOL     OW16783   3.680   0.768   3.115
 5295SOL    HW116784   3.655   0.813   3.029
 5295SOL    HW216785   3.689   0.836   3.187
 5296SOL     OW16786   3.378   4.166   6.959
 5296SOL    HW116787   3.393   4.254   7.004
 5296SOL    HW216788   3.285   4.163   6.922
 5297SOL     OW16789   1.482   3.641   0.106
 5297SOL    HW116790   1.502   3.624   0.202
 5297SOL    HW216791   1.408   3.580   0.076
 5298SOL     OW16792   1.662   6.409   6.637
 5298SOL    HW116793   1.566   6.417   6.661
 5298SOL    HW216794   1.689   6.484   6.577
 5299SOL     OW16795   2.942   2.673   0.355
 5299SOL    HW116796   3.020   2.630   0.311
 5299SOL    HW216797   2.928   2.634   0.446
 5300SOL     OW16798   0.326   5.873   1.432
 5300SOL    HW116799   0.261   5.845   1.361
 5300SOL    HW216800   0.395   5.801   1.445
 5301SOL     OW16801   4.153   1.776   6.243
 5301SOL    HW116802   4.121   1.754   6.151
 5301SOL    HW216803   4.244   1.737   6.258
 5302SOL     OW16804   5.824   6.090   3.295
 5302SOL    HW116805   5.778   6.164   3.246
 5302SOL    HW216806   5.795   6.002   3.256
 5303SOL     OW16807   6.960   5.207   5.075
 5303SOL    HW116808   6.985   5.135   5.141
 5303SOL    HW216809   0.020   5.244   5.033
 5304SOL     OW16810   6.008   0.747   0.344
 5304SOL    HW116811   5.946   0.760   0.267
 5304SOL    HW216812   5.954   0.728   0.427
 5305SOL     OW16813   0.882   5.256   2.581
 5305SOL    HW116814   0.946   5.297   2.516
 5305SOL    HW216815   0.932   5.227   2.663
 5306SOL     OW16816   0.816   4.775   5.691
 5306SOL    HW116817   0.852   4.717   5.618
 5306SOL    HW216818   0.826   4.871   5.666
 5307SOL     OW16819   3.780   1.788   0.192
 5307SOL    HW116820   3.806   1.832   0.106
 5307SOL    HW216821   3.687   1.751   0.184
 5308SOL     OW16822   1.230   4.267   2.581
 5308SOL    HW116823   1.180   4.247   2.496
 5308SOL    HW216824   1.217   4.363   2.606
 5309SOL     OW16825   3.902   4.787   1.912
 5309SOL    HW116826   3.803   4.775   1.924
 5309SOL    HW216827   3.937   4.846   1.985
 5310SOL     OW16828   5.969   3.375   1.875
 5310SOL    HW116829   5.938   3.291   1.830
 5310SOL    HW216830   5.905   3.449   1.855
 5311SOL     OW16831   6.063   6.521   0.271
 5311SOL    HW116832   5.975   6.477   0.288
 5311SOL    HW216833   6.050   6.600   0.211
 5312SOL     OW16834   1.057   5.492   1.844
 5312SOL    HW116835   1.129   5.493   1.913
 5312SOL    HW216836   1.015   5.402   1.839
 5313SOL     OW16837   1.188   2.821   6.298
 5313SOL    HW116838   1.288   2.826   6.298
 5313SOL    HW216839   1.159   2.726   6.310
 5314SOL     OW16840   4.203   6.541   0.109
 5314SOL    HW116841   4.202   6.639   0.124
 5314SOL    HW216842   4.284   6.501   0.152
 5315SOL     OW16843   5.161   3.500   1.946
 5315SOL    HW116844   5.161   3.599   1.933
 5315SOL    HW216845   5.087   3.474   2.008
 5316SOL     OW16846   0.826   3.441   5.364
 5316SOL    HW116847   0.849   3.356   5.317
 5316SOL    HW216848   0.741   3.478   5.326
 5317SOL     OW16849   5.857   1.998   5.347
 5317SOL    HW116850   5.905   1.929   5.402
 5317SOL    HW216851   5.893   2.089   5.369
 5318SOL     OW16852   0.682   2.454   0.673
 5318SOL    HW116853   0.746   2.386   0.636
 5318SOL    HW216854   0.697   2.463   0.771
 5319SOL     OW16855   4.151   6.024   0.528
 5319SOL    HW116856   4.216   6.071   0.589
 5319SOL    HW216857   4.066   6.077   0.523
 5320SOL     OW16858   4.182   4.925   0.912
 5320SOL    HW116859   4.194   5.020   0.937
 5320SOL    HW216860   4.157   4.919   0.815
 5321SOL     OW16861   2.186   4.611   4.384
 5321SOL    HW116862   2.111   4.547   4.365
 5321SOL    HW216863   2.193   4.626   4.483
 5322SOL     OW16864   5.390   5.968   0.296
 5322SOL    HW116865   5.361   6.050   0.246
 5322SOL    HW216866   5.390   5.987   0.394
 5323SOL     OW16867   3.841   1.795   5.778
 5323SOL    HW116868   3.814   1.831   5.689
 5323SOL    HW216869   3.827   1.696   5.779
 5324SOL     OW16870   3.552   2.425   0.947
 5324SOL    HW116871   3.480   2.407   0.880
 5324SOL    HW216872   3.636   2.451   0.899
 5325SOL     OW16873   3.915   0.480   4.257
 5325SOL    HW116874   3.985   0.410   4.271
 5325SOL    HW216875   3.897   0.491   4.160
 5326SOL     OW16876   6.745   5.145   3.304
 5326SOL    HW116877   6.757   5.205   3.383
 5326SOL    HW216878   6.670   5.179   3.247
 5327SOL     OW16879   5.982   2.965   5.606
 5327SOL    HW116880   5.925   3.042   5.580
 5327SOL    HW216881   5.923   2.887   5.630
 5328SOL     OW16882   3.845   3.856   5.765
 5328SOL    HW116883   3.801   3.851   5.855
 5328SOL    HW216884   3.850   3.764   5.726
 5329SOL     OW16885   0.605   4.395   6.607
 5329SOL    HW116886   0.533   4.364   6.545
 5329SOL    HW216887   0.685   4.335   6.598
 5330SOL     OW16888   4.734   3.720   0.289
 5330SOL    HW116889   4.715   3.814   0.261
 5330SOL    HW216890   4.653   3.663   0.270
 5331SOL     OW16891   6.172   1.563   6.511
 5331SOL    HW116892   6.101   1.565   6.582
 5331SOL    HW216893   6.242   1.496   6.536
 5332SOL     OW16894   0.689   3.121   1.184
 5332SOL    HW116895   0.655   3.215   1.191
 5332SOL    HW216896   0.780   3.121   1.142
 5333SOL     OW16897   0.825   0.805   2.942
 5333SOL    HW116898   0.820   0.855   2.855
 5333SOL    HW216899   0.785   0.860   3.015
 5334SOL     OW16900   3.368   6.987   4.152
 5334SOL    HW116901   3.274   6.976   4.186
 5334SOL    HW216902   3.418   6.901   4.163
 5335SOL     OW16903   0.048   6.009   0.906
 5335SOL    HW116904   0.105   6.066   0.846
 5335SOL    HW216905   0.057   5.913   0.879
 5336SOL     OW16906   1.802   3.489   3.074
 5336SOL    HW116907   1.723   3.506   3.015
 5336SOL    HW216908   1.840   3.575   3.106
 5337SOL     OW16909   4.972   4.396   1.337
 5337SOL    HW116910   4.888   4.417   1.388
 5337SOL    HW216911   4.953   4.325   1.269
 5338SOL     OW16912   5.681   1.601   0.439
 5338SOL    HW116913   5.734   1.538   0.496
 5338SOL    HW216914   5.710   1.694   0.457
 5339SOL     OW16915   6.981   1.771   4.216
 5339SOL    HW116916   0.057   1.780   4.196
 5339SOL    HW216917   6.930   1.769   4.130
 5340SOL     OW16918   4.546   4.273   1.148
 5340SOL    HW116919   4.569   4.240   1.239
 5340SOL    HW216920   4.579   4.208   1.080
 5341SOL     OW16921   3.469   2.679   6.462
 5341SOL    HW116922   3.372   2.670   6.441
 5341SOL    HW216923   3.486   2.765   6.510
 5342SOL     OW16924   4.049   0.020   4.082
 5342SOL    HW116925   4.136   0.068   4.071
 5342SOL    HW216926   3.977   0.086   4.100
 5343SOL     OW16927   3.562   4.080   4.738
 5343SOL    HW116928   3.580   4.000   4.794
 5343SOL    HW216929   3.595   4.064   4.645
 5344SOL     OW16930   2.230   3.000   2.559
 5344SOL    HW116931   2.249   2.942   2.638
 5344SOL    HW216932   2.227   2.944   2.476
 5345SOL     OW16933   4.003   5.999   1.332
 5345SOL    HW116934   4.016   5.910   1.376
 5345SOL    HW216935   3.959   5.986   1.243
 5346SOL     OW16936   3.354   6.049   3.929
 5346SOL    HW116937   3.402   6.111   3.866
 5346SOL    HW216938   3.376   6.075   4.023
 5347SOL     OW16939   0.579   2.478   2.381
 5347SOL    HW116940   0.602   2.408   2.449
 5347SOL    HW216941   0.656   2.491   2.319
 5348SOL     OW16942   0.138   1.982   0.849
 5348SOL    HW116943   0.185   2.042   0.914
 5348SOL    HW216944   0.202   1.911   0.818
 5349SOL     OW16945   1.225   2.650   0.207
 5349SOL    HW116946   1.298   2.718   0.216
 5349SOL    HW216947   1.240   2.596   0.125
 5350SOL     OW16948   1.612   0.685   5.382
 5350SOL    HW116949   1.666   0.738   5.447
 5350SOL    HW216950   1.597   0.592   5.417
 5351SOL     OW16951   6.309   5.868   1.823
 5351SOL    HW116952   6.238   5.822   1.877
 5351SOL    HW216953   6.386   5.806   1.808
 5352SOL     OW16954   1.878   5.827   3.644
 5352SOL    HW116955   1.883   5.855   3.740
 5352SOL    HW216956   1.953   5.868   3.593
 5353SOL     OW16957   3.878   5.197   3.866
 5353SOL    HW116958   3.954   5.258   3.886
 5353SOL    HW216959   3.810   5.245   3.811
 5354SOL     OW16960   2.321   5.281   1.698
 5354SOL    HW116961   2.334   5.380   1.694
 5354SOL    HW216962   2.312   5.252   1.793
 5355SOL     OW16963   5.078   3.261   3.760
 5355SOL    HW116964   5.171   3.272   3.723
 5355SOL    HW216965   5.022   3.339   3.733
 5356SOL     OW16966   6.076   4.494   1.757
 5356SOL    HW116967   6.090   4.463   1.663
 5356SOL    HW216968   5.978   4.501   1.776
 5357SOL     OW16969   3.997   6.356   0.000
 5357SOL    HW116970   4.006   6.279   0.062
 5357SOL    HW216971   4.063   6.427   0.026
 5358SOL     OW16972   4.588   1.424   0.251
 5358SOL    HW116973   4.577   1.523   0.262
 5358SOL    HW216974   4.543   1.395   0.167
 5359SOL     OW16975   1.728   1.734   6.967
 5359SOL    HW116976   1.754   1.814   7.021
 5359SOL    HW216977   1.709   1.762   6.873
 5360SOL     OW16978   4.577   6.428   5.618
 5360SOL    HW116979   4.532   6.512   5.650
 5360SOL    HW216980   4.565   6.356   5.686
 5361SOL     OW16981   2.018   0.138   4.966
 5361SOL    HW116982   1.977   0.197   5.036
 5361SOL    HW216983   2.047   0.193   4.888
 5362SOL     OW16984   5.586   5.249   3.483
 5362SOL    HW116985   5.658   5.306   3.444
 5362SOL    HW216986   5.498   5.295   3.472
 5363SOL     OW16987   0.467   0.088   6.361
 5363SOL    HW116988   0.481   0.086   6.262
 5363SOL    HW216989   0.404   0.015   6.388
 5364SOL     OW16990   6.864   5.871   1.875
 5364SOL    HW116991   6.821   5.801   1.932
 5364SOL    HW216992   6.830   5.961   1.902
 5365SOL     OW16993   3.672   3.290   6.765
 5365SOL    HW116994   3.661   3.213   6.703
 5365SOL    HW216995   3.721   3.260   6.847
 5366SOL     OW16996   5.007   5.809   1.714
 5366SOL    HW116997   5.076   5.859   1.661
 5366SOL    HW216998   4.994   5.853   1.803
 5367SOL     OW16999   0.653   5.676   0.798
 5367SOL    HW117000   0.598   5.710   0.722
 5367SOL    HW217001   0.694   5.753   0.847
 5368SOL     OW17002   5.430   0.180   2.673
 5368SOL    HW117003   5.526   0.155   2.675
 5368SOL    HW217004   5.421   0.279   2.684
 5369SOL     OW17005   3.227   6.994   2.142
 5369SOL    HW117006   3.320   6.975   2.109
 5369SOL    HW217007   3.168   6.917   2.122
 5370SOL     OW17008   4.358   2.826   1.261
 5370SOL    HW117009   4.275   2.810   1.313
 5370SOL    HW217010   4.349   2.911   1.209
 5371SOL     OW17011   1.695   4.124   4.428
 5371SOL    HW117012   1.649   4.036   4.423
 5371SOL    HW217013   1.723   4.153   4.336
 5372SOL     OW17014   2.098   5.970   3.775
 5372SOL    HW117015   2.166   5.897   3.767
 5372SOL    HW217016   2.053   5.964   3.864
 5373SOL     OW17017   3.826   5.979   3.836
 5373SOL    HW117018   3.918   5.969   3.876
 5373SOL    HW217019   3.824   5.935   3.746
 5374SOL     OW17020   0.991   4.161   0.101
 5374SOL    HW117021   0.990   4.090   0.171
 5374SOL    HW217022   0.901   4.204   0.095
 5375SOL     OW17023   1.894   4.977   4.550
 5375SOL    HW117024   1.863   4.908   4.616
 5375SOL    HW217025   1.958   4.935   4.486
 5376SOL     OW17026   2.059   3.091   0.448
 5376SOL    HW117027   2.085   3.048   0.534
 5376SOL    HW217028   2.126   3.067   0.377
 5377SOL     OW17029   0.459   0.377   1.997
 5377SOL    HW117030   0.532   0.446   1.993
 5377SOL    HW217031   0.492   0.297   2.046
 5378SOL     OW17032   0.290   0.482   2.263
 5378SOL    HW117033   0.354   0.430   2.205
 5378SOL    HW217034   0.334   0.505   2.349
 5379SOL     OW17035   1.874   5.621   5.080
 5379SOL    HW117036   1.819   5.539   5.095
 5379SOL    HW217037   1.840   5.670   4.999
 5380SOL     OW17038   1.918   1.863   3.725
 5380SOL    HW117039   2.012   1.897   3.728
 5380SOL    HW217040   1.894   1.840   3.631
 5381SOL     OW17041   6.441   3.970   0.963
 5381SOL    HW117042   6.359   4.004   0.917
 5381SOL    HW217043   6.448   3.871   0.950
 5382SOL     OW17044   3.063   0.296   2.543
 5382SOL    HW117045   3.076   0.353   2.624
 5382SOL    HW217046   3.136   0.314   2.477
 5383SOL     OW17047   2.572   2.439   5.520
 5383SOL    HW117048   2.640   2.446   5.447
 5383SOL    HW217049   2.535   2.346   5.522
 5384SOL     OW17050   6.137   0.283   4.257
 5384SOL    HW117051   6.206   0.225   4.300
 5384SOL    HW217052   6.050   0.275   4.307
 5385SOL     OW17053   3.268   3.117   4.143
 5385SOL    HW117054   3.255   3.071   4.231
 5385SOL    HW217055   3.271   3.216   4.157
 5386SOL     OW17056   4.699   0.235   4.602
 5386SOL    HW117057   4.796   0.250   4.617
 5386SOL    HW217058   4.650   0.246   4.689
 5387SOL     OW17059   3.221   6.538   3.705
 5387SOL    HW117060   3.212   6.637   3.698
 5387SOL    HW217061   3.132   6.498   3.727
 5388SOL     OW17062   6.424   0.085   3.691
 5388SOL    HW117063   6.367   0.121   3.617
 5388SOL    HW217064   6.456   7.015   3.667
 5389SOL     OW17065   4.795   0.884   1.804
 5389SOL    HW117066   4.817   0.800   1.754
 5389SOL    HW217067   4.724   0.864   1.872
 5390SOL     OW17068   4.850   3.951   3.208
 5390SOL    HW117069   4.933   3.945   3.151
 5390SOL    HW217070   4.798   4.032   3.181
 5391SOL     OW17071   1.683   2.414   1.422
 5391SOL    HW117072   1.718   2.321   1.422
 5391SOL    HW217073   1.629   2.430   1.339
 5392SOL     OW17074   5.767   3.205   1.278
 5392SOL    HW117075   5.678   3.249   1.286
 5392SOL    HW217076   5.828   3.239   1.350
 5393SOL     OW17077   5.362   0.100   6.554
 5393SOL    HW117078   5.431   0.127   6.487
 5393SOL    HW217079   5.385   0.011   6.593
 5394SOL     OW17080   6.994   4.217   0.088
 5394SOL    HW117081   7.022   4.140   0.146
 5394SOL    HW217082   6.905   4.251   0.119
 5395SOL     OW17083   4.872   1.140   1.809
 5395SOL    HW117084   4.873   1.142   1.909
 5395SOL    HW217085   4.844   1.049   1.778
 5396SOL     OW17086   4.832   4.448   2.768
 5396SOL    HW117087   4.887   4.367   2.747
 5396SOL    HW217088   4.781   4.475   2.686
 5397SOL     OW17089   6.997   3.119   1.752
 5397SOL    HW117090   0.005   3.161   1.837
 5397SOL    HW217091   0.054   3.085   1.701
 5398SOL     OW17092   3.452   1.892   2.673
 5398SOL    HW117093   3.513   1.906   2.596
 5398SOL    HW217094   3.358   1.883   2.640
 5399SOL     OW17095   2.496   5.541   6.865
 5399SOL    HW117096   2.506   5.499   6.774
 5399SOL    HW217097   2.522   5.474   6.935
 5400SOL     OW17098   2.633   3.976   0.906
 5400SOL    HW117099   2.534   3.962   0.910
 5400SOL    HW217100   2.662   3.989   0.812
 5401SOL     OW17101   5.593   3.605   1.981
 5401SOL    HW117102   5.544   3.688   2.004
 5401SOL    HW217103   5.576   3.535   2.050
 5402SOL     OW17104   1.985   4.457   1.999
 5402SOL    HW117105   2.076   4.415   2.008
 5402SOL    HW217106   1.976   4.531   2.066
 5403SOL     OW17107   6.415   2.465   6.510
 5403SOL    HW117108   6.374   2.381   6.544
 5403SOL    HW217109   6.394   2.475   6.412
 5404SOL     OW17110   0.792   1.382   2.822
 5404SOL    HW117111   0.827   1.474   2.808
 5404SOL    HW217112   0.726   1.383   2.897
 5405SOL     OW17113   5.686   6.037   6.805
 5405SOL    HW117114   5.697   6.051   6.707
 5405SOL    HW217115   5.636   5.952   6.821
 5406SOL     OW17116   2.629   0.585   6.939
 5406SOL    HW117117   2.594   0.551   6.852
 5406SOL    HW217118   2.558   0.577   7.009
 5407SOL     OW17119   4.039   3.005   1.050
 5407SOL    HW117120   3.987   2.920   1.053
 5407SOL    HW217121   4.137   2.985   1.051
 5408SOL     OW17122   3.226   1.130   6.379
 5408SOL    HW117123   3.190   1.223   6.380
 5408SOL    HW217124   3.210   1.089   6.290
 5409SOL     OW17125   5.864   0.998   4.015
 5409SOL    HW117126   5.856   1.028   4.110
 5409SOL    HW217127   5.779   1.018   3.967
 5410SOL     OW17128   2.342   2.775   1.538
 5410SOL    HW117129   2.415   2.778   1.606
 5410SOL    HW217130   2.275   2.706   1.564
 5411SOL     OW17131   6.110   5.289   5.726
 5411SOL    HW117132   6.149   5.381   5.725
 5411SOL    HW217133   6.128   5.244   5.639
 5412SOL     OW17134   3.995   1.099   6.593
 5412SOL    HW117135   3.965   1.187   6.629
 5412SOL    HW217136   4.067   1.113   6.525
 5413SOL     OW17137   1.988   1.433   1.263
 5413SOL    HW117138   1.969   1.389   1.351
 5413SOL    HW217139   2.061   1.501   1.275
 5414SOL     OW17140   5.517   2.567   5.046
 5414SOL    HW117141   5.593   2.600   5.103
 5414SOL    HW217142   5.489   2.476   5.077
 5415SOL     OW17143   1.524   5.956   1.154
 5415SOL    HW117144   1.615   5.924   1.125
 5415SOL    HW217145   1.464   5.878   1.167
 5416SOL     OW17146   4.725   4.734   6.136
 5416SOL    HW117147   4.747   4.724   6.233
 5416SOL    HW217148   4.625   4.731   6.124
 5417SOL     OW17149   4.084   6.682   5.468
 5417SOL    HW117150   4.108   6.586   5.483
 5417SOL    HW217151   3.993   6.687   5.425
 5418SOL     OW17152   3.922   6.647   3.944
 5418SOL    HW117153   3.910   6.548   3.941
 5418SOL    HW217154   3.921   6.677   4.040
 5419SOL     OW17155   3.039   4.984   0.286
 5419SOL    HW117156   3.073   4.891   0.273
 5419SOL    HW217157   2.969   5.004   0.218
 5420SOL     OW17158   1.221   2.330   2.269
 5420SOL    HW117159   1.193   2.245   2.225
 5420SOL    HW217160   1.303   2.366   2.223
 5421SOL     OW17161   2.076   3.191   2.941
 5421SOL    HW117162   2.093   3.266   3.004
 5421SOL    HW217163   2.034   3.115   2.990
 5422SOL     OW17164   0.856   5.546   0.102
 5422SOL    HW117165   0.902   5.626   0.064
 5422SOL    HW217166   0.766   5.573   0.136
 5423SOL     OW17167   5.791   2.628   0.249
 5423SOL    HW117168   5.726   2.639   0.174
 5423SOL    HW217169   5.766   2.548   0.304
 5424SOL     OW17170   5.042   2.921   4.347
 5424SOL    HW117171   5.089   2.860   4.283
 5424SOL    HW217172   4.947   2.933   4.318
 5425SOL     OW17173   4.120   1.527   4.119
 5425SOL    HW117174   4.129   1.525   4.019
 5425SOL    HW217175   4.103   1.435   4.153
 5426SOL     OW17176   5.930   5.146   4.094
 5426SOL    HW117177   5.877   5.120   4.174
 5426SOL    HW217178   6.025   5.117   4.107
 5427SOL     OW17179   4.693   4.856   0.492
 5427SOL    HW117180   4.669   4.888   0.584
 5427SOL    HW217181   4.788   4.878   0.473
 5428SOL     OW17182   0.195   0.391   1.883
 5428SOL    HW117183   0.187   0.437   1.795
 5428SOL    HW217184   0.291   0.376   1.905
 5429SOL     OW17185   1.334   2.009   6.078
 5429SOL    HW117186   1.308   1.971   6.166
 5429SOL    HW217187   1.367   1.935   6.018
 5430SOL     OW17188   0.545   3.525   6.082
 5430SOL    HW117189   0.645   3.521   6.082
 5430SOL    HW217190   0.509   3.472   6.004
 5431SOL     OW17191   3.640   5.691   0.390
 5431SOL    HW117192   3.671   5.663   0.299
 5431SOL    HW217193   3.544   5.664   0.402
 5432SOL     OW17194   4.894   6.300   6.761
 5432SOL    HW117195   4.816   6.326   6.703
 5432SOL    HW217196   4.913   6.374   6.825
 5433SOL     OW17197   0.489   1.750   3.716
 5433SOL    HW117198   0.450   1.679   3.657
 5433SOL    HW217199   0.554   1.708   3.779
 5434SOL     OW17200   3.953   1.188   4.833
 5434SOL    HW117201   3.997   1.107   4.872
 5434SOL    HW217202   3.976   1.268   4.888
 5435SOL     OW17203   5.123   0.819   1.803
 5435SOL    HW117204   5.172   0.777   1.880
 5435SOL    HW217205   5.044   0.870   1.838
 5436SOL     OW17206   5.168   3.746   3.815
 5436SOL    HW117207   5.241   3.684   3.845
 5436SOL    HW217208   5.209   3.828   3.775
 5437SOL     OW17209   3.177   4.719   6.246
 5437SOL    HW117210   3.217   4.646   6.302
 5437SOL    HW217211   3.209   4.710   6.152
 5438SOL     OW17212   6.376   3.763   2.500
 5438SOL    HW117213   6.454   3.701   2.495
 5438SOL    HW217214   6.402   3.846   2.550
 5439SOL     OW17215   1.255   2.767   1.254
 5439SOL    HW117216   1.278   2.724   1.341
 5439SOL    HW217217   1.199   2.848   1.271
 5440SOL     OW17218   0.802   1.377   2.042
 5440SOL    HW117219   0.849   1.311   2.100
 5440SOL    HW217220   0.738   1.329   1.981
 5441SOL     OW17221   4.970   2.211   2.751
 5441SOL    HW117222   4.943   2.245   2.661
 5441SOL    HW217223   5.052   2.260   2.782
 5442SOL     OW17224   3.718   5.884   3.577
 5442SOL    HW117225   3.649   5.811   3.573
 5442SOL    HW217226   3.677   5.969   3.544
 5443SOL     OW17227   2.540   0.576   3.980
 5443SOL    HW117228   2.553   0.584   4.079
 5443SOL    HW217229   2.552   0.666   3.937
 5444SOL     OW17230   1.683   0.587   4.290
 5444SOL    HW117231   1.616   0.513   4.303
 5444SOL    HW217232   1.732   0.572   4.204
 5445SOL     OW17233   5.996   3.809   3.796
 5445SOL    HW117234   6.061   3.829   3.869
 5445SOL    HW217235   5.918   3.760   3.835
 5446SOL     OW17236   6.376   5.066   5.156
 5446SOL    HW117237   6.372   4.973   5.195
 5446SOL    HW217238   6.453   5.071   5.092
 5447SOL     OW17239   2.369   1.846   6.463
 5447SOL    HW117240   2.290   1.786   6.449
 5447SOL    HW217241   2.420   1.853   6.377
 5448SOL     OW17242   4.807   2.982   4.767
 5448SOL    HW117243   4.709   2.963   4.757
 5448SOL    HW217244   4.859   2.900   4.745
 5449SOL     OW17245   1.728   2.332   6.641
 5449SOL    HW117246   1.767   2.411   6.688
 5449SOL    HW217247   1.649   2.361   6.587
 5450SOL     OW17248   1.458   0.542   2.186
 5450SOL    HW117249   1.547   0.502   2.165
 5450SOL    HW217250   1.387   0.472   2.176
 5451SOL     OW17251   1.000   6.157   3.083
 5451SOL    HW117252   1.038   6.139   3.174
 5451SOL    HW217253   1.070   6.139   3.014
 5452SOL     OW17254   2.531   4.249   6.632
 5452SOL    HW117255   2.569   4.341   6.639
 5452SOL    HW217256   2.449   4.243   6.689
 5453SOL     OW17257   5.371   4.663   1.637
 5453SOL    HW117258   5.364   4.667   1.537
 5453SOL    HW217259   5.455   4.708   1.667
 5454SOL     OW17260   6.904   3.871   6.686
 5454SOL    HW117261   6.970   3.927   6.737
 5454SOL    HW217262   6.864   3.803   6.747
 5455SOL     OW17263   6.319   2.918   0.663
 5455SOL    HW117264   6.253   2.937   0.590
 5455SOL    HW217265   6.371   3.001   0.684
 5456SOL     OW17266   3.052   0.408   6.740
 5456SOL    HW117267   3.129   0.471   6.749
 5456SOL    HW217268   3.046   0.351   6.822
 5457SOL     OW17269   6.499   2.280   6.820
 5457SOL    HW117270   6.566   2.338   6.774
 5457SOL    HW217271   6.412   2.329   6.830
 5458SOL     OW17272   0.490   4.415   0.103
 5458SOL    HW117273   0.393   4.406   0.125
 5458SOL    HW217274   0.501   4.481   0.029
 5459SOL     OW17275   2.302   3.904   6.623
 5459SOL    HW117276   2.239   3.843   6.575
 5459SOL    HW217277   2.333   3.976   6.561
 5460SOL     OW17278   3.626   0.524   3.208
 5460SOL    HW117279   3.551   0.472   3.168
 5460SOL    HW217280   3.644   0.605   3.152
 5461SOL     OW17281   5.907   6.761   5.422
 5461SOL    HW117282   5.829   6.749   5.360
 5461SOL    HW217283   5.908   6.854   5.457
 5462SOL     OW17284   1.001   0.104   6.763
 5462SOL    HW117285   0.911   0.083   6.723
 5462SOL    HW217286   1.020   0.201   6.753
 5463SOL     OW17287   6.727   2.231   0.303
 5463SOL    HW117288   6.727   2.317   0.251
 5463SOL    HW217289   6.659   2.236   0.375
 5464SOL     OW17290   1.062   1.093   3.892
 5464SOL    HW117291   1.072   1.182   3.848
 5464SOL    HW217292   1.010   1.103   3.977
 5465SOL     OW17293   3.690   6.027   3.262
 5465SOL    HW117294   3.631   6.029   3.181
 5465SOL    HW217295   3.786   6.033   3.234
 5466SOL     OW17296   5.528   3.643   5.337
 5466SOL    HW117297   5.619   3.682   5.347
 5466SOL    HW217298   5.463   3.714   5.309
 5467SOL     OW17299   5.125   2.725   2.916
 5467SOL    HW117300   5.101   2.805   2.862
 5467SOL    HW217301   5.074   2.726   3.002
 5468SOL     OW17302   5.521   2.316   4.871
 5468SOL    HW117303   5.480   2.329   4.780
 5468SOL    HW217304   5.557   2.404   4.904
 5469SOL     OW17305   4.075   5.596   6.446
 5469SOL    HW117306   4.008   5.583   6.519
 5469SOL    HW217307   4.107   5.507   6.413
 5470SOL     OW17308   3.511   6.135   2.606
 5470SOL    HW117309   3.458   6.207   2.560
 5470SOL    HW217310   3.525   6.059   2.543
 5471SOL     OW17311   4.911   0.051   2.564
 5471SOL    HW117312   4.981   0.104   2.612
 5471SOL    HW217313   4.954   7.022   2.489
 5472SOL     OW17314   4.141   3.784   5.829
 5472SOL    HW117315   4.047   3.764   5.801
 5472SOL    HW217316   4.142   3.816   5.923
 5473SOL     OW17317   0.216   3.270   3.073
 5473SOL    HW117318   0.264   3.347   3.030
 5473SOL    HW217319   0.229   3.188   3.018
 5474SOL     OW17320   1.760   4.636   4.307
 5474SOL    HW117321   1.829   4.680   4.249
 5474SOL    HW217322   1.729   4.551   4.264
 5475SOL     OW17323   2.218   3.017   1.637
 5475SOL    HW117324   2.259   3.071   1.711
 5475SOL    HW217325   2.274   2.936   1.620
 5476SOL     OW17326   1.829   4.322   5.665
 5476SOL    HW117327   1.911   4.365   5.702
 5476SOL    HW217328   1.825   4.336   5.566
 5477SOL     OW17329   2.208   4.682   3.445
 5477SOL    HW117330   2.126   4.657   3.395
 5477SOL    HW217331   2.277   4.610   3.435
 5478SOL     OW17332   4.030   5.461   4.866
 5478SOL    HW117333   3.945   5.446   4.817
 5478SOL    HW217334   4.100   5.496   4.803
 5479SOL     OW17335   5.102   1.184   6.121
 5479SOL    HW117336   5.187   1.138   6.149
 5479SOL    HW217337   5.065   1.234   6.199
 5480SOL     OW17338   6.827   4.323   3.210
 5480SOL    HW117339   6.897   4.352   3.275
 5480SOL    HW217340   6.866   4.256   3.147
 5481SOL     OW17341   4.400   1.615   4.369
 5481SOL    HW117342   4.309   1.575   4.356
 5481SOL    HW217343   4.439   1.582   4.455
 5482SOL     OW17344   3.478   4.999   1.244
 5482SOL    HW117345   3.486   5.063   1.167
 5482SOL    HW217346   3.401   5.027   1.302
 5483SOL     OW17347   0.000   1.845   5.638
 5483SOL    HW117348   7.012   1.933   5.591
 5483SOL    HW217349   0.013   1.773   5.570
 5484SOL     OW17350   4.150   1.315   4.669
 5484SOL    HW117351   4.088   1.259   4.723
 5484SOL    HW217352   4.203   1.375   4.730
 5485SOL     OW17353   4.229   0.267   5.632
 5485SOL    HW117354   4.203   0.364   5.631
 5485SOL    HW217355   4.268   0.243   5.543
 5486SOL     OW17356   2.758   5.770   5.382
 5486SOL    HW117357   2.848   5.742   5.351
 5486SOL    HW217358   2.690   5.704   5.350
 5487SOL     OW17359   4.213   3.349   6.632
 5487SOL    HW117360   4.137   3.389   6.581
 5487SOL    HW217361   4.243   3.412   6.704
 5488SOL     OW17362   6.206   0.632   1.511
 5488SOL    HW117363   6.277   0.572   1.474
 5488SOL    HW217364   6.206   0.718   1.460
 5489SOL     OW17365   0.203   3.717   1.406
 5489SOL    HW117366   0.202   3.706   1.506
 5489SOL    HW217367   0.209   3.814   1.384
 5490SOL     OW17368   2.267   0.428   2.380
 5490SOL    HW117369   2.290   0.382   2.295
 5490SOL    HW217370   2.228   0.363   2.444
 5491SOL     OW17371   0.540   2.927   0.053
 5491SOL    HW117372   0.457   2.917   7.019
 5491SOL    HW217373   0.528   2.876   0.138
 5492SOL     OW17374   0.534   3.034   6.083
 5492SOL    HW117375   0.472   3.053   6.160
 5492SOL    HW217376   0.620   3.082   6.097
 5493SOL     OW17377   4.147   3.518   3.204
 5493SOL    HW117378   4.128   3.571   3.121
 5493SOL    HW217379   4.081   3.544   3.275
 5494SOL     OW17380   6.804   3.595   5.266
 5494SOL    HW117381   6.827   3.634   5.176
 5494SOL    HW217382   6.758   3.507   5.253
 5495SOL     OW17383   5.646   0.651   1.371
 5495SOL    HW117384   5.555   0.659   1.332
 5495SOL    HW217385   5.709   0.712   1.323
 5496SOL     OW17386   4.420   1.060   3.839
 5496SOL    HW117387   4.449   0.964   3.837
 5496SOL    HW217388   4.500   1.119   3.822
 5497SOL     OW17389   0.682   1.363   5.468
 5497SOL    HW117390   0.659   1.459   5.477
 5497SOL    HW217391   0.688   1.339   5.371
 5498SOL     OW17392   6.925   4.848   2.125
 5498SOL    HW117393   6.837   4.892   2.105
 5498SOL    HW217394   6.945   4.781   2.053
 5499SOL     OW17395   0.872   0.524   3.811
 5499SOL    HW117396   0.851   0.426   3.811
 5499SOL    HW217397   0.873   0.558   3.717
 5500SOL     OW17398   0.877   0.838   6.764
 5500SOL    HW117399   0.875   0.757   6.823
 5500SOL    HW217400   0.972   0.861   6.742
 5501SOL     OW17401   3.955   1.946   0.805
 5501SOL    HW117402   4.039   1.988   0.772
 5501SOL    HW217403   3.967   1.915   0.899
 5502SOL     OW17404   5.664   3.345   6.390
 5502SOL    HW117405   5.639   3.248   6.384
 5502SOL    HW217406   5.593   3.400   6.344
 5503SOL     OW17407   0.321   4.245   0.959
 5503SOL    HW117408   0.293   4.157   0.997
 5503SOL    HW217409   0.287   4.253   0.865
 5504SOL     OW17410   4.730   1.365   4.982
 5504SOL    HW117411   4.789   1.446   4.985
 5504SOL    HW217412   4.781   1.286   5.014
 5505SOL     OW17413   2.160   5.084   3.288
 5505SOL    HW117414   2.172   5.183   3.296
 5505SOL    HW217415   2.132   5.047   3.377
 5506SOL     OW17416   0.166   3.466   0.285
 5506SOL    HW117417   0.107   3.404   0.336
 5506SOL    HW217418   0.246   3.489   0.341
 5507SOL     OW17419   3.341   0.995   4.764
 5507SOL    HW117420   3.404   1.024   4.836
 5507SOL    HW217421   3.346   1.060   4.688
 5508SOL     OW17422   1.123   0.646   0.252
 5508SOL    HW117423   1.186   0.569   0.250
 5508SOL    HW217424   1.151   0.711   0.323
 5509SOL     OW17425   0.672   5.748   0.392
 5509SOL    HW117426   0.628   5.699   0.317
 5509SOL    HW217427   0.614   5.743   0.473
 5510SOL     OW17428   4.350   5.122   6.666
 5510SOL    HW117429   4.311   5.199   6.616
 5510SOL    HW217430   4.332   5.132   6.763
 5511SOL     OW17431   1.183   0.793   5.365
 5511SOL    HW117432   1.205   0.742   5.282
 5511SOL    HW217433   1.107   0.749   5.412
 5512SOL     OW17434   3.493   1.296   0.787
 5512SOL    HW117435   3.528   1.370   0.729
 5512SOL    HW217436   3.401   1.319   0.818
 5513SOL     OW17437   3.413   5.431   5.736
 5513SOL    HW117438   3.418   5.335   5.766
 5513SOL    HW217439   3.346   5.480   5.791
 5514SOL     OW17440   3.110   0.358   5.107
 5514SOL    HW117441   3.128   0.433   5.043
 5514SOL    HW217442   3.185   0.292   5.104
 5515SOL     OW17443   1.979   5.793   2.075
 5515SOL    HW117444   1.894   5.816   2.122
 5515SOL    HW217445   1.974   5.823   1.980
 5516SOL     OW17446   2.283   2.786   4.921
 5516SOL    HW117447   2.312   2.875   4.958
 5516SOL    HW217448   2.309   2.781   4.824
 5517SOL     OW17449   2.081   3.683   1.835
 5517SOL    HW117450   2.093   3.768   1.887
 5517SOL    HW217451   2.104   3.605   1.892
 5518SOL     OW17452   6.400   4.693   5.956
 5518SOL    HW117453   6.350   4.764   5.906
 5518SOL    HW217454   6.497   4.698   5.935
 5519SOL     OW17455   5.588   2.917   3.598
 5519SOL    HW117456   5.539   3.002   3.615
 5519SOL    HW217457   5.522   2.842   3.586
 5520SOL     OW17458   5.385   6.515   2.354
 5520SOL    HW117459   5.321   6.576   2.400
 5520SOL    HW217460   5.465   6.567   2.324
 5521SOL     OW17461   5.891   5.858   1.686
 5521SOL    HW117462   5.966   5.896   1.632
 5521SOL    HW217463   5.897   5.892   1.780
 5522SOL     OW17464   6.384   5.317   1.569
 5522SOL    HW117465   6.420   5.265   1.492
 5522SOL    HW217466   6.316   5.383   1.536
 5523SOL     OW17467   4.920   1.098   2.101
 5523SOL    HW117468   4.922   1.002   2.131
 5523SOL    HW217469   5.014   1.132   2.097
 5524SOL     OW17470   3.110   0.061   4.764
 5524SOL    HW117471   3.027   0.035   4.813
 5524SOL    HW217472   3.149   0.144   4.804
 5525SOL     OW17473   0.797   2.565   0.414
 5525SOL    HW117474   0.791   2.572   0.513
 5525SOL    HW217475   0.892   2.550   0.387
 5526SOL     OW17476   4.753   4.181   2.986
 5526SOL    HW117477   4.768   4.274   2.953
 5526SOL    HW217478   4.705   4.128   2.916
 5527SOL     OW17479   5.028   4.120   3.078
 5527SOL    HW117480   4.950   4.131   3.017
 5527SOL    HW217481   5.081   4.040   3.050
 5528SOL     OW17482   1.745   1.029   1.241
 5528SOL    HW117483   1.733   1.127   1.259
 5528SOL    HW217484   1.792   0.986   1.318
 5529SOL     OW17485   2.965   6.635   4.020
 5529SOL    HW117486   3.060   6.667   4.029
 5529SOL    HW217487   2.946   6.616   3.924
 5530SOL     OW17488   6.182   2.136   1.381
 5530SOL    HW117489   6.225   2.081   1.452
 5530SOL    HW217490   6.252   2.182   1.327
 5531SOL     OW17491   3.743   3.558   1.468
 5531SOL    HW117492   3.672   3.493   1.442
 5531SOL    HW217493   3.711   3.614   1.544
 5532SOL     OW17494   2.092   2.961   0.788
 5532SOL    HW117495   2.051   2.949   0.878
 5532SOL    HW217496   2.061   2.889   0.727
 5533SOL     OW17497   4.867   1.631   3.681
 5533SOL    HW117498   4.799   1.704   3.690
 5533SOL    HW217499   4.821   1.542   3.691
 5534SOL     OW17500   1.168   0.806   6.512
 5534SOL    HW117501   1.171   0.843   6.604
 5534SOL    HW217502   1.188   0.879   6.446
 5535SOL     OW17503   1.118   1.225   2.451
 5535SOL    HW117504   1.071   1.191   2.532
 5535SOL    HW217505   1.210   1.185   2.447
 5536SOL     OW17506   3.954   0.712   4.427
 5536SOL    HW117507   3.915   0.683   4.515
 5536SOL    HW217508   3.961   0.632   4.367
 5537SOL     OW17509   3.648   1.645   2.521
 5537SOL    HW117510   3.744   1.643   2.493
 5537SOL    HW217511   3.590   1.626   2.442
 5538SOL     OW17512   3.879   6.437   4.769
 5538SOL    HW117513   3.841   6.410   4.857
 5538SOL    HW217514   3.863   6.364   4.702
 5539SOL     OW17515   1.708   3.545   1.553
 5539SOL    HW117516   1.625   3.507   1.593
 5539SOL    HW217517   1.700   3.548   1.454
 5540SOL     OW17518   4.678   4.906   3.629
 5540SOL    HW117519   4.660   5.001   3.654
 5540SOL    HW217520   4.759   4.874   3.679
 5541SOL     OW17521   5.048   0.592   6.389
 5541SOL    HW117522   5.032   0.671   6.448
 5541SOL    HW217523   5.085   0.624   6.301
 5542SOL     OW17524   4.358   3.266   6.199
 5542SOL    HW117525   4.414   3.243   6.120
 5542SOL    HW217526   4.416   3.278   6.280
 5543SOL     OW17527   5.870   3.766   6.813
 5543SOL    HW117528   5.791   3.824   6.794
 5543SOL    HW217529   5.855   3.675   6.774
 5544SOL     OW17530   5.548   0.162   6.357
 5544SOL    HW117531   5.568   0.249   6.312
 5544SOL    HW217532   5.547   0.089   6.289
 5545SOL     OW17533   4.129   1.847   2.987
 5545SOL    HW117534   4.170   1.935   3.010
 5545SOL    HW217535   4.161   1.777   3.051
 5546SOL     OW17536   1.158   5.557   5.664
 5546SOL    HW117537   1.062   5.545   5.641
 5546SOL    HW217538   1.208   5.473   5.643
 5547SOL     OW17539   3.064   5.901   4.730
 5547SOL    HW117540   3.157   5.867   4.741
 5547SOL    HW217541   3.024   5.866   4.645
 5548SOL     OW17542   6.135   3.575   5.797
 5548SOL    HW117543   6.235   3.575   5.798
 5548SOL    HW217544   6.102   3.666   5.824
 5549SOL     OW17545   3.501   4.647   0.016
 5549SOL    HW117546   3.448   4.728   7.013
 5549SOL    HW217547   3.598   4.670   0.021
 5550SOL     OW17548   2.555   5.714   1.897
 5550SOL    HW117549   2.550   5.810   1.922
 5550SOL    HW217550   2.605   5.663   1.967
 5551SOL     OW17551   1.448   0.545   2.903
 5551SOL    HW117552   1.522   0.589   2.851
 5551SOL    HW217553   1.390   0.615   2.944
 5552SOL     OW17554   6.854   1.644   0.542
 5552SOL    HW117555   6.897   1.586   0.473
 5552SOL    HW217556   6.917   1.718   0.567
 5553SOL     OW17557   4.411   7.007   0.028
 5553SOL    HW117558   4.370   6.922   7.017
 5553SOL    HW217559   4.499   6.987   0.071
 5554SOL     OW17560   3.065   2.511   5.363
 5554SOL    HW117561   2.975   2.484   5.395
 5554SOL    HW217562   3.097   2.447   5.294
 5555SOL     OW17563   0.531   5.567   3.101
 5555SOL    HW117564   0.627   5.561   3.127
 5555SOL    HW217565   0.474   5.570   3.184
 5556SOL     OW17566   0.987   2.314   4.859
 5556SOL    HW117567   0.955   2.381   4.792
 5556SOL    HW217568   1.063   2.262   4.820
 5557SOL     OW17569   2.550   5.966   3.811
 5557SOL    HW117570   2.482   6.031   3.778
 5557SOL    HW217571   2.637   6.012   3.825
 5558SOL     OW17572   5.002   3.049   5.054
 5558SOL    HW117573   4.997   2.975   5.121
 5558SOL    HW217574   5.056   3.020   4.975
 5559SOL     OW17575   2.283   0.300   1.238
 5559SOL    HW117576   2.375   0.314   1.276
 5559SOL    HW217577   2.267   0.202   1.226
 5560SOL     OW17578   0.387   0.974   3.019
 5560SOL    HW117579   0.362   0.909   2.947
 5560SOL    HW217580   0.316   1.044   3.025
 5561SOL     OW17581   1.315   3.002   4.005
 5561SOL    HW117582   1.240   3.061   4.035
 5561SOL    HW217583   1.378   2.988   4.081
 5562SOL     OW17584   1.900   2.544   5.953
 5562SOL    HW117585   1.889   2.457   6.000
 5562SOL    HW217586   1.983   2.541   5.896
 5563SOL     OW17587   4.413   6.238   2.248
 5563SOL    HW117588   4.373   6.329   2.242
 5563SOL    HW217589   4.348   6.170   2.215
 5564SOL     OW17590   5.021   3.942   1.832
 5564SOL    HW117591   4.993   3.870   1.768
 5564SOL    HW217592   4.940   3.979   1.877
 5565SOL     OW17593   4.665   2.177   5.783
 5565SOL    HW117594   4.729   2.247   5.815
 5565SOL    HW217595   4.677   2.163   5.684
 5566SOL     OW17596   1.844   5.526   0.933
 5566SOL    HW117597   1.877   5.451   0.990
 5566SOL    HW217598   1.749   5.508   0.906
 5567SOL     OW17599   1.878   5.676   1.268
 5567SOL    HW117600   1.841   5.592   1.228
 5567SOL    HW217601   1.827   5.698   1.352
 5568SOL     OW17602   4.615   1.618   0.720
 5568SOL    HW117603   4.668   1.671   0.786
 5568SOL    HW217604   4.529   1.588   0.764
 5569SOL     OW17605   4.138   1.783   1.478
 5569SOL    HW117606   4.155   1.866   1.425
 5569SOL    HW217607   4.171   1.703   1.428
 5570SOL     OW17608   6.412   4.458   5.543
 5570SOL    HW117609   6.485   4.526   5.549
 5570SOL    HW217610   6.379   4.437   5.635
 5571SOL     OW17611   0.435   5.745   0.632
 5571SOL    HW117612   0.394   5.653   0.634
 5571SOL    HW217613   0.371   5.809   0.591
 5572SOL     OW17614   4.294   2.310   6.000
 5572SOL    HW117615   4.260   2.280   6.089
 5572SOL    HW217616   4.394   2.312   6.002
 5573SOL     OW17617   1.375   3.951   0.455
 5573SOL    HW117618   1.352   3.932   0.550
 5573SOL    HW217619   1.425   4.037   0.449
 5574SOL     OW17620   0.512   6.754   4.751
 5574SOL    HW117621   0.421   6.793   4.740
 5574SOL    HW217622   0.571   6.785   4.676
 5575SOL     OW17623   1.682   1.018   0.953
 5575SOL    HW117624   1.583   1.013   0.938
 5575SOL    HW217625   1.701   1.006   1.051
 5576SOL     OW17626   5.911   5.561   0.486
 5576SOL    HW117627   5.883   5.476   0.532
 5576SOL    HW217628   5.976   5.610   0.543
 5577SOL     OW17629   2.343   3.426   5.509
 5577SOL    HW117630   2.285   3.491   5.459
 5577SOL    HW217631   2.327   3.333   5.475
 5578SOL     OW17632   4.394   2.707   0.080
 5578SOL    HW117633   4.475   2.682   0.027
 5578SOL    HW217634   4.417   2.711   0.177
 5579SOL     OW17635   5.429   3.671   6.958
 5579SOL    HW117636   5.369   3.749   6.936
 5579SOL    HW217637   5.380   3.586   6.941
 5580SOL     OW17638   5.080   1.032   0.623
 5580SOL    HW117639   5.056   1.046   0.719
 5580SOL    HW217640   5.009   0.978   0.578
 5581SOL     OW17641   1.704   0.699   6.453
 5581SOL    HW117642   1.751   0.680   6.539
 5581SOL    HW217643   1.614   0.653   6.453
 5582SOL     OW17644   3.755   3.327   4.194
 5582SOL    HW117645   3.725   3.405   4.248
 5582SOL    HW217646   3.739   3.346   4.097
 5583SOL     OW17647   3.485   6.991   2.046
 5583SOL    HW117648   3.570   0.009   2.081
 5583SOL    HW217649   3.492   6.980   1.947
 5584SOL     OW17650   6.326   4.137   3.014
 5584SOL    HW117651   6.287   4.229   3.015
 5584SOL    HW217652   6.397   4.131   2.943
 5585SOL     OW17653   6.696   0.779   3.629
 5585SOL    HW117654   6.680   0.747   3.722
 5585SOL    HW217655   6.787   0.750   3.599
 5586SOL     OW17656   2.392   1.656   5.827
 5586SOL    HW117657   2.363   1.675   5.734
 5586SOL    HW217658   2.480   1.702   5.845
 5587SOL     OW17659   4.008   0.541   3.630
 5587SOL    HW117660   4.098   0.534   3.587
 5587SOL    HW217661   3.948   0.595   3.572
 5588SOL     OW17662   2.159   0.111   5.441
 5588SOL    HW117663   2.147   0.071   5.350
 5588SOL    HW217664   2.096   0.068   5.506
 5589SOL     OW17665   4.976   2.625   6.244
 5589SOL    HW117666   5.036   2.689   6.293
 5589SOL    HW217667   4.956   2.547   6.303
 5590SOL     OW17668   6.695   6.088   4.327
 5590SOL    HW117669   6.603   6.050   4.318
 5590SOL    HW217670   6.689   6.183   4.355
 5591SOL     OW17671   5.874   0.629   6.887
 5591SOL    HW117672   5.928   0.563   6.939
 5591SOL    HW217673   5.894   0.619   6.790
 5592SOL     OW17674   1.464   4.091   2.632
 5592SOL    HW117675   1.387   4.153   2.619
 5592SOL    HW217676   1.434   4.009   2.682
 5593SOL     OW17677   1.208   2.772   5.918
 5593SOL    HW117678   1.145   2.697   5.939
 5593SOL    HW217679   1.222   2.777   5.819
 5594SOL     OW17680   2.090   0.059   0.278
 5594SOL    HW117681   2.096   0.007   0.192
 5594SOL    HW217682   2.178   0.103   0.296
 5595SOL     OW17683   6.647   1.352   5.902
 5595SOL    HW117684   6.665   1.439   5.857
 5595SOL    HW217685   6.555   1.321   5.879
 5596SOL     OW17686   4.694   0.602   2.124
 5596SOL    HW117687   4.742   0.537   2.183
 5596SOL    HW217688   4.665   0.681   2.177
 5597SOL     OW17689   6.195   1.080   6.185
 5597SOL    HW117690   6.173   1.032   6.270
 5597SOL    HW217691   6.279   1.133   6.197
 5598SOL     OW17692   5.616   1.993   3.731
 5598SOL    HW117693   5.665   1.910   3.705
 5598SOL    HW217694   5.555   2.021   3.657
 5599SOL     OW17695   4.952   4.019   2.196
 5599SOL    HW117696   5.000   4.107   2.194
 5599SOL    HW217697   4.889   4.013   2.119
 5600SOL     OW17698   2.070   0.743   3.176
 5600SOL    HW117699   2.112   0.684   3.107
 5600SOL    HW217700   2.115   0.729   3.264
 5601SOL     OW17701   5.353   3.322   5.680
 5601SOL    HW117702   5.275   3.378   5.709
 5601SOL    HW217703   5.423   3.382   5.641
 5602SOL     OW17704   0.438   2.398   3.474
 5602SOL    HW117705   0.519   2.456   3.482
 5602SOL    HW217706   0.425   2.371   3.378
 5603SOL     OW17707   4.318   2.366   4.748
 5603SOL    HW117708   4.246   2.308   4.709
 5603SOL    HW217709   4.294   2.389   4.842
 5604SOL     OW17710   1.000   0.239   3.979
 5604SOL    HW117711   0.961   0.239   4.071
 5604SOL    HW217712   0.926   0.231   3.912
 5605SOL     OW17713   2.047   6.366   4.275
 5605SOL    HW117714   2.091   6.443   4.319
 5605SOL    HW217715   1.959   6.395   4.236
 5606SOL     OW17716   4.691   2.284   0.470
 5606SOL    HW117717   4.660   2.342   0.546
 5606SOL    HW217718   4.705   2.191   0.504
 5607SOL     OW17719   6.224   2.906   2.444
 5607SOL    HW117720   6.295   2.840   2.468
 5607SOL    HW217721   6.144   2.893   2.502
 5608SOL     OW17722   5.611   1.111   4.051
 5608SOL    HW117723   5.587   1.020   4.085
 5608SOL    HW217724   5.542   1.142   3.986
 5609SOL     OW17725   6.178   6.676   1.297
 5609SOL    HW117726   6.186   6.707   1.202
 5609SOL    HW217727   6.129   6.746   1.350
 5610SOL     OW17728   5.543   4.462   6.919
 5610SOL    HW117729   5.463   4.520   6.909
 5610SOL    HW217730   5.601   4.497   6.993
 5611SOL     OW17731   0.631   5.110   1.487
 5611SOL    HW117732   0.602   5.163   1.567
 5611SOL    HW217733   0.551   5.086   1.432
 5612SOL     OW17734   3.197   1.080   0.772
 5612SOL    HW117735   3.205   1.120   0.681
 5612SOL    HW217736   3.287   1.078   0.816
 5613SOL     OW17737   6.746   4.980   5.094
 5613SOL    HW117738   6.783   4.945   5.008
 5613SOL    HW217739   6.817   4.975   5.164
 5614SOL     OW17740   5.737   2.112   4.756
 5614SOL    HW117741   5.715   2.018   4.729
 5614SOL    HW217742   5.659   2.172   4.736
 5615SOL     OW17743   6.696   2.702   2.378
 5615SOL    HW117744   6.663   2.659   2.293
 5615SOL    HW217745   6.700   2.633   2.450
 5616SOL     OW17746   1.570   3.774   3.258
 5616SOL    HW117747   1.668   3.785   3.240
 5616SOL    HW217748   1.539   3.849   3.317
 5617SOL     OW17749   2.257   5.474   6.069
 5617SOL    HW117750   2.271   5.549   6.003
 5617SOL    HW217751   2.238   5.389   6.019
 5618SOL     OW17752   6.762   5.381   3.920
 5618SOL    HW117753   6.791   5.462   3.870
 5618SOL    HW217754   6.840   5.341   3.968
 5619SOL     OW17755   3.553   3.266   4.567
 5619SOL    HW117756   3.540   3.232   4.474
 5619SOL    HW217757   3.467   3.259   4.618
 5620SOL     OW17758   4.192   4.736   5.663
 5620SOL    HW117759   4.207   4.813   5.601
 5620SOL    HW217760   4.255   4.742   5.740
 5621SOL     OW17761   1.671   3.003   4.706
 5621SOL    HW117762   1.667   2.948   4.622
 5621SOL    HW217763   1.765   3.036   4.719
 5622SOL     OW17764   4.552   5.444   4.827
 5622SOL    HW117765   4.605   5.391   4.760
 5622SOL    HW217766   4.458   5.455   4.794
 5623SOL     OW17767   4.361   6.410   4.061
 5623SOL    HW117768   4.458   6.389   4.046
 5623SOL    HW217769   4.315   6.329   4.098
 5624SOL     OW17770   7.015   5.639   4.320
 5624SOL    HW117771   0.082   5.599   4.295
 5624SOL    HW217772   6.995   5.715   4.258
 5625SOL     OW17773   1.123   5.875   4.608
 5625SOL    HW117774   1.129   5.842   4.513
 5625SOL    HW217775   1.200   5.840   4.661
 5626SOL     OW17776   2.079   3.978   4.512
 5626SOL    HW117777   2.028   3.892   4.502
 5626SOL    HW217778   2.051   4.041   4.439
 5627SOL     OW17779   1.455   5.763   0.376
 5627SOL    HW117780   1.467   5.830   0.303
 5627SOL    HW217781   1.543   5.744   0.419
 5628SOL     OW17782   2.762   2.576   0.590
 5628SOL    HW117783   2.789   2.532   0.676
 5628SOL    HW217784   2.713   2.661   0.610
 5629SOL     OW17785   5.083   4.036   1.383
 5629SOL    HW117786   4.998   4.001   1.342
 5629SOL    HW217787   5.063   4.078   1.471
 5630SOL     OW17788   1.877   3.802   6.208
 5630SOL    HW117789   1.968   3.766   6.190
 5630SOL    HW217790   1.816   3.777   6.133
 5631SOL     OW17791   4.373   0.763   2.300
 5631SOL    HW117792   4.448   0.813   2.258
 5631SOL    HW217793   4.409   0.698   2.367
 5632SOL     OW17794   5.838   6.966   5.826
 5632SOL    HW117795   5.893   7.007   5.899
 5632SOL    HW217796   5.745   7.003   5.830
 5633SOL     OW17797   0.599   4.407   6.226
 5633SOL    HW117798   0.684   4.394   6.175
 5633SOL    HW217799   0.550   4.486   6.191
 5634SOL     OW17800   2.925   6.226   6.594
 5634SOL    HW117801   2.998   6.177   6.545
 5634SOL    HW217802   2.862   6.266   6.527
 5635SOL     OW17803   2.599   6.737   6.537
 5635SOL    HW117804   2.542   6.816   6.557
 5635SOL    HW217805   2.647   6.708   6.620
 5636SOL     OW17806   6.270   0.971   5.501
 5636SOL    HW117807   6.261   1.038   5.575
 5636SOL    HW217808   6.362   0.934   5.500
 5637SOL     OW17809   5.266   6.025   4.677
 5637SOL    HW117810   5.364   6.011   4.663
 5637SOL    HW217811   5.219   6.027   4.589
 5638SOL     OW17812   5.071   5.698   1.152
 5638SOL    HW117813   5.076   5.678   1.054
 5638SOL    HW217814   5.053   5.795   1.165
 5639SOL     OW17815   1.436   0.014   1.512
 5639SOL    HW117816   1.377   7.010   1.588
 5639SOL    HW217817   1.412   6.983   1.431
 5640SOL     OW17818   2.818   5.908   2.974
 5640SOL    HW117819   2.915   5.903   2.952
 5640SOL    HW217820   2.800   5.993   3.024
 5641SOL     OW17821   1.383   4.997   4.510
 5641SOL    HW117822   1.394   4.947   4.424
 5641SOL    HW217823   1.408   4.937   4.586
 5642SOL     OW17824   1.379   4.628   6.832
 5642SOL    HW117825   1.447   4.672   6.774
 5642SOL    HW217826   1.317   4.696   6.870
 5643SOL     OW17827   3.735   2.122   4.224
 5643SOL    HW117828   3.643   2.148   4.254
 5643SOL    HW217829   3.798   2.127   4.302
 5644SOL     OW17830   5.395   1.233   5.086
 5644SOL    HW117831   5.335   1.312   5.095
 5644SOL    HW217832   5.473   1.257   5.029
 5645SOL     OW17833   4.910   5.555   2.565
 5645SOL    HW117834   4.991   5.597   2.607
 5645SOL    HW217835   4.862   5.502   2.635
 5646SOL     OW17836   0.444   5.803   3.377
 5646SOL    HW117837   0.519   5.868   3.360
 5646SOL    HW217838   0.364   5.829   3.324
 5647SOL     OW17839   5.974   6.028   6.962
 5647SOL    HW117840   5.904   6.051   6.895
 5647SOL    HW217841   6.035   5.959   6.924
 5648SOL     OW17842   1.979   1.887   3.355
 5648SOL    HW117843   2.069   1.867   3.316
 5648SOL    HW217844   1.971   1.985   3.372
 5649SOL     OW17845   1.249   0.544   4.405
 5649SOL    HW117846   1.163   0.531   4.455
 5649SOL    HW217847   1.244   0.630   4.354
 5650SOL     OW17848   6.689   4.945   0.529
 5650SOL    HW117849   6.608   4.971   0.477
 5650SOL    HW217850   6.711   4.849   0.512
 5651SOL     OW17851   0.345   1.282   1.790
 5651SOL    HW117852   0.357   1.187   1.764
 5651SOL    HW217853   0.294   1.331   1.719
 5652SOL     OW17854   5.335   5.830   1.581
 5652SOL    HW117855   5.335   5.818   1.680
 5652SOL    HW217856   5.395   5.761   1.539
 5653SOL     OW17857   6.732   5.659   5.837
 5653SOL    HW117858   6.829   5.675   5.854
 5653SOL    HW217859   6.707   5.567   5.869
 5654SOL     OW17860   0.144   0.424   5.623
 5654SOL    HW117861   0.236   0.461   5.609
 5654SOL    HW217862   0.083   0.456   5.550
 5655SOL     OW17863   1.018   3.543   3.855
 5655SOL    HW117864   1.015   3.515   3.951
 5655SOL    HW217865   0.925   3.557   3.821
 5656SOL     OW17866   2.797   3.762   0.879
 5656SOL    HW117867   2.802   3.718   0.969
 5656SOL    HW217868   2.719   3.825   0.877
 5657SOL     OW17869   4.400   0.166   1.455
 5657SOL    HW117870   4.311   0.206   1.436
 5657SOL    HW217871   4.396   0.113   1.539
 5658SOL     OW17872   3.400   6.902   5.320
 5658SOL    HW117873   3.457   6.961   5.377
 5658SOL    HW217874   3.435   6.903   5.226
 5659SOL     OW17875   3.025   3.633   3.213
 5659SOL    HW117876   2.956   3.561   3.206
 5659SOL    HW217877   3.109   3.595   3.251
 5660SOL     OW17878   5.065   0.144   0.381
 5660SOL    HW117879   5.034   0.239   0.381
 5660SOL    HW217880   5.153   0.137   0.429
 5661SOL     OW17881   0.313   6.190   5.350
 5661SOL    HW117882   0.327   6.127   5.427
 5661SOL    HW217883   0.276   6.276   5.384
 5662SOL     OW17884   2.507   4.703   4.057
 5662SOL    HW117885   2.522   4.647   3.975
 5662SOL    HW217886   2.526   4.649   4.139
 5663SOL     OW17887   1.267   4.356   0.582
 5663SOL    HW117888   1.222   4.269   0.565
 5663SOL    HW217889   1.337   4.372   0.512
 5664SOL     OW17890   0.142   4.750   2.839
 5664SOL    HW117891   0.095   4.767   2.753
 5664SOL    HW217892   0.197   4.830   2.864
 5665SOL     OW17893   1.945   2.466   6.423
 5665SOL    HW117894   2.029   2.420   6.396
 5665SOL    HW217895   1.907   2.514   6.343
 5666SOL     OW17896   4.748   5.610   0.873
 5666SOL    HW117897   4.840   5.649   0.868
 5666SOL    HW217898   4.741   5.548   0.952
 5667SOL     OW17899   6.890   4.878   2.827
 5667SOL    HW117900   6.893   4.915   2.920
 5667SOL    HW217901   6.889   4.778   2.831
 5668SOL     OW17902   4.742   1.487   6.134
 5668SOL    HW117903   4.715   1.463   6.041
 5668SOL    HW217904   4.725   1.409   6.194
 5669SOL     OW17905   0.260   5.517   5.671
 5669SOL    HW117906   0.279   5.423   5.642
 5669SOL    HW217907   0.254   5.520   5.771
 5670SOL     OW17908   0.508   3.297   3.546
 5670SOL    HW117909   0.474   3.374   3.600
 5670SOL    HW217910   0.439   3.270   3.478
 5671SOL     OW17911   2.299   6.780   6.302
 5671SOL    HW117912   2.362   6.722   6.251
 5671SOL    HW217913   2.352   6.846   6.357
 5672SOL     OW17914   5.000   3.701   5.984
 5672SOL    HW117915   4.965   3.653   6.064
 5672SOL    HW217916   5.035   3.635   5.918
 5673SOL     OW17917   0.485   0.825   2.390
 5673SOL    HW117918   0.520   0.905   2.341
 5673SOL    HW217919   0.485   0.843   2.488
 5674SOL     OW17920   0.462   3.707   1.660
 5674SOL    HW117921   0.459   3.754   1.572
 5674SOL    HW217922   0.372   3.708   1.702
 5675SOL     OW17923   4.454   2.663   5.330
 5675SOL    HW117924   4.519   2.605   5.379
 5675SOL    HW217925   4.370   2.671   5.383
 5676SOL     OW17926   1.481   0.930   1.227
 5676SOL    HW117927   1.575   0.964   1.238
 5676SOL    HW217928   1.450   0.889   1.312
 5677SOL     OW17929   6.629   2.073   3.653
 5677SOL    HW117930   6.567   1.998   3.675
 5677SOL    HW217931   6.706   2.074   3.717
 5678SOL     OW17932   4.041   6.290   2.534
 5678SOL    HW117933   4.050   6.256   2.440
 5678SOL    HW217934   4.005   6.383   2.533
 5679SOL     OW17935   1.242   6.687   4.840
 5679SOL    HW117936   1.243   6.599   4.887
 5679SOL    HW217937   1.223   6.760   4.905
 5680SOL     OW17938   1.605   5.105   6.619
 5680SOL    HW117939   1.622   5.041   6.694
 5680SOL    HW217940   1.692   5.141   6.584
 5681SOL     OW17941   0.835   2.718   6.326
 5681SOL    HW117942   0.929   2.735   6.297
 5681SOL    HW217943   0.808   2.788   6.392
 5682SOL     OW17944   1.198   2.766   5.647
 5682SOL    HW117945   1.179   2.668   5.634
 5682SOL    HW217946   1.126   2.819   5.603
 5683SOL     OW17947   3.656   2.445   6.513
 5683SOL    HW117948   3.728   2.508   6.482
 5683SOL    HW217949   3.572   2.496   6.531
 5684SOL     OW17950   3.822   3.373   4.531
 5684SOL    HW117951   3.729   3.344   4.554
 5684SOL    HW217952   3.882   3.292   4.524
 5685SOL     OW17953   0.721   5.182   2.212
 5685SOL    HW117954   0.663   5.145   2.284
 5685SOL    HW217955   0.751   5.274   2.237
 5686SOL     OW17956   3.669   0.109   0.418
 5686SOL    HW117957   3.667   0.195   0.470
 5686SOL    HW217958   3.687   0.129   0.322
 5687SOL     OW17959   6.117   4.225   4.733
 5687SOL    HW117960   6.075   4.287   4.800
 5687SOL    HW217961   6.190   4.272   4.684
 5688SOL     OW17962   6.102   2.108   1.105
 5688SOL    HW117963   6.126   2.018   1.139
 5688SOL    HW217964   6.039   2.152   1.168
 5689SOL     OW17965   4.758   1.296   0.422
 5689SOL    HW117966   4.699   1.359   0.372
 5689SOL    HW217967   4.765   1.326   0.518
 5690SOL     OW17968   3.603   6.234   0.879
 5690SOL    HW117969   3.561   6.194   0.797
 5690SOL    HW217970   3.622   6.331   0.863
 5691SOL     OW17971   3.152   6.592   2.359
 5691SOL    HW117972   3.157   6.498   2.394
 5691SOL    HW217973   3.234   6.642   2.386
 5692SOL     OW17974   6.717   1.579   5.800
 5692SOL    HW117975   6.687   1.627   5.718
 5692SOL    HW217976   6.800   1.621   5.835
 5693SOL     OW17977   4.986   2.680   2.244
 5693SOL    HW117978   5.029   2.634   2.167
 5693SOL    HW217979   4.898   2.719   2.215
 5694SOL     OW17980   0.494   1.246   3.398
 5694SOL    HW117981   0.481   1.345   3.389
 5694SOL    HW217982   0.497   1.222   3.495
 5695SOL     OW17983   1.292   2.439   3.715
 5695SOL    HW117984   1.275   2.452   3.812
 5695SOL    HW217985   1.283   2.526   3.667
 5696SOL     OW17986   3.027   1.340   4.949
 5696SOL    HW117987   3.097   1.291   5.000
 5696SOL    HW217988   3.065   1.426   4.914
 5697SOL     OW17989   7.014   2.366   0.844
 5697SOL    HW117990   6.965   2.279   0.858
 5697SOL    HW217991   6.970   2.437   0.899
 5698SOL     OW17992   0.254   2.362   2.279
 5698SOL    HW117993   0.281   2.312   2.361
 5698SOL    HW217994   0.266   2.460   2.294
 5699SOL     OW17995   6.346   1.213   4.047
 5699SOL    HW117996   6.269   1.150   4.034
 5699SOL    HW217997   6.317   1.291   4.102
 5700SOL     OW17998   1.158   6.308   4.321
 5700SOL    HW117999   1.109   6.385   4.280
 5700SOL    HW218000   1.250   6.337   4.347
 5701SOL     OW18001   0.740   5.999   2.717
 5701SOL    HW118002   0.674   5.925   2.724
 5701SOL    HW218003   0.752   6.026   2.622
 5702SOL     OW18004   1.653   0.114   5.750
 5702SOL    HW118005   1.753   0.115   5.748
 5702SOL    HW218006   1.621   0.021   5.768
 5703SOL     OW18007   4.651   5.137   6.914
 5703SOL    HW118008   4.714   5.150   6.991
 5703SOL    HW218009   4.702   5.106   6.834
 5704SOL     OW18010   4.884   5.471   3.164
 5704SOL    HW118011   4.947   5.480   3.087
 5704SOL    HW218012   4.833   5.385   3.157
 5705SOL     OW18013   6.195   0.636   1.044
 5705SOL    HW118014   6.117   0.617   0.984
 5705SOL    HW218015   6.223   0.732   1.034
 5706SOL     OW18016   1.532   1.963   0.215
 5706SOL    HW118017   1.541   1.878   0.267
 5706SOL    HW218018   1.475   1.947   0.135
 5707SOL     OW18019   1.525   0.015   6.570
 5707SOL    HW118020   1.499   7.006   6.478
 5707SOL    HW218021   1.461   0.085   6.601
 5708SOL     OW18022   5.256   0.090   2.200
 5708SOL    HW118023   5.316   0.041   2.137
 5708SOL    HW218024   5.179   0.030   2.225
 5709SOL     OW18025   0.543   6.582   3.387
 5709SOL    HW118026   0.630   6.568   3.340
 5709SOL    HW218027   0.467   6.567   3.323
 5710SOL     OW18028   2.988   3.693   6.038
 5710SOL    HW118029   2.968   3.600   6.006
 5710SOL    HW218030   3.000   3.753   5.959
 5711SOL     OW18031   4.813   1.062   3.938
 5711SOL    HW118032   4.883   1.101   3.998
 5711SOL    HW218033   4.855   0.992   3.880
 5712SOL     OW18034   0.035   0.137   5.302
 5712SOL    HW118035   0.019   0.236   5.298
 5712SOL    HW218036   0.014   0.103   5.394
 5713SOL     OW18037   0.144   2.602   1.917
 5713SOL    HW118038   0.211   2.580   1.846
 5713SOL    HW218039   0.072   2.660   1.878
 5714SOL     OW18040   1.424   0.109   7.009
 5714SOL    HW118041   1.364   0.051   6.954
 5714SOL    HW218042   1.507   0.129   6.958
 5715SOL     OW18043   1.219   6.112   2.940
 5715SOL    HW118044   1.223   6.018   2.905
 5715SOL    HW218045   1.302   6.131   2.991
 5716SOL     OW18046   1.607   4.283   5.835
 5716SOL    HW118047   1.555   4.211   5.789
 5716SOL    HW218048   1.676   4.319   5.771
 5717SOL     OW18049   1.428   4.827   1.215
 5717SOL    HW118050   1.377   4.892   1.159
 5717SOL    HW218051   1.366   4.784   1.280
 5718SOL     OW18052   1.853   4.411   0.068
 5718SOL    HW118053   1.930   4.450   0.018
 5718SOL    HW218054   1.819   4.478   0.134
 5719SOL     OW18055   2.630   0.953   5.876
 5719SOL    HW118056   2.676   0.950   5.787
 5719SOL    HW218057   2.691   0.919   5.946
 5720SOL     OW18058   0.037   4.955   4.808
 5720SOL    HW118059   7.000   5.032   4.787
 5720SOL    HW218060   0.132   4.979   4.788
 5721SOL     OW18061   0.963   3.544   0.280
 5721SOL    HW118062   0.896   3.492   0.227
 5721SOL    HW218063   0.997   3.621   0.225
 5722SOL     OW18064   5.532   0.985   4.899
 5722SOL    HW118065   5.455   0.941   4.944
 5722SOL    HW218066   5.613   0.926   4.906
 5723SOL     OW18067   3.621   4.905   0.860
 5723SOL    HW118068   3.700   4.882   0.917
 5723SOL    HW218069   3.628   4.859   0.772
 5724SOL     OW18070   4.490   2.029   6.253
 5724SOL    HW118071   4.430   2.108   6.258
 5724SOL    HW218072   4.507   1.994   6.345
 5725SOL     OW18073   5.400   5.768   3.445
 5725SOL    HW118074   5.384   5.859   3.408
 5725SOL    HW218075   5.498   5.746   3.439
 5726SOL     OW18076   6.098   3.819   4.772
 5726SOL    HW118077   6.073   3.857   4.860
 5726SOL    HW218078   6.020   3.768   4.734
 5727SOL     OW18079   5.659   2.742   3.048
 5727SOL    HW118080   5.696   2.655   3.015
 5727SOL    HW218081   5.659   2.741   3.148
 5728SOL     OW18082   5.929   1.059   6.115
 5728SOL    HW118083   5.883   1.142   6.147
 5728SOL    HW218084   6.026   1.064   6.137
 5729SOL     OW18085   0.379   1.679   0.405
 5729SOL    HW118086   0.414   1.759   0.357
 5729SOL    HW218087   0.453   1.636   0.458
 5730SOL     OW18088   3.681   5.880   5.222
 5730SOL    HW118089   3.764   5.934   5.235
 5730SOL    HW218090   3.704   5.793   5.178
 5731SOL     OW18091   1.211   6.619   3.913
 5731SOL    HW118092   1.150   6.679   3.861
 5731SOL    HW218093   1.301   6.663   3.923
 5732SOL     OW18094   6.299   5.166   4.387
 5732SOL    HW118095   6.271   5.262   4.392
 5732SOL    HW218096   6.389   5.156   4.428
 5733SOL     OW18097   3.551   0.797   6.586
 5733SOL    HW118098   3.574   0.801   6.683
 5733SOL    HW218099   3.635   0.787   6.532
 5734SOL     OW18100   1.347   6.826   5.437
 5734SOL    HW118101   1.419   6.765   5.404
 5734SOL    HW218102   1.306   6.788   5.520
 5735SOL     OW18103   3.880   1.036   1.990
 5735SOL    HW118104   3.915   1.087   2.069
 5735SOL    HW218105   3.819   1.095   1.936
 5736SOL     OW18106   5.194   4.338   6.400
 5736SOL    HW118107   5.188   4.424   6.451
 5736SOL    HW218108   5.103   4.305   6.379
 5737SOL     OW18109   5.270   6.570   1.340
 5737SOL    HW118110   5.351   6.624   1.362
 5737SOL    HW218111   5.255   6.502   1.412
 5738SOL     OW18112   3.571   1.099   6.587
 5738SOL    HW118113   3.588   1.194   6.563
 5738SOL    HW218114   3.592   1.085   6.684
 5739SOL     OW18115   1.918   6.579   5.845
 5739SOL    HW118116   2.009   6.544   5.822
 5739SOL    HW218117   1.850   6.528   5.793
 5740SOL     OW18118   4.809   3.433   1.149
 5740SOL    HW118119   4.758   3.511   1.111
 5740SOL    HW218120   4.824   3.365   1.078
 5741SOL     OW18121   0.692   3.811   3.915
 5741SOL    HW118122   0.680   3.717   3.948
 5741SOL    HW218123   0.645   3.822   3.828
 5742SOL     OW18124   3.707   6.574   3.711
 5742SOL    HW118125   3.756   6.657   3.686
 5742SOL    HW218126   3.700   6.567   3.810
 5743SOL     OW18127   3.677   4.972   6.203
 5743SOL    HW118128   3.749   4.955   6.270
 5743SOL    HW218129   3.603   5.024   6.246
 5744SOL     OW18130   6.146   0.493   2.850
 5744SOL    HW118131   6.242   0.493   2.877
 5744SOL    HW218132   6.107   0.402   2.868
 5745SOL     OW18133   2.563   2.470   3.507
 5745SOL    HW118134   2.645   2.462   3.451
 5745SOL    HW218135   2.572   2.412   3.588
 5746SOL     OW18136   4.142   0.116   3.780
 5746SOL    HW118137   4.067   0.052   3.798
 5746SOL    HW218138   4.198   0.124   3.863
 5747SOL     OW18139   1.197   6.248   1.949
 5747SOL    HW118140   1.204   6.347   1.960
 5747SOL    HW218141   1.195   6.226   1.852
 5748SOL     OW18142   0.500   6.435   0.700
 5748SOL    HW118143   0.456   6.351   0.730
 5748SOL    HW218144   0.597   6.417   0.682
 5749SOL     OW18145   2.013   6.738   4.936
 5749SOL    HW118146   2.048   6.782   4.854
 5749SOL    HW218147   2.006   6.639   4.921
 5750SOL     OW18148   6.673   4.449   4.938
 5750SOL    HW118149   6.593   4.495   4.899
 5750SOL    HW218150   6.657   4.430   5.035
 5751SOL     OW18151   1.742   3.286   4.499
 5751SOL    HW118152   1.715   3.368   4.447
 5751SOL    HW218153   1.710   3.294   4.593
 5752SOL     OW18154   5.728   0.429   1.542
 5752SOL    HW118155   5.828   0.427   1.549
 5752SOL    HW218156   5.700   0.504   1.482
 5753SOL     OW18157   2.778   3.938   5.251
 5753SOL    HW118158   2.872   3.955   5.281
 5753SOL    HW218159   2.777   3.921   5.152
 5754SOL     OW18160   1.601   6.187   2.026
 5754SOL    HW118161   1.634   6.276   2.058
 5754SOL    HW218162   1.509   6.171   2.063
 5755SOL     OW18163   2.074   1.973   6.309
 5755SOL    HW118164   2.094   1.978   6.211
 5755SOL    HW218165   2.131   2.039   6.358
 5756SOL     OW18166   6.502   0.105   2.619
 5756SOL    HW118167   6.591   0.093   2.576
 5756SOL    HW218168   6.432   0.062   2.562
 5757SOL     OW18169   0.064   5.467   3.946
 5757SOL    HW118170   0.006   5.540   3.981
 5757SOL    HW218171   0.160   5.495   3.953
 5758SOL     OW18172   2.400   6.879   3.441
 5758SOL    HW118173   2.380   6.905   3.347
 5758SOL    HW218174   2.400   6.779   3.449
 5759SOL     OW18175   4.806   6.843   1.957
 5759SOL    HW118176   4.739   6.792   1.904
 5759SOL    HW218177   4.890   6.854   1.904
 5760SOL     OW18178   6.859   3.338   2.192
 5760SOL    HW118179   6.886   3.433   2.179
 5760SOL    HW218180   6.763   3.327   2.165
 5761SOL     OW18181   5.143   5.924   5.058
 5761SOL    HW118182   5.116   5.833   5.026
 5761SOL    HW218183   5.064   5.969   5.100
 5762SOL     OW18184   4.563   4.484   0.795
 5762SOL    HW118185   4.624   4.514   0.868
 5762SOL    HW218186   4.597   4.517   0.707
 5763SOL     OW18187   5.338   6.475   0.316
 5763SOL    HW118188   5.409   6.404   0.316
 5763SOL    HW218189   5.369   6.553   0.262
 5764SOL     OW18190   4.098   5.167   2.984
 5764SOL    HW118191   4.001   5.176   3.005
 5764SOL    HW218192   4.152   5.187   3.066
 5765SOL     OW18193   6.735   4.000   0.922
 5765SOL    HW118194   6.636   3.986   0.923
 5765SOL    HW218195   6.781   3.917   0.954
 5766SOL     OW18196   2.176   2.046   4.675
 5766SOL    HW118197   2.176   1.998   4.588
 5766SOL    HW218198   2.261   2.027   4.724
 5767SOL     OW18199   2.417   0.351   6.847
 5767SOL    HW118200   2.470   0.318   6.925
 5767SOL    HW218201   2.320   0.331   6.862
 5768SOL     OW18202   6.797   7.006   3.758
 5768SOL    HW118203   6.807   0.077   3.723
 5768SOL    HW218204   6.841   7.000   3.848
 5769SOL     OW18205   2.478   5.295   5.749
 5769SOL    HW118206   2.500   5.268   5.656
 5769SOL    HW218207   2.563   5.313   5.799
 5770SOL     OW18208   0.614   6.340   6.999
 5770SOL    HW118209   0.519   6.338   6.970
 5770SOL    HW218210   0.665   6.405   6.943
 5771SOL     OW18211   1.789   0.037   4.028
 5771SOL    HW118212   1.842   6.989   3.980
 5771SOL    HW218213   1.793   0.122   3.976
 5772SOL     OW18214   4.488   1.520   1.522
 5772SOL    HW118215   4.392   1.542   1.503
 5772SOL    HW218216   4.526   1.588   1.585
 5773SOL     OW18217   4.347   1.238   2.367
 5773SOL    HW118218   4.419   1.235   2.298
 5773SOL    HW218219   4.260   1.265   2.324
 5774SOL     OW18220   1.609   0.738   4.553
 5774SOL    HW118221   1.513   0.764   4.560
 5774SOL    HW218222   1.629   0.713   4.458
 5775SOL     OW18223   1.639   6.020   2.787
 5775SOL    HW118224   1.709   6.083   2.753
 5775SOL    HW218225   1.572   6.003   2.716
 5776SOL     OW18226   1.335   0.330   3.397
 5776SOL    HW118227   1.331   0.429   3.409
 5776SOL    HW218228   1.426   0.303   3.367
 5777SOL     OW18229   1.346   0.615   3.388
 5777SOL    HW118230   1.424   0.674   3.411
 5777SOL    HW218231   1.262   0.670   3.388
 5778SOL     OW18232   1.976   0.896   0.033
 5778SOL    HW118233   1.898   0.879   6.996
 5778SOL    HW218234   1.947   0.890   0.129
 5779SOL     OW18235   4.845   2.436   6.825
 5779SOL    HW118236   4.881   2.517   6.778
 5779SOL    HW218237   4.905   2.358   6.807
 5780SOL     OW18238   5.193   5.710   4.688
 5780SOL    HW118239   5.236   5.797   4.712
 5780SOL    HW218240   5.096   5.725   4.667
 5781SOL     OW18241   6.431   4.210   4.836
 5781SOL    HW118242   6.525   4.193   4.867
 5781SOL    HW218243   6.407   4.144   4.765
 5782SOL     OW18244   1.415   1.490   0.382
 5782SOL    HW118245   1.407   1.449   0.291
 5782SOL    HW218246   1.447   1.421   0.447
 5783SOL     OW18247   1.066   0.860   2.404
 5783SOL    HW118248   1.126   0.782   2.384
 5783SOL    HW218249   1.121   0.942   2.418
 5784SOL     OW18250   0.301   6.228   6.530
 5784SOL    HW118251   0.301   6.167   6.450
 5784SOL    HW218252   0.299   6.173   6.614
 5785SOL     OW18253   1.963   1.990   0.250
 5785SOL    HW118254   1.895   1.972   0.179
 5785SOL    HW218255   1.970   1.910   0.309
 5786SOL     OW18256   6.993   4.464   0.823
 5786SOL    HW118257   7.021   4.456   0.727
 5786SOL    HW218258   6.915   4.404   0.839
 5787SOL     OW18259   2.297   1.990   5.211
 5787SOL    HW118260   2.356   2.045   5.152
 5787SOL    HW218261   2.335   1.897   5.218
 5788SOL     OW18262   2.539   1.561   2.556
 5788SOL    HW118263   2.554   1.468   2.588
 5788SOL    HW218264   2.627   1.607   2.542
 5789SOL     OW18265   3.769   4.433   6.744
 5789SOL    HW118266   3.669   4.426   6.741
 5789SOL    HW218267   3.795   4.507   6.807
 5790SOL     OW18268   1.807   3.875   4.282
 5790SOL    HW118269   1.861   3.854   4.364
 5790SOL    HW218270   1.828   3.808   4.211
 5791SOL     OW18271   4.075   0.263   1.696
 5791SOL    HW118272   4.107   0.318   1.619
 5791SOL    HW218273   4.029   0.323   1.762
 5792SOL     OW18274   6.671   2.625   2.713
 5792SOL    HW118275   6.731   2.545   2.705
 5792SOL    HW218276   6.601   2.607   2.782
 5793SOL     OW18277   5.154   0.869   3.562
 5793SOL    HW118278   5.095   0.919   3.499
 5793SOL    HW218279   5.243   0.853   3.519
 5794SOL     OW18280   4.169   1.921   0.422
 5794SOL    HW118281   4.106   1.879   0.357
 5794SOL    HW218282   4.177   1.864   0.504
 5795SOL     OW18283   6.710   5.058   6.332
 5795SOL    HW118284   6.684   4.987   6.266
 5795SOL    HW218285   6.674   5.035   6.422
 5796SOL     OW18286   3.940   0.754   6.848
 5796SOL    HW118287   3.994   0.838   6.843
 5796SOL    HW218288   3.944   0.717   6.940
 5797SOL     OW18289   4.168   1.991   5.244
 5797SOL    HW118290   4.095   1.988   5.313
 5797SOL    HW218291   4.162   2.077   5.194
 5798SOL     OW18292   0.733   4.431   5.279
 5798SOL    HW118293   0.734   4.500   5.207
 5798SOL    HW218294   0.744   4.476   5.368
 5799SOL     OW18295   5.354   1.404   3.696
 5799SOL    HW118296   5.353   1.376   3.600
 5799SOL    HW218297   5.357   1.504   3.702
 5800SOL     OW18298   5.651   6.118   0.817
 5800SOL    HW118299   5.724   6.148   0.879
 5800SOL    HW218300   5.605   6.038   0.855
 5801SOL     OW18301   1.270   2.428   4.538
 5801SOL    HW118302   1.234   2.335   4.542
 5801SOL    HW218303   1.300   2.448   4.445
 5802SOL     OW18304   0.793   4.591   0.423
 5802SOL    HW118305   0.694   4.589   0.408
 5802SOL    HW218306   0.840   4.561   0.340
 5803SOL     OW18307   1.182   4.401   2.343
 5803SOL    HW118308   1.139   4.426   2.256
 5803SOL    HW218309   1.137   4.450   2.418
 5804SOL     OW18310   6.599   4.914   3.873
 5804SOL    HW118311   6.635   4.881   3.961
 5804SOL    HW218312   6.514   4.963   3.888
 5805SOL     OW18313   3.216   3.602   6.194
 5805SOL    HW118314   3.222   3.623   6.291
 5805SOL    HW218315   3.144   3.657   6.152
 5806SOL     OW18316   6.876   6.151   5.723
 5806SOL    HW118317   6.908   6.136   5.817
 5806SOL    HW218318   6.780   6.181   5.725
 5807SOL     OW18319   1.535   3.627   1.941
 5807SOL    HW118320   1.487   3.576   1.868
 5807SOL    HW218321   1.521   3.725   1.927
 5808SOL     OW18322   6.198   3.883   4.001
 5808SOL    HW118323   6.287   3.923   3.981
 5808SOL    HW218324   6.150   3.939   4.068
 5809SOL     OW18325   0.179   2.376   4.661
 5809SOL    HW118326   0.234   2.460   4.659
 5809SOL    HW218327   0.165   2.348   4.756
 5810SOL     OW18328   2.994   1.231   4.119
 5810SOL    HW118329   3.057   1.166   4.162
 5810SOL    HW218330   3.047   1.300   4.070
 5811SOL     OW18331   2.744   0.029   5.213
 5811SOL    HW118332   2.701   6.967   5.245
 5811SOL    HW218333   2.784   0.078   5.291
 5812SOL     OW18334   5.864   0.597   4.520
 5812SOL    HW118335   5.791   0.655   4.558
 5812SOL    HW218336   5.904   0.643   4.440
 5813SOL     OW18337   1.104   1.384   0.795
 5813SOL    HW118338   1.040   1.331   0.738
 5813SOL    HW218339   1.171   1.322   0.836
 5814SOL     OW18340   6.319   4.809   0.980
 5814SOL    HW118341   6.391   4.779   1.042
 5814SOL    HW218342   6.351   4.888   0.928
 5815SOL     OW18343   4.585   2.604   3.857
 5815SOL    HW118344   4.675   2.577   3.822
 5815SOL    HW218345   4.593   2.688   3.912
 5816SOL     OW18346   4.753   5.446   0.088
 5816SOL    HW118347   4.792   5.354   0.094
 5816SOL    HW218348   4.689   5.451   0.012
 5817SOL     OW18349   5.136   3.485   5.728
 5817SOL    HW118350   5.045   3.446   5.743
 5817SOL    HW218351   5.126   3.575   5.684
 5818SOL     OW18352   6.399   6.415   4.825
 5818SOL    HW118353   6.308   6.455   4.814
 5818SOL    HW218354   6.426   6.369   4.741
 5819SOL     OW18355   4.395   0.471   6.381
 5819SOL    HW118356   4.466   0.413   6.343
 5819SOL    HW218357   4.359   0.429   6.465
 5820SOL     OW18358   4.398   5.925   3.816
 5820SOL    HW118359   4.370   6.008   3.865
 5820SOL    HW218360   4.347   5.847   3.853
 5821SOL     OW18361   0.501   0.293   2.489
 5821SOL    HW118362   0.465   0.382   2.519
 5821SOL    HW218363   0.555   0.306   2.406
 5822SOL     OW18364   0.111   2.690   2.512
 5822SOL    HW118365   0.193   2.674   2.456
 5822SOL    HW218366   0.138   2.733   2.598
 5823SOL     OW18367   0.721   0.910   5.910
 5823SOL    HW118368   0.763   0.858   5.835
 5823SOL    HW218369   0.622   0.901   5.905
 5824SOL     OW18370   6.820   5.646   2.783
 5824SOL    HW118371   6.878   5.726   2.799
 5824SOL    HW218372   6.741   5.673   2.727
 5825SOL     OW18373   2.599   2.055   5.363
 5825SOL    HW118374   2.603   2.146   5.321
 5825SOL    HW218375   2.624   1.986   5.295
 5826SOL     OW18376   6.792   5.186   5.395
 5826SOL    HW118377   6.801   5.285   5.406
 5826SOL    HW218378   6.863   5.153   5.333
 5827SOL     OW18379   2.239   4.891   4.775
 5827SOL    HW118380   2.181   4.809   4.767
 5827SOL    HW218381   2.187   4.971   4.745
 5828SOL     OW18382   6.938   3.045   1.329
 5828SOL    HW118383   6.881   3.081   1.403
 5828SOL    HW218384   6.891   3.056   1.242
 5829SOL     OW18385   2.778   1.707   2.578
 5829SOL    HW118386   2.740   1.791   2.617
 5829SOL    HW218387   2.870   1.692   2.615
 5830SOL     OW18388   4.247   6.826   5.688
 5830SOL    HW118389   4.177   6.835   5.759
 5830SOL    HW218390   4.205   6.838   5.598
 5831SOL     OW18391   6.954   0.428   4.231
 5831SOL    HW118392   6.900   0.372   4.293
 5831SOL    HW218393   6.899   0.452   4.151
 5832SOL     OW18394   3.697   4.759   5.776
 5832SOL    HW118395   3.640   4.688   5.817
 5832SOL    HW218396   3.662   4.781   5.684
 5833SOL     OW18397   4.200   3.251   5.314
 5833SOL    HW118398   4.294   3.285   5.308
 5833SOL    HW218399   4.156   3.260   5.224
 5834SOL     OW18400   5.975   2.406   0.362
 5834SOL    HW118401   6.025   2.478   0.313
 5834SOL    HW218402   6.022   2.386   0.449
 5835SOL     OW18403   4.921   3.209   3.151
 5835SOL    HW118404   4.979   3.241   3.076
 5835SOL    HW218405   4.971   3.218   3.237
 5836SOL     OW18406   3.069   6.474   2.807
 5836SOL    HW118407   2.984   6.455   2.856
 5836SOL    HW218408   3.066   6.431   2.717
 5837SOL     OW18409   4.433   5.093   5.724
 5837SOL    HW118410   4.337   5.119   5.736
 5837SOL    HW218411   4.485   5.171   5.690
 5838SOL     OW18412   2.464   1.373   5.841
 5838SOL    HW118413   2.461   1.282   5.800
 5838SOL    HW218414   2.416   1.437   5.781
 5839SOL     OW18415   0.215   2.184   2.797
 5839SOL    HW118416   0.127   2.225   2.774
 5839SOL    HW218417   0.285   2.216   2.733
 5840SOL     OW18418   1.574   4.898   0.026
 5840SOL    HW118419   1.533   4.907   0.116
 5840SOL    HW218420   1.538   4.968   6.987
 5841SOL     OW18421   5.296   1.650   2.530
 5841SOL    HW118422   5.263   1.745   2.526
 5841SOL    HW218423   5.346   1.629   2.447
 5842SOL     OW18424   4.274   3.167   1.576
 5842SOL    HW118425   4.356   3.186   1.522
 5842SOL    HW218426   4.199   3.224   1.543
 5843SOL     OW18427   2.106   3.678   2.125
 5843SOL    HW118428   2.133   3.603   2.065
 5843SOL    HW218429   2.169   3.683   2.203
 5844SOL     OW18430   0.688   6.882   5.803
 5844SOL    HW118431   0.602   6.835   5.784
 5844SOL    HW218432   0.764   6.819   5.785
 5845SOL     OW18433   0.904   0.341   2.799
 5845SOL    HW118434   0.826   0.347   2.862
 5845SOL    HW218435   0.945   0.432   2.788
 5846SOL     OW18436   6.043   3.223   4.389
 5846SOL    HW118437   5.984   3.148   4.419
 5846SOL    HW218438   6.134   3.187   4.367
 5847SOL     OW18439   1.927   1.934   2.235
 5847SOL    HW118440   1.901   1.992   2.158
 5847SOL    HW218441   2.011   1.969   2.276
 5848SOL     OW18442   2.407   5.316   3.094
 5848SOL    HW118443   2.340   5.315   3.169
 5848SOL    HW218444   2.367   5.274   3.013
 5849SOL     OW18445   6.860   0.279   6.680
 5849SOL    HW118446   6.775   0.253   6.726
 5849SOL    HW218447   6.937   0.228   6.719
 5850SOL     OW18448   0.966   3.923   1.675
 5850SOL    HW118449   0.988   4.002   1.732
 5850SOL    HW218450   0.869   3.901   1.684
 5851SOL     OW18451   4.912   3.236   2.657
 5851SOL    HW118452   4.958   3.267   2.573
 5851SOL    HW218453   4.856   3.156   2.636
 5852SOL     OW18454   4.822   6.865   3.509
 5852SOL    HW118455   4.766   6.943   3.537
 5852SOL    HW218456   4.873   6.888   3.427
 5853SOL     OW18457   3.054   5.569   4.510
 5853SOL    HW118458   3.008   5.484   4.536
 5853SOL    HW218459   3.125   5.590   4.578
 5854SOL     OW18460   6.643   4.058   5.591
 5854SOL    HW118461   6.612   4.019   5.678
 5854SOL    HW218462   6.668   3.984   5.529
 5855SOL     OW18463   0.427   0.157   4.782
 5855SOL    HW118464   0.350   0.094   4.792
 5855SOL    HW218465   0.475   0.165   4.869
 5856SOL     OW18466   1.982   6.412   3.850
 5856SOL    HW118467   1.981   6.333   3.789
 5856SOL    HW218468   2.037   6.391   3.931
 5857SOL     OW18469   6.099   2.913   5.232
 5857SOL    HW118470   6.006   2.891   5.261
 5857SOL    HW218471   6.108   3.012   5.222
 5858SOL     OW18472   2.681   2.293   2.220
 5858SOL    HW118473   2.614   2.222   2.198
 5858SOL    HW218474   2.751   2.295   2.149
 5859SOL     OW18475   5.764   0.105   1.105
 5859SOL    HW118476   5.689   0.160   1.142
 5859SOL    HW218477   5.843   0.112   1.167
 5860SOL     OW18478   1.975   3.598   1.616
 5860SOL    HW118479   2.001   3.645   1.700
 5860SOL    HW218480   1.878   3.573   1.620
 5861SOL     OW18481   4.957   1.723   4.287
 5861SOL    HW118482   4.863   1.690   4.277
 5861SOL    HW218483   5.021   1.650   4.261
 5862SOL     OW18484   5.374   4.959   3.312
 5862SOL    HW118485   5.376   5.057   3.293
 5862SOL    HW218486   5.454   4.934   3.367
 5863SOL     OW18487   2.913   0.997   4.676
 5863SOL    HW118488   2.979   0.941   4.725
 5863SOL    HW218489   2.828   1.002   4.728
 5864SOL     OW18490   3.910   3.465   1.872
 5864SOL    HW118491   3.926   3.402   1.796
 5864SOL    HW218492   3.973   3.444   1.946
 5865SOL     OW18493   5.675   0.173   4.458
 5865SOL    HW118494   5.621   0.252   4.490
 5865SOL    HW218495   5.760   0.206   4.417
 5866SOL     OW18496   4.400   5.736   6.866
 5866SOL    HW118497   4.467   5.715   6.795
 5866SOL    HW218498   4.424   5.689   6.951
 5867SOL     OW18499   0.315   3.998   1.113
 5867SOL    HW118500   0.376   3.920   1.126
 5867SOL    HW218501   0.220   3.968   1.120
 5868SOL     OW18502   0.243   0.810   5.662
 5868SOL    HW118503   0.152   0.805   5.622
 5868SOL    HW218504   0.241   0.867   5.744
 5869SOL     OW18505   2.524   5.523   3.627
 5869SOL    HW118506   2.559   5.596   3.685
 5869SOL    HW218507   2.497   5.562   3.538
 5870SOL     OW18508   4.893   5.806   4.411
 5870SOL    HW118509   4.894   5.906   4.403
 5870SOL    HW218510   4.888   5.781   4.507
 5871SOL     OW18511   4.334   3.336   0.343
 5871SOL    HW118512   4.319   3.316   0.246
 5871SOL    HW218513   4.272   3.281   0.399
 5872SOL     OW18514   3.722   4.845   6.875
 5872SOL    HW118515   3.766   4.759   6.900
 5872SOL    HW218516   3.700   4.897   6.957
 5873SOL     OW18517   2.208   2.636   1.036
 5873SOL    HW118518   2.160   2.583   1.105
 5873SOL    HW218519   2.287   2.584   1.003
 5874SOL     OW18520   3.113   2.956   1.392
 5874SOL    HW118521   3.017   2.935   1.379
 5874SOL    HW218522   3.167   2.912   1.320
 5875SOL     OW18523   3.779   0.844   1.483
 5875SOL    HW118524   3.741   0.838   1.575
 5875SOL    HW218525   3.722   0.791   1.420
 5876SOL     OW18526   2.973   3.055   6.921
 5876SOL    HW118527   3.045   3.094   6.979
 5876SOL    HW218528   2.884   3.067   6.964
 5877SOL     OW18529   6.813   0.060   1.040
 5877SOL    HW118530   6.907   0.042   1.011
 5877SOL    HW218531   6.782   7.008   1.099
 5878SOL     OW18532   5.064   5.182   3.200
 5878SOL    HW118533   5.112   5.184   3.288
 5878SOL    HW218534   5.116   5.233   3.132
 5879SOL     OW18535   2.573   3.483   6.171
 5879SOL    HW118536   2.662   3.527   6.159
 5879SOL    HW218537   2.518   3.538   6.234
 5880SOL     OW18538   4.608   4.459   6.643
 5880SOL    HW118539   4.570   4.495   6.558
 5880SOL    HW218540   4.641   4.366   6.628
 5881SOL     OW18541   1.701   0.192   2.463
 5881SOL    HW118542   1.681   0.257   2.536
 5881SOL    HW218543   1.656   0.221   2.379
 5882SOL     OW18544   0.622   6.306   5.695
 5882SOL    HW118545   0.535   6.259   5.706
 5882SOL    HW218546   0.629   6.380   5.762
 5883SOL     OW18547   0.213   1.484   0.654
 5883SOL    HW118548   0.310   1.506   0.660
 5883SOL    HW218549   0.195   1.435   0.568
 5884SOL     OW18550   6.025   0.962   4.926
 5884SOL    HW118551   5.950   0.972   4.860
 5884SOL    HW218552   6.045   1.051   4.967
 5885SOL     OW18553   0.902   5.574   0.682
 5885SOL    HW118554   0.826   5.614   0.734
 5885SOL    HW218555   0.978   5.555   0.744
 5886SOL     OW18556   0.850   2.948   3.212
 5886SOL    HW118557   0.763   2.925   3.257
 5886SOL    HW218558   0.869   3.046   3.224
 5887SOL     OW18559   3.050   1.906   1.820
 5887SOL    HW118560   3.109   1.835   1.860
 5887SOL    HW218561   3.061   1.991   1.870
 5888SOL     OW18562   2.375   6.637   0.824
 5888SOL    HW118563   2.450   6.622   0.889
 5888SOL    HW218564   2.300   6.575   0.845
 5889SOL     OW18565   6.444   1.213   0.718
 5889SOL    HW118566   6.508   1.180   0.787
 5889SOL    HW218567   6.364   1.153   0.715
 5890SOL     OW18568   1.907   6.632   2.892
 5890SOL    HW118569   1.841   6.601   2.824
 5890SOL    HW218570   1.917   6.731   2.887
 5891SOL     OW18571   2.389   4.090   0.027
 5891SOL    HW118572   2.305   4.142   0.013
 5891SOL    HW218573   2.393   4.015   6.983
 5892SOL     OW18574   0.184   4.661   1.667
 5892SOL    HW118575   0.206   4.733   1.601
 5892SOL    HW218576   0.173   4.574   1.619
 5893SOL     OW18577   1.584   4.843   1.441
 5893SOL    HW118578   1.586   4.744   1.456
 5893SOL    HW218579   1.538   4.863   1.355
 5894SOL     OW18580   0.667   5.732   5.117
 5894SOL    HW118581   0.713   5.692   5.196
 5894SOL    HW218582   0.685   5.830   5.113
 5895SOL     OW18583   6.382   3.439   3.734
 5895SOL    HW118584   6.286   3.461   3.721
 5895SOL    HW218585   6.411   3.374   3.663
 5896SOL     OW18586   5.091   1.127   1.421
 5896SOL    HW118587   5.155   1.134   1.344
 5896SOL    HW218588   5.014   1.068   1.394
 5897SOL     OW18589   3.830   1.453   1.691
 5897SOL    HW118590   3.831   1.537   1.746
 5897SOL    HW218591   3.749   1.399   1.712
 5898SOL     OW18592   2.167   1.103   5.531
 5898SOL    HW118593   2.236   1.127   5.599
 5898SOL    HW218594   2.209   1.048   5.459
 5899SOL     OW18595   6.959   5.724   6.118
 5899SOL    HW118596   6.879   5.714   6.178
 5899SOL    HW218597   7.020   5.793   6.155
 5900SOL     OW18598   6.728   5.307   3.553
 5900SOL    HW118599   6.766   5.241   3.618
 5900SOL    HW218600   6.748   5.400   3.585
 5901SOL     OW18601   1.526   1.312   0.562
 5901SOL    HW118602   1.598   1.276   0.503
 5901SOL    HW218603   1.566   1.346   0.647
 5902SOL     OW18604   5.791   3.462   5.146
 5902SOL    HW118605   5.775   3.555   5.113
 5902SOL    HW218606   5.816   3.403   5.069
 5903SOL     OW18607   5.394   2.731   6.678
 5903SOL    HW118608   5.424   2.640   6.650
 5903SOL    HW218609   5.342   2.724   6.763
 5904SOL     OW18610   1.659   4.407   1.180
 5904SOL    HW118611   1.604   4.488   1.161
 5904SOL    HW218612   1.692   4.367   1.095
 5905SOL     OW18613   5.433   1.219   3.860
 5905SOL    HW118614   5.418   1.297   3.798
 5905SOL    HW218615   5.346   1.172   3.875
 5906SOL     OW18616   5.313   1.659   5.073
 5906SOL    HW118617   5.233   1.606   5.042
 5906SOL    HW218618   5.355   1.612   5.150
 5907SOL     OW18619   1.506   6.774   0.711
 5907SOL    HW118620   1.521   6.685   0.667
 5907SOL    HW218621   1.502   6.846   0.642
 5908SOL     OW18622   5.511   3.982   0.407
 5908SOL    HW118623   5.449   3.921   0.357
 5908SOL    HW218624   5.498   3.970   0.505
 5909SOL     OW18625   0.805   4.564   6.355
 5909SOL    HW118626   0.801   4.647   6.300
 5909SOL    HW218627   0.719   4.514   6.346
 5910SOL     OW18628   1.178   4.601   0.337
 5910SOL    HW118629   1.175   4.530   0.267
 5910SOL    HW218630   1.130   4.569   0.419
 5911SOL     OW18631   0.689   5.809   6.240
 5911SOL    HW118632   0.610   5.748   6.242
 5911SOL    HW218633   0.739   5.796   6.155
 5912SOL     OW18634   6.286   3.289   6.652
 5912SOL    HW118635   6.281   3.378   6.697
 5912SOL    HW218636   6.197   3.267   6.611
 5913SOL     OW18637   2.033   2.837   5.592
 5913SOL    HW118638   2.019   2.848   5.494
 5913SOL    HW218639   2.111   2.776   5.608
 5914SOL     OW18640   2.767   5.790   0.072
 5914SOL    HW118641   2.675   5.762   0.045
 5914SOL    HW218642   2.815   5.712   0.113
 5915SOL     OW18643   5.526   3.384   2.157
 5915SOL    HW118644   5.443   3.342   2.121
 5915SOL    HW218645   5.606   3.343   2.113
 5916SOL     OW18646   3.930   0.426   5.861
 5916SOL    HW118647   3.984   0.346   5.887
 5916SOL    HW218648   3.883   0.407   5.774
 5917SOL     OW18649   3.828   3.376   3.669
 5917SOL    HW118650   3.861   3.370   3.763
 5917SOL    HW218651   3.815   3.284   3.632
 5918SOL     OW18652   2.129   3.648   4.666
 5918SOL    HW118653   2.160   3.741   4.689
 5918SOL    HW218654   2.151   3.587   4.742
 5919SOL     OW18655   3.224   1.572   6.857
 5919SOL    HW118656   3.190   1.612   6.942
 5919SOL    HW218657   3.150   1.523   6.811
 5920SOL     OW18658   3.445   6.844   0.078
 5920SOL    HW118659   3.491   6.794   0.005
 5920SOL    HW218660   3.346   6.830   0.071
 5921SOL     OW18661   3.543   5.018   5.443
 5921SOL    HW118662   3.510   5.108   5.471
 5921SOL    HW218663   3.638   5.025   5.413
 5922SOL     OW18664   6.453   5.268   3.532
 5922SOL    HW118665   6.546   5.302   3.540
 5922SOL    HW218666   6.454   5.169   3.522
 5923SOL     OW18667   6.273   1.414   2.613
 5923SOL    HW118668   6.182   1.396   2.651
 5923SOL    HW218669   6.296   1.510   2.625
 5924SOL     OW18670   5.719   2.731   4.935
 5924SOL    HW118671   5.735   2.817   4.983
 5924SOL    HW218672   5.622   2.708   4.939
 5925SOL     OW18673   4.325   6.680   2.715
 5925SOL    HW118674   4.414   6.653   2.751
 5925SOL    HW218675   4.282   6.744   2.778
 5926SOL     OW18676   3.271   5.056   1.650
 5926SOL    HW118677   3.183   5.063   1.696
 5926SOL    HW218678   3.329   4.990   1.699
 5927SOL     OW18679   2.156   4.389   2.339
 5927SOL    HW118680   2.230   4.384   2.273
 5927SOL    HW218681   2.098   4.308   2.331
 5928SOL     OW18682   2.909   0.145   2.759
 5928SOL    HW118683   3.001   0.163   2.726
 5928SOL    HW218684   2.861   0.087   2.693
 5929SOL     OW18685   0.829   5.868   5.807
 5929SOL    HW118686   0.892   5.941   5.779
 5929SOL    HW218687   0.735   5.897   5.790
 5930SOL     OW18688   5.936   1.474   3.874
 5930SOL    HW118689   5.895   1.430   3.794
 5930SOL    HW218690   5.960   1.568   3.851
 5931SOL     OW18691   5.605   4.898   2.729
 5931SOL    HW118692   5.554   4.848   2.799
 5931SOL    HW218693   5.674   4.838   2.690
 5932SOL     OW18694   2.216   6.470   0.952
 5932SOL    HW118695   2.176   6.383   0.925
 5932SOL    HW218696   2.300   6.454   1.005
 5933SOL     OW18697   6.695   4.838   1.947
 5933SOL    HW118698   6.758   4.829   1.870
 5933SOL    HW218699   6.630   4.911   1.929
 5934SOL     OW18700   3.613   3.664   3.855
 5934SOL    HW118701   3.551   3.645   3.931
 5934SOL    HW218702   3.583   3.615   3.774
 5935SOL     OW18703   3.746   3.330   4.829
 5935SOL    HW118704   3.682   3.299   4.759
 5935SOL    HW218705   3.822   3.379   4.787
 5936SOL     OW18706   4.464   3.320   6.470
 5936SOL    HW118707   4.387   3.283   6.521
 5936SOL    HW218708   4.550   3.292   6.513
 5937SOL     OW18709   0.199   4.072   1.719
 5937SOL    HW118710   0.235   4.028   1.802
 5937SOL    HW218711   0.276   4.104   1.663
 5938SOL     OW18712   0.971   5.314   3.970
 5938SOL    HW118713   0.912   5.365   4.032
 5938SOL    HW218714   1.062   5.355   3.968
 5939SOL     OW18715   3.394   0.407   3.127
 5939SOL    HW118716   3.317   0.437   3.184
 5939SOL    HW218717   3.367   0.328   3.072
 5940SOL     OW18718   4.457   6.746   2.295
 5940SOL    HW118719   4.446   6.798   2.380
 5940SOL    HW218720   4.527   6.676   2.308
 5941SOL     OW18721   6.210   4.649   2.109
 5941SOL    HW118722   6.192   4.600   2.194
 5941SOL    HW218723   6.228   4.583   2.036
 5942SOL     OW18724   4.519   2.885   6.459
 5942SOL    HW118725   4.440   2.913   6.405
 5942SOL    HW218726   4.564   2.966   6.498
 5943SOL     OW18727   3.204   5.904   0.288
 5943SOL    HW118728   3.269   5.872   0.219
 5943SOL    HW218729   3.129   5.838   0.295
 5944SOL     OW18730   5.919   1.584   1.522
 5944SOL    HW118731   5.969   1.658   1.477
 5944SOL    HW218732   5.900   1.609   1.616
 5945SOL     OW18733   0.107   5.216   5.691
 5945SOL    HW118734   0.110   5.288   5.621
 5945SOL    HW218735   0.093   5.127   5.646
 5946SOL     OW18736   3.577   3.660   5.695
 5946SOL    HW118737   3.606   3.611   5.613
 5946SOL    HW218738   3.628   3.625   5.774
 5947SOL     OW18739   3.907   3.096   2.092
 5947SOL    HW118740   3.973   3.094   2.017
 5947SOL    HW218741   3.944   3.148   2.168
 5948SOL     OW18742   3.814   5.236   3.027
 5948SOL    HW118743   3.721   5.225   2.992
 5948SOL    HW218744   3.863   5.303   2.972
 5949SOL     OW18745   4.033   3.662   1.190
 5949SOL    HW118746   3.995   3.569   1.192
 5949SOL    HW218747   3.959   3.728   1.174
 5950SOL     OW18748   5.233   3.124   5.537
 5950SOL    HW118749   5.272   3.183   5.607
 5950SOL    HW218750   5.277   3.143   5.449
 5951SOL     OW18751   0.668   6.217   4.926
 5951SOL    HW118752   0.628   6.307   4.907
 5951SOL    HW218753   0.595   6.153   4.952
 5952SOL     OW18754   5.606   6.613   4.062
 5952SOL    HW118755   5.666   6.555   4.119
 5952SOL    HW218756   5.549   6.669   4.122
 5953SOL     OW18757   0.024   2.699   5.646
 5953SOL    HW118758   0.041   2.791   5.612
 5953SOL    HW218759   0.078   2.683   5.729
 5954SOL     OW18760   6.945   4.732   5.586
 5954SOL    HW118761   6.893   4.720   5.501
 5954SOL    HW218762   7.020   4.667   5.589
 5955SOL     OW18763   6.492   6.006   2.214
 5955SOL    HW118764   6.400   5.998   2.252
 5955SOL    HW218765   6.530   5.915   2.199
 5956SOL     OW18766   3.219   1.859   0.826
 5956SOL    HW118767   3.141   1.797   0.815
 5956SOL    HW218768   3.246   1.894   0.736
 5957SOL     OW18769   4.814   6.882   5.943
 5957SOL    HW118770   4.845   6.967   5.985
 5957SOL    HW218771   4.804   6.895   5.844
 5958SOL     OW18772   5.410   6.375   2.644
 5958SOL    HW118773   5.412   6.407   2.549
 5958SOL    HW218774   5.359   6.289   2.648
 5959SOL     OW18775   3.683   1.901   5.562
 5959SOL    HW118776   3.618   1.975   5.580
 5959SOL    HW218777   3.766   1.938   5.522
 5960SOL     OW18778   3.568   0.077   4.312
 5960SOL    HW118779   3.476   0.079   4.273
 5960SOL    HW218780   3.567   0.027   4.399
 5961SOL     OW18781   4.360   1.361   3.579
 5961SOL    HW118782   4.270   1.335   3.542
 5961SOL    HW218783   4.348   1.398   3.672
 5962SOL     OW18784   5.333   5.719   1.826
 5962SOL    HW118785   5.367   5.638   1.779
 5962SOL    HW218786   5.254   5.695   1.882
 5963SOL     OW18787   3.818   2.957   4.350
 5963SOL    HW118788   3.891   2.997   4.295
 5963SOL    HW218789   3.847   2.952   4.446
 5964SOL     OW18790   0.286   4.994   6.121
 5964SOL    HW118791   0.256   4.959   6.209
 5964SOL    HW218792   0.252   4.936   6.048
 5965SOL     OW18793   1.913   1.901   5.904
 5965SOL    HW118794   1.877   1.990   5.876
 5965SOL    HW218795   1.988   1.914   5.969
 5966SOL     OW18796   2.758   5.395   5.437
 5966SOL    HW118797   2.709   5.459   5.377
 5966SOL    HW218798   2.694   5.325   5.469
 5967SOL     OW18799   4.315   5.945   2.012
 5967SOL    HW118800   4.331   5.966   1.916
 5967SOL    HW218801   4.222   5.971   2.037
 5968SOL     OW18802   5.937   1.605   3.345
 5968SOL    HW118803   5.928   1.703   3.329
 5968SOL    HW218804   6.004   1.588   3.417
 5969SOL     OW18805   6.207   1.800   5.223
 5969SOL    HW118806   6.159   1.838   5.302
 5969SOL    HW218807   6.246   1.875   5.169
 5970SOL     OW18808   0.340   4.754   2.448
 5970SOL    HW118809   0.315   4.658   2.457
 5970SOL    HW218810   0.310   4.788   2.359
 5971SOL     OW18811   2.402   0.195   3.316
 5971SOL    HW118812   2.474   0.256   3.283
 5971SOL    HW218813   2.402   0.111   3.261
 5972SOL     OW18814   4.370   6.088   0.740
 5972SOL    HW118815   4.431   6.110   0.664
 5972SOL    HW218816   4.334   6.172   0.780
 5973SOL     OW18817   2.091   5.409   2.999
 5973SOL    HW118818   2.040   5.347   3.059
 5973SOL    HW218819   2.154   5.357   2.943
 5974SOL     OW18820   5.565   4.009   6.214
 5974SOL    HW118821   5.589   4.077   6.145
 5974SOL    HW218822   5.489   4.043   6.270
 5975SOL     OW18823   4.127   2.118   0.689
 5975SOL    HW118824   4.117   2.066   0.604
 5975SOL    HW218825   4.142   2.215   0.666
 5976SOL     OW18826   2.805   3.510   5.251
 5976SOL    HW118827   2.744   3.450   5.303
 5976SOL    HW218828   2.900   3.492   5.277
 5977SOL     OW18829   1.734   4.892   1.796
 5977SOL    HW118830   1.641   4.908   1.763
 5977SOL    HW218831   1.799   4.907   1.721
 5978SOL     OW18832   5.933   5.117   3.008
 5978SOL    HW118833   5.845   5.112   3.055
 5978SOL    HW218834   6.002   5.153   3.070
 5979SOL     OW18835   6.845   0.788   2.998
 5979SOL    HW118836   6.855   0.719   2.925
 5979SOL    HW218837   6.773   0.760   3.061
 5980SOL     OW18838   3.540   3.868   6.577
 5980SOL    HW118839   3.515   3.797   6.643
 5980SOL    HW218840   3.497   3.954   6.604
 5981SOL     OW18841   6.739   1.887   2.088
 5981SOL    HW118842   6.789   1.851   2.167
 5981SOL    HW218843   6.641   1.882   2.106
 5982SOL     OW18844   6.308   1.865   6.701
 5982SOL    HW118845   6.389   1.899   6.750
 5982SOL    HW218846   6.328   1.857   6.604
 5983SOL     OW18847   2.679   1.683   4.270
 5983SOL    HW118848   2.719   1.633   4.347
 5983SOL    HW218849   2.652   1.618   4.200
 5984SOL     OW18850   0.099   0.134   4.616
 5984SOL    HW118851   0.160   0.117   4.539
 5984SOL    HW218852   0.130   0.215   4.666
 5985SOL     OW18853   5.443   2.839   4.398
 5985SOL    HW118854   5.467   2.923   4.446
 5985SOL    HW218855   5.411   2.771   4.464
 5986SOL     OW18856   3.242   3.135   4.530
 5986SOL    HW118857   3.276   3.051   4.488
 5986SOL    HW218858   3.190   3.114   4.612
 5987SOL     OW18859   4.439   1.348   5.274
 5987SOL    HW118860   4.523   1.298   5.253
 5987SOL    HW218861   4.395   1.309   5.355
 5988SOL     OW18862   4.248   6.105   4.760
 5988SOL    HW118863   4.191   6.105   4.678
 5988SOL    HW218864   4.196   6.143   4.837
 5989SOL     OW18865   2.458   6.290   6.696
 5989SOL    HW118866   2.537   6.348   6.714
 5989SOL    HW218867   2.404   6.328   6.621
 5990SOL     OW18868   3.636   3.941   0.655
 5990SOL    HW118869   3.622   4.011   0.585
 5990SOL    HW218870   3.724   3.896   0.640
 5991SOL     OW18871   4.461   4.768   5.181
 5991SOL    HW118872   4.413   4.853   5.205
 5991SOL    HW218873   4.395   4.702   5.145
 5992SOL     OW18874   3.599   0.866   3.918
 5992SOL    HW118875   3.673   0.799   3.924
 5992SOL    HW218876   3.513   0.825   3.947
 5993SOL     OW18877   3.541   6.963   6.125
 5993SOL    HW118878   3.587   6.875   6.139
 5993SOL    HW218879   3.446   6.947   6.100
 5994SOL     OW18880   6.230   2.345   1.950
 5994SOL    HW118881   6.150   2.309   1.903
 5994SOL    HW218882   6.267   2.422   1.899
 5995SOL     OW18883   6.605   5.504   1.532
 5995SOL    HW118884   6.514   5.473   1.559
 5995SOL    HW218885   6.598   5.552   1.444
 5996SOL     OW18886   0.743   5.639   6.821
 5996SOL    HW118887   0.783   5.575   6.755
 5996SOL    HW218888   0.789   5.628   6.910
 5997SOL     OW18889   0.927   6.508   2.749
 5997SOL    HW118890   0.917   6.604   2.726
 5997SOL    HW218891   0.932   6.453   2.665
 5998SOL     OW18892   5.115   2.594   2.488
 5998SOL    HW118893   5.210   2.605   2.458
 5998SOL    HW218894   5.054   2.625   2.415
 5999SOL     OW18895   0.933   2.298   2.640
 5999SOL    HW118896   0.975   2.388   2.650
 5999SOL    HW218897   0.939   2.249   2.727
 6000SOL     OW18898   4.237   5.608   1.973
 6000SOL    HW118899   4.148   5.633   2.011
 6000SOL    HW218900   4.309   5.650   2.028
 6001SOL     OW18901   0.617   4.022   6.526
 6001SOL    HW118902   0.624   4.063   6.435
 6001SOL    HW218903   0.553   3.945   6.522
 6002SOL     OW18904   0.411   6.480   1.568
 6002SOL    HW118905   0.327   6.509   1.522
 6002SOL    HW218906   0.488   6.534   1.533
 6003SOL     OW18907   6.170   2.488   4.687
 6003SOL    HW118908   6.255   2.471   4.737
 6003SOL    HW218909   6.092   2.463   4.744
 6004SOL     OW18910   0.217   4.356   3.276
 6004SOL    HW118911   0.298   4.410   3.298
 6004SOL    HW218912   0.187   4.377   3.183
 6005SOL     OW18913   4.435   4.933   4.396
 6005SOL    HW118914   4.397   4.847   4.430
 6005SOL    HW218915   4.364   4.986   4.351
 6006SOL     OW18916   3.599   6.714   6.919
 6006SOL    HW118917   3.606   6.627   6.969
 6006SOL    HW218918   3.610   6.697   6.821
 6007SOL     OW18919   4.912   3.059   3.877
 6007SOL    HW118920   4.909   3.114   3.960
 6007SOL    HW218921   4.975   3.101   3.812
 6008SOL     OW18922   2.526   5.549   6.142
 6008SOL    HW118923   2.450   5.498   6.101
 6008SOL    HW218924   2.490   5.607   6.215
 6009SOL     OW18925   2.995   1.389   4.645
 6009SOL    HW118926   2.990   1.489   4.635
 6009SOL    HW218927   3.071   1.366   4.706
 6010SOL     OW18928   2.424   4.399   2.247
 6010SOL    HW118929   2.487   4.474   2.226
 6010SOL    HW218930   2.473   4.329   2.298
 6011SOL     OW18931   5.159   2.545   2.048
 6011SOL    HW118932   5.251   2.570   2.075
 6011SOL    HW218933   5.110   2.625   2.014
 6012SOL     OW18934   6.955   2.067   0.306
 6012SOL    HW118935   6.901   2.152   0.306
 6012SOL    HW218936   6.988   2.049   0.398
 6013SOL     OW18937   5.441   1.423   3.006
 6013SOL    HW118938   5.461   1.419   2.908
 6013SOL    HW218939   5.526   1.413   3.057
 6014SOL     OW18940   4.660   1.143   0.717
 6014SOL    HW118941   4.707   1.223   0.682
 6014SOL    HW218942   4.706   1.109   0.799
 6015SOL     OW18943   6.267   2.400   6.008
 6015SOL    HW118944   6.178   2.355   6.009
 6015SOL    HW218945   6.255   2.499   6.008
 6016SOL     OW18946   0.806   1.292   6.643
 6016SOL    HW118947   0.864   1.308   6.723
 6016SOL    HW218948   0.739   1.220   6.665
 6017SOL     OW18949   6.434   5.186   2.625
 6017SOL    HW118950   6.474   5.248   2.557
 6017SOL    HW218951   6.335   5.197   2.625
 6018SOL     OW18952   3.648   2.725   0.134
 6018SOL    HW118953   3.571   2.710   0.196
 6018SOL    HW218954   3.628   2.804   0.075
 6019SOL     OW18955   5.016   1.812   3.873
 6019SOL    HW118956   5.021   1.869   3.955
 6019SOL    HW218957   4.921   1.786   3.856
 6020SOL     OW18958   2.104   6.492   1.941
 6020SOL    HW118959   2.067   6.524   1.854
 6020SOL    HW218960   2.124   6.570   2.000
 6021SOL     OW18961   4.713   6.969   2.804
 6021SOL    HW118962   4.768   6.897   2.761
 6021SOL    HW218963   4.718   0.030   2.749
 6022SOL     OW18964   4.281   0.792   4.797
 6022SOL    HW118965   4.302   0.866   4.734
 6022SOL    HW218966   4.207   0.820   4.858
 6023SOL     OW18967   6.011   1.473   2.732
 6023SOL    HW118968   6.032   1.406   2.803
 6023SOL    HW218969   5.976   1.557   2.775
 6024SOL     OW18970   0.391   4.503   2.790
 6024SOL    HW118971   0.404   4.597   2.758
 6024SOL    HW218972   0.295   4.477   2.774
 6025SOL     OW18973   4.203   0.333   2.409
 6025SOL    HW118974   4.197   0.359   2.506
 6025SOL    HW218975   4.237   0.239   2.402
 6026SOL     OW18976   0.186   4.139   4.110
 6026SOL    HW118977   0.233   4.140   4.198
 6026SOL    HW218978   0.176   4.045   4.079
 6027SOL     OW18979   1.877   3.944   5.587
 6027SOL    HW118980   1.968   3.906   5.575
 6027SOL    HW218981   1.883   4.044   5.591
 6028SOL     OW18982   1.113   3.888   0.407
 6028SOL    HW118983   1.106   3.800   0.454
 6028SOL    HW218984   1.207   3.923   0.414
 6029SOL     OW18985   2.228   6.502   6.859
 6029SOL    HW118986   2.270   6.469   6.774
 6029SOL    HW218987   2.131   6.478   6.860
 6030SOL     OW18988   2.757   0.077   3.199
 6030SOL    HW118989   2.790   0.041   3.286
 6030SOL    HW218990   2.835   0.094   3.139
 6031SOL     OW18991   4.443   5.380   4.425
 6031SOL    HW118992   4.402   5.391   4.334
 6031SOL    HW218993   4.514   5.311   4.421
 6032SOL     OW18994   1.722   3.485   2.359
 6032SOL    HW118995   1.811   3.465   2.400
 6032SOL    HW218996   1.687   3.403   2.314
 6033SOL     OW18997   2.323   2.787   2.707
 6033SOL    HW118998   2.359   2.737   2.785
 6033SOL    HW218999   2.279   2.723   2.644
 6034SOL     OW19000   1.987   5.429   4.447
 6034SOL    HW119001   2.062   5.369   4.419
 6034SOL    HW219002   1.967   5.493   4.373
 6035SOL     OW19003   6.337   1.479   4.188
 6035SOL    HW119004   6.378   1.570   4.182
 6035SOL    HW219005   6.238   1.486   4.193
 6036SOL     OW19006   0.142   6.738   4.485
 6036SOL    HW119007   0.175   6.747   4.391
 6036SOL    HW219008   0.202   6.790   4.547
 6037SOL     OW19009   4.843   5.170   6.319
 6037SOL    HW119010   4.909   5.170   6.395
 6037SOL    HW219011   4.859   5.090   6.262
 6038SOL     OW19012   0.940   3.192   5.935
 6038SOL    HW119013   0.957   3.276   5.885
 6038SOL    HW219014   1.028   3.149   5.959
 6039SOL     OW19015   3.041   3.106   3.129
 6039SOL    HW119016   3.108   3.143   3.064
 6039SOL    HW219017   3.088   3.058   3.203
 6040SOL     OW19018   0.518   1.955   6.089
 6040SOL    HW119019   0.440   1.990   6.140
 6040SOL    HW219020   0.602   1.974   6.139
 6041SOL     OW19021   1.734   1.743   6.062
 6041SOL    HW119022   1.801   1.793   6.008
 6041SOL    HW219023   1.732   1.779   6.155
 6042SOL     OW19024   5.900   5.094   1.878
 6042SOL    HW119025   5.824   5.033   1.903
 6042SOL    HW219026   5.981   5.039   1.859
 6043SOL     OW19027   1.054   4.982   4.851
 6043SOL    HW119028   0.977   5.008   4.793
 6043SOL    HW219029   1.088   4.892   4.824
 6044SOL     OW19030   0.544   1.924   1.008
 6044SOL    HW119031   0.627   1.880   1.043
 6044SOL    HW219032   0.474   1.855   0.993
 6045SOL     OW19033   5.591   5.590   1.306
 6045SOL    HW119034   5.509   5.546   1.343
 6045SOL    HW219035   5.644   5.630   1.381
 6046SOL     OW19036   2.710   1.885   0.595
 6046SOL    HW119037   2.727   1.982   0.579
 6046SOL    HW219038   2.696   1.870   0.693
 6047SOL     OW19039   6.135   1.579   3.526
 6047SOL    HW119040   6.209   1.515   3.548
 6047SOL    HW219041   6.111   1.631   3.609
 6048SOL     OW19042   4.499   6.911   3.352
 6048SOL    HW119043   4.439   6.911   3.272
 6048SOL    HW219044   4.541   6.820   3.362
 6049SOL     OW19045   5.188   3.680   6.604
 6049SOL    HW119046   5.255   3.744   6.566
 6049SOL    HW219047   5.099   3.725   6.611
 6050SOL     OW19048   3.792   4.132   5.763
 6050SOL    HW119049   3.879   4.179   5.770
 6050SOL    HW219050   3.807   4.033   5.762
 6051SOL     OW19051   2.354   1.851   3.324
 6051SOL    HW119052   2.448   1.883   3.328
 6051SOL    HW219053   2.320   1.858   3.230
 6052SOL     OW19054   6.438   6.874   0.613
 6052SOL    HW119055   6.516   6.813   0.622
 6052SOL    HW219056   6.420   6.891   0.516
 6053SOL     OW19057   3.835   0.372   6.518
 6053SOL    HW119058   3.757   0.310   6.514
 6053SOL    HW219059   3.850   0.400   6.613
 6054SOL     OW19060   2.499   3.695   0.840
 6054SOL    HW119061   2.572   3.632   0.867
 6054SOL    HW219062   2.495   3.701   0.741
 6055SOL     OW19063   5.542   0.784   6.066
 6055SOL    HW119064   5.614   0.850   6.048
 6055SOL    HW219065   5.573   0.693   6.039
 6056SOL     OW19066   4.773   2.326   4.768
 6056SOL    HW119067   4.829   2.303   4.688
 6056SOL    HW219068   4.723   2.245   4.798
 6057SOL     OW19069   4.726   2.286   4.338
 6057SOL    HW119070   4.761   2.310   4.248
 6057SOL    HW219071   4.634   2.325   4.350
 6058SOL     OW19072   5.531   3.042   2.742
 6058SOL    HW119073   5.469   3.012   2.669
 6058SOL    HW219074   5.504   2.998   2.828
 6059SOL     OW19075   4.796   5.241   5.886
 6059SOL    HW119076   4.834   5.245   5.978
 6059SOL    HW219077   4.699   5.216   5.891
 6060SOL     OW19078   3.162   3.892   5.478
 6060SOL    HW119079   3.240   3.830   5.474
 6060SOL    HW219080   3.081   3.843   5.510
 6061SOL     OW19081   3.886   2.475   0.452
 6061SOL    HW119082   3.939   2.482   0.367
 6061SOL    HW219083   3.791   2.498   0.434
 6062SOL     OW19084   2.497   1.451   4.687
 6062SOL    HW119085   2.452   1.365   4.665
 6062SOL    HW219086   2.593   1.434   4.710
 6063SOL     OW19087   4.183   1.557   6.639
 6063SOL    HW119088   4.277   1.535   6.666
 6063SOL    HW219089   4.120   1.490   6.680
 6064SOL     OW19090   2.505   5.553   2.975
 6064SOL    HW119091   2.425   5.612   2.964
 6064SOL    HW219092   2.478   5.458   2.967
 6065SOL     OW19093   5.904   6.818   1.432
 6065SOL    HW119094   5.824   6.841   1.488
 6065SOL    HW219095   5.935   6.726   1.456
 6066SOL     OW19096   4.623   1.375   0.978
 6066SOL    HW119097   4.712   1.376   0.933
 6066SOL    HW219098   4.599   1.281   1.003
 6067SOL     OW19099   6.467   1.461   6.714
 6067SOL    HW119100   6.380   1.417   6.689
 6067SOL    HW219101   6.530   1.456   6.636
 6068SOL     OW19102   5.815   3.732   4.765
 6068SOL    HW119103   5.748   3.759   4.697
 6068SOL    HW219104   5.877   3.664   4.726
 6069SOL     OW19105   0.104   3.758   6.044
 6069SOL    HW119106   0.082   3.728   5.951
 6069SOL    HW219107   0.020   3.788   6.089
 6070SOL     OW19108   2.841   1.477   6.158
 6070SOL    HW119109   2.919   1.457   6.099
 6070SOL    HW219110   2.760   1.491   6.101
 6071SOL     OW19111   4.816   6.174   5.718
 6071SOL    HW119112   4.827   6.103   5.788
 6071SOL    HW219113   4.854   6.260   5.751
 6072SOL     OW19114   1.011   1.266   2.201
 6072SOL    HW119115   1.023   1.177   2.158
 6072SOL    HW219116   1.054   1.266   2.291
 6073SOL     OW19117   6.121   3.406   0.613
 6073SOL    HW119118   6.080   3.472   0.551
 6073SOL    HW219119   6.187   3.350   0.563
 6074SOL     OW19120   1.407   6.662   4.599
 6074SOL    HW119121   1.340   6.631   4.531
 6074SOL    HW219122   1.366   6.660   4.690
 6075SOL     OW19123   6.847   2.137   6.427
 6075SOL    HW119124   6.820   2.061   6.367
 6075SOL    HW219125   6.804   2.221   6.394
 6076SOL     OW19126   2.086   6.800   5.217
 6076SOL    HW119127   2.052   6.784   5.124
 6076SOL    HW219128   2.110   6.896   5.228
 6077SOL     OW19129   5.139   5.310   2.675
 6077SOL    HW119130   5.203   5.319   2.599
 6077SOL    HW219131   5.084   5.227   2.661
 6078SOL     OW19132   3.442   4.882   2.405
 6078SOL    HW119133   3.533   4.857   2.438
 6078SOL    HW219134   3.446   4.901   2.307
 6079SOL     OW19135   3.188   3.309   6.224
 6079SOL    HW119136   3.090   3.325   6.224
 6079SOL    HW219137   3.235   3.388   6.184
 6080SOL     OW19138   0.091   1.786   1.447
 6080SOL    HW119139   0.049   1.851   1.384
 6080SOL    HW219140   0.044   1.789   1.535
 6081SOL     OW19141   6.479   3.480   4.537
 6081SOL    HW119142   6.534   3.404   4.501
 6081SOL    HW219143   6.439   3.453   4.624
 6082SOL     OW19144   3.634   0.918   3.352
 6082SOL    HW119145   3.668   0.942   3.443
 6082SOL    HW219146   3.586   0.997   3.313
 6083SOL     OW19147   1.017   5.742   6.553
 6083SOL    HW119148   0.951   5.697   6.493
 6083SOL    HW219149   1.091   5.781   6.497
 6084SOL     OW19150   6.967   5.708   4.043
 6084SOL    HW119151   6.867   5.715   4.034
 6084SOL    HW219152   7.010   5.780   3.989
 6085SOL     OW19153   6.925   4.004   0.565
 6085SOL    HW119154   6.856   3.933   0.576
 6085SOL    HW219155   7.010   3.963   0.531
 6086SOL     OW19156   3.856   1.566   5.082
 6086SOL    HW119157   3.836   1.565   5.180
 6086SOL    HW219158   3.854   1.660   5.049
 6087SOL     OW19159   4.881   0.026   0.089
 6087SOL    HW119160   4.942   0.086   0.141
 6087SOL    HW219161   4.884   0.052   7.014
 6088SOL     OW19162   0.050   6.134   4.354
 6088SOL    HW119163   0.006   6.050   4.384
 6088SOL    HW219164   0.028   6.208   4.418
 6089SOL     OW19165   0.188   3.998   1.449
 6089SOL    HW119166   0.163   4.014   1.545
 6089SOL    HW219167   0.134   4.058   1.390
 6090SOL     OW19168   0.887   6.074   6.410
 6090SOL    HW119169   0.931   6.037   6.491
 6090SOL    HW219170   0.911   6.019   6.330
 6091SOL     OW19171   0.915   1.620   2.769
 6091SOL    HW119172   0.865   1.696   2.728
 6091SOL    HW219173   1.003   1.610   2.724
 6092SOL     OW19174   3.090   0.266   3.319
 6092SOL    HW119175   3.041   0.299   3.239
 6092SOL    HW219176   3.168   0.326   3.338
 6093SOL     OW19177   1.390   2.706   2.408
 6093SOL    HW119178   1.458   2.779   2.414
 6093SOL    HW219179   1.378   2.664   2.499
 6094SOL     OW19180   2.610   1.336   1.329
 6094SOL    HW119181   2.594   1.417   1.385
 6094SOL    HW219182   2.528   1.315   1.276
 6095SOL     OW19183   4.592   2.750   6.711
 6095SOL    HW119184   4.686   2.775   6.734
 6095SOL    HW219185   4.541   2.832   6.685
 6096SOL     OW19186   5.821   0.646   4.057
 6096SOL    HW119187   5.855   0.654   3.963
 6096SOL    HW219188   5.731   0.690   4.063
 6097SOL     OW19189   2.132   0.320   3.178
 6097SOL    HW119190   2.039   0.295   3.206
 6097SOL    HW219191   2.185   0.347   3.258
 6098SOL     OW19192   1.855   2.339   5.632
 6098SOL    HW119193   1.874   2.270   5.702
 6098SOL    HW219194   1.858   2.296   5.542
 6099SOL     OW19195   5.574   5.777   5.769
 6099SOL    HW119196   5.669   5.752   5.787
 6099SOL    HW219197   5.562   5.796   5.672
 6100SOL     OW19198   5.989   3.227   6.638
 6100SOL    HW119199   5.900   3.187   6.613
 6100SOL    HW219200   6.014   3.198   6.730
 6101SOL     OW19201   6.592   1.658   5.563
 6101SOL    HW119202   6.616   1.633   5.470
 6101SOL    HW219203   6.519   1.727   5.562
 6102SOL     OW19204   3.402   1.203   4.583
 6102SOL    HW119205   3.495   1.221   4.612
 6102SOL    HW219206   3.402   1.148   4.500
 6103SOL     OW19207   7.008   0.905   3.902
 6103SOL    HW119208   6.937   0.881   3.836
 6103SOL    HW219209   6.981   0.875   3.993
 6104SOL     OW19210   6.367   2.095   6.445
 6104SOL    HW119211   6.388   2.003   6.478
 6104SOL    HW219212   6.332   2.150   6.520
 6105SOL     OW19213   3.446   6.453   5.550
 6105SOL    HW119214   3.444   6.487   5.645
 6105SOL    HW219215   3.479   6.525   5.490
 6106SOL     OW19216   2.279   4.600   6.537
 6106SOL    HW119217   2.208   4.648   6.485
 6106SOL    HW219218   2.297   4.511   6.494
 6107SOL     OW19219   2.683   5.259   4.294
 6107SOL    HW119220   2.627   5.193   4.243
 6107SOL    HW219221   2.760   5.289   4.237
 6108SOL     OW19222   0.653   2.107   2.900
 6108SOL    HW119223   0.692   2.152   2.980
 6108SOL    HW219224   0.576   2.050   2.928
 6109SOL     OW19225   5.203   2.636   6.846
 6109SOL    HW119226   5.130   2.639   6.777
 6109SOL    HW219227   5.163   2.617   6.936
 6110SOL     OW19228   2.670   2.543   6.652
 6110SOL    HW119229   2.592   2.544   6.589
 6110SOL    HW219230   2.663   2.464   6.713
 6111SOL     OW19231   1.266   4.933   2.494
 6111SOL    HW119232   1.236   4.867   2.425
 6111SOL    HW219233   1.345   4.983   2.460
 6112SOL     OW19234   2.140   2.473   2.916
 6112SOL    HW119235   2.079   2.396   2.896
 6112SOL    HW219236   2.092   2.540   2.972
 6113SOL     OW19237   0.478   0.976   6.338
 6113SOL    HW119238   0.504   0.995   6.432
 6113SOL    HW219239   0.404   1.037   6.310
 6114SOL     OW19240   5.188   5.311   0.941
 6114SOL    HW119241   5.116   5.245   0.963
 6114SOL    HW219242   5.256   5.312   1.015
 6115SOL     OW19243   5.320   5.545   3.248
 6115SOL    HW119244   5.292   5.457   3.285
 6115SOL    HW219245   5.336   5.609   3.323
 6116SOL     OW19246   3.119   1.005   1.777
 6116SOL    HW119247   3.083   1.096   1.798
 6116SOL    HW219248   3.066   0.964   1.703
 6117SOL     OW19249   6.822   0.185   5.131
 6117SOL    HW119250   6.831   0.137   5.043
 6117SOL    HW219251   6.899   0.162   5.190
 6118SOL     OW19252   0.179   2.149   1.545
 6118SOL    HW119253   0.144   2.229   1.495
 6118SOL    HW219254   0.213   2.178   1.634
 6119SOL     OW19255   0.253   4.609   4.261
 6119SOL    HW119256   0.340   4.573   4.296
 6119SOL    HW219257   0.209   4.540   4.204
 6120SOL     OW19258   3.088   0.018   3.684
 6120SOL    HW119259   2.994   0.055   3.684
 6120SOL    HW219260   3.140   0.061   3.758
 6121SOL     OW19261   6.758   2.745   4.916
 6121SOL    HW119262   6.853   2.749   4.947
 6121SOL    HW219263   6.712   2.832   4.938
 6122SOL     OW19264   3.749   6.599   2.366
 6122SOL    HW119265   3.830   6.567   2.414
 6122SOL    HW219266   3.673   6.535   2.381
 6123SOL     OW19267   0.101   0.997   1.433
 6123SOL    HW119268   0.189   1.040   1.412
 6123SOL    HW219269   0.049   1.056   1.494
 6124SOL     OW19270   3.303   6.487   5.090
 6124SOL    HW119271   3.249   6.448   5.015
 6124SOL    HW219272   3.319   6.584   5.072
 6125SOL     OW19273   2.500   5.677   1.204
 6125SOL    HW119274   2.471   5.671   1.299
 6125SOL    HW219275   2.556   5.597   1.181
 6126SOL     OW19276   5.314   5.886   4.205
 6126SOL    HW119277   5.312   5.892   4.105
 6126SOL    HW219278   5.383   5.820   4.233
 6127SOL     OW19279   2.131   6.850   1.359
 6127SOL    HW119280   2.046   6.823   1.405
 6127SOL    HW219281   2.206   6.792   1.390
 6128SOL     OW19282   6.730   2.825   0.278
 6128SOL    HW119283   6.712   2.828   0.377
 6128SOL    HW219284   6.772   2.738   0.254
 6129SOL     OW19285   6.539   3.833   2.915
 6129SOL    HW119286   6.570   3.835   2.820
 6129SOL    HW219287   6.589   3.762   2.964
 6130SOL     OW19288   6.571   3.145   4.673
 6130SOL    HW119289   6.536   3.226   4.722
 6130SOL    HW219290   6.652   3.110   4.721
 6131SOL     OW19291   0.157   1.450   5.523
 6131SOL    HW119292   0.229   1.487   5.463
 6131SOL    HW219293   0.090   1.401   5.468
 6132SOL     OW19294   3.103   0.707   1.155
 6132SOL    HW119295   3.166   0.766   1.104
 6132SOL    HW219296   3.118   0.719   1.253
 6133SOL     OW19297   0.533   2.843   2.991
 6133SOL    HW119298   0.600   2.863   2.920
 6133SOL    HW219299   0.510   2.926   3.041
 6134SOL     OW19300   4.086   3.192   6.202
 6134SOL    HW119301   4.051   3.283   6.221
 6134SOL    HW219302   4.185   3.196   6.188
 6135SOL     OW19303   6.112   0.044   1.912
 6135SOL    HW119304   6.204   0.010   1.928
 6135SOL    HW219305   6.047   7.017   1.971
 6136SOL     OW19306   0.784   1.404   2.510
 6136SOL    HW119307   0.796   1.417   2.609
 6136SOL    HW219308   0.870   1.427   2.463
 6137SOL     OW19309   3.678   1.331   6.002
 6137SOL    HW119310   3.584   1.339   6.034
 6137SOL    HW219311   3.702   1.235   5.992
 6138SOL     OW19312   3.766   6.840   2.529
 6138SOL    HW119313   3.780   6.756   2.477
 6138SOL    HW219314   3.729   6.818   2.619
 6139SOL     OW19315   2.113   3.351   4.764
 6139SOL    HW119316   2.131   3.384   4.857
 6139SOL    HW219317   2.161   3.264   4.750
 6140SOL     OW19318   0.609   6.632   2.001
 6140SOL    HW119319   0.513   6.623   1.973
 6140SOL    HW219320   0.614   6.655   2.098
 6141SOL     OW19321   6.183   6.558   4.328
 6141SOL    HW119322   6.171   6.462   4.355
 6141SOL    HW219323   6.201   6.613   4.410
 6142SOL     OW19324   0.223   5.569   0.660
 6142SOL    HW119325   0.177   5.552   0.572
 6142SOL    HW219326   0.242   5.481   0.704
 6143SOL     OW19327   5.700   4.661   6.746
 6143SOL    HW119328   5.687   4.563   6.758
 6143SOL    HW219329   5.741   4.678   6.656
 6144SOL     OW19330   6.745   4.549   2.541
 6144SOL    HW119331   6.829   4.546   2.487
 6144SOL    HW219332   6.717   4.644   2.554
 6145SOL     OW19333   4.640   5.789   3.787
 6145SOL    HW119334   4.698   5.857   3.832
 6145SOL    HW219335   4.553   5.831   3.762
 6146SOL     OW19336   4.410   1.024   3.466
 6146SOL    HW119337   4.354   1.029   3.383
 6146SOL    HW219338   4.475   1.100   3.467
 6147SOL     OW19339   1.621   4.557   3.302
 6147SOL    HW119340   1.613   4.498   3.221
 6147SOL    HW219341   1.626   4.500   3.384
 6148SOL     OW19342   6.974   6.588   4.231
 6148SOL    HW119343   7.003   6.675   4.191
 6148SOL    HW219344   6.955   6.600   4.328
 6149SOL     OW19345   3.524   5.153   3.189
 6149SOL    HW119346   3.431   5.117   3.179
 6149SOL    HW219347   3.590   5.078   3.186
 6150SOL     OW19348   4.348   5.079   6.962
 6150SOL    HW119349   4.296   5.013   6.909
 6150SOL    HW219350   4.445   5.071   6.941
 6151SOL     OW19351   5.987   3.550   4.676
 6151SOL    HW119352   6.019   3.456   4.682
 6151SOL    HW219353   6.035   3.597   4.602
 6152SOL     OW19354   5.193   4.709   5.788
 6152SOL    HW119355   5.226   4.735   5.697
 6152SOL    HW219356   5.224   4.777   5.854
 6153SOL     OW19357   4.697   3.963   1.715
 6153SOL    HW119358   4.753   3.909   1.653
 6153SOL    HW219359   4.603   3.928   1.715
 6154SOL     OW19360   5.336   1.346   1.968
 6154SOL    HW119361   5.264   1.364   1.901
 6154SOL    HW219362   5.406   1.417   1.961
 6155SOL     OW19363   1.472   2.973   4.207
 6155SOL    HW119364   1.450   2.922   4.290
 6155SOL    HW219365   1.568   2.957   4.183
 6156SOL     OW19366   4.696   5.245   2.551
 6156SOL    HW119367   4.713   5.333   2.595
 6156SOL    HW219368   4.621   5.254   2.486
 6157SOL     OW19369   1.146   2.314   3.535
 6157SOL    HW119370   1.184   2.364   3.613
 6157SOL    HW219371   1.065   2.362   3.501
 6158SOL     OW19372   4.987   0.804   6.574
 6158SOL    HW119373   5.035   0.890   6.593
 6158SOL    HW219374   4.901   0.824   6.527
 6159SOL     OW19375   4.955   1.521   0.133
 6159SOL    HW119376   4.977   1.590   0.202
 6159SOL    HW219377   4.908   1.444   0.176
 6160SOL     OW19378   5.776   5.858   0.432
 6160SOL    HW119379   5.712   5.783   0.450
 6160SOL    HW219380   5.797   5.861   0.335
 6161SOL     OW19381   5.900   2.026   5.963
 6161SOL    HW119382   5.995   2.055   5.952
 6161SOL    HW219383   5.863   2.064   6.048
 6162SOL     OW19384   0.795   5.244   4.474
 6162SOL    HW119385   0.740   5.307   4.528
 6162SOL    HW219386   0.751   5.229   4.385
 6163SOL     OW19387   5.777   5.414   0.827
 6163SOL    HW119388   5.692   5.395   0.877
 6163SOL    HW219389   5.762   5.401   0.729
 6164SOL     OW19390   1.995   2.831   1.819
 6164SOL    HW119391   1.900   2.818   1.845
 6164SOL    HW219392   2.005   2.823   1.720
 6165SOL     OW19393   4.003   5.849   0.115
 6165SOL    HW119394   4.083   5.852   0.056
 6165SOL    HW219395   3.925   5.889   0.068
 6166SOL     OW19396   3.470   1.022   5.523
 6166SOL    HW119397   3.469   0.952   5.595
 6166SOL    HW219398   3.399   1.090   5.542
 6167SOL     OW19399   0.838   4.935   2.196
 6167SOL    HW119400   0.838   5.034   2.209
 6167SOL    HW219401   0.751   4.897   2.227
 6168SOL     OW19402   0.487   3.761   1.104
 6168SOL    HW119403   0.580   3.772   1.069
 6168SOL    HW219404   0.442   3.685   1.057
 6169SOL     OW19405   1.610   3.121   1.895
 6169SOL    HW119406   1.544   3.111   1.969
 6169SOL    HW219407   1.697   3.155   1.931
 6170SOL     OW19408   0.212   3.157   4.979
 6170SOL    HW119409   0.273   3.145   5.058
 6170SOL    HW219410   0.131   3.208   5.007
 6171SOL     OW19411   0.149   1.346   0.436
 6171SOL    HW119412   0.172   1.388   0.349
 6171SOL    HW219413   0.150   1.246   0.426
 6172SOL     OW19414   0.627   2.574   3.106
 6172SOL    HW119415   0.597   2.668   3.085
 6172SOL    HW219416   0.683   2.540   3.031
 6173SOL     OW19417   6.693   5.482   2.990
 6173SOL    HW119418   6.759   5.517   2.924
 6173SOL    HW219419   6.729   5.399   3.033
 6174SOL     OW19420   4.797   5.251   3.334
 6174SOL    HW119421   4.756   5.202   3.257
 6174SOL    HW219422   4.897   5.247   3.327
 6175SOL     OW19423   3.104   0.868   4.827
 6175SOL    HW119424   3.115   0.783   4.775
 6175SOL    HW219425   3.186   0.924   4.816
 6176SOL     OW19426   4.405   3.542   5.305
 6176SOL    HW119427   4.494   3.549   5.260
 6176SOL    HW219428   4.347   3.618   5.277
 6177SOL     OW19429   5.768   1.938   1.431
 6177SOL    HW119430   5.797   1.871   1.363
 6177SOL    HW219431   5.716   1.892   1.503
 6178SOL     OW19432   4.884   3.604   1.949
 6178SOL    HW119433   4.895   3.665   2.027
 6178SOL    HW219434   4.899   3.510   1.978
 6179SOL     OW19435   6.692   4.710   1.557
 6179SOL    HW119436   6.770   4.712   1.494
 6179SOL    HW219437   6.644   4.623   1.547
 6180SOL     OW19438   3.044   4.708   0.883
 6180SOL    HW119439   3.044   4.608   0.885
 6180SOL    HW219440   3.118   4.740   0.824
 6181SOL     OW19441   5.127   5.797   6.094
 6181SOL    HW119442   5.156   5.703   6.076
 6181SOL    HW219443   5.207   5.856   6.103
 6182SOL     OW19444   4.020   2.968   6.945
 6182SOL    HW119445   4.032   2.919   0.009
 6182SOL    HW219446   4.046   2.909   6.869
 6183SOL     OW19447   1.833   2.167   1.305
 6183SOL    HW119448   1.850   2.164   1.207
 6183SOL    HW219449   1.917   2.193   1.353
 6184SOL     OW19450   3.042   0.599   5.998
 6184SOL    HW119451   3.121   0.625   5.943
 6184SOL    HW219452   2.963   0.585   5.939
 6185SOL     OW19453   2.655   3.482   5.781
 6185SOL    HW119454   2.582   3.423   5.817
 6185SOL    HW219455   2.622   3.577   5.778
 6186SOL     OW19456   0.064   2.099   1.876
 6186SOL    HW119457   7.006   2.123   1.931
 6186SOL    HW219458   0.143   2.152   1.907
 6187SOL     OW19459   4.708   2.643   4.866
 6187SOL    HW119460   4.712   2.650   4.966
 6187SOL    HW219461   4.664   2.556   4.841
 6188SOL     OW19462   1.541   1.682   5.222
 6188SOL    HW119463   1.462   1.717   5.172
 6188SOL    HW219464   1.575   1.600   5.176
 6189SOL     OW19465   4.213   5.431   2.346
 6189SOL    HW119466   4.185   5.402   2.254
 6189SOL    HW219467   4.154   5.505   2.378
 6190SOL     OW19468   6.405   3.636   5.825
 6190SOL    HW119469   6.469   3.621   5.901
 6190SOL    HW219470   6.422   3.726   5.785
 6191SOL     OW19471   2.028   2.850   5.317
 6191SOL    HW119472   1.984   2.931   5.278
 6191SOL    HW219473   2.126   2.855   5.300
 6192SOL     OW19474   2.010   1.643   6.248
 6192SOL    HW119475   2.000   1.709   6.173
 6192SOL    HW219476   2.076   1.678   6.314
 6193SOL     OW19477   5.206   5.259   0.536
 6193SOL    HW119478   5.129   5.284   0.596
 6193SOL    HW219479   5.175   5.260   0.441
 6194SOL     OW19480   6.652   0.687   6.885
 6194SOL    HW119481   6.654   0.779   6.847
 6194SOL    HW219482   6.578   0.680   6.952
 6195SOL     OW19483   5.532   7.021   4.645
 6195SOL    HW119484   5.450   7.000   4.592
 6195SOL    HW219485   5.595   0.054   4.590
 6196SOL     OW19486   5.750   4.610   3.012
 6196SOL    HW119487   5.660   4.582   3.046
 6196SOL    HW219488   5.790   4.676   3.076
 6197SOL     OW19489   2.610   5.466   2.516
 6197SOL    HW119490   2.687   5.509   2.563
 6197SOL    HW219491   2.569   5.397   2.575
 6198SOL     OW19492   5.890   6.105   6.484
 6198SOL    HW119493   5.874   6.143   6.393
 6198SOL    HW219494   5.975   6.142   6.522
 6199SOL     OW19495   0.854   0.912   0.784
 6199SOL    HW119496   0.792   0.961   0.724
 6199SOL    HW219497   0.917   0.856   0.730
 6200SOL     OW19498   1.306   1.015   2.457
 6200SOL    HW119499   1.384   1.042   2.513
 6200SOL    HW219500   1.335   0.945   2.391
 6201SOL     OW19501   0.216   4.794   4.048
 6201SOL    HW119502   0.296   4.780   3.990
 6201SOL    HW219503   0.229   4.746   4.135
 6202SOL     OW19504   6.237   1.701   2.897
 6202SOL    HW119505   6.211   1.702   2.800
 6202SOL    HW219506   6.337   1.698   2.904
 6203SOL     OW19507   6.519   5.706   1.766
 6203SOL    HW119508   6.607   5.753   1.764
 6203SOL    HW219509   6.515   5.647   1.847
 6204SOL     OW19510   1.121   6.243   4.843
 6204SOL    HW119511   1.104   6.276   4.750
 6204SOL    HW219512   1.142   6.321   4.902
 6205SOL     OW19513   4.713   4.895   1.806
 6205SOL    HW119514   4.781   4.885   1.879
 6205SOL    HW219515   4.690   4.805   1.769
 6206SOL     OW19516   4.601   2.087   3.676
 6206SOL    HW119517   4.521   2.070   3.733
 6206SOL    HW219518   4.573   2.133   3.592
 6207SOL     OW19519   1.640   6.048   4.442
 6207SOL    HW119520   1.690   6.026   4.358
 6207SOL    HW219521   1.650   6.145   4.461
 6208SOL     OW19522   3.647   2.380   6.225
 6208SOL    HW119523   3.634   2.345   6.318
 6208SOL    HW219524   3.736   2.425   6.219
 6209SOL     OW19525   3.677   4.125   0.871
 6209SOL    HW119526   3.729   4.103   0.954
 6209SOL    HW219527   3.666   4.042   0.816
 6210SOL     OW19528   5.176   3.650   3.141
 6210SOL    HW119529   5.076   3.651   3.141
 6210SOL    HW219530   5.208   3.630   3.048
 6211SOL     OW19531   4.504   5.493   5.344
 6211SOL    HW119532   4.514   5.484   5.443
 6211SOL    HW219533   4.414   5.530   5.323
 6212SOL     OW19534   2.481   4.883   4.918
 6212SOL    HW119535   2.398   4.887   4.861
 6212SOL    HW219536   2.479   4.957   4.985
 6213SOL     OW19537   4.907   6.332   0.456
 6213SOL    HW119538   4.972   6.257   0.465
 6213SOL    HW219539   4.952   6.409   0.410
 6214SOL     OW19540   5.245   5.378   5.445
 6214SOL    HW119541   5.262   5.282   5.469
 6214SOL    HW219542   5.183   5.382   5.366
 6215SOL     OW19543   4.977   3.128   6.214
 6215SOL    HW119544   4.891   3.097   6.254
 6215SOL    HW219545   4.958   3.199   6.145
 6216SOL     OW19546   5.776   3.126   3.243
 6216SOL    HW119547   5.814   3.035   3.227
 6216SOL    HW219548   5.825   3.194   3.188
 6217SOL     OW19549   0.607   4.617   2.250
 6217SOL    HW119550   0.591   4.708   2.289
 6217SOL    HW219551   0.572   4.547   2.313
 6218SOL     OW19552   4.906   5.663   6.983
 6218SOL    HW119553   4.856   5.749   6.973
 6218SOL    HW219554   4.842   5.589   7.000
 6219SOL     OW19555   1.223   0.691   5.119
 6219SOL    HW119556   1.276   0.732   5.045
 6219SOL    HW219557   1.153   0.631   5.080
 6220SOL     OW19558   3.726   0.744   0.225
 6220SOL    HW119559   3.761   0.655   0.252
 6220SOL    HW219560   3.802   0.809   0.217
 6221SOL     OW19561   6.514   6.088   6.437
 6221SOL    HW119562   6.507   6.013   6.370
 6221SOL    HW219563   6.588   6.067   6.501
 6222SOL     OW19564   5.705   1.664   2.102
 6222SOL    HW119565   5.609   1.685   2.082
 6222SOL    HW219566   5.728   1.573   2.066
 6223SOL     OW19567   0.698   5.356   3.802
 6223SOL    HW119568   0.756   5.277   3.780
 6223SOL    HW219569   0.755   5.438   3.812
 6224SOL     OW19570   4.493   1.024   6.219
 6224SOL    HW119571   4.409   1.011   6.272
 6224SOL    HW219572   4.471   1.028   6.122
 6225SOL     OW19573   4.256   1.182   6.536
 6225SOL    HW119574   4.262   1.267   6.483
 6225SOL    HW219575   4.273   1.202   6.632
 6226SOL     OW19576   1.078   1.652   4.113
 6226SOL    HW119577   1.065   1.691   4.204
 6226SOL    HW219578   1.062   1.723   4.044
 6227SOL     OW19579   3.199   4.540   5.325
 6227SOL    HW119580   3.114   4.565   5.280
 6227SOL    HW219581   3.206   4.589   5.412
 6228SOL     OW19582   1.913   2.406   3.539
 6228SOL    HW119583   1.845   2.437   3.604
 6228SOL    HW219584   2.001   2.450   3.558
 6229SOL     OW19585   7.016   3.296   4.896
 6229SOL    HW119586   0.079   3.274   4.848
 6229SOL    HW219587   6.972   3.375   4.852
 6230SOL     OW19588   0.216   1.569   2.875
 6230SOL    HW119589   0.286   1.623   2.828
 6230SOL    HW219590   0.177   1.503   2.812
 6231SOL     OW19591   5.355   4.438   0.341
 6231SOL    HW119592   5.389   4.368   0.404
 6231SOL    HW219593   5.394   4.527   0.366
 6232SOL     OW19594   5.777   0.561   0.450
 6232SOL    HW119595   5.733   0.538   0.363
 6232SOL    HW219596   5.740   0.647   0.484
 6233SOL     OW19597   0.444   3.572   2.029
 6233SOL    HW119598   0.522   3.616   2.075
 6233SOL    HW219599   0.475   3.531   1.943
 6234SOL     OW19600   0.249   6.753   4.221
 6234SOL    HW119601   0.280   6.661   4.194
 6234SOL    HW219602   0.163   6.774   4.174
 6235SOL     OW19603   0.047   0.682   2.412
 6235SOL    HW119604   0.040   0.604   2.349
 6235SOL    HW219605   0.125   0.739   2.386
 6236SOL     OW19606   0.883   4.327   0.533
 6236SOL    HW119607   0.846   4.322   0.625
 6236SOL    HW219608   0.826   4.387   0.477
 6237SOL     OW19609   3.799   6.989   0.606
 6237SOL    HW119610   3.725   6.957   0.666
 6237SOL    HW219611   3.759   0.018   0.530
 6238SOL     OW19612   3.388   6.429   3.519
 6238SOL    HW119613   3.338   6.447   3.434
 6238SOL    HW219614   3.344   6.476   3.594
 6239SOL     OW19615   4.089   6.780   2.404
 6239SOL    HW119616   4.188   6.773   2.402
 6239SOL    HW219617   4.061   6.843   2.476
 6240SOL     OW19618   2.966   3.694   4.765
 6240SOL    HW119619   2.974   3.792   4.784
 6240SOL    HW219620   2.947   3.680   4.667
 6241SOL     OW19621   3.682   6.943   3.919
 6241SOL    HW119622   3.621   6.982   3.851
 6241SOL    HW219623   3.777   6.958   3.891
 6242SOL     OW19624   2.735   2.048   2.658
 6242SOL    HW119625   2.748   2.121   2.591
 6242SOL    HW219626   2.677   1.976   2.619
 6243SOL     OW19627   6.097   0.599   6.267
 6243SOL    HW119628   6.163   0.646   6.326
 6243SOL    HW219629   6.113   0.624   6.172
 6244SOL     OW19630   4.520   4.432   2.635
 6244SOL    HW119631   4.555   4.454   2.544
 6244SOL    HW219632   4.536   4.509   2.697
 6245SOL     OW19633   0.776   4.694   2.542
 6245SOL    HW119634   0.765   4.776   2.598
 6245SOL    HW219635   0.835   4.714   2.464
 6246SOL     OW19636   1.462   6.907   4.494
 6246SOL    HW119637   1.408   6.901   4.410
 6246SOL    HW219638   1.451   6.823   4.547
 6247SOL     OW19639   7.012   5.493   3.641
 6247SOL    HW119640   6.930   5.550   3.629
 6247SOL    HW219641   7.018   5.463   3.736
 6248SOL     OW19642   4.238   3.034   6.603
 6248SOL    HW119643   4.221   3.132   6.605
 6248SOL    HW219644   4.195   2.994   6.522
 6249SOL     OW19645   6.894   3.415   1.391
 6249SOL    HW119646   6.927   3.470   1.467
 6249SOL    HW219647   6.876   3.322   1.423
 6250SOL     OW19648   0.017   6.950   0.894
 6250SOL    HW119649   0.111   6.929   0.920
 6250SOL    HW219650   0.015   6.981   0.799
 6251SOL     OW19651   3.246   6.789   4.444
 6251SOL    HW119652   3.236   6.690   4.435
 6251SOL    HW219653   3.155   6.831   4.446
 6252SOL     OW19654   2.854   5.307   6.947
 6252SOL    HW119655   2.848   5.273   6.854
 6252SOL    HW219656   2.761   5.318   6.984
 6253SOL     OW19657   3.236   4.892   4.388
 6253SOL    HW119658   3.214   4.834   4.310
 6253SOL    HW219659   3.151   4.923   4.431
 6254SOL     OW19660   0.369   5.734   1.040
 6254SOL    HW119661   0.418   5.648   1.051
 6254SOL    HW219662   0.390   5.773   0.951
 6255SOL     OW19663   2.169   1.922   1.220
 6255SOL    HW119664   2.159   1.976   1.137
 6255SOL    HW219665   2.118   1.966   1.294
 6256SOL     OW19666   4.976   5.829   2.228
 6256SOL    HW119667   4.900   5.779   2.267
 6256SOL    HW219668   4.970   5.926   2.254
 6257SOL     OW19669   4.193   3.674   0.586
 6257SOL    HW119670   4.151   3.594   0.545
 6257SOL    HW219671   4.127   3.720   0.646
 6258SOL     OW19672   4.226   0.067   6.294
 6258SOL    HW119673   4.211   0.036   6.200
 6258SOL    HW219674   4.158   0.138   6.317
 6259SOL     OW19675   1.909   0.076   5.782
 6259SOL    HW119676   1.867   7.017   5.824
 6259SOL    HW219677   1.955   0.049   5.697
 6260SOL     OW19678   1.817   0.743   0.199
 6260SOL    HW119679   1.748   0.682   0.160
 6260SOL    HW219680   1.783   0.782   0.285
 6261SOL     OW19681   4.807   6.925   1.657
 6261SOL    HW119682   4.729   6.897   1.712
 6261SOL    HW219683   4.822   6.860   1.583
 6262SOL     OW19684   6.764   6.203   2.622
 6262SOL    HW119685   6.723   6.248   2.701
 6262SOL    HW219686   6.715   6.118   2.603
 6263SOL     OW19687   0.120   6.352   4.201
 6263SOL    HW119688   0.059   6.429   4.220
 6263SOL    HW219689   0.085   6.270   4.246
 6264SOL     OW19690   0.592   6.927   1.387
 6264SOL    HW119691   0.586   6.856   1.458
 6264SOL    HW219692   0.510   6.983   1.389
 6265SOL     OW19693   3.856   3.026   0.820
 6265SOL    HW119694   3.885   2.931   0.814
 6265SOL    HW219695   3.906   3.072   0.893
 6266SOL     OW19696   3.358   5.950   2.817
 6266SOL    HW119697   3.321   5.873   2.765
 6266SOL    HW219698   3.387   6.022   2.753
 6267SOL     OW19699   1.196   6.229   5.671
 6267SOL    HW119700   1.203   6.174   5.754
 6267SOL    HW219701   1.242   6.183   5.595
 6268SOL     OW19702   3.919   0.421   1.875
 6268SOL    HW119703   3.915   0.473   1.960
 6268SOL    HW219704   3.825   0.403   1.843
 6269SOL     OW19705   5.664   6.476   1.423
 6269SOL    HW119706   5.696   6.457   1.515
 6269SOL    HW219707   5.720   6.547   1.382
 6270SOL     OW19708   0.951   6.338   6.974
 6270SOL    HW119709   1.031   6.278   6.978
 6270SOL    HW219710   0.896   6.327   0.035
 6271SOL     OW19711   6.137   2.852   0.042
 6271SOL    HW119712   6.234   2.827   0.046
 6271SOL    HW219713   6.112   2.873   6.969
 6272SOL     OW19714   6.598   0.229   6.939
 6272SOL    HW119715   6.630   0.282   7.018
 6272SOL    HW219716   6.499   0.236   6.932
 6273SOL     OW19717   0.168   6.761   2.028
 6273SOL    HW119718   0.138   6.843   2.077
 6273SOL    HW219719   0.157   6.775   1.930
 6274SOL     OW19720   3.119   6.369   4.898
 6274SOL    HW119721   3.147   6.311   4.822
 6274SOL    HW219722   3.028   6.406   4.879
 6275SOL     OW19723   2.402   6.303   0.436
 6275SOL    HW119724   2.461   6.379   0.408
 6275SOL    HW219725   2.456   6.236   0.487
 6276SOL     OW19726   3.196   5.764   3.533
 6276SOL    HW119727   3.194   5.722   3.443
 6276SOL    HW219728   3.282   5.741   3.578
 6277SOL     OW19729   5.155   2.209   1.628
 6277SOL    HW119730   5.218   2.247   1.560
 6277SOL    HW219731   5.116   2.283   1.683
 6278SOL     OW19732   3.347   0.168   5.631
 6278SOL    HW119733   3.375   0.080   5.592
 6278SOL    HW219734   3.263   0.155   5.683
 6279SOL     OW19735   3.268   5.511   0.939
 6279SOL    HW119736   3.356   5.480   0.976
 6279SOL    HW219737   3.285   5.575   0.863
 6280SOL     OW19738   6.306   1.630   6.854
 6280SOL    HW119739   6.376   1.591   6.794
 6280SOL    HW219740   6.302   1.729   6.841
 6281SOL     OW19741   6.126   3.645   4.477
 6281SOL    HW119742   6.168   3.579   4.415
 6281SOL    HW219743   6.196   3.710   4.509
 6282SOL     OW19744   0.140   4.027   5.832
 6282SOL    HW119745   0.169   3.958   5.765
 6282SOL    HW219746   0.220   4.076   5.867
 6283SOL     OW19747   1.109   5.808   5.158
 6283SOL    HW119748   1.100   5.741   5.231
 6283SOL    HW219749   1.044   5.787   5.085
 6284SOL     OW19750   2.034   4.196   6.883
 6284SOL    HW119751   1.991   4.284   6.863
 6284SOL    HW219752   1.972   4.122   6.855
 6285SOL     OW19753   1.788   3.971   3.015
 6285SOL    HW119754   1.801   3.943   2.919
 6285SOL    HW219755   1.692   3.988   3.032
 6286SOL     OW19756   0.481   3.322   4.698
 6286SOL    HW119757   0.400   3.370   4.731
 6286SOL    HW219758   0.521   3.268   4.773
 6287SOL     OW19759   4.303   4.548   5.443
 6287SOL    HW119760   4.269   4.640   5.460
 6287SOL    HW219761   4.316   4.500   5.530
 6288SOL     OW19762   4.003   3.503   6.463
 6288SOL    HW119763   3.979   3.434   6.395
 6288SOL    HW219764   3.925   3.518   6.525
 6289SOL     OW19765   2.333   4.406   6.375
 6289SOL    HW119766   2.412   4.345   6.372
 6289SOL    HW219767   2.340   4.473   6.301
 6290SOL     OW19768   6.351   4.980   6.323
 6290SOL    HW119769   6.375   4.887   6.351
 6290SOL    HW219770   6.405   5.006   6.243
 6291SOL     OW19771   3.314   3.346   2.733
 6291SOL    HW119772   3.221   3.323   2.702
 6291SOL    HW219773   3.322   3.445   2.742
 6292SOL     OW19774   1.992   2.857   4.575
 6292SOL    HW119775   1.991   2.820   4.668
 6292SOL    HW219776   2.073   2.915   4.564
 6293SOL     OW19777   5.482   1.145   0.093
 6293SOL    HW119778   5.581   1.149   0.104
 6293SOL    HW219779   5.450   1.233   0.056
 6294SOL     OW19780   3.215   1.038   3.740
 6294SOL    HW119781   3.289   0.985   3.698
 6294SOL    HW219782   3.215   1.023   3.838
 6295SOL     OW19783   5.502   4.834   4.699
 6295SOL    HW119784   5.531   4.807   4.791
 6295SOL    HW219785   5.440   4.765   4.661
 6296SOL     OW19786   0.517   3.433   6.328
 6296SOL    HW119787   0.521   3.483   6.241
 6296SOL    HW219788   0.436   3.375   6.330
 6297SOL     OW19789   6.418   0.318   4.533
 6297SOL    HW119790   6.508   0.274   4.539
 6297SOL    HW219791   6.355   0.274   4.598
 6298SOL     OW19792   5.943   4.607   6.969
 6298SOL    HW119793   5.888   4.673   6.917
 6298SOL    HW219794   5.925   4.618   0.045
 6299SOL     OW19795   5.241   2.274   2.841
 6299SOL    HW119796   5.251   2.280   2.940
 6299SOL    HW219797   5.310   2.330   2.797
 6300SOL     OW19798   4.399   1.635   6.274
 6300SOL    HW119799   4.485   1.617   6.323
 6300SOL    HW219800   4.338   1.557   6.285
 6301SOL     OW19801   3.192   6.584   6.693
 6301SOL    HW119802   3.212   6.526   6.614
 6301SOL    HW219803   3.160   6.527   6.769
 6302SOL     OW19804   2.543   1.369   5.322
 6302SOL    HW119805   2.523   1.297   5.388
 6302SOL    HW219806   2.582   1.448   5.369
 6303SOL     OW19807   1.082   6.515   5.683
 6303SOL    HW119808   1.120   6.486   5.595
 6303SOL    HW219809   1.107   6.450   5.754
 6304SOL     OW19810   4.291   1.060   3.237
 6304SOL    HW119811   4.218   1.123   3.261
 6304SOL    HW219812   4.284   1.035   3.141
 6305SOL     OW19813   6.803   5.823   5.362
 6305SOL    HW119814   6.863   5.845   5.439
 6305SOL    HW219815   6.772   5.729   5.369
 6306SOL     OW19816   0.598   4.190   3.930
 6306SOL    HW119817   0.583   4.281   3.969
 6306SOL    HW219818   0.676   4.193   3.867
 6307SOL     OW19819   4.057   3.827   3.967
 6307SOL    HW119820   4.023   3.758   3.902
 6307SOL    HW219821   4.101   3.781   4.044
 6308SOL     OW19822   0.369   2.297   6.028
 6308SOL    HW119823   0.281   2.304   5.981
 6308SOL    HW219824   0.367   2.218   6.089
 6309SOL     OW19825   1.147   6.628   4.433
 6309SOL    HW119826   1.095   6.609   4.350
 6309SOL    HW219827   1.090   6.610   4.513
 6310SOL     OW19828   1.584   6.728   3.195
 6310SOL    HW119829   1.531   6.811   3.216
 6310SOL    HW219830   1.657   6.751   3.131
 6311SOL     OW19831   5.405   0.790   6.321
 6311SOL    HW119832   5.434   0.833   6.407
 6311SOL    HW219833   5.471   0.811   6.249
 6312SOL     OW19834   2.894   6.633   6.616
 6312SOL    HW119835   2.987   6.598   6.622
 6312SOL    HW219836   2.835   6.564   6.573
 6313SOL     OW19837   4.846   6.404   3.432
 6313SOL    HW119838   4.870   6.315   3.393
 6313SOL    HW219839   4.747   6.412   3.439
 6314SOL     OW19840   2.569   0.430   1.644
 6314SOL    HW119841   2.616   0.385   1.569
 6314SOL    HW219842   2.636   0.473   1.705
 6315SOL     OW19843   1.750   2.562   4.207
 6315SOL    HW119844   1.778   2.473   4.241
 6315SOL    HW219845   1.824   2.628   4.221
 6316SOL     OW19846   5.326   1.904   5.614
 6316SOL    HW119847   5.319   1.810   5.649
 6316SOL    HW219848   5.416   1.918   5.573
 6317SOL     OW19849   5.058   4.535   2.384
 6317SOL    HW119850   5.139   4.477   2.398
 6317SOL    HW219851   5.050   4.600   2.459
 6318SOL     OW19852   6.313   0.162   6.555
 6318SOL    HW119853   6.264   0.221   6.490
 6318SOL    HW219854   6.249   0.096   6.595
 6319SOL     OW19855   5.379   2.819   4.893
 6319SOL    HW119856   5.284   2.798   4.870
 6319SOL    HW219857   5.401   2.782   4.983
 6320SOL     OW19858   0.416   0.795   3.939
 6320SOL    HW119859   0.485   0.852   3.983
 6320SOL    HW219860   0.331   0.847   3.928
 6321SOL     OW19861   5.413   2.296   0.677
 6321SOL    HW119862   5.356   2.314   0.757
 6321SOL    HW219863   5.394   2.204   0.642
 6322SOL     OW19864   2.009   0.956   0.346
 6322SOL    HW119865   2.070   0.878   0.361
 6322SOL    HW219866   2.009   1.014   0.428
 6323SOL     OW19867   2.727   2.520   1.092
 6323SOL    HW119868   2.758   2.466   1.014
 6323SOL    HW219869   2.712   2.615   1.062
 6324SOL     OW19870   4.630   1.096   1.028
 6324SOL    HW119871   4.562   1.024   1.029
 6324SOL    HW219872   4.629   1.144   1.116
 6325SOL     OW19873   1.597   2.565   2.288
 6325SOL    HW119874   1.538   2.630   2.337
 6325SOL    HW219875   1.691   2.575   2.320
 6326SOL     OW19876   4.702   4.935   5.858
 6326SOL    HW119877   4.711   4.950   5.956
 6326SOL    HW219878   4.740   4.846   5.833
 6327SOL     OW19879   0.191   1.903   3.570
 6327SOL    HW119880   0.205   1.926   3.474
 6327SOL    HW219881   0.159   1.808   3.578
 6328SOL     OW19882   4.454   3.191   5.964
 6328SOL    HW119883   4.427   3.280   5.927
 6328SOL    HW219884   4.439   3.120   5.895
 6329SOL     OW19885   0.907   2.616   5.340
 6329SOL    HW119886   0.925   2.570   5.253
 6329SOL    HW219887   0.810   2.639   5.346
 6330SOL     OW19888   6.092   1.235   2.880
 6330SOL    HW119889   6.192   1.228   2.880
 6330SOL    HW219890   6.059   1.238   2.974
 6331SOL     OW19891   6.363   2.944   4.483
 6331SOL    HW119892   6.302   2.900   4.549
 6331SOL    HW219893   6.416   3.015   4.529
 6332SOL     OW19894   1.847   1.678   1.239
 6332SOL    HW119895   1.917   1.737   1.199
 6332SOL    HW219896   1.885   1.588   1.258
 6333SOL     OW19897   4.864   6.622   0.305
 6333SOL    HW119898   4.922   6.576   0.238
 6333SOL    HW219899   4.894   6.716   0.317
 6334SOL     OW19900   2.947   1.585   1.821
 6334SOL    HW119901   3.013   1.653   1.790
 6334SOL    HW219902   2.988   1.530   1.894
 6335SOL     OW19903   5.543   0.551   0.816
 6335SOL    HW119904   5.634   0.546   0.774
 6335SOL    HW219905   5.480   0.595   0.752
 6336SOL     OW19906   0.330   4.219   6.060
 6336SOL    HW119907   0.366   4.300   6.016
 6336SOL    HW219908   0.395   4.143   6.051
 6337SOL     OW19909   4.229   5.674   4.981
 6337SOL    HW119910   4.178   5.617   5.045
 6337SOL    HW219911   4.274   5.748   5.032
 6338SOL     OW19912   3.044   2.270   4.219
 6338SOL    HW119913   2.963   2.319   4.187
 6338SOL    HW219914   3.108   2.258   4.144
 6339SOL     OW19915   0.953   3.898   2.661
 6339SOL    HW119916   1.004   3.971   2.707
 6339SOL    HW219917   0.871   3.877   2.714
 6340SOL     OW19918   2.492   3.898   1.399
 6340SOL    HW119919   2.544   3.892   1.484
 6340SOL    HW219920   2.402   3.938   1.417
 6341SOL     OW19921   1.439   4.313   3.815
 6341SOL    HW119922   1.378   4.368   3.872
 6341SOL    HW219923   1.532   4.349   3.823
 6342SOL     OW19924   1.839   0.794   2.080
 6342SOL    HW119925   1.789   0.805   2.167
 6342SOL    HW219926   1.906   0.868   2.072
 6343SOL     OW19927   3.348   6.376   0.189
 6343SOL    HW119928   3.285   6.444   0.228
 6343SOL    HW219929   3.373   6.309   0.259
 6344SOL     OW19930   5.400   2.733   3.550
 6344SOL    HW119931   5.455   2.650   3.535
 6344SOL    HW219932   5.362   2.764   3.463
 6345SOL     OW19933   5.113   3.412   1.698
 6345SOL    HW119934   5.180   3.351   1.656
 6345SOL    HW219935   5.143   3.436   1.790
 6346SOL     OW19936   0.486   4.406   5.855
 6346SOL    HW119937   0.523   4.472   5.790
 6346SOL    HW219938   0.500   4.440   5.948
 6347SOL     OW19939   2.742   2.270   2.485
 6347SOL    HW119940   2.671   2.312   2.541
 6347SOL    HW219941   2.719   2.281   2.388
 6348SOL     OW19942   0.252   1.631   5.989
 6348SOL    HW119943   0.202   1.657   6.072
 6348SOL    HW219944   0.350   1.632   6.008
 6349SOL     OW19945   1.261   0.414   0.339
 6349SOL    HW119946   1.352   0.384   0.370
 6349SOL    HW219947   1.191   0.358   0.384
 6350SOL     OW19948   1.210   4.840   1.995
 6350SOL    HW119949   1.198   4.806   1.902
 6350SOL    HW219950   1.254   4.770   2.051
 6351SOL     OW19951   6.687   3.902   3.315
 6351SOL    HW119952   6.717   3.817   3.272
 6351SOL    HW219953   6.637   3.957   3.247
 6352SOL     OW19954   2.197   0.597   3.995
 6352SOL    HW119955   2.129   0.578   3.924
 6352SOL    HW219956   2.239   0.511   4.024
 6353SOL     OW19957   2.508   5.748   7.021
 6353SOL    HW119958   2.507   5.662   6.969
 6353SOL    HW219959   2.425   5.800   7.001
 6354SOL     OW19960   5.207   4.863   2.986
 6354SOL    HW119961   5.159   4.780   2.961
 6354SOL    HW219962   5.141   4.936   3.005
 6355SOL     OW19963   2.675   4.725   0.579
 6355SOL    HW119964   2.683   4.642   0.635
 6355SOL    HW219965   2.750   4.787   0.602
 6356SOL     OW19966   5.038   5.030   6.494
 6356SOL    HW119967   5.073   5.123   6.481
 6356SOL    HW219968   5.114   4.965   6.491
 6357SOL     OW19969   5.905   2.172   1.417
 6357SOL    HW119970   5.836   2.099   1.420
 6357SOL    HW219971   5.994   2.132   1.395
 6358SOL     OW19972   0.864   1.753   6.180
 6358SOL    HW119973   0.918   1.799   6.109
 6358SOL    HW219974   0.813   1.677   6.138
 6359SOL     OW19975   5.817   6.675   0.625
 6359SOL    HW119976   5.727   6.702   0.660
 6359SOL    HW219977   5.820   6.575   0.615
 6360SOL     OW19978   6.601   2.463   3.331
 6360SOL    HW119979   6.671   2.500   3.393
 6360SOL    HW219980   6.571   2.374   3.364
 6361SOL     OW19981   7.001   0.747   0.266
 6361SOL    HW119982   0.049   0.801   0.312
 6361SOL    HW219983   6.996   0.773   0.169
 6362SOL     OW19984   1.089   5.866   6.794
 6362SOL    HW119985   1.058   5.810   6.718
 6362SOL    HW219986   1.189   5.869   6.794
 6363SOL     OW19987   2.598   4.879   3.543
 6363SOL    HW119988   2.590   4.922   3.633
 6363SOL    HW219989   2.586   4.948   3.472
 6364SOL     OW19990   2.449   2.321   4.678
 6364SOL    HW119991   2.447   2.278   4.588
 6364SOL    HW219992   2.543   2.346   4.701
 6365SOL     OW19993   6.418   6.006   4.493
 6365SOL    HW119994   6.351   5.988   4.565
 6365SOL    HW219995   6.370   6.025   4.407
 6366SOL     OW19996   6.160   6.535   5.096
 6366SOL    HW119997   6.099   6.459   5.119
 6366SOL    HW219998   6.188   6.582   5.180
 6367SOL     OW19999   3.097   2.071   2.933
 6367SOL    HW120000   3.055   2.127   2.862
 6367SOL    HW220001   3.195   2.091   2.939
 6368SOL     OW20002   4.693   4.192   3.845
 6368SOL    HW120003   4.727   4.119   3.786
 6368SOL    HW220004   4.691   4.160   3.940
 6369SOL     OW20005   3.200   6.023   6.002
 6369SOL    HW120006   3.201   6.111   6.049
 6369SOL    HW220007   3.223   5.950   6.066
 6370SOL     OW20008   4.908   3.665   3.174
 6370SOL    HW120009   4.873   3.595   3.236
 6370SOL    HW220010   4.860   3.751   3.190
 6371SOL     OW20011   5.016   4.382   1.646
 6371SOL    HW120012   5.054   4.289   1.649
 6371SOL    HW220013   4.934   4.382   1.588
 6372SOL     OW20014   0.168   1.303   2.720
 6372SOL    HW120015   0.156   1.284   2.622
 6372SOL    HW220016   0.266   1.309   2.740
 6373SOL     OW20017   5.675   4.224   1.413
 6373SOL    HW120018   5.635   4.299   1.362
 6373SOL    HW220019   5.640   4.137   1.378
 6374SOL     OW20020   4.868   2.552   0.111
 6374SOL    HW120021   4.963   2.531   0.090
 6374SOL    HW220022   4.855   2.651   0.111
 6375SOL     OW20023   6.970   2.812   2.227
 6375SOL    HW120024   0.039   2.852   2.221
 6375SOL    HW220025   6.953   2.780   2.320
 6376SOL     OW20026   4.729   0.818   5.329
 6376SOL    HW120027   4.753   0.895   5.387
 6376SOL    HW220028   4.804   0.799   5.265
 6377SOL     OW20029   6.938   0.489   0.209
 6377SOL    HW120030   7.014   0.431   0.236
 6377SOL    HW220031   6.959   0.584   0.233
 6378SOL     OW20032   5.294   5.674   2.556
 6378SOL    HW120033   5.318   5.606   2.625
 6378SOL    HW220034   5.369   5.682   2.490
 6379SOL     OW20035   2.231   5.803   6.355
 6379SOL    HW120036   2.296   5.727   6.360
 6379SOL    HW220037   2.275   5.882   6.311
 6380SOL     OW20038   0.694   3.431   4.900
 6380SOL    HW120039   0.657   3.421   4.992
 6380SOL    HW220040   0.730   3.342   4.869
 6381SOL     OW20041   4.179   3.083   0.158
 6381SOL    HW120042   4.140   3.034   0.235
 6381SOL    HW220043   4.205   3.018   0.086
 6382SOL     OW20044   2.723   1.764   1.270
 6382SOL    HW120045   2.790   1.720   1.329
 6382SOL    HW220046   2.720   1.862   1.289
 6383SOL     OW20047   1.807   2.859   2.814
 6383SOL    HW120048   1.784   2.948   2.773
 6383SOL    HW220049   1.869   2.873   2.891
 6384SOL     OW20050   5.924   2.416   2.064
 6384SOL    HW120051   5.990   2.419   2.139
 6384SOL    HW220052   5.930   2.500   2.010
 6385SOL     OW20053   0.317   3.488   1.279
 6385SOL    HW120054   0.240   3.498   1.216
 6385SOL    HW220055   0.314   3.560   1.348
 6386SOL     OW20056   2.252   3.374   0.859
 6386SOL    HW120057   2.260   3.348   0.955
 6386SOL    HW220058   2.248   3.474   0.852
 6387SOL     OW20059   6.285   1.013   0.018
 6387SOL    HW120060   6.250   0.919   0.023
 6387SOL    HW220061   6.327   1.027   6.950
 6388SOL     OW20062   6.555   5.175   2.885
 6388SOL    HW120063   6.564   5.080   2.914
 6388SOL    HW220064   6.524   5.178   2.790
 6389SOL     OW20065   1.538   0.080   0.260
 6389SOL    HW120066   1.636   0.093   0.245
 6389SOL    HW220067   1.494   0.052   0.174
 6390SOL     OW20068   5.633   0.526   0.195
 6390SOL    HW120069   5.657   0.605   0.140
 6390SOL    HW220070   5.537   0.531   0.221
 6391SOL     OW20071   0.963   1.032   5.309
 6391SOL    HW120072   1.044   0.987   5.270
 6391SOL    HW220073   0.969   1.130   5.293
 6392SOL     OW20074   3.764   5.679   3.767
 6392SOL    HW120075   3.682   5.625   3.783
 6392SOL    HW220076   3.740   5.766   3.723
 6393SOL     OW20077   5.674   6.845   1.587
 6393SOL    HW120078   5.693   6.838   1.685
 6393SOL    HW220079   5.669   6.941   1.561
 6394SOL     OW20080   0.953   4.610   0.929
 6394SOL    HW120081   0.887   4.587   0.857
 6394SOL    HW220082   1.004   4.692   0.904
 6395SOL     OW20083   0.348   3.860   2.870
 6395SOL    HW120084   0.427   3.890   2.815
 6395SOL    HW220085   0.380   3.831   2.960
 6396SOL     OW20086   6.472   3.420   0.295
 6396SOL    HW120087   6.521   3.333   0.295
 6396SOL    HW220088   6.434   3.437   0.204
 6397SOL     OW20089   5.917   2.328   3.036
 6397SOL    HW120090   5.887   2.250   2.980
 6397SOL    HW220091   6.017   2.335   3.031
 6398SOL     OW20092   0.821   6.120   1.538
 6398SOL    HW120093   0.785   6.195   1.593
 6398SOL    HW220094   0.845   6.153   1.447
 6399SOL     OW20095   2.135   0.122   6.367
 6399SOL    HW120096   2.097   0.055   6.303
 6399SOL    HW220097   2.202   0.179   6.319
 6400SOL     OW20098   1.782   5.982   3.185
 6400SOL    HW120099   1.716   5.939   3.123
 6400SOL    HW220100   1.835   6.051   3.135
 6401SOL     OW20101   4.097   4.979   2.776
 6401SOL    HW120102   4.006   4.940   2.764
 6401SOL    HW220103   4.103   5.023   2.866
 6402SOL     OW20104   1.969   4.663   3.750
 6402SOL    HW120105   1.881   4.681   3.793
 6402SOL    HW220106   2.042   4.700   3.807
 6403SOL     OW20107   5.543   6.098   4.909
 6403SOL    HW120108   5.473   6.105   4.980
 6403SOL    HW220109   5.506   6.130   4.822
 6404SOL     OW20110   3.515   1.094   2.557
 6404SOL    HW120111   3.461   1.039   2.493
 6404SOL    HW220112   3.495   1.191   2.543
 6405SOL     OW20113   5.362   1.093   2.849
 6405SOL    HW120114   5.453   1.126   2.822
 6405SOL    HW220115   5.372   1.008   2.900
 6406SOL     OW20116   1.072   2.554   2.577
 6406SOL    HW120117   1.169   2.578   2.582
 6406SOL    HW220118   1.044   2.551   2.481
 6407SOL     OW20119   2.299   6.392   3.754
 6407SOL    HW120120   2.305   6.417   3.850
 6407SOL    HW220121   2.237   6.455   3.707
 6408SOL     OW20122   6.903   0.662   0.764
 6408SOL    HW120123   6.862   0.572   0.750
 6408SOL    HW220124   6.904   0.712   0.677
 6409SOL     OW20125   6.490   5.142   3.939
 6409SOL    HW120126   6.497   5.218   4.004
 6409SOL    HW220127   6.401   5.146   3.893
 6410SOL     OW20128   2.661   1.259   5.620
 6410SOL    HW120129   2.711   1.260   5.706
 6410SOL    HW220130   2.568   1.293   5.636
 6411SOL     OW20131   0.219   3.227   2.284
 6411SOL    HW120132   0.223   3.311   2.231
 6411SOL    HW220133   0.206   3.149   2.222
 6412SOL     OW20134   3.367   0.776   6.338
 6412SOL    HW120135   3.388   0.801   6.244
 6412SOL    HW220136   3.405   0.685   6.358
 6413SOL     OW20137   4.365   4.673   4.461
 6413SOL    HW120138   4.279   4.721   4.481
 6413SOL    HW220139   4.364   4.642   4.366
 6414SOL     OW20140   0.867   0.102   7.018
 6414SOL    HW120141   0.936   0.112   6.946
 6414SOL    HW220142   0.779   0.076   6.977
 6415SOL     OW20143   1.549   3.519   3.340
 6415SOL    HW120144   1.568   3.608   3.299
 6415SOL    HW220145   1.486   3.530   3.417
 6416SOL     OW20146   3.037   7.009   6.562
 6416SOL    HW120147   3.135   6.993   6.573
 6416SOL    HW220148   2.990   6.993   6.649
 6417SOL     OW20149   4.766   1.717   0.917
 6417SOL    HW120150   4.791   1.637   0.971
 6417SOL    HW220151   4.827   1.793   0.941
 6418SOL     OW20152   4.187   4.718   1.546
 6418SOL    HW120153   4.115   4.653   1.521
 6418SOL    HW220154   4.199   4.717   1.645
 6419SOL     OW20155   0.730   6.630   6.590
 6419SOL    HW120156   0.660   6.569   6.553
 6419SOL    HW220157   0.746   6.607   6.686
 6420SOL     OW20158   1.497   3.391   3.948
 6420SOL    HW120159   1.405   3.428   3.931
 6420SOL    HW220160   1.534   3.353   3.864
 6421SOL     OW20161   5.527   0.053   1.419
 6421SOL    HW120162   5.500   0.002   1.338
 6421SOL    HW220163   5.556   0.145   1.393
 6422SOL     OW20164   6.904   2.482   4.966
 6422SOL    HW120165   6.915   2.505   5.063
 6422SOL    HW220166   6.841   2.546   4.923
 6423SOL     OW20167   2.683   5.487   4.461
 6423SOL    HW120168   2.680   5.421   4.385
 6423SOL    HW220169   2.766   5.472   4.515
 6424SOL     OW20170   0.116   3.167   4.596
 6424SOL    HW120171   0.045   3.204   4.536
 6424SOL    HW220172   0.146   3.237   4.659
 6425SOL     OW20173   6.942   5.616   3.254
 6425SOL    HW120174   0.013   5.633   3.285
 6425SOL    HW220175   6.938   5.527   3.209
 6426SOL     OW20176   4.571   4.545   4.866
 6426SOL    HW120177   4.547   4.588   4.779
 6426SOL    HW220178   4.501   4.566   4.934
 6427SOL     OW20179   3.681   3.529   3.182
 6427SOL    HW120180   3.692   3.564   3.090
 6427SOL    HW220181   3.585   3.528   3.208
 6428SOL     OW20182   5.127   2.268   0.158
 6428SOL    HW120183   5.059   2.291   0.089
 6428SOL    HW220184   5.090   2.202   0.222
 6429SOL     OW20185   1.836   0.758   4.976
 6429SOL    HW120186   1.840   0.771   4.877
 6429SOL    HW220187   1.806   0.665   4.996
 6430SOL     OW20188   0.072   0.959   5.379
 6430SOL    HW120189   0.170   0.979   5.380
 6430SOL    HW220190   0.053   0.890   5.309
 6431SOL     OW20191   4.813   5.439   2.793
 6431SOL    HW120192   4.784   5.345   2.809
 6431SOL    HW220193   4.738   5.501   2.819
 6432SOL     OW20194   3.238   3.948   6.359
 6432SOL    HW120195   3.282   3.983   6.277
 6432SOL    HW220196   3.139   3.966   6.354
 6433SOL     OW20197   2.949   5.580   6.734
 6433SOL    HW120198   2.908   5.493   6.764
 6433SOL    HW220199   2.881   5.634   6.686
 6434SOL     OW20200   3.078   6.096   6.399
 6434SOL    HW120201   3.146   6.136   6.337
 6434SOL    HW220202   3.114   6.011   6.437
 6435SOL     OW20203   5.482   0.135   0.064
 6435SOL    HW120204   5.559   0.162   0.121
 6435SOL    HW220205   5.419   0.213   0.055
 6436SOL     OW20206   0.854   4.219   3.821
 6436SOL    HW120207   0.940   4.211   3.771
 6436SOL    HW220208   0.863   4.287   3.894
 6437SOL     OW20209   1.038   1.302   5.264
 6437SOL    HW120210   1.064   1.381   5.320
 6437SOL    HW220211   1.080   1.311   5.173
 6438SOL     OW20212   0.541   5.438   6.825
 6438SOL    HW120213   0.604   5.515   6.814
 6438SOL    HW220214   0.594   5.353   6.834
 6439SOL     OW20215   6.130   1.034   4.056
 6439SOL    HW120216   6.184   0.950   4.053
 6439SOL    HW220217   6.035   1.014   4.036
 6440SOL     OW20218   2.384   0.484   6.232
 6440SOL    HW120219   2.434   0.499   6.317
 6440SOL    HW220220   2.405   0.393   6.195
 6441SOL     OW20221   0.314   0.142   3.551
 6441SOL    HW120222   0.322   0.165   3.454
 6441SOL    HW220223   0.217   0.134   3.575
 6442SOL     OW20224   2.386   1.972   4.811
 6442SOL    HW120225   2.382   1.875   4.837
 6442SOL    HW220226   2.431   2.023   4.884
 6443SOL     OW20227   4.359   2.202   0.492
 6443SOL    HW120228   4.396   2.111   0.508
 6443SOL    HW220229   4.413   2.248   0.421
 6444SOL     OW20230   6.996   2.108   5.519
 6444SOL    HW120231   0.004   2.167   5.593
 6444SOL    HW220232   6.972   2.164   5.439
 6445SOL     OW20233   3.382   3.669   3.625
 6445SOL    HW120234   3.434   3.584   3.631
 6445SOL    HW220235   3.444   3.746   3.616
 6446SOL     OW20236   1.759   1.917   6.264
 6446SOL    HW120237   1.741   1.990   6.330
 6446SOL    HW220238   1.852   1.925   6.229
 6447SOL     OW20239   6.347   4.415   1.101
 6447SOL    HW120240   6.257   4.441   1.066
 6447SOL    HW220241   6.337   4.365   1.187
 6448SOL     OW20242   4.890   5.233   2.107
 6448SOL    HW120243   4.894   5.156   2.043
 6448SOL    HW220244   4.795   5.264   2.115
 6449SOL     OW20245   2.674   5.662   1.497
 6449SOL    HW120246   2.694   5.743   1.441
 6449SOL    HW220247   2.575   5.647   1.498
 6450SOL     OW20248   0.723   4.197   1.177
 6450SOL    HW120249   0.634   4.237   1.196
 6450SOL    HW220250   0.747   4.133   1.250
 6451SOL     OW20251   3.756   2.218   0.151
 6451SOL    HW120252   3.848   2.194   0.181
 6451SOL    HW220253   3.756   2.310   0.113
 6452SOL     OW20254   5.604   3.341   3.412
 6452SOL    HW120255   5.664   3.275   3.456
 6452SOL    HW220256   5.612   3.333   3.313
 6453SOL     OW20257   3.631   0.229   1.107
 6453SOL    HW120258   3.559   0.232   1.176
 6453SOL    HW220259   3.592   0.207   1.018
 6454SOL     OW20260   6.485   2.244   2.533
 6454SOL    HW120261   6.470   2.324   2.591
 6454SOL    HW220262   6.556   2.186   2.573
 6455SOL     OW20263   6.678   4.624   3.177
 6455SOL    HW120264   6.597   4.661   3.221
 6455SOL    HW220265   6.687   4.527   3.199
 6456SOL     OW20266   0.642   1.112   2.793
 6456SOL    HW120267   0.662   1.064   2.879
 6456SOL    HW220268   0.713   1.181   2.776
 6457SOL     OW20269   5.048   6.746   1.357
 6457SOL    HW120270   5.127   6.692   1.328
 6457SOL    HW220271   5.057   6.767   1.455
 6458SOL     OW20272   0.899   4.863   4.282
 6458SOL    HW120273   0.975   4.806   4.250
 6458SOL    HW220274   0.907   4.954   4.243
 6459SOL     OW20275   5.864   2.896   3.061
 6459SOL    HW120276   5.875   2.845   3.146
 6459SOL    HW220277   5.775   2.874   3.020
 6460SOL     OW20278   6.852   5.847   5.067
 6460SOL    HW120279   6.814   5.852   5.160
 6460SOL    HW220280   6.823   5.762   5.023
 6461SOL     OW20281   3.100   4.449   0.833
 6461SOL    HW120282   3.103   4.399   0.920
 6461SOL    HW220283   3.191   4.487   0.814
 6462SOL     OW20284   1.758   3.877   4.721
 6462SOL    HW120285   1.802   3.949   4.775
 6462SOL    HW220286   1.679   3.915   4.673
 6463SOL     OW20287   5.165   0.837   1.172
 6463SOL    HW120288   5.224   0.832   1.091
 6463SOL    HW220289   5.109   0.920   1.167
 6464SOL     OW20290   0.866   6.235   4.339
 6464SOL    HW120291   0.850   6.139   4.362
 6464SOL    HW220292   0.897   6.243   4.244
 6465SOL     OW20293   5.384   2.669   2.100
 6465SOL    HW120294   5.422   2.654   2.008
 6465SOL    HW220295   5.414   2.758   2.134
 6466SOL     OW20296   6.866   3.650   6.275
 6466SOL    HW120297   6.931   3.702   6.331
 6466SOL    HW220298   6.775   3.691   6.282
 6467SOL     OW20299   3.213   0.834   0.552
 6467SOL    HW120300   3.215   0.933   0.537
 6467SOL    HW220301   3.197   0.788   0.465
 6468SOL     OW20302   3.967   6.614   0.323
 6468SOL    HW120303   3.948   6.649   0.231
 6468SOL    HW220304   4.055   6.651   0.354
 6469SOL     OW20305   3.088   1.920   3.770
 6469SOL    HW120306   3.072   1.972   3.687
 6469SOL    HW220307   3.079   1.822   3.751
 6470SOL     OW20308   6.869   2.585   0.250
 6470SOL    HW120309   6.797   2.540   0.198
 6470SOL    HW220310   6.954   2.582   0.198
 6471SOL     OW20311   0.321   6.479   4.995
 6471SOL    HW120312   0.311   6.384   4.966
 6471SOL    HW220313   0.234   6.512   5.032
 6472SOL     OW20314   0.222   6.730   2.477
 6472SOL    HW120315   0.281   6.649   2.480
 6472SOL    HW220316   0.154   6.723   2.551
 6473SOL     OW20317   1.816   1.421   4.244
 6473SOL    HW120318   1.741   1.355   4.244
 6473SOL    HW220319   1.779   1.513   4.228
 6474SOL     OW20320   4.326   5.000   5.231
 6474SOL    HW120321   4.382   5.082   5.248
 6474SOL    HW220322   4.251   5.024   5.169
 6475SOL     OW20323   5.653   5.708   3.332
 6475SOL    HW120324   5.705   5.772   3.276
 6475SOL    HW220325   5.633   5.625   3.279
 6476SOL     OW20326   3.975   2.208   6.385
 6476SOL    HW120327   4.000   2.124   6.336
 6476SOL    HW220328   4.028   2.213   6.470
 6477SOL     OW20329   0.121   6.063   1.162
 6477SOL    HW120330   0.120   5.970   1.196
 6477SOL    HW220331   0.069   6.068   1.076
 6478SOL     OW20332   2.817   6.165   1.379
 6478SOL    HW120333   2.826   6.175   1.479
 6478SOL    HW220334   2.795   6.070   1.357
 6479SOL     OW20335   3.527   5.824   3.875
 6479SOL    HW120336   3.447   5.880   3.896
 6479SOL    HW220337   3.610   5.876   3.895
 6480SOL     OW20338   2.671   1.036   6.291
 6480SOL    HW120339   2.690   1.004   6.384
 6480SOL    HW220340   2.623   1.123   6.294
 6481SOL     OW20341   2.952   2.203   1.742
 6481SOL    HW120342   2.943   2.281   1.803
 6481SOL    HW220343   3.000   2.128   1.789
 6482SOL     OW20344   6.808   2.686   5.514
 6482SOL    HW120345   6.751   2.627   5.571
 6482SOL    HW220346   6.893   2.707   5.563
 6483SOL     OW20347   1.250   5.646   4.461
 6483SOL    HW120348   1.305   5.719   4.422
 6483SOL    HW220349   1.185   5.613   4.392
 6484SOL     OW20350   2.977   1.427   3.449
 6484SOL    HW120351   3.028   1.350   3.486
 6484SOL    HW220352   2.885   1.398   3.425
 6485SOL     OW20353   2.539   6.530   4.978
 6485SOL    HW120354   2.459   6.471   4.970
 6485SOL    HW220355   2.622   6.475   4.964
 6486SOL     OW20356   1.147   4.794   2.725
 6486SOL    HW120357   1.122   4.814   2.820
 6486SOL    HW220358   1.243   4.815   2.711
 6487SOL     OW20359   1.029   5.332   4.363
 6487SOL    HW120360   1.117   5.300   4.397
 6487SOL    HW220361   0.956   5.279   4.405
 6488SOL     OW20362   4.952   5.425   4.336
 6488SOL    HW120363   5.006   5.394   4.414
 6488SOL    HW220364   4.983   5.515   4.307
 6489SOL     OW20365   3.898   3.209   6.567
 6489SOL    HW120366   3.945   3.129   6.530
 6489SOL    HW220367   3.804   3.212   6.531
 6490SOL     OW20368   1.870   1.563   6.500
 6490SOL    HW120369   1.837   1.618   6.423
 6490SOL    HW220370   1.795   1.548   6.565
 6491SOL     OW20371   2.116   0.562   0.972
 6491SOL    HW120372   2.128   0.591   1.067
 6491SOL    HW220373   2.020   0.536   0.957
 6492SOL     OW20374   3.531   4.124   4.329
 6492SOL    HW120375   3.528   4.024   4.337
 6492SOL    HW220376   3.607   4.159   4.384
 6493SOL     OW20377   1.715   4.635   6.009
 6493SOL    HW120378   1.745   4.630   6.104
 6493SOL    HW220379   1.637   4.574   5.996
 6494SOL     OW20380   5.797   6.510   2.167
 6494SOL    HW120381   5.708   6.464   2.158
 6494SOL    HW220382   5.836   6.524   2.076
 6495SOL     OW20383   6.635   6.910   4.352
 6495SOL    HW120384   6.562   6.923   4.285
 6495SOL    HW220385   6.595   6.901   4.443
 6496SOL     OW20386   4.601   6.555   1.950
 6496SOL    HW120387   4.680   6.570   1.891
 6496SOL    HW220388   4.608   6.464   1.992
 6497SOL     OW20389   0.499   1.501   0.961
 6497SOL    HW120390   0.570   1.476   1.027
 6497SOL    HW220391   0.423   1.436   0.968
 6498SOL     OW20392   0.699   4.681   4.703
 6498SOL    HW120393   0.778   4.719   4.656
 6498SOL    HW220394   0.714   4.583   4.719
 6499SOL     OW20395   5.619   4.099   4.164
 6499SOL    HW120396   5.591   4.163   4.235
 6499SOL    HW220397   5.690   4.140   4.107
 6500SOL     OW20398   0.607   3.983   2.091
 6500SOL    HW120399   0.697   4.026   2.079
 6500SOL    HW220400   0.618   3.887   2.113
 6501SOL     OW20401   6.714   1.935   0.701
 6501SOL    HW120402   6.642   1.945   0.770
 6501SOL    HW220403   6.682   1.974   0.614
 6502SOL     OW20404   6.113   3.841   1.462
 6502SOL    HW120405   6.014   3.841   1.446
 6502SOL    HW220406   6.159   3.798   1.384
 6503SOL     OW20407   6.231   2.679   5.984
 6503SOL    HW120408   6.242   2.748   6.056
 6503SOL    HW220409   6.255   2.720   5.895
 6504SOL     OW20410   4.863   6.701   6.391
 6504SOL    HW120411   4.785   6.654   6.348
 6504SOL    HW220412   4.852   6.699   6.491
 6505SOL     OW20413   5.791   6.152   0.240
 6505SOL    HW120414   5.802   6.249   0.259
 6505SOL    HW220415   5.813   6.099   0.323
 6506SOL     OW20416   7.011   3.553   3.687
 6506SOL    HW120417   0.048   3.473   3.690
 6506SOL    HW220418   6.936   3.541   3.752
 6507SOL     OW20419   3.472   5.754   6.708
 6507SOL    HW120420   3.411   5.804   6.770
 6507SOL    HW220421   3.506   5.672   6.754
 6508SOL     OW20422   1.415   6.770   1.757
 6508SOL    HW120423   1.508   6.801   1.740
 6508SOL    HW220424   1.417   6.685   1.809
 6509SOL     OW20425   3.705   1.298   5.428
 6509SOL    HW120426   3.781   1.233   5.421
 6509SOL    HW220427   3.646   1.272   5.504
 6510SOL     OW20428   4.497   5.853   5.612
 6510SOL    HW120429   4.478   5.815   5.703
 6510SOL    HW220430   4.554   5.788   5.561
 6511SOL     OW20431   4.376   1.095   5.967
 6511SOL    HW120432   4.376   1.188   6.004
 6511SOL    HW220433   4.288   1.052   5.987
 6512SOL     OW20434   2.876   0.234   2.224
 6512SOL    HW120435   2.970   0.238   2.258
 6512SOL    HW220436   2.821   0.304   2.270
 6513SOL     OW20437   2.706   5.371   4.875
 6513SOL    HW120438   2.712   5.278   4.910
 6513SOL    HW220439   2.632   5.419   4.922
 6514SOL     OW20440   5.793   0.479   5.350
 6514SOL    HW120441   5.870   0.520   5.302
 6514SOL    HW220442   5.728   0.550   5.377
 6515SOL     OW20443   2.366   4.846   2.164
 6515SOL    HW120444   2.295   4.785   2.199
 6515SOL    HW220445   2.445   4.843   2.224
 6516SOL     OW20446   6.985   3.494   1.833
 6516SOL    HW120447   6.975   3.533   1.925
 6516SOL    HW220448   6.897   3.500   1.785
 6517SOL     OW20449   6.630   1.931   0.299
 6517SOL    HW120450   6.575   1.919   0.381
 6517SOL    HW220451   6.691   2.010   0.311
 6518SOL     OW20452   0.131   1.108   2.273
 6518SOL    HW120453   0.151   1.012   2.253
 6518SOL    HW220454   0.096   1.152   2.191
 6519SOL     OW20455   0.711   1.100   3.340
 6519SOL    HW120456   0.785   1.124   3.403
 6519SOL    HW220457   0.629   1.153   3.364
 6520SOL     OW20458   6.820   5.920   0.095
 6520SOL    HW120459   6.831   5.864   0.013
 6520SOL    HW220460   6.728   5.957   0.097
 6521SOL     OW20461   1.632   3.256   3.722
 6521SOL    HW120462   1.669   3.273   3.631
 6521SOL    HW220463   1.563   3.184   3.718
 6522SOL     OW20464   3.073   4.169   5.863
 6522SOL    HW120465   3.074   4.212   5.773
 6522SOL    HW220466   2.980   4.138   5.884
 6523SOL     OW20467   5.645   0.194   0.257
 6523SOL    HW120468   5.614   0.289   0.258
 6523SOL    HW220469   5.745   0.191   0.261
 6524SOL     OW20470   2.641   2.439   1.885
 6524SOL    HW120471   2.738   2.427   1.906
 6524SOL    HW220472   2.590   2.458   1.969
 6525SOL     OW20473   1.869   5.328   3.915
 6525SOL    HW120474   1.806   5.365   3.983
 6525SOL    HW220475   1.888   5.398   3.847
 6526SOL     OW20476   6.907   0.468   1.051
 6526SOL    HW120477   6.870   0.561   1.042
 6526SOL    HW220478   6.870   0.425   1.133
 6527SOL     OW20479   0.283   2.695   0.348
 6527SOL    HW120480   0.341   2.649   0.415
 6527SOL    HW220481   0.192   2.709   0.388
 6528SOL     OW20482   6.030   1.390   6.056
 6528SOL    HW120483   6.067   1.455   6.122
 6528SOL    HW220484   5.937   1.364   6.083
 6529SOL     OW20485   0.794   1.808   2.309
 6529SOL    HW120486   0.788   1.813   2.409
 6529SOL    HW220487   0.787   1.713   2.279
 6530SOL     OW20488   0.838   2.722   1.957
 6530SOL    HW120489   0.870   2.763   1.871
 6530SOL    HW220490   0.753   2.671   1.939
 6531SOL     OW20491   3.876   3.305   5.638
 6531SOL    HW120492   3.932   3.326   5.719
 6531SOL    HW220493   3.935   3.283   5.561
 6532SOL     OW20494   1.664   0.948   0.683
 6532SOL    HW120495   1.746   0.956   0.740
 6532SOL    HW220496   1.596   1.014   0.713
 6533SOL     OW20497   4.541   4.906   0.248
 6533SOL    HW120498   4.541   4.831   0.183
 6533SOL    HW220499   4.573   4.874   0.337
 6534SOL     OW20500   5.551   4.876   1.679
 6534SOL    HW120501   5.598   4.897   1.765
 6534SOL    HW220502   5.509   4.960   1.643
 6535SOL     OW20503   5.572   4.215   4.587
 6535SOL    HW120504   5.537   4.235   4.496
 6535SOL    HW220505   5.658   4.264   4.601
 6536SOL     OW20506   0.427   2.369   5.334
 6536SOL    HW120507   0.370   2.348   5.413
 6536SOL    HW220508   0.522   2.344   5.353
 6537SOL     OW20509   6.058   4.298   5.398
 6537SOL    HW120510   6.139   4.300   5.339
 6537SOL    HW220511   5.992   4.366   5.365
 6538SOL     OW20512   1.783   3.719   5.127
 6538SOL    HW120513   1.721   3.641   5.136
 6538SOL    HW220514   1.808   3.752   5.218
 6539SOL     OW20515   5.965   0.938   6.969
 6539SOL    HW120516   5.901   0.983   0.008
 6539SOL    HW220517   5.920   0.861   6.923
 6540SOL     OW20518   3.254   2.541   5.564
 6540SOL    HW120519   3.255   2.639   5.581
 6540SOL    HW220520   3.187   2.520   5.492
 6541SOL     OW20521   5.795   2.517   5.825
 6541SOL    HW120522   5.741   2.572   5.889
 6541SOL    HW220523   5.741   2.439   5.794
 6542SOL     OW20524   1.287   3.869   4.664
 6542SOL    HW120525   1.259   3.939   4.598
 6542SOL    HW220526   1.244   3.887   4.753
 6543SOL     OW20527   3.161   2.044   5.106
 6543SOL    HW120528   3.137   2.057   5.202
 6543SOL    HW220529   3.160   2.132   5.059
 6544SOL     OW20530   0.423   0.114   2.197
 6544SOL    HW120531   0.412   0.116   2.296
 6544SOL    HW220532   0.506   0.062   2.174
 6545SOL     OW20533   4.535   6.702   1.118
 6545SOL    HW120534   4.610   6.720   1.182
 6545SOL    HW220535   4.522   6.782   1.058
 6546SOL     OW20536   4.738   4.711   6.448
 6546SOL    HW120537   4.640   4.714   6.468
 6546SOL    HW220538   4.789   4.732   6.532
 6547SOL     OW20539   5.261   6.923   6.346
 6547SOL    HW120540   5.348   6.905   6.391
 6547SOL    HW220541   5.218   7.004   6.385
 6548SOL     OW20542   0.744   2.468   6.417
 6548SOL    HW120543   0.695   2.417   6.345
 6548SOL    HW220544   0.798   2.541   6.374
 6549SOL     OW20545   5.034   0.029   1.793
 6549SOL    HW120546   5.057   0.124   1.776
 6549SOL    HW220547   4.944   0.009   1.755
 6550SOL     OW20548   6.662   0.427   3.102
 6550SOL    HW120549   6.650   0.527   3.103
 6550SOL    HW220550   6.584   0.384   3.057
 6551SOL     OW20551   2.912   3.421   1.792
 6551SOL    HW120552   2.813   3.420   1.802
 6551SOL    HW220553   2.940   3.341   1.738
 6552SOL     OW20554   1.877   6.620   0.550
 6552SOL    HW120555   1.975   6.637   0.546
 6552SOL    HW220556   1.840   6.657   0.635
 6553SOL     OW20557   0.356   1.448   3.069
 6553SOL    HW120558   0.307   1.394   3.137
 6553SOL    HW220559   0.290   1.487   3.004
 6554SOL     OW20560   2.645   0.954   5.017
 6554SOL    HW120561   2.676   0.875   4.965
 6554SOL    HW220562   2.716   1.024   5.018
 6555SOL     OW20563   6.388   2.078   4.605
 6555SOL    HW120564   6.400   2.046   4.511
 6555SOL    HW220565   6.458   2.145   4.627
 6556SOL     OW20566   6.223   3.388   2.911
 6556SOL    HW120567   6.291   3.389   2.838
 6556SOL    HW220568   6.132   3.376   2.871
 6557SOL     OW20569   1.864   0.302   2.940
 6557SOL    HW120570   1.865   0.401   2.952
 6557SOL    HW220571   1.851   0.258   3.029
 6558SOL     OW20572   5.903   4.977   0.258
 6558SOL    HW120573   5.835   5.006   0.325
 6558SOL    HW220574   5.858   4.937   0.179
 6559SOL     OW20575   6.871   3.277   6.943
 6559SOL    HW120576   6.903   3.340   6.873
 6559SOL    HW220577   6.849   3.189   6.900
 6560SOL     OW20578   4.037   4.728   0.627
 6560SOL    HW120579   4.089   4.790   0.568
 6560SOL    HW220580   4.098   4.657   0.663
 6561SOL     OW20581   4.166   4.917   0.503
 6561SOL    HW120582   4.101   4.975   0.454
 6561SOL    HW220583   4.248   4.969   0.524
 6562SOL     OW20584   5.328   2.966   1.105
 6562SOL    HW120585   5.373   3.048   1.140
 6562SOL    HW220586   5.271   2.925   1.176
 6563SOL     OW20587   4.882   0.289   5.978
 6563SOL    HW120588   4.826   0.366   5.947
 6563SOL    HW220589   4.957   0.275   5.915
 6564SOL     OW20590   6.113   4.090   2.181
 6564SOL    HW120591   6.198   4.121   2.139
 6564SOL    HW220592   6.134   4.029   2.258
 6565SOL     OW20593   5.656   6.501   2.719
 6565SOL    HW120594   5.571   6.457   2.691
 6565SOL    HW220595   5.662   6.502   2.818
 6566SOL     OW20596   3.312   5.565   1.947
 6566SOL    HW120597   3.342   5.490   1.888
 6566SOL    HW220598   3.389   5.597   2.002
 6567SOL     OW20599   4.013   0.685   1.764
 6567SOL    HW120600   4.025   0.765   1.822
 6567SOL    HW220601   3.997   0.605   1.821
 6568SOL     OW20602   4.746   1.185   2.569
 6568SOL    HW120603   4.775   1.229   2.484
 6568SOL    HW220604   4.827   1.154   2.619
 6569SOL     OW20605   0.630   2.579   6.115
 6569SOL    HW120606   0.686   2.630   6.180
 6569SOL    HW220607   0.637   2.622   6.024
 6570SOL     OW20608   3.975   0.896   2.384
 6570SOL    HW120609   3.957   0.798   2.395
 6570SOL    HW220610   3.985   0.938   2.474
 6571SOL     OW20611   2.237   5.358   3.317
 6571SOL    HW120612   2.291   5.338   3.399
 6571SOL    HW220613   2.148   5.396   3.345
 6572SOL     OW20614   0.679   4.352   4.290
 6572SOL    HW120615   0.763   4.403   4.305
 6572SOL    HW220616   0.701   4.260   4.257
 6573SOL     OW20617   1.640   0.971   3.134
 6573SOL    HW120618   1.549   0.967   3.093
 6573SOL    HW220619   1.644   1.048   3.197
 6574SOL     OW20620   2.554   6.519   3.643
 6574SOL    HW120621   2.468   6.544   3.688
 6574SOL    HW220622   2.631   6.538   3.705
 6575SOL     OW20623   0.291   0.090   2.987
 6575SOL    HW120624   0.340   0.082   3.074
 6575SOL    HW220625   0.287   7.022   2.943
 6576SOL     OW20626   3.339   4.626   0.330
 6576SOL    HW120627   3.341   4.712   0.380
 6576SOL    HW220628   3.362   4.550   0.391
 6577SOL     OW20629   1.808   2.770   3.246
 6577SOL    HW120630   1.847   2.764   3.338
 6577SOL    HW220631   1.708   2.775   3.252
 6578SOL     OW20632   1.204   6.101   1.654
 6578SOL    HW120633   1.227   6.050   1.571
 6578SOL    HW220634   1.136   6.050   1.706
 6579SOL     OW20635   0.413   1.824   4.371
 6579SOL    HW120636   0.333   1.884   4.358
 6579SOL    HW220637   0.459   1.810   4.284
 6580SOL     OW20638   0.863   0.541   0.518
 6580SOL    HW120639   0.850   0.498   0.429
 6580SOL    HW220640   0.899   0.473   0.582
 6581SOL     OW20641   1.287   1.153   0.514
 6581SOL    HW120642   1.361   1.212   0.546
 6581SOL    HW220643   1.306   1.122   0.421
 6582SOL     OW20644   0.140   0.665   2.687
 6582SOL    HW120645   0.106   0.670   2.593
 6582SOL    HW220646   0.097   0.589   2.734
 6583SOL     OW20647   4.799   6.385   5.430
 6583SOL    HW120648   4.840   6.309   5.481
 6583SOL    HW220649   4.742   6.439   5.492
 6584SOL     OW20650   3.785   2.461   0.806
 6584SOL    HW120651   3.846   2.389   0.839
 6584SOL    HW220652   3.839   2.527   0.752
 6585SOL     OW20653   6.870   6.569   0.774
 6585SOL    HW120654   6.791   6.613   0.816
 6585SOL    HW220655   6.954   6.600   0.819
 6586SOL     OW20656   6.781   1.926   5.768
 6586SOL    HW120657   6.757   1.911   5.864
 6586SOL    HW220658   6.867   1.880   5.747
 6587SOL     OW20659   1.493   4.455   6.023
 6587SOL    HW120660   1.519   4.398   5.945
 6587SOL    HW220661   1.414   4.511   5.998
 6588SOL     OW20662   0.506   3.286   0.425
 6588SOL    HW120663   0.498   3.383   0.446
 6588SOL    HW220664   0.565   3.274   0.345
 6589SOL     OW20665   5.530   0.657   1.917
 6589SOL    HW120666   5.629   0.640   1.911
 6589SOL    HW220667   5.486   0.623   1.834
 6590SOL     OW20668   0.626   0.059   4.975
 6590SOL    HW120669   0.653   0.042   5.069
 6590SOL    HW220670   0.700   0.031   4.913
 6591SOL     OW20671   5.151   5.498   4.056
 6591SOL    HW120672   5.238   5.453   4.074
 6591SOL    HW220673   5.127   5.555   4.134
 6592SOL     OW20674   5.230   0.270   2.970
 6592SOL    HW120675   5.175   0.332   2.915
 6592SOL    HW220676   5.238   0.304   3.063
 6593SOL     OW20677   2.953   2.184   2.335
 6593SOL    HW120678   2.890   2.218   2.404
 6593SOL    HW220679   2.939   2.234   2.249
 6594SOL     OW20680   3.489   1.845   5.920
 6594SOL    HW120681   3.517   1.938   5.943
 6594SOL    HW220682   3.462   1.841   5.824
 6595SOL     OW20683   1.465   2.762   4.692
 6595SOL    HW120684   1.491   2.832   4.759
 6595SOL    HW220685   1.547   2.720   4.654
 6596SOL     OW20686   4.134   5.744   3.053
 6596SOL    HW120687   4.167   5.808   2.983
 6596SOL    HW220688   4.165   5.652   3.030
 6597SOL     OW20689   1.631   5.440   1.789
 6597SOL    HW120690   1.538   5.429   1.826
 6597SOL    HW220691   1.662   5.533   1.806
 6598SOL     OW20692   1.824   4.296   3.237
 6598SOL    HW120693   1.880   4.315   3.317
 6598SOL    HW220694   1.876   4.242   3.171
 6599SOL     OW20695   5.649   5.573   6.564
 6599SOL    HW120696   5.687   5.511   6.495
 6599SOL    HW220697   5.591   5.641   6.519
 6600SOL     OW20698   4.165   0.131   4.875
 6600SOL    HW120699   4.174   0.105   4.779
 6600SOL    HW220700   4.074   0.108   4.908
 6601SOL     OW20701   0.915   2.799   2.977
 6601SOL    HW120702   0.903   2.718   3.034
 6601SOL    HW220703   0.866   2.876   3.018
 6602SOL     OW20704   2.637   0.068   1.226
 6602SOL    HW120705   2.682   7.000   1.226
 6602SOL    HW220706   2.640   0.107   1.135
 6603SOL     OW20707   0.388   3.048   3.830
 6603SOL    HW120708   0.387   3.043   3.730
 6603SOL    HW220709   0.315   2.990   3.867
 6604SOL     OW20710   2.200   0.520   1.551
 6604SOL    HW120711   2.273   0.585   1.573
 6604SOL    HW220712   2.181   0.524   1.453
 6605SOL     OW20713   5.873   5.589   1.929
 6605SOL    HW120714   5.875   5.597   1.830
 6605SOL    HW220715   5.870   5.493   1.955
 6606SOL     OW20716   0.334   3.863   3.200
 6606SOL    HW120717   0.390   3.914   3.265
 6606SOL    HW220718   0.358   3.766   3.204
 6607SOL     OW20719   6.271   4.848   3.990
 6607SOL    HW120720   6.258   4.768   3.932
 6607SOL    HW220721   6.337   4.826   4.062
 6608SOL     OW20722   6.783   0.424   0.447
 6608SOL    HW120723   6.845   0.359   0.491
 6608SOL    HW220724   6.828   0.513   0.439
 6609SOL     OW20725   5.170   0.970   6.321
 6609SOL    HW120726   5.118   0.974   6.236
 6609SOL    HW220727   5.248   0.907   6.310
 6610SOL     OW20728   2.243   5.926   0.227
 6610SOL    HW120729   2.280   6.016   0.202
 6610SOL    HW220730   2.143   5.929   0.224
 6611SOL     OW20731   5.264   2.935   3.982
 6611SOL    HW120732   5.216   3.015   4.018
 6611SOL    HW220733   5.227   2.911   3.893
 6612SOL     OW20734   6.769   2.028   6.111
 6612SOL    HW120735   6.670   2.036   6.124
 6612SOL    HW220736   6.804   1.952   6.164
 6613SOL     OW20737   5.547   7.004   6.157
 6613SOL    HW120738   5.582   0.033   6.079
 6613SOL    HW220739   5.594   6.916   6.163
 6614SOL     OW20740   4.393   6.473   1.135
 6614SOL    HW120741   4.461   6.400   1.135
 6614SOL    HW220742   4.438   6.560   1.112
 6615SOL     OW20743   1.973   5.436   0.657
 6615SOL    HW120744   2.015   5.381   0.729
 6615SOL    HW220745   2.027   5.520   0.644
 6616SOL     OW20746   3.924   6.837   6.061
 6616SOL    HW120747   3.956   6.775   5.990
 6616SOL    HW220748   3.873   6.913   6.019
 6617SOL     OW20749   4.070   6.761   3.378
 6617SOL    HW120750   4.074   6.706   3.461
 6617SOL    HW220751   4.088   6.857   3.399
 6618SOL     OW20752   0.637   1.372   3.038
 6618SOL    HW120753   0.697   1.377   3.118
 6618SOL    HW220754   0.544   1.395   3.065
 6619SOL     OW20755   4.456   6.781   3.911
 6619SOL    HW120756   4.385   6.713   3.930
 6619SOL    HW220757   4.487   6.771   3.817
 6620SOL     OW20758   1.681   3.616   3.801
 6620SOL    HW120759   1.697   3.566   3.716
 6620SOL    HW220760   1.592   3.592   3.839
 6621SOL     OW20761   3.775   3.122   5.298
 6621SOL    HW120762   3.687   3.157   5.331
 6621SOL    HW220763   3.779   3.131   5.199
 6622SOL     OW20764   5.975   5.767   1.245
 6622SOL    HW120765   6.072   5.772   1.269
 6622SOL    HW220766   5.946   5.672   1.243
 6623SOL     OW20767   3.673   4.225   4.934
 6623SOL    HW120768   3.614   4.281   4.992
 6623SOL    HW220769   3.620   4.185   4.860
 6624SOL     OW20770   0.546   2.977   5.108
 6624SOL    HW120771   0.612   2.946   5.176
 6624SOL    HW220772   0.478   3.036   5.151
 6625SOL     OW20773   6.147   2.788   5.522
 6625SOL    HW120774   6.109   2.717   5.462
 6625SOL    HW220775   6.078   2.857   5.541
 6626SOL     OW20776   3.458   0.235   5.089
 6626SOL    HW120777   3.480   0.138   5.086
 6626SOL    HW220778   3.410   0.255   5.175
 6627SOL     OW20779   1.596   6.233   4.143
 6627SOL    HW120780   1.499   6.221   4.123
 6627SOL    HW220781   1.650   6.190   4.071
 6628SOL     OW20782   5.425   5.411   4.013
 6628SOL    HW120783   5.500   5.430   4.076
 6628SOL    HW220784   5.381   5.325   4.038
 6629SOL     OW20785   4.803   5.103   6.642
 6629SOL    HW120786   4.777   5.197   6.622
 6629SOL    HW220787   4.870   5.072   6.576
 6630SOL     OW20788   3.830   1.825   1.520
 6630SOL    HW120789   3.832   1.799   1.617
 6630SOL    HW220790   3.912   1.793   1.474
 6631SOL     OW20791   1.978   5.325   4.956
 6631SOL    HW120792   2.024   5.376   5.029
 6631SOL    HW220793   1.918   5.256   4.997
 6632SOL     OW20794   1.350   1.277   1.039
 6632SOL    HW120795   1.378   1.191   0.997
 6632SOL    HW220796   1.329   1.261   1.136
 6633SOL     OW20797   3.356   4.966   5.984
 6633SOL    HW120798   3.277   4.921   5.944
 6633SOL    HW220799   3.439   4.914   5.962
 6634SOL     OW20800   4.995   2.139   4.920
 6634SOL    HW120801   5.024   2.094   4.836
 6634SOL    HW220802   4.914   2.092   4.956
 6635SOL     OW20803   4.839   4.231   2.444
 6635SOL    HW120804   4.934   4.216   2.419
 6635SOL    HW220805   4.785   4.249   2.361
 6636SOL     OW20806   3.055   0.816   2.838
 6636SOL    HW120807   3.129   0.779   2.782
 6636SOL    HW220808   2.997   0.742   2.870
 6637SOL     OW20809   2.316   0.252   0.272
 6637SOL    HW120810   2.392   0.222   0.214
 6637SOL    HW220811   2.258   0.315   0.221
 6638SOL     OW20812   2.869   3.368   3.528
 6638SOL    HW120813   2.816   3.296   3.573
 6638SOL    HW220814   2.898   3.435   3.595
 6639SOL     OW20815   3.811   3.508   6.687
 6639SOL    HW120816   3.786   3.412   6.702
 6639SOL    HW220817   3.837   3.550   6.774
 6640SOL     OW20818   6.712   2.296   5.622
 6640SOL    HW120819   6.691   2.199   5.604
 6640SOL    HW220820   6.681   2.352   5.546
 6641SOL     OW20821   3.400   1.687   0.945
 6641SOL    HW120822   3.335   1.758   0.917
 6641SOL    HW220823   3.493   1.714   0.917
 6642SOL     OW20824   2.232   5.028   6.611
 6642SOL    HW120825   2.208   5.012   6.515
 6642SOL    HW220826   2.271   4.944   6.649
 6643SOL     OW20827   6.273   6.599   0.461
 6643SOL    HW120828   6.214   6.592   0.381
 6643SOL    HW220829   6.219   6.628   0.540
 6644SOL     OW20830   1.785   6.412   3.066
 6644SOL    HW120831   1.697   6.385   3.027
 6644SOL    HW220832   1.825   6.483   3.008
 6645SOL     OW20833   5.933   2.928   0.655
 6645SOL    HW120834   5.893   2.890   0.571
 6645SOL    HW220835   5.974   2.854   0.708
 6646SOL     OW20836   4.080   1.045   6.122
 6646SOL    HW120837   4.152   1.024   6.189
 6646SOL    HW220838   4.092   0.988   6.041
 6647SOL     OW20839   4.284   6.089   1.217
 6647SOL    HW120840   4.308   6.045   1.131
 6647SOL    HW220841   4.196   6.056   1.249
 6648SOL     OW20842   3.625   5.736   4.789
 6648SOL    HW120843   3.541   5.714   4.840
 6648SOL    HW220844   3.658   5.653   4.744
 6649SOL     OW20845   6.032   2.859   6.610
 6649SOL    HW120846   5.963   2.929   6.628
 6649SOL    HW220847   6.061   2.818   6.697
 6650SOL     OW20848   3.767   1.321   4.465
 6650SOL    HW120849   3.695   1.367   4.413
 6650SOL    HW220850   3.838   1.387   4.489
 6651SOL     OW20851   1.762   1.958   0.072
 6651SOL    HW120852   1.762   2.022   7.017
 6651SOL    HW220853   1.690   1.984   0.136
 6652SOL     OW20854   0.898   4.515   0.186
 6652SOL    HW120855   0.873   4.437   0.129
 6652SOL    HW220856   0.911   4.596   0.128
 6653SOL     OW20857   4.730   2.896   0.584
 6653SOL    HW120858   4.743   2.906   0.485
 6653SOL    HW220859   4.728   2.799   0.607
 6654SOL     OW20860   0.211   4.977   2.692
 6654SOL    HW120861   0.194   5.017   2.602
 6654SOL    HW220862   0.282   4.907   2.684
 6655SOL     OW20863   0.176   6.036   2.197
 6655SOL    HW120864   0.157   6.091   2.116
 6655SOL    HW220865   0.115   6.063   2.271
 6656SOL     OW20866   4.640   1.630   2.716
 6656SOL    HW120867   4.570   1.680   2.664
 6656SOL    HW220868   4.730   1.653   2.681
 6657SOL     OW20869   5.473   2.353   5.225
 6657SOL    HW120870   5.386   2.304   5.232
 6657SOL    HW220871   5.538   2.297   5.173
 6658SOL     OW20872   6.755   0.256   5.364
 6658SOL    HW120873   6.725   0.351   5.377
 6658SOL    HW220874   6.772   0.240   5.267
 6659SOL     OW20875   1.013   4.238   1.566
 6659SOL    HW120876   1.016   4.227   1.467
 6659SOL    HW220877   0.919   4.224   1.598
 6660SOL     OW20878   1.622   5.073   2.191
 6660SOL    HW120879   1.640   4.986   2.145
 6660SOL    HW220880   1.661   5.148   2.136
 6661SOL     OW20881   2.550   0.171   4.762
 6661SOL    HW120882   2.460   0.144   4.796
 6661SOL    HW220883   2.603   0.212   4.835
 6662SOL     OW20884   2.331   0.748   1.143
 6662SOL    HW120885   2.321   0.670   1.081
 6662SOL    HW220886   2.264   0.740   1.217
 6663SOL     OW20887   1.057   5.894   5.524
 6663SOL    HW120888   1.080   5.826   5.454
 6663SOL    HW220889   1.135   5.906   5.586
 6664SOL     OW20890   2.288   0.874   1.525
 6664SOL    HW120891   2.234   0.838   1.601
 6664SOL    HW220892   2.354   0.805   1.494
 6665SOL     OW20893   2.145   6.285   5.890
 6665SOL    HW120894   2.234   6.244   5.868
 6665SOL    HW220895   2.158   6.357   5.958
 6666SOL     OW20896   6.728   5.619   4.978
 6666SOL    HW120897   6.731   5.520   4.960
 6666SOL    HW220898   6.636   5.645   5.005
 6667SOL     OW20899   6.735   6.512   6.000
 6667SOL    HW120900   6.751   6.441   6.068
 6667SOL    HW220901   6.721   6.600   6.045
 6668SOL     OW20902   6.755   6.021   1.087
 6668SOL    HW120903   6.791   6.103   1.042
 6668SOL    HW220904   6.673   6.045   1.139
 6669SOL     OW20905   3.744   2.087   1.446
 6669SOL    HW120906   3.649   2.116   1.437
 6669SOL    HW220907   3.746   1.987   1.457
 6670SOL     OW20908   2.863   1.268   6.628
 6670SOL    HW120909   2.910   1.180   6.633
 6670SOL    HW220910   2.835   1.286   6.534
 6671SOL     OW20911   5.062   6.721   0.746
 6671SOL    HW120912   4.964   6.736   0.738
 6671SOL    HW220913   5.080   6.625   0.768
 6672SOL     OW20914   1.452   2.391   0.440
 6672SOL    HW120915   1.440   2.475   0.493
 6672SOL    HW220916   1.484   2.318   0.501
 6673SOL     OW20917   5.057   3.945   3.974
 6673SOL    HW120918   5.109   3.867   3.939
 6673SOL    HW220919   5.099   3.979   4.058
 6674SOL     OW20920   0.078   3.074   6.697
 6674SOL    HW120921   0.040   3.091   6.788
 6674SOL    HW220922   0.005   3.076   6.629
 6675SOL     OW20923   4.578   2.045   6.976
 6675SOL    HW120924   4.510   2.012   6.910
 6675SOL    HW220925   4.611   2.134   6.946
 6676SOL     OW20926   1.103   3.670   2.601
 6676SOL    HW120927   1.055   3.755   2.621
 6676SOL    HW220928   1.201   3.684   2.611
 6677SOL     OW20929   0.790   0.499   6.489
 6677SOL    HW120930   0.780   0.466   6.395
 6677SOL    HW220931   0.885   0.524   6.506
 6678SOL     OW20932   2.028   4.311   0.886
 6678SOL    HW120933   2.035   4.373   0.808
 6678SOL    HW220934   2.058   4.219   0.859
 6679SOL     OW20935   3.729   1.114   3.858
 6679SOL    HW120936   3.699   1.031   3.905
 6679SOL    HW220937   3.660   1.185   3.867
 6680SOL     OW20938   4.451   6.052   6.741
 6680SOL    HW120939   4.472   6.149   6.732
 6680SOL    HW220940   4.358   6.035   6.709
 6681SOL     OW20941   5.048   5.503   1.740
 6681SOL    HW120942   5.036   5.602   1.749
 6681SOL    HW220943   4.964   5.457   1.767
 6682SOL     OW20944   2.372   4.797   6.704
 6682SOL    HW120945   2.471   4.814   6.697
 6682SOL    HW220946   2.348   4.716   6.651
 6683SOL     OW20947   5.722   3.401   6.026
 6683SOL    HW120948   5.769   3.450   6.099
 6683SOL    HW220949   5.705   3.463   5.949
 6684SOL     OW20950   3.868   6.846   2.243
 6684SOL    HW120951   3.794   6.787   2.276
 6684SOL    HW220952   3.922   6.879   2.320
 6685SOL     OW20953   4.702   3.093   6.510
 6685SOL    HW120954   4.718   3.077   6.412
 6685SOL    HW220955   4.744   3.180   6.537
 6686SOL     OW20956   6.310   6.143   3.283
 6686SOL    HW120957   6.327   6.161   3.186
 6686SOL    HW220958   6.213   6.121   3.296
 6687SOL     OW20959   0.786   2.614   1.382
 6687SOL    HW120960   0.827   2.700   1.414
 6687SOL    HW220961   0.855   2.542   1.385
 6688SOL     OW20962   3.876   4.196   0.643
 6688SOL    HW120963   3.893   4.174   0.740
 6688SOL    HW220964   3.797   4.145   0.611
 6689SOL     OW20965   4.078   3.868   6.108
 6689SOL    HW120966   4.091   3.824   6.197
 6689SOL    HW220967   3.996   3.926   6.111
 6690SOL     OW20968   1.416   6.696   6.764
 6690SOL    HW120969   1.509   6.731   6.774
 6690SOL    HW220970   1.413   6.599   6.790
 6691SOL     OW20971   1.495   0.426   2.575
 6691SOL    HW120972   1.589   0.418   2.610
 6691SOL    HW220973   1.432   0.379   2.637
 6692SOL     OW20974   4.119   3.852   1.863
 6692SOL    HW120975   4.165   3.845   1.951
 6692SOL    HW220976   4.023   3.877   1.877
 6693SOL     OW20977   4.539   1.772   4.900
 6693SOL    HW120978   4.486   1.854   4.924
 6693SOL    HW220979   4.537   1.760   4.801
 6694SOL     OW20980   4.194   5.374   1.188
 6694SOL    HW120981   4.108   5.385   1.137
 6694SOL    HW220982   4.255   5.450   1.166
 6695SOL     OW20983   2.752   1.908   0.144
 6695SOL    HW120984   2.707   1.844   0.206
 6695SOL    HW220985   2.797   1.858   0.070
 6696SOL     OW20986   4.057   3.799   3.539
 6696SOL    HW120987   4.049   3.719   3.598
 6696SOL    HW220988   4.113   3.776   3.459
 6697SOL     OW20989   5.031   2.522   2.738
 6697SOL    HW120990   5.075   2.534   2.649
 6697SOL    HW220991   5.073   2.584   2.804
 6698SOL     OW20992   3.059   3.456   1.436
 6698SOL    HW120993   3.006   3.541   1.448
 6698SOL    HW220994   3.151   3.468   1.473
 6699SOL     OW20995   2.255   6.198   5.604
 6699SOL    HW120996   2.322   6.130   5.634
 6699SOL    HW220997   2.200   6.160   5.529
 6700SOL     OW20998   5.954   0.525   0.978
 6700SOL    HW120999   5.894   0.496   0.904
 6700SOL    HW221000   5.986   0.445   1.029
 6701SOL     OW21001   5.574   6.703   2.322
 6701SOL    HW121002   5.544   6.797   2.306
 6701SOL    HW221003   5.587   6.688   2.420
 6702SOL     OW21004   2.246   2.415   1.813
 6702SOL    HW121005   2.181   2.410   1.889
 6702SOL    HW221006   2.294   2.502   1.816
 6703SOL     OW21007   1.249   1.152   6.867
 6703SOL    HW121008   1.222   1.235   6.817
 6703SOL    HW221009   1.210   1.155   6.959
 6704SOL     OW21010   3.964   1.486   4.557
 6704SOL    HW121011   4.002   1.560   4.502
 6704SOL    HW221012   4.038   1.425   4.587
 6705SOL     OW21013   6.062   2.697   0.710
 6705SOL    HW121014   6.115   2.671   0.630
 6705SOL    HW221015   5.993   2.627   0.728
 6706SOL     OW21016   1.400   6.172   0.485
 6706SOL    HW121017   1.405   6.272   0.496
 6706SOL    HW221018   1.461   6.144   0.411
 6707SOL     OW21019   5.423   0.025   3.150
 6707SOL    HW121020   5.337   6.997   3.160
 6707SOL    HW221021   5.491   7.011   3.213
 6708SOL     OW21022   5.888   5.281   1.421
 6708SOL    HW121023   5.950   5.259   1.497
 6708SOL    HW221024   5.934   5.341   1.356
 6709SOL     OW21025   0.498   4.811   2.698
 6709SOL    HW121026   0.562   4.886   2.678
 6709SOL    HW221027   0.454   4.782   2.613
 6710SOL     OW21028   4.644   1.279   1.277
 6710SOL    HW121029   4.579   1.211   1.311
 6710SOL    HW221030   4.621   1.369   1.314
 6711SOL     OW21031   4.647   6.833   5.690
 6711SOL    HW121032   4.597   6.912   5.653
 6711SOL    HW221033   4.582   6.770   5.732
 6712SOL     OW21034   6.263   3.405   1.331
 6712SOL    HW121035   6.259   3.331   1.263
 6712SOL    HW221036   6.271   3.366   1.422
 6713SOL     OW21037   1.026   1.372   3.337
 6713SOL    HW121038   0.990   1.387   3.245
 6713SOL    HW221039   1.105   1.431   3.352
 6714SOL     OW21040   5.585   0.937   0.775
 6714SOL    HW121041   5.682   0.946   0.752
 6714SOL    HW221042   5.544   0.867   0.716
 6715SOL     OW21043   1.656   1.061   1.511
 6715SOL    HW121044   1.568   1.039   1.553
 6715SOL    HW221045   1.726   0.997   1.544
 6716SOL     OW21046   6.667   5.945   2.648
 6716SOL    HW121047   6.750   5.973   2.697
 6716SOL    HW221048   6.594   5.926   2.714
 6717SOL     OW21049   2.682   2.261   6.260
 6717SOL    HW121050   2.742   2.212   6.323
 6717SOL    HW221051   2.738   2.315   6.196
 6718SOL     OW21052   3.797   1.244   0.973
 6718SOL    HW121053   3.777   1.290   0.887
 6718SOL    HW221054   3.743   1.160   0.979
 6719SOL     OW21055   1.944   6.669   0.087
 6719SOL    HW121056   1.936   6.587   0.031
 6719SOL    HW221057   1.958   6.643   0.183
 6720SOL     OW21058   2.733   1.347   5.136
 6720SOL    HW121059   2.657   1.344   5.201
 6720SOL    HW221060   2.782   1.260   5.140
 6721SOL     OW21061   6.773   6.972   0.570
 6721SOL    HW121062   6.714   7.017   0.502
 6721SOL    HW221063   6.736   6.882   0.591
 6722SOL     OW21064   0.315   2.191   0.412
 6722SOL    HW121065   0.251   2.217   0.484
 6722SOL    HW221066   0.355   2.274   0.371
 6723SOL     OW21067   1.745   0.069   6.159
 6723SOL    HW121068   1.712   0.162   6.170
 6723SOL    HW221069   1.686   0.006   6.209
 6724SOL     OW21070   2.318   2.499   6.134
 6724SOL    HW121071   2.372   2.554   6.197
 6724SOL    HW221072   2.259   2.559   6.079
 6725SOL     OW21073   6.604   2.981   2.434
 6725SOL    HW121074   6.657   2.899   2.412
 6725SOL    HW221075   6.527   2.989   2.370
 6726SOL     OW21076   0.421   1.957   4.599
 6726SOL    HW121077   0.412   1.896   4.522
 6726SOL    HW221078   0.415   2.052   4.568
 6727SOL     OW21079   0.800   4.271   5.747
 6727SOL    HW121080   0.790   4.281   5.846
 6727SOL    HW221081   0.828   4.177   5.725
 6728SOL     OW21082   3.493   1.281   3.471
 6728SOL    HW121083   3.397   1.277   3.498
 6728SOL    HW221084   3.501   1.334   3.387
 6729SOL     OW21085   6.523   1.773   0.103
 6729SOL    HW121086   6.511   1.689   0.155
 6729SOL    HW221087   6.556   1.845   0.164
 6730SOL     OW21088   1.689   0.521   1.272
 6730SOL    HW121089   1.589   0.526   1.277
 6730SOL    HW221090   1.718   0.516   1.177
 6731SOL     OW21091   1.562   6.714   1.245
 6731SOL    HW121092   1.651   6.725   1.200
 6731SOL    HW221093   1.508   6.797   1.235
 6732SOL     OW21094   5.155   4.261   4.088
 6732SOL    HW121095   5.089   4.292   4.157
 6732SOL    HW221096   5.106   4.235   4.005
 6733SOL     OW21097   3.943   5.344   6.350
 6733SOL    HW121098   3.912   5.322   6.443
 6733SOL    HW221099   3.951   5.259   6.298
 6734SOL     OW21100   5.346   2.438   6.204
 6734SOL    HW121101   5.310   2.431   6.297
 6734SOL    HW221102   5.289   2.501   6.150
 6735SOL     OW21103   5.272   3.759   4.140
 6735SOL    HW121104   5.203   3.688   4.154
 6735SOL    HW221105   5.231   3.849   4.159
 6736SOL     OW21106   3.139   3.650   6.647
 6736SOL    HW121107   3.206   3.691   6.585
 6736SOL    HW221108   3.061   3.617   6.594
 6737SOL     OW21109   1.352   3.215   1.065
 6737SOL    HW121110   1.303   3.300   1.049
 6737SOL    HW221111   1.319   3.172   1.149
 6738SOL     OW21112   1.454   5.886   4.064
 6738SOL    HW121113   1.490   5.854   3.976
 6738SOL    HW221114   1.416   5.978   4.053
 6739SOL     OW21115   6.533   5.739   3.676
 6739SOL    HW121116   6.475   5.793   3.736
 6739SOL    HW221117   6.477   5.690   3.609
 6740SOL     OW21118   6.498   0.115   4.802
 6740SOL    HW121119   6.512   0.032   4.855
 6740SOL    HW221120   6.402   0.122   4.775
 6741SOL     OW21121   4.018   2.009   6.206
 6741SOL    HW121122   4.066   1.927   6.238
 6741SOL    HW221123   3.931   1.982   6.166
 6742SOL     OW21124   5.868   5.394   4.011
 6742SOL    HW121125   5.792   5.364   3.953
 6742SOL    HW221126   5.929   5.316   4.029
 6743SOL     OW21127   3.585   3.888   6.296
 6743SOL    HW121128   3.553   3.884   6.391
 6743SOL    HW221129   3.628   3.801   6.273
 6744SOL     OW21130   0.239   6.410   5.899
 6744SOL    HW121131   0.205   6.336   5.957
 6744SOL    HW221132   0.195   6.496   5.924
 6745SOL     OW21133   6.705   6.287   3.369
 6745SOL    HW121134   6.781   6.264   3.430
 6745SOL    HW221135   6.618   6.277   3.418
 6746SOL     OW21136   1.808   1.020   2.911
 6746SOL    HW121137   1.753   0.974   2.981
 6746SOL    HW221138   1.757   1.098   2.875
 6747SOL     OW21139   6.275   0.110   6.918
 6747SOL    HW121140   6.284   0.208   6.937
 6747SOL    HW221141   6.191   0.094   6.866
 6748SOL     OW21142   2.873   1.972   3.393
 6748SOL    HW121143   2.964   1.931   3.392
 6748SOL    HW221144   2.869   2.047   3.326
 6749SOL     OW21145   3.658   4.411   0.830
 6749SOL    HW121146   3.681   4.316   0.811
 6749SOL    HW221147   3.713   4.444   0.906
 6750SOL     OW21148   3.227   1.950   4.224
 6750SOL    HW121149   3.299   1.979   4.161
 6750SOL    HW221150   3.213   2.021   4.294
 6751SOL     OW21151   4.928   0.666   2.958
 6751SOL    HW121152   4.993   0.707   3.022
 6751SOL    HW221153   4.851   0.728   2.944
 6752SOL     OW21154   1.994   0.274   3.675
 6752SOL    HW121155   2.000   0.277   3.575
 6752SOL    HW221156   2.034   0.189   3.709
 6753SOL     OW21157   3.498   2.114   5.628
 6753SOL    HW121158   3.423   2.179   5.635
 6753SOL    HW221159   3.579   2.152   5.674
 6754SOL     OW21160   6.388   1.188   1.070
 6754SOL    HW121161   6.338   1.256   1.016
 6754SOL    HW221162   6.371   1.203   1.167
 6755SOL     OW21163   3.859   4.028   1.064
 6755SOL    HW121164   3.876   4.093   1.137
 6755SOL    HW221165   3.835   3.939   1.103
 6756SOL     OW21166   3.516   0.588   5.459
 6756SOL    HW121167   3.546   0.541   5.375
 6756SOL    HW221168   3.595   0.615   5.512
 6757SOL     OW21169   3.841   2.129   1.147
 6757SOL    HW121170   3.749   2.165   1.130
 6757SOL    HW221171   3.884   2.179   1.222
 6758SOL     OW21172   5.904   3.158   1.715
 6758SOL    HW121173   6.002   3.138   1.720
 6758SOL    HW221174   5.853   3.082   1.754
 6759SOL     OW21175   0.160   3.036   2.881
 6759SOL    HW121176   0.192   3.100   2.811
 6759SOL    HW221177   0.099   2.968   2.839
 6760SOL     OW21178   6.164   3.920   2.402
 6760SOL    HW121179   6.088   3.855   2.400
 6760SOL    HW221180   6.250   3.869   2.412
 6761SOL     OW21181   5.739   3.007   4.626
 6761SOL    HW121182   5.722   2.912   4.599
 6761SOL    HW221183   5.744   3.013   4.726
 6762SOL     OW21184   0.475   4.829   4.582
 6762SOL    HW121185   0.526   4.767   4.641
 6762SOL    HW221186   0.387   4.788   4.558
 6763SOL     OW21187   4.942   5.215   4.761
 6763SOL    HW121188   4.968   5.285   4.827
 6763SOL    HW221189   5.003   5.136   4.771
 6764SOL     OW21190   2.020   5.379   2.032
 6764SOL    HW121191   2.066   5.290   2.028
 6764SOL    HW221192   1.921   5.366   2.028
 6765SOL     OW21193   6.147   4.584   2.801
 6765SOL    HW121194   6.057   4.577   2.758
 6765SOL    HW221195   6.161   4.677   2.835
 6766SOL     OW21196   4.854   6.580   5.674
 6766SOL    HW121197   4.851   6.485   5.707
 6766SOL    HW221198   4.775   6.630   5.709
 6767SOL     OW21199   3.407   0.013   1.093
 6767SOL    HW121200   3.421   0.097   1.146
 6767SOL    HW221201   3.454   0.021   1.005
 6768SOL     OW21202   1.855   0.467   5.461
 6768SOL    HW121203   1.882   0.438   5.553
 6768SOL    HW221204   1.867   0.566   5.452
 6769SOL     OW21205   3.222   1.502   0.520
 6769SOL    HW121206   3.272   1.488   0.605
 6769SOL    HW221207   3.123   1.493   0.537
 6770SOL     OW21208   0.012   1.506   1.882
 6770SOL    HW121209   0.103   1.503   1.924
 6770SOL    HW221210   7.022   1.593   1.835
 6771SOL     OW21211   4.838   2.464   3.494
 6771SOL    HW121212   4.811   2.560   3.497
 6771SOL    HW221213   4.782   2.416   3.427
 6772SOL     OW21214   3.449   1.078   3.229
 6772SOL    HW121215   3.377   1.061   3.297
 6772SOL    HW221216   3.407   1.093   3.140
 6773SOL     OW21217   0.227   5.145   1.707
 6773SOL    HW121218   0.213   5.223   1.769
 6773SOL    HW221219   0.158   5.075   1.725
 6774SOL     OW21220   0.294   2.098   5.578
 6774SOL    HW121221   0.381   2.053   5.561
 6774SOL    HW221222   0.248   2.115   5.490
 6775SOL     OW21223   2.700   3.099   1.632
 6775SOL    HW121224   2.769   3.026   1.632
 6775SOL    HW221225   2.735   3.177   1.683
 6776SOL     OW21226   4.208   4.464   0.013
 6776SOL    HW121227   4.306   4.442   0.015
 6776SOL    HW221228   4.173   4.447   6.943
 6777SOL     OW21229   4.241   4.139   6.869
 6777SOL    HW121230   4.230   4.073   6.795
 6777SOL    HW221231   4.339   4.151   6.888
 6778SOL     OW21232   5.931   4.648   2.273
 6778SOL    HW121233   5.841   4.689   2.261
 6778SOL    HW221234   5.935   4.560   2.225
 6779SOL     OW21235   0.021   5.012   6.548
 6779SOL    HW121236   7.000   4.923   6.564
 6779SOL    HW221237   6.972   5.082   6.536
 6780SOL     OW21238   1.390   2.376   1.893
 6780SOL    HW121239   1.359   2.463   1.856
 6780SOL    HW221240   1.397   2.383   1.993
 6781SOL     OW21241   6.136   0.297   4.966
 6781SOL    HW121242   6.040   0.268   4.969
 6781SOL    HW221243   6.145   0.374   4.903
 6782SOL     OW21244   6.849   0.217   3.663
 6782SOL    HW121245   6.750   0.232   3.665
 6782SOL    HW221246   6.896   0.305   3.656
 6783SOL     OW21247   6.478   0.850   5.978
 6783SOL    HW121248   6.560   0.794   5.967
 6783SOL    HW221249   6.505   0.943   6.005
 6784SOL     OW21250   2.733   3.464   0.639
 6784SOL    HW121251   2.766   3.558   0.631
 6784SOL    HW221252   2.812   3.402   0.640
 6785SOL     OW21253   5.512   4.545   3.163
 6785SOL    HW121254   5.544   4.571   3.254
 6785SOL    HW221255   5.413   4.530   3.166
 6786SOL     OW21256   1.219   2.320   0.321
 6786SOL    HW121257   1.312   2.320   0.358
 6786SOL    HW221258   1.165   2.250   0.367
 6787SOL     OW21259   1.519   2.732   1.174
 6787SOL    HW121260   1.426   2.765   1.187
 6787SOL    HW221261   1.576   2.762   1.250
 6788SOL     OW21262   2.718   3.252   1.377
 6788SOL    HW121263   2.807   3.225   1.341
 6788SOL    HW221264   2.675   3.174   1.423
 6789SOL     OW21265   6.614   6.266   2.884
 6789SOL    HW121266   6.532   6.210   2.892
 6789SOL    HW221267   6.640   6.301   2.974
 6790SOL     OW21268   1.075   3.918   1.138
 6790SOL    HW121269   1.050   4.014   1.126
 6790SOL    HW221270   1.110   3.904   1.231
 6791SOL     OW21271   4.241   2.754   1.546
 6791SOL    HW121272   4.142   2.747   1.543
 6791SOL    HW221273   4.267   2.819   1.618
 6792SOL     OW21274   6.582   6.043   5.612
 6792SOL    HW121275   6.615   6.098   5.536
 6792SOL    HW221276   6.600   6.091   5.698
 6793SOL     OW21277   1.058   1.631   0.341
 6793SOL    HW121278   1.100   1.695   0.277
 6793SOL    HW221279   0.959   1.647   0.345
 6794SOL     OW21280   5.344   1.795   6.085
 6794SOL    HW121281   5.289   1.875   6.110
 6794SOL    HW221282   5.368   1.745   6.168
 6795SOL     OW21283   2.430   6.406   1.085
 6795SOL    HW121284   2.454   6.437   1.177
 6795SOL    HW221285   2.505   6.353   1.047
 6796SOL     OW21286   6.728   0.888   2.242
 6796SOL    HW121287   6.630   0.869   2.235
 6796SOL    HW221288   6.761   0.925   2.155
 6797SOL     OW21289   5.494   3.441   1.775
 6797SOL    HW121290   5.442   3.367   1.817
 6797SOL    HW221291   5.526   3.503   1.847
 6798SOL     OW21292   4.917   6.514   2.750
 6798SOL    HW121293   5.010   6.493   2.781
 6798SOL    HW221294   4.862   6.431   2.748
 6799SOL     OW21295   6.513   6.454   0.636
 6799SOL    HW121296   6.571   6.411   0.566
 6799SOL    HW221297   6.514   6.554   0.623
 6800SOL     OW21298   2.245   4.069   1.033
 6800SOL    HW121299   2.312   4.132   0.993
 6800SOL    HW221300   2.289   3.982   1.054
 6801SOL     OW21301   0.713   0.527   2.935
 6801SOL    HW121302   0.745   0.621   2.942
 6801SOL    HW221303   0.622   0.526   2.893
 6802SOL     OW21304   3.284   5.737   0.738
 6802SOL    HW121305   3.327   5.777   0.657
 6802SOL    HW221306   3.317   5.783   0.820
 6803SOL     OW21307   5.182   2.808   6.333
 6803SOL    HW121308   5.226   2.869   6.398
 6803SOL    HW221309   5.175   2.853   6.243
 6804SOL     OW21310   2.955   5.089   3.711
 6804SOL    HW121311   3.016   5.026   3.664
 6804SOL    HW221312   2.902   5.039   3.780
 6805SOL     OW21313   6.096   5.379   6.108
 6805SOL    HW121314   6.164   5.313   6.075
 6805SOL    HW221315   6.048   5.342   6.187
 6806SOL     OW21316   6.116   0.701   3.322
 6806SOL    HW121317   6.116   0.727   3.419
 6806SOL    HW221318   6.021   0.694   3.290
 6807SOL     OW21319   3.273   2.497   0.497
 6807SOL    HW121320   3.231   2.408   0.480
 6807SOL    HW221321   3.224   2.567   0.446
 6808SOL     OW21322   0.298   1.879   5.342
 6808SOL    HW121323   0.356   1.819   5.287
 6808SOL    HW221324   0.297   1.971   5.302
 6809SOL     OW21325   1.339   3.007   1.550
 6809SOL    HW121326   1.309   3.056   1.631
 6809SOL    HW221327   1.391   2.926   1.577
 6810SOL     OW21328   2.186   0.261   1.964
 6810SOL    HW121329   2.115   0.303   1.907
 6810SOL    HW221330   2.216   0.176   1.922
 6811SOL     OW21331   4.789   4.156   0.571
 6811SOL    HW121332   4.839   4.187   0.652
 6811SOL    HW221333   4.835   4.075   0.534
 6812SOL     OW21334   3.223   3.418   3.254
 6812SOL    HW121335   3.261   3.377   3.338
 6812SOL    HW221336   3.138   3.371   3.230
 6813SOL     OW21337   4.538   2.348   2.490
 6813SOL    HW121338   4.598   2.271   2.466
 6813SOL    HW221339   4.506   2.392   2.406
 6814SOL     OW21340   3.476   1.902   0.215
 6814SOL    HW121341   3.414   1.858   0.281
 6814SOL    HW221342   3.518   1.982   0.257
 6815SOL     OW21343   2.690   0.284   1.414
 6815SOL    HW121344   2.668   0.214   1.346
 6815SOL    HW221345   2.759   0.248   1.478
 6816SOL     OW21346   0.293   6.907   6.453
 6816SOL    HW121347   0.299   6.845   6.532
 6816SOL    HW221348   0.200   6.904   6.416
 6817SOL     OW21349   1.102   2.025   4.257
 6817SOL    HW121350   1.171   2.098   4.257
 6817SOL    HW221351   1.026   2.051   4.197
 6818SOL     OW21352   3.043   5.091   1.801
 6818SOL    HW121353   3.027   5.163   1.869
 6818SOL    HW221354   2.970   5.024   1.805
 6819SOL     OW21355   5.117   0.896   4.327
 6819SOL    HW121356   5.173   0.960   4.379
 6819SOL    HW221357   5.021   0.907   4.353
 6820SOL     OW21358   1.454   5.647   3.021
 6820SOL    HW121359   1.433   5.621   3.115
 6820SOL    HW221360   1.458   5.565   2.964
 6821SOL     OW21361   2.873   1.102   5.048
 6821SOL    HW121362   2.918   1.037   5.108
 6821SOL    HW221363   2.941   1.145   4.988
 6822SOL     OW21364   5.840   2.331   6.186
 6822SOL    HW121365   5.843   2.231   6.189
 6822SOL    HW221366   5.753   2.360   6.146
 6823SOL     OW21367   3.507   3.184   4.317
 6823SOL    HW121368   3.595   3.196   4.271
 6823SOL    HW221369   3.481   3.088   4.315
 6824SOL     OW21370   1.134   2.525   6.327
 6824SOL    HW121371   1.130   2.519   6.427
 6824SOL    HW221372   1.106   2.437   6.287
 6825SOL     OW21373   5.002   6.440   2.432
 6825SOL    HW121374   5.010   6.527   2.481
 6825SOL    HW221375   4.984   6.367   2.497
 6826SOL     OW21376   2.023   4.158   2.345
 6826SOL    HW121377   2.088   4.112   2.406
 6826SOL    HW221378   1.938   4.175   2.394
 6827SOL     OW21379   4.492   5.494   6.640
 6827SOL    HW121380   4.573   5.540   6.605
 6827SOL    HW221381   4.435   5.464   6.564
 6828SOL     OW21382   2.718   2.039   1.792
 6828SOL    HW121383   2.749   1.946   1.812
 6828SOL    HW221384   2.794   2.092   1.754
 6829SOL     OW21385   4.705   6.405   4.268
 6829SOL    HW121386   4.687   6.336   4.337
 6829SOL    HW221387   4.627   6.469   4.264
 6830SOL     OW21388   4.877   1.380   3.972
 6830SOL    HW121389   4.960   1.435   3.982
 6830SOL    HW221390   4.873   1.343   3.879
 6831SOL     OW21391   1.053   0.391   6.715
 6831SOL    HW121392   1.082   0.433   6.629
 6831SOL    HW221393   1.024   0.462   6.779
 6832SOL     OW21394   2.382   3.835   1.049
 6832SOL    HW121395   2.424   3.784   1.125
 6832SOL    HW221396   2.395   3.785   0.964
 6833SOL     OW21397   4.228   4.398   6.435
 6833SOL    HW121398   4.247   4.421   6.339
 6833SOL    HW221399   4.207   4.482   6.485
 6834SOL     OW21400   5.516   6.923   1.183
 6834SOL    HW121401   5.604   6.880   1.167
 6834SOL    HW221402   5.452   6.897   1.110
 6835SOL     OW21403   3.479   0.582   4.887
 6835SOL    HW121404   3.543   0.580   4.964
 6835SOL    HW221405   3.527   0.613   4.805
 6836SOL     OW21406   2.785   5.560   0.288
 6836SOL    HW121407   2.693   5.583   0.257
 6836SOL    HW221408   2.780   5.502   0.369
 6837SOL     OW21409   1.692   1.855   2.307
 6837SOL    HW121410   1.679   1.764   2.265
 6837SOL    HW221411   1.784   1.887   2.285
 6838SOL     OW21412   2.662   6.286   0.953
 6838SOL    HW121413   2.587   6.246   0.901
 6838SOL    HW221414   2.735   6.218   0.964
 6839SOL     OW21415   5.282   0.644   6.902
 6839SOL    HW121416   5.358   0.582   6.883
 6839SOL    HW221417   5.209   0.630   6.836
 6840SOL     OW21418   2.751   1.407   4.771
 6840SOL    HW121419   2.737   1.365   4.861
 6840SOL    HW221420   2.842   1.385   4.737
 6841SOL     OW21421   4.931   3.938   6.386
 6841SOL    HW121422   4.948   4.033   6.359
 6841SOL    HW221423   4.993   3.877   6.337
 6842SOL     OW21424   2.987   4.365   1.368
 6842SOL    HW121425   2.949   4.276   1.394
 6842SOL    HW221426   2.923   4.438   1.392
 6843SOL     OW21427   5.450   6.263   0.700
 6843SOL    HW121428   5.537   6.222   0.728
 6843SOL    HW221429   5.415   6.321   0.774
 6844SOL     OW21430   5.833   0.876   4.763
 6844SOL    HW121431   5.758   0.834   4.712
 6844SOL    HW221432   5.826   0.850   4.860
 6845SOL     OW21433   6.414   3.618   3.112
 6845SOL    HW121434   6.438   3.591   3.205
 6845SOL    HW221435   6.314   3.619   3.102
 6846SOL     OW21436   3.852   3.724   0.135
 6846SOL    HW121437   3.818   3.815   0.155
 6846SOL    HW221438   3.916   3.695   0.207
 6847SOL     OW21439   7.011   3.781   5.406
 6847SOL    HW121440   6.999   3.713   5.334
 6847SOL    HW221441   0.079   3.770   5.448
 6848SOL     OW21442   5.243   4.511   3.242
 6848SOL    HW121443   5.150   4.491   3.211
 6848SOL    HW221444   5.240   4.588   3.306
 6849SOL     OW21445   4.390   4.149   5.601
 6849SOL    HW121446   4.300   4.164   5.562
 6849SOL    HW221447   4.400   4.053   5.628
 6850SOL     OW21448   5.145   2.978   2.776
 6850SOL    HW121449   5.133   3.071   2.810
 6850SOL    HW221450   5.057   2.942   2.744
 6851SOL     OW21451   0.527   2.236   2.704
 6851SOL    HW121452   0.564   2.181   2.779
 6851SOL    HW221453   0.515   2.330   2.734
 6852SOL     OW21454   2.943   4.570   1.155
 6852SOL    HW121455   2.995   4.566   1.241
 6852SOL    HW221456   2.873   4.641   1.161
 6853SOL     OW21457   5.365   4.159   6.329
 6853SOL    HW121458   5.420   4.126   6.406
 6853SOL    HW221459   5.292   4.218   6.363
 6854SOL     OW21460   5.520   0.233   5.694
 6854SOL    HW121461   5.430   0.254   5.732
 6854SOL    HW221462   5.525   0.137   5.669
 6855SOL     OW21463   4.234   5.190   3.299
 6855SOL    HW121464   4.136   5.209   3.310
 6855SOL    HW221465   4.285   5.234   3.373
 6856SOL     OW21466   0.552   2.503   4.844
 6856SOL    HW121467   0.606   2.579   4.808
 6856SOL    HW221468   0.602   2.417   4.829
 6857SOL     OW21469   1.120   3.163   6.521
 6857SOL    HW121470   1.031   3.184   6.562
 6857SOL    HW221471   1.189   3.161   6.593
 6858SOL     OW21472   3.864   3.910   1.892
 6858SOL    HW121473   3.848   3.961   1.807
 6858SOL    HW221474   3.800   3.942   1.962
 6859SOL     OW21475   0.887   0.945   1.207
 6859SOL    HW121476   0.828   0.915   1.132
 6859SOL    HW221477   0.971   0.890   1.207
 6860SOL     OW21478   6.789   4.461   1.148
 6860SOL    HW121479   6.723   4.526   1.111
 6860SOL    HW221480   6.787   4.377   1.094
 6861SOL     OW21481   5.322   3.816   6.363
 6861SOL    HW121482   5.362   3.767   6.285
 6861SOL    HW221483   5.248   3.875   6.331
 6862SOL     OW21484   7.006   5.618   5.872
 6862SOL    HW121485   0.072   5.572   5.870
 6862SOL    HW221486   6.977   5.632   5.966
 6863SOL     OW21487   6.619   6.354   5.687
 6863SOL    HW121488   6.577   6.398   5.767
 6863SOL    HW221489   6.605   6.412   5.607
 6864SOL     OW21490   1.753   4.820   5.176
 6864SOL    HW121491   1.653   4.822   5.179
 6864SOL    HW221492   1.785   4.879   5.102
 6865SOL     OW21493   0.941   6.996   5.118
 6865SOL    HW121494   0.848   6.979   5.152
 6865SOL    HW221495   1.007   6.973   5.190
 6866SOL     OW21496   5.641   4.365   2.646
 6866SOL    HW121497   5.609   4.413   2.728
 6866SOL    HW221498   5.688   4.281   2.673
 6867SOL     OW21499   2.141   3.383   1.695
 6867SOL    HW121500   2.193   3.401   1.778
 6867SOL    HW221501   2.091   3.465   1.668
 6868SOL     OW21502   2.219   6.605   5.331
 6868SOL    HW121503   2.156   6.666   5.282
 6868SOL    HW221504   2.308   6.605   5.284
 6869SOL     OW21505   5.117   1.006   5.840
 6869SOL    HW121506   5.066   1.090   5.854
 6869SOL    HW221507   5.100   0.972   5.748
 6870SOL     OW21508   0.279   4.360   1.201
 6870SOL    HW121509   0.290   4.332   1.106
 6870SOL    HW221510   0.368   4.388   1.238
 6871SOL     OW21511   6.431   4.005   2.666
 6871SOL    HW121512   6.355   4.056   2.626
 6871SOL    HW221513   6.462   4.050   2.750
 6872SOL     OW21514   0.566   2.973   1.782
 6872SOL    HW121515   0.650   3.005   1.826
 6872SOL    HW221516   0.588   2.923   1.698
 6873SOL     OW21517   1.091   3.807   4.081
 6873SOL    HW121518   1.011   3.867   4.078
 6873SOL    HW221519   1.061   3.712   4.077
 6874SOL     OW21520   6.192   5.310   3.914
 6874SOL    HW121521   6.182   5.305   4.013
 6874SOL    HW221522   6.144   5.390   3.879
 6875SOL     OW21523   2.443   1.699   2.093
 6875SOL    HW121524   2.499   1.778   2.069
 6875SOL    HW221525   2.378   1.682   2.019
 6876SOL     OW21526   3.530   0.026   3.685
 6876SOL    HW121527   3.620   0.060   3.655
 6876SOL    HW221528   3.511   6.962   3.639
 6877SOL     OW21529   3.563   4.200   1.876
 6877SOL    HW121530   3.491   4.140   1.842
 6877SOL    HW221531   3.629   4.147   1.930
 6878SOL     OW21532   2.716   1.780   3.490
 6878SOL    HW121533   2.700   1.726   3.407
 6878SOL    HW221534   2.789   1.845   3.474
 6879SOL     OW21535   2.162   2.340   0.115
 6879SOL    HW121536   2.109   2.328   0.031
 6879SOL    HW221537   2.250   2.293   0.106
 6880SOL     OW21538   0.917   6.116   5.721
 6880SOL    HW121539   0.827   6.159   5.721
 6880SOL    HW221540   0.987   6.185   5.707
 6881SOL     OW21541   1.594   3.302   1.410
 6881SOL    HW121542   1.658   3.231   1.438
 6881SOL    HW221543   1.632   3.354   1.334
 6882SOL     OW21544   2.925   0.624   0.295
 6882SOL    HW121545   2.893   0.557   0.227
 6882SOL    HW221546   2.885   0.603   0.384
 6883SOL     OW21547   5.367   1.558   6.827
 6883SOL    HW121548   5.285   1.613   6.842
 6883SOL    HW221549   5.366   1.520   6.734
 6884SOL     OW21550   0.733   4.117   2.915
 6884SOL    HW121551   0.679   4.196   2.886
 6884SOL    HW221552   0.797   4.145   2.986
 6885SOL     OW21553   4.643   5.180   3.607
 6885SOL    HW121554   4.649   5.236   3.690
 6885SOL    HW221555   4.729   5.187   3.556
 6886SOL     OW21556   0.234   1.412   4.804
 6886SOL    HW121557   0.208   1.318   4.779
 6886SOL    HW221558   0.265   1.460   4.722
 6887SOL     OW21559   4.740   5.902   7.004
 6887SOL    HW121560   4.641   5.902   6.993
 6887SOL    HW221561   4.779   5.980   6.954
 6888SOL     OW21562   5.682   4.871   6.478
 6888SOL    HW121563   5.728   4.925   6.407
 6888SOL    HW221564   5.713   4.902   6.568
 6889SOL     OW21565   1.516   2.756   5.812
 6889SOL    HW121566   1.478   2.767   5.904
 6889SOL    HW221567   1.556   2.664   5.804
 6890SOL     OW21568   3.835   5.781   2.576
 6890SOL    HW121569   3.775   5.821   2.507
 6890SOL    HW221570   3.904   5.849   2.603
 6891SOL     OW21571   2.259   3.335   1.408
 6891SOL    HW121572   2.161   3.320   1.422
 6891SOL    HW221573   2.303   3.353   1.496
 6892SOL     OW21574   3.573   1.629   3.952
 6892SOL    HW121575   3.661   1.604   3.913
 6892SOL    HW221576   3.523   1.687   3.888
 6893SOL     OW21577   5.361   3.878   0.183
 6893SOL    HW121578   5.419   3.853   0.106
 6893SOL    HW221579   5.323   3.969   0.168
 6894SOL     OW21580   6.223   5.194   1.205
 6894SOL    HW121581   6.284   5.155   1.274
 6894SOL    HW221582   6.277   5.235   1.132
 6895SOL     OW21583   2.088   5.294   1.316
 6895SOL    HW121584   2.084   5.312   1.415
 6895SOL    HW221585   2.001   5.319   1.274
 6896SOL     OW21586   2.431   2.077   3.540
 6896SOL    HW121587   2.463   2.060   3.446
 6896SOL    HW221588   2.331   2.086   3.540
 6897SOL     OW21589   5.005   3.489   5.193
 6897SOL    HW121590   4.942   3.506   5.117
 6897SOL    HW221591   5.026   3.575   5.239
 6898SOL     OW21592   3.619   1.292   1.717
 6898SOL    HW121593   3.586   1.198   1.705
 6898SOL    HW221594   3.558   1.355   1.669
 6899SOL     OW21595   4.653   6.105   2.378
 6899SOL    HW121596   4.573   6.161   2.356
 6899SOL    HW221597   4.731   6.135   2.323
 6900SOL     OW21598   0.196   4.287   5.222
 6900SOL    HW121599   0.169   4.373   5.265
 6900SOL    HW221600   0.295   4.285   5.211
 6901SOL     OW21601   5.458   5.751   6.220
 6901SOL    HW121602   5.427   5.820   6.155
 6901SOL    HW221603   5.555   5.764   6.239
 6902SOL     OW21604   6.770   5.508   5.365
 6902SOL    HW121605   6.811   5.499   5.456
 6902SOL    HW221606   6.673   5.531   5.375
 6903SOL     OW21607   3.141   5.006   5.084
 6903SOL    HW121608   3.179   4.990   4.993
 6903SOL    HW221609   3.065   4.942   5.100
 6904SOL     OW21610   6.366   6.716   6.138
 6904SOL    HW121611   6.382   6.706   6.040
 6904SOL    HW221612   6.268   6.723   6.156
 6905SOL     OW21613   5.377   5.151   6.825
 6905SOL    HW121614   5.453   5.089   6.804
 6905SOL    HW221615   5.302   5.098   6.864
 6906SOL     OW21616   3.459   0.899   3.656
 6906SOL    HW121617   3.517   0.946   3.589
 6906SOL    HW221618   3.509   0.890   3.742
 6907SOL     OW21619   6.313   2.529   1.771
 6907SOL    HW121620   6.334   2.626   1.781
 6907SOL    HW221621   6.397   2.477   1.757
 6908SOL     OW21622   1.970   4.484   6.867
 6908SOL    HW121623   1.924   4.520   6.786
 6908SOL    HW221624   2.063   4.521   6.871
 6909SOL     OW21625   5.021   4.602   1.111
 6909SOL    HW121626   5.013   4.513   1.156
 6909SOL    HW221627   4.944   4.617   1.050
 6910SOL     OW21628   1.168   2.938   2.775
 6910SOL    HW121629   1.069   2.925   2.762
 6910SOL    HW221630   1.186   3.030   2.809
 6911SOL     OW21631   4.339   0.097   4.390
 6911SOL    HW121632   4.350   0.031   4.315
 6911SOL    HW221633   4.412   0.165   4.387
 6912SOL     OW21634   2.729   3.205   6.373
 6912SOL    HW121635   2.640   3.249   6.365
 6912SOL    HW221636   2.726   3.116   6.327
 6913SOL     OW21637   5.161   6.316   5.299
 6913SOL    HW121638   5.123   6.237   5.348
 6913SOL    HW221639   5.093   6.352   5.236
 6914SOL     OW21640   5.838   4.465   3.674
 6914SOL    HW121641   5.873   4.451   3.767
 6914SOL    HW221642   5.762   4.530   3.677
 6915SOL     OW21643   0.353   2.620   2.365
 6915SOL    HW121644   0.367   2.717   2.346
 6915SOL    HW221645   0.441   2.574   2.377
 6916SOL     OW21646   5.734   0.483   6.506
 6916SOL    HW121647   5.635   0.492   6.492
 6916SOL    HW221648   5.770   0.569   6.543
 6917SOL     OW21649   4.001   6.217   1.869
 6917SOL    HW121650   4.042   6.308   1.872
 6917SOL    HW221651   4.068   6.151   1.836
 6918SOL     OW21652   6.654   2.751   4.148
 6918SOL    HW121653   6.603   2.834   4.127
 6918SOL    HW221654   6.744   2.774   4.185
 6919SOL     OW21655   6.596   6.162   3.713
 6919SOL    HW121656   6.640   6.079   3.679
 6919SOL    HW221657   6.552   6.210   3.637
 6920SOL     OW21658   4.315   0.188   5.391
 6920SOL    HW121659   4.394   0.239   5.426
 6920SOL    HW221660   4.275   0.238   5.314
 6921SOL     OW21661   4.541   6.761   3.662
 6921SOL    HW121662   4.555   6.854   3.629
 6921SOL    HW221663   4.469   6.717   3.608
 6922SOL     OW21664   1.448   6.212   5.425
 6922SOL    HW121665   1.360   6.231   5.382
 6922SOL    HW221666   1.452   6.254   5.515
 6923SOL     OW21667   5.634   6.135   2.637
 6923SOL    HW121668   5.643   6.100   2.730
 6923SOL    HW221669   5.537   6.142   2.614
 6924SOL     OW21670   2.922   4.561   0.195
 6924SOL    HW121671   2.924   4.500   0.274
 6924SOL    HW221672   2.997   4.626   0.200
 6925SOL     OW21673   4.536   5.745   4.878
 6925SOL    HW121674   4.544   5.647   4.861
 6925SOL    HW221675   4.460   5.782   4.825
 6926SOL     OW21676   1.861   1.551   0.754
 6926SOL    HW121677   1.853   1.495   0.672
 6926SOL    HW221678   1.881   1.493   0.833
 6927SOL     OW21679   3.798   1.649   6.639
 6927SOL    HW121680   3.724   1.612   6.583
 6927SOL    HW221681   3.798   1.603   6.728
 6928SOL     OW21682   5.293   5.894   0.910
 6928SOL    HW121683   5.337   5.876   0.822
 6928SOL    HW221684   5.340   5.843   0.981
 6929SOL     OW21685   5.282   5.857   2.154
 6929SOL    HW121686   5.256   5.773   2.106
 6929SOL    HW221687   5.230   5.865   2.238
 6930SOL     OW21688   1.118   0.922   1.418
 6930SOL    HW121689   1.142   0.985   1.492
 6930SOL    HW221690   1.185   0.847   1.415
 6931SOL     OW21691   1.756   2.044   2.024
 6931SOL    HW121692   1.658   2.053   2.037
 6931SOL    HW221693   1.801   2.131   2.045
 6932SOL     OW21694   4.398   5.973   0.997
 6932SOL    HW121695   4.418   5.876   1.006
 6932SOL    HW221696   4.403   6.000   0.901
 6933SOL     OW21697   3.449   6.924   5.607
 6933SOL    HW121698   3.514   6.854   5.578
 6933SOL    HW221699   3.380   6.883   5.667
 6934SOL     OW21700   4.396   3.676   5.861
 6934SOL    HW121701   4.449   3.717   5.935
 6934SOL    HW221702   4.309   3.725   5.851
 6935SOL     OW21703   4.062   5.709   2.754
 6935SOL    HW121704   4.116   5.790   2.780
 6935SOL    HW221705   3.965   5.730   2.763
 6936SOL     OW21706   6.962   2.457   4.419
 6936SOL    HW121707   6.974   2.556   4.407
 6936SOL    HW221708   6.939   2.438   4.514
 6937SOL     OW21709   6.079   6.167   0.574
 6937SOL    HW121710   6.157   6.190   0.633
 6937SOL    HW221711   6.005   6.129   0.630
 6938SOL     OW21712   0.377   2.657   4.502
 6938SOL    HW121713   0.312   2.722   4.460
 6938SOL    HW221714   0.361   2.654   4.601
 6939SOL     OW21715   6.738   5.140   2.221
 6939SOL    HW121716   6.651   5.097   2.242
 6939SOL    HW221717   6.790   5.153   2.305
 6940SOL     OW21718   4.174   6.790   0.451
 6940SOL    HW121719   4.267   6.828   0.444
 6940SOL    HW221720   4.110   6.863   0.475
 6941SOL     OW21721   3.108   3.775   2.003
 6941SOL    HW121722   3.086   3.724   1.920
 6941SOL    HW221723   3.081   3.722   2.083
 6942SOL     OW21724   5.360   6.949   2.545
 6942SOL    HW121725   5.381   0.014   2.589
 6942SOL    HW221726   5.430   6.882   2.569
 6943SOL     OW21727   3.581   5.235   0.409
 6943SOL    HW121728   3.557   5.268   0.500
 6943SOL    HW221729   3.521   5.280   0.341
 6944SOL     OW21730   1.332   5.108   6.162
 6944SOL    HW121731   1.419   5.150   6.134
 6944SOL    HW221732   1.343   5.068   6.253
 6945SOL     OW21733   0.014   2.454   1.249
 6945SOL    HW121734   6.995   2.516   1.182
 6945SOL    HW221735   0.109   2.436   1.223
 6946SOL     OW21736   4.046   6.437   1.523
 6946SOL    HW121737   4.084   6.347   1.504
 6946SOL    HW221738   4.104   6.507   1.482
 6947SOL     OW21739   4.425   5.072   6.147
 6947SOL    HW121740   4.471   5.092   6.234
 6947SOL    HW221741   4.326   5.081   6.159
 6948SOL     OW21742   0.726   5.708   1.196
 6948SOL    HW121743   0.801   5.653   1.230
 6948SOL    HW221744   0.657   5.648   1.155
 6949SOL     OW21745   2.407   1.505   3.356
 6949SOL    HW121746   2.394   1.459   3.268
 6949SOL    HW221747   2.415   1.604   3.341
 6950SOL     OW21748   1.400   0.429   4.603
 6950SOL    HW121749   1.343   0.491   4.548
 6950SOL    HW221750   1.369   0.335   4.591
 6951SOL     OW21751   0.321   5.955   6.415
 6951SOL    HW121752   0.376   5.901   6.479
 6951SOL    HW221753   0.381   5.998   6.348
 6952SOL     OW21754   1.565   5.238   3.506
 6952SOL    HW121755   1.656   5.197   3.511
 6952SOL    HW221756   1.548   5.269   3.413
 6953SOL     OW21757   5.276   6.973   0.150
 6953SOL    HW121758   5.371   7.003   0.150
 6953SOL    HW221759   5.217   0.026   0.120
 6954SOL     OW21760   0.559   4.456   1.229
 6954SOL    HW121761   0.614   4.415   1.301
 6954SOL    HW221762   0.549   4.554   1.246
 6955SOL     OW21763   4.797   0.842   2.681
 6955SOL    HW121764   4.800   0.773   2.608
 6955SOL    HW221765   4.723   0.907   2.661
 6956SOL     OW21766   4.910   6.160   3.308
 6956SOL    HW121767   4.890   6.106   3.227
 6956SOL    HW221768   4.952   6.102   3.378
 6957SOL     OW21769   6.108   5.599   0.009
 6957SOL    HW121770   6.136   5.652   6.951
 6957SOL    HW221771   6.008   5.597   0.015
 6958SOL     OW21772   4.049   3.280   5.063
 6958SOL    HW121773   4.091   3.290   4.973
 6958SOL    HW221774   3.963   3.229   5.055
 6959SOL     OW21775   1.577   4.198   3.265
 6959SOL    HW121776   1.498   4.248   3.228
 6959SOL    HW221777   1.661   4.246   3.240
 6960SOL     OW21778   2.164   3.764   0.743
 6960SOL    HW121779   2.155   3.752   0.644
 6960SOL    HW221780   2.216   3.848   0.761
 6961SOL     OW21781   5.472   1.105   4.649
 6961SOL    HW121782   5.516   1.043   4.584
 6961SOL    HW221783   5.477   1.065   4.741
 6962SOL     OW21784   4.516   5.723   0.917
 6962SOL    HW121785   4.463   5.638   0.915
 6962SOL    HW221786   4.614   5.701   0.910
 6963SOL     OW21787   5.532   5.127   0.788
 6963SOL    HW121788   5.526   5.218   0.831
 6963SOL    HW221789   5.596   5.070   0.840
 6964SOL     OW21790   3.405   0.298   6.125
 6964SOL    HW121791   3.321   0.280   6.073
 6964SOL    HW221792   3.421   0.396   6.130
 6965SOL     OW21793   1.970   1.574   6.920
 6965SOL    HW121794   1.924   1.487   6.902
 6965SOL    HW221795   1.903   1.648   6.920
 6966SOL     OW21796   0.499   0.892   2.662
 6966SOL    HW121797   0.454   0.878   2.750
 6966SOL    HW221798   0.571   0.961   2.671
 6967SOL     OW21799   3.351   1.304   5.813
 6967SOL    HW121800   3.355   1.404   5.821
 6967SOL    HW221801   3.311   1.280   5.724
 6968SOL     OW21802   2.461   1.047   3.642
 6968SOL    HW121803   2.500   1.132   3.607
 6968SOL    HW221804   2.366   1.063   3.669
 6969SOL     OW21805   3.035   1.691   1.401
 6969SOL    HW121806   3.032   1.747   1.484
 6969SOL    HW221807   3.041   1.751   1.321
 6970SOL     OW21808   4.212   3.697   5.186
 6970SOL    HW121809   4.141   3.632   5.159
 6970SOL    HW221810   4.174   3.789   5.191
 6971SOL     OW21811   5.909   5.153   0.893
 6971SOL    HW121812   5.976   5.150   0.818
 6971SOL    HW221813   5.873   5.245   0.901
 6972SOL     OW21814   5.346   4.150   2.133
 6972SOL    HW121815   5.373   4.059   2.163
 6972SOL    HW221816   5.407   4.218   2.175
 6973SOL     OW21817   0.396   2.237   3.685
 6973SOL    HW121818   0.467   2.172   3.661
 6973SOL    HW221819   0.374   2.294   3.606
 6974SOL     OW21820   3.096   3.850   3.050
 6974SOL    HW121821   3.125   3.918   3.118
 6974SOL    HW221822   3.049   3.775   3.096
 6975SOL     OW21823   1.825   6.738   4.420
 6975SOL    HW121824   1.874   6.757   4.335
 6975SOL    HW221825   1.850   6.806   4.488
 6976SOL     OW21826   6.589   4.154   6.127
 6976SOL    HW121827   6.570   4.069   6.078
 6976SOL    HW221828   6.586   4.137   6.226
 6977SOL     OW21829   3.334   3.148   1.172
 6977SOL    HW121830   3.429   3.171   1.153
 6977SOL    HW221831   3.284   3.137   1.086
 6978SOL     OW21832   5.451   2.583   1.468
 6978SOL    HW121833   5.545   2.581   1.504
 6978SOL    HW221834   5.450   2.635   1.382
 6979SOL     OW21835   1.168   3.427   0.956
 6979SOL    HW121836   1.085   3.403   0.905
 6979SOL    HW221837   1.228   3.481   0.898
 6980SOL     OW21838   1.420   1.361   3.706
 6980SOL    HW121839   1.433   1.419   3.786
 6980SOL    HW221840   1.508   1.347   3.660
 6981SOL     OW21841   3.732   3.193   5.832
 6981SOL    HW121842   3.741   3.093   5.841
 6981SOL    HW221843   3.774   3.223   5.746
 6982SOL     OW21844   0.631   0.946   4.015
 6982SOL    HW121845   0.711   0.896   4.047
 6982SOL    HW221846   0.655   0.999   3.933
 6983SOL     OW21847   5.104   1.169   4.914
 6983SOL    HW121848   5.020   1.159   4.968
 6983SOL    HW221849   5.092   1.125   4.825
 6984SOL     OW21850   1.740   1.486   2.534
 6984SOL    HW121851   1.661   1.525   2.582
 6984SOL    HW221852   1.739   1.517   2.438
 6985SOL     OW21853   6.550   5.388   0.902
 6985SOL    HW121854   6.611   5.373   0.980
 6985SOL    HW221855   6.558   5.312   0.838
 6986SOL     OW21856   3.444   6.322   6.277
 6986SOL    HW121857   3.526   6.303   6.223
 6986SOL    HW221858   3.470   6.358   6.366
 6987SOL     OW21859   6.688   1.584   6.223
 6987SOL    HW121860   6.682   1.580   6.123
 6987SOL    HW221861   6.690   1.679   6.253
 6988SOL     OW21862   2.099   6.792   6.029
 6988SOL    HW121863   2.081   6.707   6.078
 6988SOL    HW221864   2.143   6.772   5.941
 6989SOL     OW21865   0.045   4.518   3.014
 6989SOL    HW121866   0.103   4.580   2.962
 6989SOL    HW221867   0.012   4.564   3.097
 6990SOL     OW21868   3.996   2.501   1.214
 6990SOL    HW121869   3.897   2.508   1.204
 6990SOL    HW221870   4.018   2.432   1.282
 6991SOL     OW21871   5.599   4.286   3.651
 6991SOL    HW121872   5.673   4.329   3.702
 6991SOL    HW221873   5.637   4.225   3.582
 6992SOL     OW21874   6.363   6.294   6.592
 6992SOL    HW121875   6.423   6.239   6.534
 6992SOL    HW221876   6.390   6.390   6.586
 6993SOL     OW21877   6.476   0.487   1.841
 6993SOL    HW121878   6.421   0.566   1.813
 6993SOL    HW221879   6.465   0.414   1.774
 6994SOL     OW21880   1.183   1.109   4.372
 6994SOL    HW121881   1.093   1.089   4.333
 6994SOL    HW221882   1.214   1.199   4.340
 6995SOL     OW21883   0.204   3.906   6.974
 6995SOL    HW121884   0.281   3.969   6.976
 6995SOL    HW221885   0.214   3.838   0.025
 6996SOL     OW21886   1.496   0.614   0.286
 6996SOL    HW121887   1.537   0.531   0.248
 6996SOL    HW221888   1.455   0.593   0.375
 6997SOL     OW21889   6.810   4.816   4.886
 6997SOL    HW121890   6.781   4.728   4.848
 6997SOL    HW221891   6.897   4.843   4.845
 6998SOL     OW21892   1.169   2.018   1.499
 6998SOL    HW121893   1.138   2.081   1.427
 6998SOL    HW221894   1.112   1.937   1.499
 6999SOL     OW21895   1.766   2.124   6.453
 6999SOL    HW121896   1.815   2.054   6.504
 6999SOL    HW221897   1.763   2.208   6.506
 7000SOL     OW21898   5.865   0.217   2.180
 7000SOL    HW121899   5.960   0.212   2.209
 7000SOL    HW221900   5.861   0.230   2.081
 7001SOL     OW21901   0.876   2.450   5.128
 7001SOL    HW121902   0.896   2.398   5.045
 7001SOL    HW221903   0.782   2.434   5.157
 7002SOL     OW21904   1.881   5.033   4.093
 7002SOL    HW121905   1.962   5.087   4.073
 7002SOL    HW221906   1.814   5.090   4.141
 7003SOL     OW21907   4.529   5.715   1.566
 7003SOL    HW121908   4.618   5.685   1.532
 7003SOL    HW221909   4.489   5.780   1.502
 7004SOL     OW21910   0.735   6.030   0.346
 7004SOL    HW121911   0.771   6.026   0.440
 7004SOL    HW221912   0.680   5.948   0.328
 7005SOL     OW21913   0.976   0.787   0.568
 7005SOL    HW121914   0.936   0.697   0.550
 7005SOL    HW221915   1.070   0.790   0.537
 7006SOL     OW21916   5.582   6.257   3.401
 7006SOL    HW121917   5.658   6.212   3.353
 7006SOL    HW221918   5.569   6.213   3.490
 7007SOL     OW21919   3.875   0.688   4.688
 7007SOL    HW121920   3.777   0.670   4.673
 7007SOL    HW221921   3.888   0.723   4.781
 7008SOL     OW21922   0.474   4.515   4.386
 7008SOL    HW121923   0.539   4.586   4.413
 7008SOL    HW221924   0.523   4.434   4.355
 7009SOL     OW21925   4.420   6.830   2.022
 7009SOL    HW121926   4.388   6.919   2.057
 7009SOL    HW221927   4.438   6.769   2.098
 7010SOL     OW21928   5.843   4.892   3.634
 7010SOL    HW121929   5.934   4.856   3.611
 7010SOL    HW221930   5.787   4.818   3.672
 7011SOL     OW21931   3.770   6.820   1.015
 7011SOL    HW121932   3.829   6.832   0.935
 7011SOL    HW221933   3.792   6.890   1.083
 7012SOL     OW21934   0.728   1.919   1.207
 7012SOL    HW121935   0.629   1.933   1.201
 7012SOL    HW221936   0.775   2.008   1.201
 7013SOL     OW21937   1.847   6.642   6.442
 7013SOL    HW121938   1.833   6.619   6.345
 7013SOL    HW221939   1.774   6.703   6.473
 7014SOL     OW21940   5.473   3.492   0.732
 7014SOL    HW121941   5.423   3.544   0.663
 7014SOL    HW221942   5.517   3.414   0.688
 7015SOL     OW21943   5.648   4.698   2.205
 7015SOL    HW121944   5.585   4.667   2.134
 7015SOL    HW221945   5.667   4.623   2.268
 7016SOL     OW21946   3.910   5.139   1.608
 7016SOL    HW121947   3.851   5.195   1.551
 7016SOL    HW221948   3.945   5.062   1.555
 7017SOL     OW21949   2.598   5.121   3.046
 7017SOL    HW121950   2.579   5.068   2.963
 7017SOL    HW221951   2.529   5.192   3.056
 7018SOL     OW21952   5.165   3.995   4.207
 7018SOL    HW121953   5.176   4.089   4.175
 7018SOL    HW221954   5.100   3.993   4.283
 7019SOL     OW21955   4.275   5.111   2.055
 7019SOL    HW121956   4.254   5.062   2.140
 7019SOL    HW221957   4.242   5.205   2.062
 7020SOL     OW21958   0.392   3.869   6.550
 7020SOL    HW121959   0.331   3.941   6.582
 7020SOL    HW221960   0.340   3.784   6.538
 7021SOL     OW21961   1.777   2.967   4.188
 7021SOL    HW121962   1.855   2.950   4.128
 7021SOL    HW221963   1.774   3.064   4.214
 7022SOL     OW21964   4.632   6.960   0.184
 7022SOL    HW121965   4.711   6.986   0.130
 7022SOL    HW221966   4.617   0.004   0.257
 7023SOL     OW21967   0.548   2.647   1.291
 7023SOL    HW121968   0.561   2.700   1.208
 7023SOL    HW221969   0.638   2.625   1.330
 7024SOL     OW21970   3.609   3.546   4.262
 7024SOL    HW121971   3.539   3.553   4.192
 7024SOL    HW221972   3.566   3.543   4.353
 7025SOL     OW21973   3.587   0.628   0.707
 7025SOL    HW121974   3.518   0.651   0.638
 7025SOL    HW221975   3.541   0.592   0.789
 7026SOL     OW21976   3.975   2.193   1.991
 7026SOL    HW121977   3.925   2.188   1.904
 7026SOL    HW221978   3.922   2.244   2.058
 7027SOL     OW21979   2.468   6.281   4.116
 7027SOL    HW121980   2.445   6.188   4.089
 7027SOL    HW221981   2.416   6.346   4.061
 7028SOL     OW21982   3.023   0.200   4.025
 7028SOL    HW121983   3.080   0.227   3.948
 7028SOL    HW221984   3.011   0.279   4.086
 7029SOL     OW21985   4.074   4.137   5.872
 7029SOL    HW121986   4.061   4.086   5.787
 7029SOL    HW221987   4.169   4.165   5.880
 7030SOL     OW21988   0.821   1.242   4.471
 7030SOL    HW121989   0.792   1.311   4.537
 7030SOL    HW221990   0.783   1.153   4.497
 7031SOL     OW21991   4.002   6.129   0.178
 7031SOL    HW121992   4.065   6.169   0.245
 7031SOL    HW221993   4.027   6.035   0.159
 7032SOL     OW21994   4.062   1.202   3.344
 7032SOL    HW121995   4.086   1.297   3.362
 7032SOL    HW221996   3.993   1.198   3.272
 7033SOL     OW21997   1.471   2.758   3.717
 7033SOL    HW121998   1.457   2.730   3.812
 7033SOL    HW221999   1.382   2.765   3.672
 7034SOL     OW22000   6.646   2.439   3.047
 7034SOL    HW122001   6.563   2.487   3.075
 7034SOL    HW222002   6.697   2.410   3.128
 7035SOL     OW22003   1.952   0.201   1.397
 7035SOL    HW122004   1.945   0.299   1.420
 7035SOL    HW222005   1.985   0.151   1.477
 7036SOL     OW22006   0.026   2.142   2.252
 7036SOL    HW122007   0.087   2.210   2.294
 7036SOL    HW222008   0.053   2.126   2.157
 7037SOL     OW22009   0.817   1.171   5.975
 7037SOL    HW122010   0.905   1.197   5.935
 7037SOL    HW222011   0.804   1.072   5.966
 7038SOL     OW22012   2.000   4.451   4.825
 7038SOL    HW122013   2.047   4.436   4.912
 7038SOL    HW222014   1.978   4.362   4.784
 7039SOL     OW22015   0.245   6.227   3.709
 7039SOL    HW122016   0.334   6.271   3.701
 7039SOL    HW222017   0.203   6.219   3.619
 7040SOL     OW22018   5.295   2.583   5.473
 7040SOL    HW122019   5.327   2.500   5.519
 7040SOL    HW222020   5.355   2.659   5.498
 7041SOL     OW22021   0.543   1.783   3.323
 7041SOL    HW122022   0.475   1.841   3.367
 7041SOL    HW222023   0.628   1.785   3.377
 7042SOL     OW22024   4.637   5.796   4.343
 7042SOL    HW122025   4.621   5.763   4.250
 7042SOL    HW222026   4.735   5.797   4.362
 7043SOL     OW22027   2.790   4.866   3.279
 7043SOL    HW122028   2.735   4.783   3.286
 7043SOL    HW222029   2.731   4.946   3.293
 7044SOL     OW22030   4.775   6.891   5.000
 7044SOL    HW122031   4.798   6.980   5.040
 7044SOL    HW222032   4.694   6.854   5.046
 7045SOL     OW22033   5.659   5.704   2.075
 7045SOL    HW122034   5.603   5.651   2.138
 7045SOL    HW222035   5.732   5.647   2.039
 7046SOL     OW22036   2.968   1.980   4.007
 7046SOL    HW122037   3.013   1.943   3.926
 7046SOL    HW222038   2.983   1.918   4.085
 7047SOL     OW22039   0.014   1.114   1.666
 7047SOL    HW122040   6.975   1.150   1.736
 7047SOL    HW222041   0.073   1.188   1.632
 7048SOL     OW22042   5.902   6.336   4.835
 7048SOL    HW122043   5.955   6.254   4.858
 7048SOL    HW222044   5.810   6.310   4.806
 7049SOL     OW22045   3.379   1.505   2.151
 7049SOL    HW122046   3.401   1.522   2.054
 7049SOL    HW222047   3.322   1.424   2.158
 7050SOL     OW22048   3.957   4.425   1.031
 7050SOL    HW122049   4.047   4.389   1.006
 7050SOL    HW222050   3.967   4.509   1.084
 7051SOL     OW22051   6.698   6.391   0.998
 7051SOL    HW122052   6.658   6.432   0.916
 7051SOL    HW222053   6.780   6.340   0.974
 7052SOL     OW22054   5.755   0.437   3.195
 7052SOL    HW122055   5.765   0.371   3.121
 7052SOL    HW222056   5.658   0.461   3.205
 7053SOL     OW22057   2.055   4.129   4.275
 7053SOL    HW122058   2.120   4.159   4.205
 7053SOL    HW222059   1.963   4.128   4.237
 7054SOL     OW22060   0.059   0.126   1.435
 7054SOL    HW122061   0.083   0.223   1.432
 7054SOL    HW222062   0.143   0.072   1.449
 7055SOL     OW22063   2.986   0.155   0.434
 7055SOL    HW122064   2.914   0.212   0.395
 7055SOL    HW222065   2.945   0.082   0.489
 7056SOL     OW22066   6.892   5.838   1.216
 7056SOL    HW122067   6.835   5.892   1.155
 7056SOL    HW222068   6.988   5.847   1.189
 7057SOL     OW22069   3.225   5.790   4.321
 7057SOL    HW122070   3.277   5.829   4.397
 7057SOL    HW222071   3.148   5.849   4.299
 7058SOL     OW22072   5.513   1.930   5.899
 7058SOL    HW122073   5.452   1.892   5.968
 7058SOL    HW222074   5.461   1.953   5.817
 7059SOL     OW22075   1.409   0.956   4.353
 7059SOL    HW122076   1.344   1.032   4.359
 7059SOL    HW222077   1.492   0.980   4.404
 7060SOL     OW22078   3.821   6.559   1.688
 7060SOL    HW122079   3.906   6.519   1.654
 7060SOL    HW222080   3.744   6.530   1.631
 7061SOL     OW22081   0.234   2.502   2.754
 7061SOL    HW122082   0.259   2.595   2.782
 7061SOL    HW222083   0.134   2.495   2.750
 7062SOL     OW22084   4.152   2.233   4.577
 7062SOL    HW122085   4.131   2.267   4.486
 7062SOL    HW222086   4.202   2.147   4.570
 7063SOL     OW22087   0.629   0.206   1.818
 7063SOL    HW122088   0.630   0.111   1.850
 7063SOL    HW222089   0.566   0.214   1.740
 7064SOL     OW22090   5.020   1.568   6.223
 7064SOL    HW122091   5.010   1.469   6.230
 7064SOL    HW222092   4.966   1.601   6.145
 7065SOL     OW22093   3.487   4.595   5.338
 7065SOL    HW122094   3.534   4.510   5.315
 7065SOL    HW222095   3.390   4.586   5.316
 7066SOL     OW22096   4.524   0.202   5.792
 7066SOL    HW122097   4.474   0.150   5.722
 7066SOL    HW222098   4.511   0.300   5.777
 7067SOL     OW22099   1.305   3.634   6.407
 7067SOL    HW122100   1.368   3.567   6.368
 7067SOL    HW222101   1.249   3.674   6.334
 7068SOL     OW22102   5.850   4.308   4.216
 7068SOL    HW122103   5.828   4.393   4.264
 7068SOL    HW222104   5.856   4.233   4.283
 7069SOL     OW22105   6.017   2.214   5.447
 7069SOL    HW122106   6.023   2.249   5.541
 7069SOL    HW222107   5.968   2.279   5.390
 7070SOL     OW22108   1.077   6.564   4.140
 7070SOL    HW122109   1.051   6.661   4.146
 7070SOL    HW222110   1.120   6.547   4.052
 7071SOL     OW22111   4.756   5.996   6.474
 7071SOL    HW122112   4.831   5.971   6.536
 7071SOL    HW222113   4.684   5.927   6.480
 7072SOL     OW22114   2.111   4.877   0.216
 7072SOL    HW122115   2.049   4.815   0.263
 7072SOL    HW222116   2.077   4.971   0.226
 7073SOL     OW22117   3.872   0.100   3.251
 7073SOL    HW122118   3.918   0.129   3.335
 7073SOL    HW222119   3.940   0.087   3.179
 7074SOL     OW22120   6.381   3.679   3.423
 7074SOL    HW122121   6.296   3.711   3.464
 7074SOL    HW222122   6.403   3.587   3.457
 7075SOL     OW22123   2.978   4.965   4.821
 7075SOL    HW122124   2.994   4.909   4.902
 7075SOL    HW222125   2.882   4.993   4.818
 7076SOL     OW22126   5.790   2.641   1.319
 7076SOL    HW122127   5.887   2.654   1.302
 7076SOL    HW222128   5.738   2.711   1.269
 7077SOL     OW22129   2.337   4.359   2.565
 7077SOL    HW122130   2.262   4.366   2.500
 7077SOL    HW222131   2.402   4.433   2.548
 7078SOL     OW22132   5.860   6.022   0.662
 7078SOL    HW122133   5.780   6.061   0.707
 7078SOL    HW222134   5.832   5.948   0.601
 7079SOL     OW22135   0.973   0.261   4.349
 7079SOL    HW122136   1.045   0.269   4.280
 7079SOL    HW222137   0.982   0.175   4.398
 7080SOL     OW22138   3.886   2.150   3.965
 7080SOL    HW122139   3.978   2.190   3.970
 7080SOL    HW222140   3.831   2.182   4.042
 7081SOL     OW22141   1.644   6.238   0.013
 7081SOL    HW122142   1.657   6.334   0.039
 7081SOL    HW222143   1.730   6.189   0.022
 7082SOL     OW22144   6.822   3.705   1.529
 7082SOL    HW122145   6.787   3.643   1.600
 7082SOL    HW222146   6.883   3.772   1.571
 7083SOL     OW22147   6.831   1.657   2.743
 7083SOL    HW122148   6.928   1.640   2.726
 7083SOL    HW222149   6.781   1.651   2.657
 7084SOL     OW22150   0.549   5.850   5.383
 7084SOL    HW122151   0.451   5.832   5.394
 7084SOL    HW222152   0.562   5.936   5.334
 7085SOL     OW22153   6.406   2.729   2.562
 7085SOL    HW122154   6.504   2.718   2.581
 7085SOL    HW222155   6.356   2.735   2.649
 7086SOL     OW22156   5.977   0.265   6.851
 7086SOL    HW122157   5.889   0.269   6.802
 7086SOL    HW222158   6.015   0.173   6.843
 7087SOL     OW22159   5.179   3.320   2.399
 7087SOL    HW122160   5.225   3.369   2.325
 7087SOL    HW222161   5.246   3.297   2.469
 7088SOL     OW22162   5.127   2.334   5.829
 7088SOL    HW122163   5.057   2.340   5.901
 7088SOL    HW222164   5.184   2.416   5.831
 7089SOL     OW22165   2.546   4.819   2.367
 7089SOL    HW122166   2.579   4.908   2.335
 7089SOL    HW222167   2.601   4.789   2.445
 7090SOL     OW22168   2.363   1.557   0.806
 7090SOL    HW122169   2.267   1.578   0.788
 7090SOL    HW222170   2.391   1.480   0.749
 7091SOL     OW22171   0.934   1.107   1.620
 7091SOL    HW122172   0.953   1.042   1.694
 7091SOL    HW222173   0.960   1.199   1.650
 7092SOL     OW22174   3.728   2.920   6.232
 7092SOL    HW122175   3.794   2.933   6.158
 7092SOL    HW222176   3.653   2.862   6.199
 7093SOL     OW22177   3.535   3.328   1.498
 7093SOL    HW122178   3.456   3.273   1.525
 7093SOL    HW222179   3.614   3.303   1.554
 7094SOL     OW22180   1.253   6.990   5.792
 7094SOL    HW122181   1.255   6.907   5.737
 7094SOL    HW222182   1.159   7.014   5.813
 7095SOL     OW22183   3.667   5.465   5.921
 7095SOL    HW122184   3.602   5.437   5.850
 7095SOL    HW222185   3.697   5.385   5.972
 7096SOL     OW22186   0.022   0.478   2.239
 7096SOL    HW122187   0.121   0.472   2.231
 7096SOL    HW222188   7.005   0.387   2.230
 7097SOL     OW22189   4.607   0.859   2.188
 7097SOL    HW122190   4.624   0.957   2.192
 7097SOL    HW222191   4.594   0.832   2.092
 7098SOL     OW22192   1.647   5.912   6.076
 7098SOL    HW122193   1.732   5.890   6.030
 7098SOL    HW222194   1.603   5.828   6.109
 7099SOL     OW22195   3.433   2.016   4.057
 7099SOL    HW122196   3.472   2.067   4.134
 7099SOL    HW222197   3.470   1.924   4.056
 7100SOL     OW22198   6.911   3.568   0.531
 7100SOL    HW122199   6.989   3.575   0.593
 7100SOL    HW222200   6.928   3.621   0.449
 7101SOL     OW22201   2.171   0.043   5.193
 7101SOL    HW122202   2.268   0.053   5.173
 7101SOL    HW222203   2.117   0.084   5.120
 7102SOL     OW22204   5.330   0.387   1.368
 7102SOL    HW122205   5.238   0.417   1.344
 7102SOL    HW222206   5.330   0.346   1.459
 7103SOL     OW22207   5.339   5.178   2.173
 7103SOL    HW122208   5.323   5.124   2.091
 7103SOL    HW222209   5.438   5.183   2.190
 7104SOL     OW22210   5.382   3.405   2.783
 7104SOL    HW122211   5.397   3.417   2.685
 7104SOL    HW222212   5.463   3.362   2.824
 7105SOL     OW22213   3.826   3.891   4.631
 7105SOL    HW122214   3.900   3.847   4.682
 7105SOL    HW222215   3.762   3.821   4.599
 7106SOL     OW22216   2.981   2.890   1.069
 7106SOL    HW122217   2.926   2.885   1.152
 7106SOL    HW222218   2.973   2.804   1.018
 7107SOL     OW22219   3.776   0.165   0.166
 7107SOL    HW122220   3.834   0.241   0.138
 7107SOL    HW222221   3.716   0.139   0.091
 7108SOL     OW22222   2.787   6.450   2.163
 7108SOL    HW122223   2.690   6.465   2.187
 7108SOL    HW222224   2.805   6.352   2.158
 7109SOL     OW22225   1.691   0.627   6.979
 7109SOL    HW122226   1.709   0.714   6.933
 7109SOL    HW222227   1.614   0.582   6.935
 7110SOL     OW22228   3.505   6.342   4.270
 7110SOL    HW122229   3.592   6.375   4.306
 7110SOL    HW222230   3.508   6.344   4.170
 7111SOL     OW22231   1.507   1.863   3.751
 7111SOL    HW122232   1.483   1.936   3.816
 7111SOL    HW222233   1.428   1.842   3.694
 7112SOL     OW22234   2.315   4.276   4.794
 7112SOL    HW122235   2.307   4.196   4.853
 7112SOL    HW222236   2.294   4.250   4.699
 7113SOL     OW22237   3.263   5.037   5.309
 7113SOL    HW122238   3.214   5.017   5.225
 7113SOL    HW222239   3.360   5.011   5.298
 7114SOL     OW22240   4.122   5.463   1.654
 7114SOL    HW122241   4.211   5.505   1.674
 7114SOL    HW222242   4.120   5.371   1.694
 7115SOL     OW22243   5.710   4.128   6.949
 7115SOL    HW122244   5.713   4.029   6.936
 7115SOL    HW222245   5.755   4.152   0.013
 7116SOL     OW22246   5.804   4.156   3.497
 7116SOL    HW122247   5.776   4.090   3.428
 7116SOL    HW222248   5.882   4.119   3.548
 7117SOL     OW22249   6.366   0.099   3.972
 7117SOL    HW122250   6.391   0.080   3.877
 7117SOL    HW222251   6.293   0.167   3.974
 7118SOL     OW22252   4.032   4.571   5.270
 7118SOL    HW122253   4.094   4.546   5.196
 7118SOL    HW222254   4.046   4.510   5.347
 7119SOL     OW22255   5.088   0.934   4.689
 7119SOL    HW122256   5.115   0.962   4.597
 7119SOL    HW222257   5.096   0.835   4.698
 7120SOL     OW22258   5.454   1.582   1.282
 7120SOL    HW122259   5.480   1.592   1.378
 7120SOL    HW222260   5.480   1.665   1.233
 7121SOL     OW22261   0.515   6.051   3.109
 7121SOL    HW122262   0.513   6.137   3.161
 7121SOL    HW222263   0.599   6.047   3.056
 7122SOL     OW22264   2.130   0.166   5.948
 7122SOL    HW122265   2.079   0.112   5.882
 7122SOL    HW222266   2.126   0.122   6.038
 7123SOL     OW22267   6.634   5.040   4.269
 7123SOL    HW122268   6.656   5.131   4.303
 7123SOL    HW222269   6.709   5.007   4.210
 7124SOL     OW22270   0.826   2.173   1.201
 7124SOL    HW122271   0.899   2.204   1.262
 7124SOL    HW222272   0.740   2.216   1.227
 7125SOL     OW22273   1.553   0.604   1.626
 7125SOL    HW122274   1.454   0.597   1.639
 7125SOL    HW222275   1.574   0.610   1.529
 7126SOL     OW22276   3.891   6.033   0.787
 7126SOL    HW122277   3.913   6.062   0.694
 7126SOL    HW222278   3.844   6.108   0.835
 7127SOL     OW22279   3.022   6.313   5.764
 7127SOL    HW122280   2.976   6.387   5.714
 7127SOL    HW222281   3.101   6.282   5.712
 7128SOL     OW22282   4.019   4.230   7.016
 7128SOL    HW122283   3.993   4.224   6.920
 7128SOL    HW222284   4.118   4.241   0.001
 7129SOL     OW22285   0.707   1.492   1.477
 7129SOL    HW122286   0.716   1.592   1.471
 7129SOL    HW222287   0.707   1.453   1.385
 7130SOL     OW22288   3.633   0.335   4.475
 7130SOL    HW122289   3.568   0.338   4.399
 7130SOL    HW222290   3.701   0.264   4.457
 7131SOL     OW22291   3.355   0.981   2.383
 7131SOL    HW122292   3.391   0.987   2.290
 7131SOL    HW222293   3.256   0.968   2.380
 7132SOL     OW22294   5.295   4.131   0.094
 7132SOL    HW122295   5.235   4.203   0.060
 7132SOL    HW222296   5.385   4.169   0.114
 7133SOL     OW22297   4.597   5.093   3.922
 7133SOL    HW122298   4.583   5.039   4.005
 7133SOL    HW222299   4.510   5.107   3.876
 7134SOL     OW22300   5.357   6.165   1.683
 7134SOL    HW122301   5.409   6.247   1.658
 7134SOL    HW222302   5.416   6.084   1.675
 7135SOL     OW22303   2.211   2.834   2.352
 7135SOL    HW122304   2.237   2.857   2.258
 7135SOL    HW222305   2.115   2.808   2.355
 7136SOL     OW22306   2.144   1.657   1.167
 7136SOL    HW122307   2.163   1.748   1.204
 7136SOL    HW222308   2.213   1.633   1.099
 7137SOL     OW22309   2.903   1.278   0.685
 7137SOL    HW122310   2.818   1.326   0.707
 7137SOL    HW222311   2.931   1.223   0.763
 7138SOL     OW22312   2.365   1.120   1.429
 7138SOL    HW122313   2.424   1.175   1.489
 7138SOL    HW222314   2.349   1.031   1.470
 7139SOL     OW22315   4.982   5.087   1.820
 7139SOL    HW122316   4.987   4.994   1.856
 7139SOL    HW222317   5.038   5.095   1.738
 7140SOL     OW22318   6.124   4.571   0.999
 7140SOL    HW122319   6.068   4.550   1.079
 7140SOL    HW222320   6.174   4.656   1.014
 7141SOL     OW22321   4.239   6.563   1.344
 7141SOL    HW122322   4.280   6.649   1.376
 7141SOL    HW222323   4.311   6.501   1.313
 7142SOL     OW22324   3.432   0.345   4.248
 7142SOL    HW122325   3.444   0.317   4.153
 7142SOL    HW222326   3.354   0.407   4.255
 7143SOL     OW22327   1.861   4.008   6.845
 7143SOL    HW122328   1.879   3.928   6.903
 7143SOL    HW222329   1.765   4.008   6.818
 7144SOL     OW22330   0.313   1.114   4.358
 7144SOL    HW122331   0.403   1.104   4.316
 7144SOL    HW222332   0.245   1.131   4.288
 7145SOL     OW22333   4.475   1.023   6.842
 7145SOL    HW122334   4.502   0.927   6.852
 7145SOL    HW222335   4.495   1.073   6.926
 7146SOL     OW22336   2.091   1.558   5.543
 7146SOL    HW122337   2.067   1.478   5.487
 7146SOL    HW222338   2.026   1.566   5.619
 7147SOL     OW22339   5.965   5.455   3.115
 7147SOL    HW122340   6.002   5.367   3.144
 7147SOL    HW222341   5.964   5.518   3.192
 7148SOL     OW22342   6.509   5.864   1.331
 7148SOL    HW122343   6.448   5.916   1.271
 7148SOL    HW222344   6.506   5.903   1.423
 7149SOL     OW22345   6.733   4.836   3.618
 7149SOL    HW122346   6.812   4.889   3.587
 7149SOL    HW222347   6.708   4.865   3.710
 7150SOL     OW22348   4.779   3.287   0.216
 7150SOL    HW122349   4.706   3.219   0.204
 7150SOL    HW222350   4.844   3.255   0.284
 7151SOL     OW22351   3.036   6.705   0.744
 7151SOL    HW122352   2.953   6.691   0.691
 7151SOL    HW222353   3.031   6.793   0.791
 7152SOL     OW22354   6.555   0.616   6.611
 7152SOL    HW122355   6.585   0.604   6.705
 7152SOL    HW222356   6.456   0.607   6.605
 7153SOL     OW22357   3.911   5.638   1.751
 7153SOL    HW122358   3.913   5.712   1.684
 7153SOL    HW222359   3.970   5.563   1.719
 7154SOL     OW22360   4.160   1.264   2.795
 7154SOL    HW122361   4.259   1.262   2.785
 7154SOL    HW222362   4.130   1.186   2.850
 7155SOL     OW22363   2.762   2.056   1.246
 7155SOL    HW122364   2.794   2.093   1.333
 7155SOL    HW222365   2.748   2.131   1.181
 7156SOL     OW22366   5.249   3.532   2.220
 7156SOL    HW122367   5.283   3.511   2.128
 7156SOL    HW222368   5.231   3.631   2.227
 7157SOL     OW22369   6.097   4.269   0.918
 7157SOL    HW122370   6.037   4.261   0.999
 7157SOL    HW222371   6.109   4.366   0.896
 7158SOL     OW22372   6.363   0.499   3.551
 7158SOL    HW122373   6.459   0.471   3.553
 7158SOL    HW222374   6.305   0.425   3.583
 7159SOL     OW22375   0.636   4.735   4.303
 7159SOL    HW122376   0.578   4.807   4.340
 7159SOL    HW222377   0.726   4.772   4.282
 7160SOL     OW22378   5.904   6.221   2.619
 7160SOL    HW122379   5.814   6.187   2.647
 7160SOL    HW222380   5.893   6.283   2.541
 7161SOL     OW22381   3.659   3.695   2.957
 7161SOL    HW122382   3.652   3.654   2.866
 7161SOL    HW222383   3.568   3.699   2.999
 7162SOL     OW22384   0.185   4.610   0.757
 7162SOL    HW122385   0.104   4.567   0.798
 7162SOL    HW222386   0.170   4.622   0.659
 7163SOL     OW22387   1.732   1.328   2.958
 7163SOL    HW122388   1.678   1.339   3.041
 7163SOL    HW222389   1.819   1.285   2.980
 7164SOL     OW22390   1.760   1.349   5.469
 7164SOL    HW122391   1.848   1.392   5.492
 7164SOL    HW222392   1.746   1.268   5.527
 7165SOL     OW22393   5.917   6.711   0.999
 7165SOL    HW122394   5.945   6.725   0.904
 7165SOL    HW222395   5.995   6.730   1.060
 7166SOL     OW22396   5.452   0.447   6.092
 7166SOL    HW122397   5.411   0.521   6.144
 7166SOL    HW222398   5.387   0.372   6.082
 7167SOL     OW22399   6.077   2.290   5.703
 7167SOL    HW122400   6.043   2.343   5.780
 7167SOL    HW222401   6.174   2.310   5.689
 7168SOL     OW22402   3.299   1.076   2.719
 7168SOL    HW122403   3.250   0.995   2.687
 7168SOL    HW222404   3.388   1.081   2.675
 7169SOL     OW22405   1.314   4.029   5.232
 7169SOL    HW122406   1.305   3.938   5.193
 7169SOL    HW222407   1.406   4.039   5.272
 7170SOL     OW22408   4.675   0.052   2.463
 7170SOL    HW122409   4.757   0.051   2.521
 7170SOL    HW222410   4.701   0.028   2.369
 7171SOL     OW22411   5.949   4.716   0.764
 7171SOL    HW122412   5.884   4.672   0.826
 7171SOL    HW222413   6.022   4.652   0.742
 7172SOL     OW22414   1.891   1.744   4.881
 7172SOL    HW122415   1.949   1.826   4.879
 7172SOL    HW222416   1.880   1.713   4.976
 7173SOL     OW22417   6.179   5.263   6.631
 7173SOL    HW122418   6.242   5.339   6.612
 7173SOL    HW222419   6.107   5.294   6.692
 7174SOL     OW22420   6.565   4.591   1.081
 7174SOL    HW122421   6.500   4.519   1.107
 7174SOL    HW222422   6.563   4.664   1.149
 7175SOL     OW22423   6.818   4.085   5.225
 7175SOL    HW122424   6.771   4.018   5.283
 7175SOL    HW222425   6.916   4.072   5.233
 7176SOL     OW22426   0.559   1.114   4.227
 7176SOL    HW122427   0.585   1.056   4.149
 7176SOL    HW222428   0.567   1.210   4.201
 7177SOL     OW22429   1.977   5.707   5.552
 7177SOL    HW122430   2.062   5.694   5.500
 7177SOL    HW222431   1.915   5.630   5.535
 7178SOL     OW22432   0.378   0.588   5.680
 7178SOL    HW122433   0.473   0.592   5.712
 7178SOL    HW222434   0.346   0.681   5.661
 7179SOL     OW22435   2.112   4.407   5.102
 7179SOL    HW122436   2.105   4.453   5.190
 7179SOL    HW222437   2.195   4.438   5.055
 7180SOL     OW22438   2.745   4.490   0.696
 7180SOL    HW122439   2.705   4.406   0.661
 7180SOL    HW222440   2.765   4.480   0.793
 7181SOL     OW22441   2.156   1.370   6.216
 7181SOL    HW122442   2.088   1.306   6.252
 7181SOL    HW222443   2.112   1.456   6.191
 7182SOL     OW22444   1.131   3.819   3.741
 7182SOL    HW122445   1.091   3.735   3.778
 7182SOL    HW222446   1.180   3.798   3.656
 7183SOL     OW22447   1.998   5.881   1.809
 7183SOL    HW122448   1.960   5.926   1.728
 7183SOL    HW222449   2.098   5.885   1.806
 7184SOL     OW22450   5.731   1.216   3.362
 7184SOL    HW122451   5.809   1.168   3.321
 7184SOL    HW222452   5.711   1.297   3.308
 7185SOL     OW22453   5.280   0.952   5.047
 7185SOL    HW122454   5.332   1.022   5.097
 7185SOL    HW222455   5.204   0.996   4.998
 7186SOL     OW22456   0.195   0.848   0.934
 7186SOL    HW122457   0.291   0.821   0.939
 7186SOL    HW222458   0.156   0.815   0.848
 7187SOL     OW22459   3.167   3.802   5.052
 7187SOL    HW122460   3.181   3.844   4.963
 7187SOL    HW222461   3.107   3.861   5.108
 7188SOL     OW22462   5.027   3.787   6.947
 7188SOL    HW122463   5.121   3.820   6.932
 7188SOL    HW222464   4.982   3.774   6.858
 7189SOL     OW22465   5.824   3.693   5.454
 7189SOL    HW122466   5.876   3.687   5.369
 7189SOL    HW222467   5.800   3.601   5.485
 7190SOL     OW22468   6.044   5.803   0.878
 7190SOL    HW122469   5.967   5.855   0.916
 7190SOL    HW222470   6.126   5.860   0.878
 7191SOL     OW22471   0.512   4.025   3.387
 7191SOL    HW122472   0.510   4.115   3.343
 7191SOL    HW222473   0.606   3.991   3.390
 7192SOL     OW22474   2.386   3.956   5.987
 7192SOL    HW122475   2.378   4.032   5.923
 7192SOL    HW222476   2.353   3.984   6.077
 7193SOL     OW22477   2.630   1.742   2.999
 7193SOL    HW122478   2.703   1.809   2.985
 7193SOL    HW222479   2.666   1.650   2.982
 7194SOL     OW22480   2.206   1.922   0.080
 7194SOL    HW122481   2.257   1.844   0.116
 7194SOL    HW222482   2.159   1.968   0.155
 7195SOL     OW22483   6.542   4.207   0.009
 7195SOL    HW122484   6.593   4.292   7.017
 7195SOL    HW222485   6.497   4.181   6.945
 7196SOL     OW22486   3.224   3.722   2.505
 7196SOL    HW122487   3.131   3.724   2.468
 7196SOL    HW222488   3.286   3.771   2.444
 7197SOL     OW22489   0.902   3.744   5.283
 7197SOL    HW122490   0.927   3.792   5.199
 7197SOL    HW222491   0.985   3.714   5.330
 7198SOL     OW22492   0.269   0.492   0.495
 7198SOL    HW122493   0.204   0.470   0.423
 7198SOL    HW222494   0.360   0.507   0.455
 7199SOL     OW22495   0.863   0.074   2.431
 7199SOL    HW122496   0.865   0.057   2.530
 7199SOL    HW222497   0.820   0.163   2.414
 7200SOL     OW22498   2.087   2.896   1.056
 7200SOL    HW122499   2.111   2.970   1.119
 7200SOL    HW222500   2.139   2.814   1.080
 7201SOL     OW22501   0.217   5.702   4.502
 7201SOL    HW122502   0.232   5.778   4.565
 7201SOL    HW222503   0.119   5.685   4.493
 7202SOL     OW22504   4.997   0.379   5.638
 7202SOL    HW122505   5.064   0.386   5.564
 7202SOL    HW222506   4.977   0.283   5.657
 7203SOL     OW22507   0.653   0.883   1.627
 7203SOL    HW122508   0.727   0.866   1.692
 7203SOL    HW222509   0.690   0.926   1.544
 7204SOL     OW22510   6.123   1.146   0.469
 7204SOL    HW122511   6.161   1.231   0.433
 7204SOL    HW222512   6.107   1.082   0.394
 7205SOL     OW22513   0.877   3.401   4.597
 7205SOL    HW122514   0.953   3.381   4.536
 7205SOL    HW222515   0.817   3.321   4.603
 7206SOL     OW22516   1.413   1.563   1.140
 7206SOL    HW122517   1.475   1.496   1.101
 7206SOL    HW222518   1.318   1.532   1.128
 7207SOL     OW22519   2.797   1.581   3.683
 7207SOL    HW122520   2.733   1.505   3.670
 7207SOL    HW222521   2.783   1.649   3.611
 7208SOL     OW22522   4.559   0.460   3.919
 7208SOL    HW122523   4.584   0.552   3.950
 7208SOL    HW222524   4.481   0.427   3.974
 7209SOL     OW22525   2.130   2.428   2.338
 7209SOL    HW122526   2.175   2.357   2.393
 7209SOL    HW222527   2.040   2.449   2.376
 7210SOL     OW22528   3.676   1.845   3.064
 7210SOL    HW122529   3.619   1.923   3.040
 7210SOL    HW222530   3.742   1.827   2.991
 7211SOL     OW22531   2.990   6.331   5.284
 7211SOL    HW122532   3.084   6.356   5.309
 7211SOL    HW222533   2.960   6.254   5.341
 7212SOL     OW22534   6.397   6.578   6.652
 7212SOL    HW122535   6.361   6.597   6.744
 7212SOL    HW222536   6.486   6.621   6.641
 7213SOL     OW22537   3.747   6.436   6.623
 7213SOL    HW122538   3.750   6.413   6.720
 7213SOL    HW222539   3.730   6.353   6.569
 7214SOL     OW22540   0.206   0.843   5.919
 7214SOL    HW122541   0.197   0.757   5.969
 7214SOL    HW222542   0.141   0.910   5.956
 7215SOL     OW22543   6.579   2.523   4.024
 7215SOL    HW122544   6.501   2.472   4.060
 7215SOL    HW222545   6.590   2.608   4.075
 7216SOL     OW22546   3.188   6.368   2.167
 7216SOL    HW122547   3.167   6.465   2.177
 7216SOL    HW222548   3.119   6.325   2.108
 7217SOL     OW22549   1.989   4.346   3.441
 7217SOL    HW122550   2.089   4.347   3.443
 7217SOL    HW222551   1.954   4.370   3.531
 7218SOL     OW22552   0.157   3.337   3.680
 7218SOL    HW122553   0.237   3.297   3.634
 7218SOL    HW222554   0.101   3.263   3.717
 7219SOL     OW22555   2.960   0.024   1.318
 7219SOL    HW122556   2.889   6.984   1.284
 7219SOL    HW222557   3.050   7.013   1.291
 7220SOL     OW22558   6.452   4.098   4.470
 7220SOL    HW122559   6.512   4.036   4.419
 7220SOL    HW222560   6.479   4.193   4.454
 7221SOL     OW22561   3.344   5.907   4.834
 7221SOL    HW122562   3.296   5.878   4.917
 7221SOL    HW222563   3.376   6.001   4.846
 7222SOL     OW22564   5.506   0.241   3.039
 7222SOL    HW122565   5.486   0.154   3.085
 7222SOL    HW222566   5.436   0.259   2.969
 7223SOL     OW22567   2.854   0.962   0.512
 7223SOL    HW122568   2.763   0.977   0.550
 7223SOL    HW222569   2.848   0.956   0.412
 7224SOL     OW22570   4.475   2.355   4.374
 7224SOL    HW122571   4.456   2.407   4.457
 7224SOL    HW222572   4.421   2.271   4.375
 7225SOL     OW22573   1.489   6.325   1.361
 7225SOL    HW122574   1.400   6.327   1.406
 7225SOL    HW222575   1.560   6.351   1.426
 7226SOL     OW22576   6.138   0.379   1.181
 7226SOL    HW122577   6.188   0.465   1.190
 7226SOL    HW222578   6.154   0.342   1.089
 7227SOL     OW22579   2.897   1.221   1.815
 7227SOL    HW122580   2.867   1.265   1.899
 7227SOL    HW222581   2.883   1.283   1.737
 7228SOL     OW22582   0.755   1.372   3.285
 7228SOL    HW122583   0.707   1.285   3.291
 7228SOL    HW222584   0.845   1.363   3.329
 7229SOL     OW22585   6.894   6.738   4.501
 7229SOL    HW122586   6.993   6.725   4.511
 7229SOL    HW222587   6.872   6.834   4.514
 7230SOL     OW22588   2.425   5.254   3.514
 7230SOL    HW122589   2.498   5.221   3.453
 7230SOL    HW222590   2.465   5.311   3.586
 7231SOL     OW22591   4.052   0.293   0.980
 7231SOL    HW122592   4.108   0.365   0.938
 7231SOL    HW222593   3.992   0.335   1.049
 7232SOL     OW22594   4.544   6.394   2.536
 7232SOL    HW122595   4.604   6.467   2.506
 7232SOL    HW222596   4.450   6.415   2.510
 7233SOL     OW22597   0.737   1.280   5.209
 7233SOL    HW122598   0.829   1.277   5.247
 7233SOL    HW222599   0.715   1.193   5.165
 7234SOL     OW22600   5.131   3.206   2.953
 7234SOL    HW122601   5.184   3.213   3.037
 7234SOL    HW222602   5.144   3.289   2.899
 7235SOL     OW22603   6.715   5.106   1.439
 7235SOL    HW122604   6.772   5.151   1.371
 7235SOL    HW222605   6.763   5.103   1.526
 7236SOL     OW22606   1.785   2.600   2.885
 7236SOL    HW122607   1.762   2.695   2.863
 7236SOL    HW222608   1.715   2.562   2.945
 7237SOL     OW22609   4.250   6.853   6.599
 7237SOL    HW122610   4.342   6.847   6.638
 7237SOL    HW222611   4.233   6.771   6.544
 7238SOL     OW22612   4.550   2.629   6.418
 7238SOL    HW122613   4.550   2.627   6.318
 7238SOL    HW222614   4.542   2.723   6.449
 7239SOL     OW22615   0.884   2.783   2.239
 7239SOL    HW122616   0.836   2.723   2.175
 7239SOL    HW222617   0.973   2.808   2.201
 7240SOL     OW22618   0.007   1.435   0.138
 7240SOL    HW122619   0.095   1.462   0.175
 7240SOL    HW222620   7.010   1.340   0.162
 7241SOL     OW22621   2.329   6.813   0.539
 7241SOL    HW122622   2.357   6.904   0.571
 7241SOL    HW222623   2.409   6.754   0.531
 7242SOL     OW22624   7.000   5.529   5.214
 7242SOL    HW122625   6.995   5.536   5.114
 7242SOL    HW222626   6.910   5.506   5.251
 7243SOL     OW22627   0.150   4.434   6.535
 7243SOL    HW122628   0.160   4.409   6.631
 7243SOL    HW222629   0.100   4.362   6.487
 7244SOL     OW22630   0.458   0.760   0.961
 7244SOL    HW122631   0.445   0.687   0.894
 7244SOL    HW222632   0.446   0.723   1.053
 7245SOL     OW22633   1.473   2.477   5.375
 7245SOL    HW122634   1.425   2.536   5.441
 7245SOL    HW222635   1.504   2.394   5.422
 7246SOL     OW22636   1.769   0.821   3.942
 7246SOL    HW122637   1.710   0.878   3.998
 7246SOL    HW222638   1.802   0.743   3.996
 7247SOL     OW22639   3.008   2.106   5.549
 7247SOL    HW122640   2.966   2.020   5.520
 7247SOL    HW222641   2.956   2.144   5.626
 7248SOL     OW22642   3.250   0.482   3.366
 7248SOL    HW122643   3.340   0.525   3.370
 7248SOL    HW222644   3.185   0.538   3.418
 7249SOL     OW22645   4.374   4.945   1.825
 7249SOL    HW122646   4.349   4.860   1.778
 7249SOL    HW222647   4.294   4.981   1.873
 7250SOL     OW22648   5.052   5.025   5.534
 7250SOL    HW122649   5.011   5.064   5.617
 7250SOL    HW222650   5.048   5.092   5.460
 7251SOL     OW22651   1.088   0.442   5.358
 7251SOL    HW122652   1.057   0.408   5.447
 7251SOL    HW222653   1.020   0.504   5.320
 7252SOL     OW22654   3.078   3.634   1.757
 7252SOL    HW122655   3.146   3.578   1.709
 7252SOL    HW222656   2.994   3.580   1.771
 7253SOL     OW22657   2.091   6.149   6.518
 7253SOL    HW122658   1.998   6.175   6.547
 7253SOL    HW222659   2.096   6.150   6.419
 7254SOL     OW22660   5.529   5.663   4.627
 7254SOL    HW122661   5.524   5.573   4.583
 7254SOL    HW222662   5.516   5.653   4.725
 7255SOL     OW22663   4.399   3.705   0.068
 7255SOL    HW122664   4.416   3.752   7.003
 7255SOL    HW222665   4.300   3.697   0.082
 7256SOL     OW22666   4.294   6.288   5.517
 7256SOL    HW122667   4.313   6.278   5.419
 7256SOL    HW222668   4.305   6.200   5.562
 7257SOL     OW22669   0.705   2.173   3.909
 7257SOL    HW122670   0.753   2.138   3.829
 7257SOL    HW222671   0.619   2.123   3.921
 7258SOL     OW22672   5.526   2.097   2.998
 7258SOL    HW122673   5.432   2.067   2.986
 7258SOL    HW222674   5.535   2.192   2.967
 7259SOL     OW22675   1.330   3.472   2.525
 7259SOL    HW122676   1.423   3.505   2.541
 7259SOL    HW222677   1.321   3.443   2.430
 7260SOL     OW22678   5.289   1.675   1.768
 7260SOL    HW122679   5.270   1.615   1.690
 7260SOL    HW222680   5.360   1.741   1.742
 7261SOL     OW22681   0.806   4.690   1.158
 7261SOL    HW122682   0.706   4.695   1.163
 7261SOL    HW222683   0.833   4.664   1.065
 7262SOL     OW22684   5.476   1.433   0.007
 7262SOL    HW122685   5.571   1.464   0.010
 7262SOL    HW222686   5.427   1.483   6.957
 7263SOL     OW22687   0.700   6.069   6.990
 7263SOL    HW122688   0.649   5.990   6.955
 7263SOL    HW222689   0.656   6.154   6.960
 7264SOL     OW22690   5.320   0.579   0.623
 7264SOL    HW122691   5.253   0.633   0.674
 7264SOL    HW222692   5.365   0.639   0.556
 7265SOL     OW22693   5.901   4.656   5.621
 7265SOL    HW122694   5.972   4.586   5.610
 7265SOL    HW222695   5.930   4.740   5.576
 7266SOL     OW22696   6.362   1.067   3.275
 7266SOL    HW122697   6.443   1.122   3.260
 7266SOL    HW222698   6.282   1.126   3.286
 7267SOL     OW22699   6.543   6.841   4.618
 7267SOL    HW122700   6.446   6.860   4.628
 7267SOL    HW222701   6.591   6.868   4.702
 7268SOL     OW22702   6.899   6.110   4.122
 7268SOL    HW122703   6.926   6.089   4.216
 7268SOL    HW222704   6.800   6.103   4.113
 7269SOL     OW22705   1.786   6.314   6.186
 7269SOL    HW122706   1.843   6.256   6.128
 7269SOL    HW222707   1.743   6.259   6.256
 7270SOL     OW22708   0.019   2.842   4.678
 7270SOL    HW122709   0.079   2.770   4.714
 7270SOL    HW222710   0.050   2.870   4.588
 7271SOL     OW22711   1.415   4.862   4.268
 7271SOL    HW122712   1.402   4.780   4.325
 7271SOL    HW222713   1.502   4.855   4.220
 7272SOL     OW22714   5.946   5.932   2.189
 7272SOL    HW122715   5.901   6.021   2.203
 7272SOL    HW222716   6.032   5.930   2.241
 7273SOL     OW22717   5.907   3.742   0.661
 7273SOL    HW122718   5.906   3.737   0.561
 7273SOL    HW222719   5.817   3.715   0.696
 7274SOL     OW22720   0.255   4.843   6.710
 7274SOL    HW122721   0.171   4.801   6.744
 7274SOL    HW222722   0.325   4.773   6.696
 7275SOL     OW22723   0.250   6.092   2.582
 7275SOL    HW122724   0.341   6.133   2.587
 7275SOL    HW222725   0.180   6.161   2.599
 7276SOL     OW22726   5.365   0.851   3.408
 7276SOL    HW122727   5.362   0.951   3.407
 7276SOL    HW222728   5.391   0.818   3.317
 7277SOL     OW22729   5.401   0.358   4.279
 7277SOL    HW122730   5.415   0.390   4.185
 7277SOL    HW222731   5.389   0.259   4.279
 7278SOL     OW22732   3.772   2.985   1.473
 7278SOL    HW122733   3.854   3.012   1.424
 7278SOL    HW222734   3.698   2.969   1.407
 7279SOL     OW22735   4.521   5.110   6.397
 7279SOL    HW122736   4.477   5.052   6.465
 7279SOL    HW222737   4.604   5.065   6.364
 7280SOL     OW22738   0.199   0.829   3.668
 7280SOL    HW122739   0.162   0.891   3.599
 7280SOL    HW222740   0.294   0.851   3.686
 7281SOL     OW22741   3.152   1.738   0.119
 7281SOL    HW122742   3.184   1.815   0.063
 7281SOL    HW222743   3.197   1.742   0.208
 7282SOL     OW22744   5.956   4.865   2.847
 7282SOL    HW122745   5.949   4.877   2.946
 7282SOL    HW222746   5.959   4.955   2.803
 7283SOL     OW22747   3.578   1.424   3.254
 7283SOL    HW122748   3.560   1.516   3.218
 7283SOL    HW222749   3.578   1.358   3.179
 7284SOL     OW22750   1.010   3.009   6.319
 7284SOL    HW122751   1.038   3.065   6.397
 7284SOL    HW222752   1.073   2.933   6.309
 7285SOL     OW22753   5.176   3.608   2.603
 7285SOL    HW122754   5.254   3.545   2.596
 7285SOL    HW222755   5.205   3.700   2.575
 7286SOL     OW22756   2.805   0.886   0.253
 7286SOL    HW122757   2.811   0.936   0.167
 7286SOL    HW222758   2.838   0.792   0.240
 7287SOL     OW22759   0.118   2.364   5.905
 7287SOL    HW122760   0.050   2.369   5.831
 7287SOL    HW222761   0.087   2.420   5.982
 7288SOL     OW22762   2.849   0.423   0.130
 7288SOL    HW122763   2.829   0.338   0.179
 7288SOL    HW222764   2.787   0.431   0.052
 7289SOL     OW22765   5.373   1.959   4.570
 7289SOL    HW122766   5.432   1.886   4.605
 7289SOL    HW222767   5.299   1.976   4.635
 7290SOL     OW22768   3.265   0.502   5.402
 7290SOL    HW122769   3.265   0.414   5.355
 7290SOL    HW222770   3.358   0.524   5.432
 7291SOL     OW22771   1.663   6.920   0.911
 7291SOL    HW122772   1.643   7.009   0.872
 7291SOL    HW222773   1.666   6.851   0.839
 7292SOL     OW22774   3.241   1.590   3.405
 7292SOL    HW122775   3.178   1.667   3.418
 7292SOL    HW222776   3.198   1.506   3.437
 7293SOL     OW22777   1.789   2.260   5.160
 7293SOL    HW122778   1.867   2.320   5.141
 7293SOL    HW222779   1.814   2.165   5.145
 7294SOL     OW22780   2.005   5.117   6.955
 7294SOL    HW122781   1.961   5.103   0.022
 7294SOL    HW222782   2.065   5.197   6.960
 7295SOL     OW22783   0.944   2.265   0.660
 7295SOL    HW122784   1.024   2.323   0.674
 7295SOL    HW222785   0.910   2.233   0.749
 7296SOL     OW22786   2.560   5.094   1.250
 7296SOL    HW122787   2.619   5.014   1.265
 7296SOL    HW222788   2.500   5.106   1.329
 7297SOL     OW22789   3.358   6.036   0.961
 7297SOL    HW122790   3.429   6.015   1.027
 7297SOL    HW222791   3.377   6.125   0.918
 7298SOL     OW22792   4.650   4.243   5.509
 7298SOL    HW122793   4.668   4.184   5.430
 7298SOL    HW222794   4.569   4.210   5.557
 7299SOL     OW22795   0.276   1.486   0.208
 7299SOL    HW122796   0.308   1.557   0.270
 7299SOL    HW222797   0.349   1.421   0.190
 7300SOL     OW22798   6.353   5.941   2.537
 7300SOL    HW122799   6.362   6.021   2.597
 7300SOL    HW222800   6.334   5.860   2.591
 7301SOL     OW22801   6.049   1.325   4.832
 7301SOL    HW122802   5.976   1.381   4.793
 7301SOL    HW222803   6.100   1.380   4.899
 7302SOL     OW22804   0.719   2.102   5.961
 7302SOL    HW122805   0.624   2.100   5.994
 7302SOL    HW222806   0.776   2.046   6.021
 7303SOL     OW22807   4.576   0.424   0.021
 7303SOL    HW122808   4.536   0.345   6.996
 7303SOL    HW222809   4.614   0.487   6.975
 7304SOL     OW22810   3.959   4.661   0.341
 7304SOL    HW122811   3.987   4.685   0.434
 7304SOL    HW222812   3.860   4.664   0.334
 7305SOL     OW22813   4.959   0.589   0.156
 7305SOL    HW122814   5.030   0.566   0.222
 7305SOL    HW222815   4.952   0.516   0.088
 7306SOL     OW22816   5.060   2.428   1.783
 7306SOL    HW122817   5.107   2.496   1.726
 7306SOL    HW222818   5.059   2.459   1.878
 7307SOL     OW22819   2.177   0.183   2.633
 7307SOL    HW122820   2.177   0.259   2.699
 7307SOL    HW222821   2.251   0.120   2.654
 7308SOL     OW22822   6.555   3.906   6.041
 7308SOL    HW122823   6.458   3.899   6.014
 7308SOL    HW222824   6.579   3.829   6.100
 7309SOL     OW22825   4.726   5.670   1.196
 7309SOL    HW122826   4.787   5.593   1.213
 7309SOL    HW222827   4.740   5.740   1.266
 7310SOL     OW22828   2.321   3.665   1.520
 7310SOL    HW122829   2.254   3.726   1.477
 7310SOL    HW222830   2.277   3.577   1.540
 7311SOL     OW22831   3.575   1.954   1.962
 7311SOL    HW122832   3.639   2.021   1.999
 7311SOL    HW222833   3.607   1.861   1.981
 7312SOL     OW22834   0.495   3.677   5.730
 7312SOL    HW122835   0.518   3.613   5.656
 7312SOL    HW222836   0.560   3.752   5.730
 7313SOL     OW22837   2.940   1.648   6.334
 7313SOL    HW122838   2.902   1.600   6.254
 7313SOL    HW222839   2.977   1.736   6.305
 7314SOL     OW22840   0.068   4.967   5.571
 7314SOL    HW122841   0.135   4.916   5.517
 7314SOL    HW222842   7.021   4.903   5.606
 7315SOL     OW22843   6.870   0.547   2.849
 7315SOL    HW122844   6.905   0.478   2.786
 7315SOL    HW222845   6.772   0.561   2.832
 7316SOL     OW22846   3.230   4.728   6.617
 7316SOL    HW122847   3.164   4.692   6.684
 7316SOL    HW222848   3.308   4.666   6.611
 7317SOL     OW22849   4.949   1.062   2.696
 7317SOL    HW122850   5.023   1.110   2.744
 7317SOL    HW222851   4.926   0.979   2.747
 7318SOL     OW22852   1.406   1.035   0.951
 7318SOL    HW122853   1.390   0.958   0.891
 7318SOL    HW222854   1.408   1.004   1.046
 7319SOL     OW22855   6.717   4.372   6.690
 7319SOL    HW122856   6.783   4.322   6.634
 7319SOL    HW222857   6.755   4.384   6.782
 7320SOL     OW22858   6.392   3.892   1.862
 7320SOL    HW122859   6.422   3.804   1.826
 7320SOL    HW222860   6.329   3.935   1.797
 7321SOL     OW22861   2.493   6.854   5.310
 7321SOL    HW122862   2.503   6.755   5.309
 7321SOL    HW222863   2.471   6.886   5.217
 7322SOL     OW22864   6.066   2.314   3.558
 7322SOL    HW122865   6.047   2.340   3.463
 7322SOL    HW222866   6.064   2.214   3.566
 7323SOL     OW22867   2.096   1.913   1.952
 7323SOL    HW122868   2.014   1.922   1.897
 7323SOL    HW222869   2.159   1.848   1.909
 7324SOL     OW22870   4.945   6.113   2.224
 7324SOL    HW122871   5.001   6.195   2.220
 7324SOL    HW222872   4.893   6.104   2.139
 7325SOL     OW22873   3.732   6.483   0.405
 7325SOL    HW122874   3.728   6.386   0.380
 7325SOL    HW222875   3.814   6.524   0.366
 7326SOL     OW22876   3.242   6.256   5.624
 7326SOL    HW122877   3.335   6.253   5.660
 7326SOL    HW222878   3.243   6.292   5.531
 7327SOL     OW22879   6.055   2.282   6.345
 7327SOL    HW122880   6.111   2.242   6.272
 7327SOL    HW222881   5.968   2.313   6.306
 7328SOL     OW22882   3.466   0.337   6.435
 7328SOL    HW122883   3.515   0.391   6.367
 7328SOL    HW222884   3.434   0.397   6.508
 7329SOL     OW22885   5.718   4.594   1.311
 7329SOL    HW122886   5.734   4.645   1.396
 7329SOL    HW222887   5.625   4.556   1.313
 7330SOL     OW22888   2.614   2.055   6.981
 7330SOL    HW122889   2.659   1.999   0.028
 7330SOL    HW222890   2.524   2.016   6.960
 7331SOL     OW22891   5.502   6.976   2.303
 7331SOL    HW122892   5.427   7.015   2.357
 7331SOL    HW222893   5.589   7.012   2.335
 7332SOL     OW22894   2.167   6.029   0.642
 7332SOL    HW122895   2.248   6.018   0.584
 7332SOL    HW222896   2.196   6.044   0.737
 7333SOL     OW22897   0.667   2.754   2.739
 7333SOL    HW122898   0.766   2.750   2.730
 7333SOL    HW222899   0.629   2.804   2.661
 7334SOL     OW22900   3.335   5.817   0.072
 7334SOL    HW122901   3.323   5.723   0.040
 7334SOL    HW222902   3.345   5.878   7.016
 7335SOL     OW22903   1.441   2.845   2.853
 7335SOL    HW122904   1.508   2.899   2.904
 7335SOL    HW222905   1.357   2.899   2.843
 7336SOL     OW22906   1.377   6.518   3.160
 7336SOL    HW122907   1.445   6.587   3.182
 7336SOL    HW222908   1.304   6.559   3.105
 7337SOL     OW22909   0.411   3.212   1.705
 7337SOL    HW122910   0.393   3.207   1.607
 7337SOL    HW222911   0.450   3.125   1.736
 7338SOL     OW22912   6.410   2.703   1.076
 7338SOL    HW122913   6.462   2.726   1.158
 7338SOL    HW222914   6.472   2.698   0.998
 7339SOL     OW22915   5.131   6.342   3.716
 7339SOL    HW122916   5.039   6.351   3.679
 7339SOL    HW222917   5.184   6.425   3.695
 7340SOL     OW22918   2.525   0.925   1.108
 7340SOL    HW122919   2.579   0.902   1.027
 7340SOL    HW222920   2.457   0.853   1.124
 7341SOL     OW22921   6.533   2.857   6.486
 7341SOL    HW122922   6.514   2.946   6.526
 7341SOL    HW222923   6.536   2.865   6.386
 7342SOL     OW22924   6.914   1.268   1.870
 7342SOL    HW122925   6.953   1.360   1.868
 7342SOL    HW222926   6.819   1.271   1.839
 7343SOL     OW22927   5.460   3.291   0.063
 7343SOL    HW122928   5.395   3.343   0.006
 7343SOL    HW222929   5.496   3.350   0.135
 7344SOL     OW22930   0.402   0.948   6.833
 7344SOL    HW122931   0.448   0.864   6.804
 7344SOL    HW222932   0.315   0.956   6.784
 7345SOL     OW22933   4.494   3.876   5.605
 7345SOL    HW122934   4.579   3.829   5.630
 7345SOL    HW222935   4.422   3.808   5.588
 7346SOL     OW22936   4.147   5.841   2.354
 7346SOL    HW122937   4.226   5.833   2.414
 7346SOL    HW222938   4.145   5.933   2.314
 7347SOL     OW22939   1.233   1.754   0.938
 7347SOL    HW122940   1.250   1.760   0.840
 7347SOL    HW222941   1.238   1.846   0.979
 7348SOL     OW22942   1.490   4.408   3.075
 7348SOL    HW122943   1.465   4.502   3.051
 7348SOL    HW222944   1.463   4.347   3.001
 7349SOL     OW22945   4.236   0.369   2.124
 7349SOL    HW122946   4.159   0.410   2.075
 7349SOL    HW222947   4.208   0.349   2.219
 7350SOL     OW22948   2.928   2.454   5.615
 7350SOL    HW122949   2.835   2.460   5.577
 7350SOL    HW222950   2.938   2.368   5.665
 7351SOL     OW22951   6.017   5.578   3.846
 7351SOL    HW122952   6.079   5.618   3.914
 7351SOL    HW222953   5.935   5.542   3.893
 7352SOL     OW22954   1.580   1.736   2.521
 7352SOL    HW122955   1.642   1.784   2.459
 7352SOL    HW222956   1.557   1.795   2.598
 7353SOL     OW22957   6.952   6.956   6.848
 7353SOL    HW122958   0.006   6.996   6.899
 7353SOL    HW222959   6.986   6.915   6.763
 7354SOL     OW22960   1.307   2.059   5.595
 7354SOL    HW122961   1.319   2.062   5.496
 7354SOL    HW222962   1.391   2.092   5.639
 7355SOL     OW22963   1.403   1.034   0.272
 7355SOL    HW122964   1.498   1.055   0.296
 7355SOL    HW222965   1.401   0.987   0.184
 7356SOL     OW22966   3.895   3.374   6.233
 7356SOL    HW122967   3.818   3.325   6.274
 7356SOL    HW222968   3.862   3.460   6.194
 7357SOL     OW22969   3.125   5.852   2.342
 7357SOL    HW122970   3.133   5.831   2.244
 7357SOL    HW222971   3.209   5.895   2.374
 7358SOL     OW22972   6.119   3.460   2.174
 7358SOL    HW122973   6.081   3.428   2.261
 7358SOL    HW222974   6.052   3.519   2.128
 7359SOL     OW22975   4.381   2.346   5.377
 7359SOL    HW122976   4.455   2.378   5.437
 7359SOL    HW222977   4.293   2.378   5.413
 7360SOL     OW22978   2.616   3.074   5.679
 7360SOL    HW122979   2.538   3.087   5.741
 7360SOL    HW222980   2.586   3.087   5.584
 7361SOL     OW22981   5.707   0.851   2.390
 7361SOL    HW122982   5.742   0.764   2.356
 7361SOL    HW222983   5.762   0.882   2.468
 7362SOL     OW22984   1.967   5.944   6.136
 7362SOL    HW122985   2.001   5.872   6.077
 7362SOL    HW222986   1.941   6.024   6.081
 7363SOL     OW22987   4.853   1.586   1.348
 7363SOL    HW122988   4.762   1.592   1.307
 7363SOL    HW222989   4.877   1.490   1.363
 7364SOL     OW22990   4.140   0.787   2.180
 7364SOL    HW122991   4.222   0.763   2.232
 7364SOL    HW222992   4.077   0.838   2.238
 7365SOL     OW22993   0.662   6.169   1.816
 7365SOL    HW122994   0.624   6.141   1.904
 7365SOL    HW222995   0.747   6.219   1.831
 7366SOL     OW22996   2.334   6.767   5.525
 7366SOL    HW122997   2.377   6.821   5.452
 7366SOL    HW222998   2.300   6.681   5.487
 7367SOL     OW22999   4.435   2.699   0.337
 7367SOL    HW123000   4.372   2.694   0.414
 7367SOL    HW223001   4.529   2.688   0.370
 7368SOL     OW23002   3.791   2.886   2.393
 7368SOL    HW123003   3.844   2.904   2.310
 7368SOL    HW223004   3.702   2.848   2.368
 7369SOL     OW23005   3.148   2.476   1.153
 7369SOL    HW123006   3.084   2.478   1.230
 7369SOL    HW223007   3.196   2.389   1.152
 7370SOL     OW23008   2.503   1.301   6.400
 7370SOL    HW123009   2.469   1.363   6.471
 7370SOL    HW223010   2.468   1.331   6.311
 7371SOL     OW23011   2.999   6.458   3.236
 7371SOL    HW123012   3.095   6.485   3.241
 7371SOL    HW223013   2.982   6.381   3.298
 7372SOL     OW23014   4.553   6.779   4.523
 7372SOL    HW123015   4.572   6.861   4.470
 7372SOL    HW223016   4.629   6.759   4.584
 7373SOL     OW23017   6.156   2.145   5.011
 7373SOL    HW123018   6.075   2.091   5.036
 7373SOL    HW223019   6.238   2.088   5.017
 7374SOL     OW23020   2.406   2.148   4.474
 7374SOL    HW123021   2.358   2.139   4.561
 7374SOL    HW223022   2.445   2.060   4.447
 7375SOL     OW23023   2.501   2.489   2.123
 7375SOL    HW123024   2.572   2.437   2.171
 7375SOL    HW223025   2.441   2.534   2.189
 7376SOL     OW23026   1.116   2.217   1.292
 7376SOL    HW123027   1.105   2.309   1.329
 7376SOL    HW223028   1.200   2.212   1.239
 7377SOL     OW23029   4.980   4.894   0.525
 7377SOL    HW123030   5.068   4.873   0.567
 7377SOL    HW223031   4.939   4.972   0.573
 7378SOL     OW23032   1.328   0.814   4.622
 7378SOL    HW123033   1.263   0.871   4.571
 7378SOL    HW223034   1.277   0.747   4.676
 7379SOL     OW23035   3.000   0.671   2.340
 7379SOL    HW123036   3.036   0.639   2.252
 7379SOL    HW223037   3.057   0.746   2.373
 7380SOL     OW23038   0.231   4.433   4.037
 7380SOL    HW123039   0.173   4.464   3.962
 7380SOL    HW223040   0.216   4.335   4.053
 7381SOL     OW23041   3.728   3.310   0.502
 7381SOL    HW123042   3.739   3.263   0.590
 7381SOL    HW223043   3.782   3.262   0.432
 7382SOL     OW23044   6.415   1.392   5.704
 7382SOL    HW123045   6.317   1.374   5.711
 7382SOL    HW223046   6.434   1.486   5.735
 7383SOL     OW23047   2.752   5.900   1.362
 7383SOL    HW123048   2.808   5.859   1.290
 7383SOL    HW223049   2.655   5.888   1.340
 7384SOL     OW23050   6.331   6.823   2.364
 7384SOL    HW123051   6.310   6.868   2.451
 7384SOL    HW223052   6.424   6.848   2.335
 7385SOL     OW23053   2.784   5.259   2.430
 7385SOL    HW123054   2.829   5.201   2.498
 7385SOL    HW223055   2.710   5.310   2.472
 7386SOL     OW23056   6.913   3.058   6.508
 7386SOL    HW123057   6.842   3.056   6.579
 7386SOL    HW223058   6.928   2.965   6.474
 7387SOL     OW23059   6.578   5.118   4.925
 7387SOL    HW123060   6.657   5.110   4.986
 7387SOL    HW223061   6.545   5.212   4.925
 7388SOL     OW23062   1.340   5.128   2.044
 7388SOL    HW123063   1.278   5.165   2.114
 7388SOL    HW223064   1.342   5.028   2.050
 7389SOL     OW23065   6.811   3.605   6.809
 7389SOL    HW123066   6.874   3.548   6.756
 7389SOL    HW223067   6.844   3.610   6.904
 7390SOL     OW23068   2.599   1.894   2.453
 7390SOL    HW123069   2.672   1.831   2.429
 7390SOL    HW223070   2.510   1.852   2.434
 7391SOL     OW23071   3.487   2.901   3.175
 7391SOL    HW123072   3.517   2.891   3.080
 7391SOL    HW223073   3.471   2.998   3.195
 7392SOL     OW23074   3.577   5.803   6.472
 7392SOL    HW123075   3.523   5.804   6.557
 7392SOL    HW223076   3.664   5.850   6.487
 7393SOL     OW23077   6.615   4.689   2.889
 7393SOL    HW123078   6.582   4.772   2.933
 7393SOL    HW223079   6.713   4.697   2.872
 7394SOL     OW23080   1.427   2.765   6.060
 7394SOL    HW123081   1.340   2.789   6.016
 7394SOL    HW223082   1.423   2.790   6.157
 7395SOL     OW23083   2.302   3.353   1.134
 7395SOL    HW123084   2.285   3.330   1.230
 7395SOL    HW223085   2.362   3.433   1.129
 7396SOL     OW23086   1.808   6.755   1.133
 7396SOL    HW123087   1.900   6.730   1.103
 7396SOL    HW223088   1.757   6.794   1.056
 7397SOL     OW23089   5.659   4.841   4.455
 7397SOL    HW123090   5.647   4.792   4.542
 7397SOL    HW223091   5.705   4.781   4.390
 7398SOL     OW23092   0.779   5.689   2.974
 7398SOL    HW123093   0.683   5.704   2.998
 7398SOL    HW223094   0.812   5.763   2.916
 7399SOL     OW23095   6.837   3.221   4.509
 7399SOL    HW123096   6.850   3.320   4.512
 7399SOL    HW223097   6.742   3.200   4.531
 7400SOL     OW23098   4.227   2.595   5.969
 7400SOL    HW123099   4.139   2.592   5.920
 7400SOL    HW223100   4.268   2.504   5.969
 7401SOL     OW23101   1.228   3.138   2.939
 7401SOL    HW123102   1.184   3.177   3.019
 7401SOL    HW223103   1.302   3.198   2.908
 7402SOL     OW23104   3.126   4.377   6.011
 7402SOL    HW123105   3.219   4.351   6.039
 7402SOL    HW223106   3.080   4.298   5.972
 7403SOL     OW23107   1.414   3.341   2.932
 7403SOL    HW123108   1.359   3.424   2.934
 7403SOL    HW223109   1.476   3.340   3.011
 7404SOL     OW23110   2.616   4.519   1.771
 7404SOL    HW123111   2.702   4.559   1.803
 7404SOL    HW223112   2.635   4.444   1.708
 7405SOL     OW23113   3.206   5.179   4.131
 7405SOL    HW123114   3.197   5.088   4.170
 7405SOL    HW223115   3.298   5.191   4.094
 7406SOL     OW23116   1.064   1.331   4.758
 7406SOL    HW123117   1.103   1.395   4.692
 7406SOL    HW223118   0.972   1.360   4.783
 7407SOL     OW23119   1.445   6.356   5.666
 7407SOL    HW123120   1.508   6.355   5.744
 7407SOL    HW223121   1.351   6.344   5.699
 7408SOL     OW23122   3.805   4.505   5.527
 7408SOL    HW123123   3.763   4.415   5.527
 7408SOL    HW223124   3.736   4.574   5.547
 7409SOL     OW23125   5.450   4.332   0.822
 7409SOL    HW123126   5.433   4.276   0.904
 7409SOL    HW223127   5.548   4.332   0.802
 7410SOL     OW23128   0.628   0.933   0.603
 7410SOL    HW123129   0.597   0.898   0.514
 7410SOL    HW223130   0.628   1.033   0.601
 7411SOL     OW23131   1.499   0.432   6.702
 7411SOL    HW123132   1.453   0.459   6.617
 7411SOL    HW223133   1.571   0.366   6.681
 7412SOL     OW23134   3.845   6.536   1.076
 7412SOL    HW123135   3.839   6.627   1.036
 7412SOL    HW223136   3.844   6.542   1.176
 7413SOL     OW23137   4.901   4.843   3.774
 7413SOL    HW123138   4.878   4.765   3.830
 7413SOL    HW223139   5.000   4.860   3.779
 7414SOL     OW23140   2.359   1.347   3.127
 7414SOL    HW123141   2.289   1.286   3.163
 7414SOL    HW223142   2.426   1.294   3.075
 7415SOL     OW23143   1.919   4.940   4.966
 7415SOL    HW123144   1.991   4.870   4.968
 7415SOL    HW223145   1.935   5.001   4.889
 7416SOL     OW23146   2.055   0.890   2.592
 7416SOL    HW123147   2.033   0.818   2.526
 7416SOL    HW223148   2.117   0.956   2.550
 7417SOL     OW23149   1.839   2.282   2.116
 7417SOL    HW123150   1.935   2.299   2.095
 7417SOL    HW223151   1.814   2.330   2.200
 7418SOL     OW23152   2.000   4.840   6.571
 7418SOL    HW123153   1.990   4.893   6.655
 7418SOL    HW223154   1.993   4.742   6.592
 7419SOL     OW23155   6.425   4.040   3.991
 7419SOL    HW123156   6.469   4.046   3.901
 7419SOL    HW223157   6.414   4.132   4.028
 7420SOL     OW23158   0.324   6.410   1.124
 7420SOL    HW123159   0.273   6.409   1.210
 7420SOL    HW223160   0.420   6.431   1.142
 7421SOL     OW23161   3.891   3.440   1.270
 7421SOL    HW123162   3.829   3.485   1.335
 7421SOL    HW223163   3.838   3.396   1.198
 7422SOL     OW23164   6.364   4.174   2.062
 7422SOL    HW123165   6.400   4.081   2.056
 7422SOL    HW223166   6.436   4.237   2.090
 7423SOL     OW23167   6.180   3.105   5.888
 7423SOL    HW123168   6.133   3.069   5.969
 7423SOL    HW223169   6.115   3.157   5.832
 7424SOL     OW23170   6.770   1.576   5.231
 7424SOL    HW123171   6.869   1.593   5.232
 7424SOL    HW223172   6.749   1.507   5.162
 7425SOL     OW23173   4.945   6.899   0.394
 7425SOL    HW123174   5.010   6.970   0.367
 7425SOL    HW223175   4.929   6.904   0.492
 7426SOL     OW23176   3.476   1.961   5.334
 7426SOL    HW123177   3.444   2.052   5.307
 7426SOL    HW223178   3.398   1.908   5.367
 7427SOL     OW23179   4.672   1.068   4.391
 7427SOL    HW123180   4.736   1.140   4.366
 7427SOL    HW223181   4.578   1.103   4.387
 7428SOL     OW23182   3.929   0.346   5.357
 7428SOL    HW123183   3.990   0.399   5.416
 7428SOL    HW223184   3.975   0.263   5.327
 7429SOL     OW23185   0.988   6.450   3.533
 7429SOL    HW123186   0.971   6.432   3.630
 7429SOL    HW223187   0.910   6.419   3.479
 7430SOL     OW23188   6.764   3.754   1.039
 7430SOL    HW123189   6.847   3.734   1.091
 7430SOL    HW223190   6.751   3.684   0.969
 7431SOL     OW23191   0.769   2.263   3.098
 7431SOL    HW123192   0.855   2.252   3.147
 7431SOL    HW223193   0.775   2.342   3.037
 7432SOL     OW23194   2.092   1.024   3.676
 7432SOL    HW123195   1.996   0.994   3.681
 7432SOL    HW223196   2.146   0.974   3.743
 7433SOL     OW23197   4.179   6.027   6.659
 7433SOL    HW123198   4.166   5.963   6.582
 7433SOL    HW223199   4.109   6.098   6.655
 7434SOL     OW23200   5.578   5.002   5.580
 7434SOL    HW123201   5.678   4.992   5.580
 7434SOL    HW223202   5.547   5.021   5.487
 7435SOL     OW23203   4.475   6.346   1.592
 7435SOL    HW123204   4.552   6.330   1.532
 7435SOL    HW223205   4.491   6.301   1.680
 7436SOL     OW23206   4.645   4.363   6.012
 7436SOL    HW123207   4.713   4.413   5.958
 7436SOL    HW223208   4.639   4.269   5.979
 7437SOL     OW23209   3.153   5.615   0.527
 7437SOL    HW123210   3.175   5.672   0.606
 7437SOL    HW223211   3.138   5.520   0.557
 7438SOL     OW23212   1.697   0.123   6.959
 7438SOL    HW123213   1.742   0.108   6.872
 7438SOL    HW223214   1.719   0.049   7.022
 7439SOL     OW23215   1.737   6.165   5.344
 7439SOL    HW123216   1.765   6.093   5.408
 7439SOL    HW223217   1.650   6.204   5.375
 7440SOL     OW23218   6.315   3.114   3.739
 7440SOL    HW123219   6.234   3.170   3.759
 7440SOL    HW223220   6.303   3.023   3.777
 7441SOL     OW23221   5.642   7.004   3.691
 7441SOL    HW123222   5.719   0.031   3.650
 7441SOL    HW223223   5.622   0.020   3.781
 7442SOL     OW23224   5.920   1.328   0.293
 7442SOL    HW123225   5.908   1.418   0.251
 7442SOL    HW223226   6.013   1.295   0.274
 7443SOL     OW23227   6.744   5.733   2.099
 7443SOL    HW123228   6.663   5.674   2.109
 7443SOL    HW223229   6.811   5.710   2.170
 7444SOL     OW23230   5.892   0.822   6.264
 7444SOL    HW123231   5.877   0.867   6.176
 7444SOL    HW223232   5.941   0.736   6.250
 7445SOL     OW23233   3.208   0.412   1.333
 7445SOL    HW123234   3.122   0.383   1.291
 7445SOL    HW223235   3.218   0.511   1.323
 7446SOL     OW23236   4.960   2.172   0.377
 7446SOL    HW123237   4.864   2.199   0.371
 7446SOL    HW223238   4.966   2.072   0.376
 7447SOL     OW23239   6.693   4.554   6.163
 7447SOL    HW123240   6.773   4.513   6.206
 7447SOL    HW223241   6.614   4.493   6.171
 7448SOL     OW23242   5.705   6.863   5.096
 7448SOL    HW123243   5.799   6.886   5.074
 7448SOL    HW223244   5.703   6.781   5.154
 7449SOL     OW23245   0.960   5.716   0.407
 7449SOL    HW123246   0.974   5.678   0.498
 7449SOL    HW223247   0.862   5.730   0.392
 7450SOL     OW23248   5.007   2.645   5.407
 7450SOL    HW123249   5.101   2.661   5.437
 7450SOL    HW223250   4.999   2.667   5.310
 7451SOL     OW23251   5.927   5.658   2.361
 7451SOL    HW123252   6.003   5.722   2.363
 7451SOL    HW223253   5.841   5.707   2.372
 7452SOL     OW23254   6.245   5.643   4.541
 7452SOL    HW123255   6.307   5.656   4.619
 7452SOL    HW223256   6.290   5.675   4.457
 7453SOL     OW23257   4.464   5.228   5.313
 7453SOL    HW123258   4.551   5.178   5.308
 7453SOL    HW223259   4.478   5.322   5.284
 7454SOL     OW23260   2.549   1.137   0.835
 7454SOL    HW123261   2.601   1.053   0.852
 7454SOL    HW223262   2.576   1.206   0.901
 7455SOL     OW23263   6.533   3.631   1.899
 7455SOL    HW123264   6.481   3.548   1.918
 7455SOL    HW223265   6.533   3.690   1.980
 7456SOL     OW23266   2.400   1.135   4.921
 7456SOL    HW123267   2.320   1.075   4.917
 7456SOL    HW223268   2.478   1.083   4.958
 7457SOL     OW23269   3.128   0.242   4.351
 7457SOL    HW123270   3.184   0.253   4.433
 7457SOL    HW223271   3.153   0.312   4.284
 7458SOL     OW23272   1.312   0.233   5.801
 7458SOL    HW123273   1.307   0.133   5.796
 7458SOL    HW223274   1.318   0.270   5.708
 7459SOL     OW23275   6.059   1.245   2.138
 7459SOL    HW123276   5.997   1.279   2.209
 7459SOL    HW223277   6.009   1.186   2.075
 7460SOL     OW23278   1.562   6.056   6.712
 7460SOL    HW123279   1.554   6.099   6.622
 7460SOL    HW223280   1.515   6.114   6.780
 7461SOL     OW23281   6.038   6.077   5.551
 7461SOL    HW123282   5.975   6.029   5.490
 7461SOL    HW223283   6.038   6.175   5.530
 7462SOL     OW23284   2.202   4.652   2.205
 7462SOL    HW123285   2.111   4.680   2.175
 7462SOL    HW223286   2.195   4.570   2.262
 7463SOL     OW23287   3.298   3.830   0.420
 7463SOL    HW123288   3.332   3.765   0.488
 7463SOL    HW223289   3.373   3.857   0.359
 7464SOL     OW23290   6.159   6.628   5.391
 7464SOL    HW123291   6.182   6.647   5.487
 7464SOL    HW223292   6.067   6.663   5.372
 7465SOL     OW23293   2.605   5.335   0.029
 7465SOL    HW123294   2.547   5.266   7.008
 7465SOL    HW223295   2.582   5.342   0.126
 7466SOL     OW23296   0.473   0.766   6.118
 7466SOL    HW123297   0.485   0.830   6.193
 7466SOL    HW223298   0.450   0.816   6.035
 7467SOL     OW23299   0.479   2.431   5.812
 7467SOL    HW123300   0.576   2.419   5.830
 7467SOL    HW223301   0.425   2.385   5.883
 7468SOL     OW23302   4.912   3.092   4.538
 7468SOL    HW123303   4.841   3.057   4.598
 7468SOL    HW223304   4.937   3.022   4.471
 7469SOL     OW23305   6.281   1.346   0.348
 7469SOL    HW123306   6.363   1.333   0.404
 7469SOL    HW223307   6.289   1.432   0.298
 7470SOL     OW23308   5.465   4.457   3.479
 7470SOL    HW123309   5.518   4.405   3.546
 7470SOL    HW223310   5.514   4.540   3.455
 7471SOL     OW23311   5.207   6.065   5.896
 7471SOL    HW123312   5.202   6.165   5.893
 7471SOL    HW223313   5.133   6.029   5.952
 7472SOL     OW23314   6.493   0.841   5.552
 7472SOL    HW123315   6.522   0.790   5.472
 7472SOL    HW223316   6.498   0.782   5.633
 7473SOL     OW23317   5.429   6.183   4.213
 7473SOL    HW123318   5.372   6.101   4.205
 7473SOL    HW223319   5.374   6.259   4.249
 7474SOL     OW23320   6.662   2.432   6.392
 7474SOL    HW123321   6.574   2.449   6.436
 7474SOL    HW223322   6.652   2.443   6.293
 7475SOL     OW23323   4.364   2.453   2.284
 7475SOL    HW123324   4.288   2.471   2.346
 7475SOL    HW223325   4.340   2.376   2.224
 7476SOL     OW23326   2.175   1.999   3.101
 7476SOL    HW123327   2.229   1.928   3.057
 7476SOL    HW223328   2.222   2.087   3.093
 7477SOL     OW23329   6.962   2.929   5.339
 7477SOL    HW123330   6.930   2.928   5.245
 7477SOL    HW223331   6.889   2.896   5.400
 7478SOL     OW23332   6.165   3.686   5.375
 7478SOL    HW123333   6.168   3.601   5.428
 7478SOL    HW223334   6.130   3.759   5.433
 7479SOL     OW23335   5.178   2.756   1.286
 7479SOL    HW123336   5.123   2.676   1.261
 7479SOL    HW223337   5.269   2.748   1.246
 7480SOL     OW23338   1.998   4.883   2.555
 7480SOL    HW123339   1.945   4.877   2.639
 7480SOL    HW223340   1.980   4.802   2.499
 7481SOL     OW23341   6.505   4.827   0.185
 7481SOL    HW123342   6.496   4.900   0.252
 7481SOL    HW223343   6.492   4.738   0.230
 7482SOL     OW23344   4.335   1.860   2.218
 7482SOL    HW123345   4.359   1.904   2.304
 7482SOL    HW223346   4.401   1.788   2.198
 7483SOL     OW23347   4.887   2.744   4.687
 7483SOL    HW123348   4.813   2.693   4.730
 7483SOL    HW223349   4.893   2.719   4.590
 7484SOL     OW23350   1.761   5.364   4.585
 7484SOL    HW123351   1.844   5.376   4.530
 7484SOL    HW223352   1.715   5.280   4.557
 7485SOL     OW23353   2.570   0.338   4.212
 7485SOL    HW123354   2.585   0.357   4.309
 7485SOL    HW223355   2.650   0.368   4.160
 7486SOL     OW23356   0.782   6.252   0.199
 7486SOL    HW123357   0.751   6.171   0.249
 7486SOL    HW223358   0.717   6.273   0.126
 7487SOL     OW23359   3.382   0.277   3.588
 7487SOL    HW123360   3.442   0.200   3.607
 7487SOL    HW223361   3.430   0.344   3.531
 7488SOL     OW23362   2.120   6.116   4.708
 7488SOL    HW123363   2.219   6.100   4.704
 7488SOL    HW223364   2.086   6.135   4.616
 7489SOL     OW23365   6.051   3.138   6.887
 7489SOL    HW123366   6.111   3.195   6.943
 7489SOL    HW223367   5.959   3.137   6.927
 7490SOL     OW23368   1.826   1.049   2.605
 7490SOL    HW123369   1.876   1.133   2.629
 7490SOL    HW223370   1.888   0.971   2.612
 7491SOL     OW23371   4.862   2.744   6.765
 7491SOL    HW123372   4.896   2.790   6.847
 7491SOL    HW223373   4.940   2.721   6.706
 7492SOL     OW23374   2.010   1.227   4.235
 7492SOL    HW123375   1.938   1.294   4.219
 7492SOL    HW223376   1.972   1.135   4.234
 7493SOL     OW23377   6.663   3.292   5.940
 7493SOL    HW123378   6.687   3.377   5.987
 7493SOL    HW223379   6.688   3.214   5.997
 7494SOL     OW23380   6.084   1.314   4.301
 7494SOL    HW123381   6.027   1.232   4.298
 7494SOL    HW223382   6.061   1.373   4.223
 7495SOL     OW23383   1.203   3.064   5.074
 7495SOL    HW123384   1.130   3.099   5.016
 7495SOL    HW223385   1.197   2.964   5.080
 7496SOL     OW23386   5.161   3.685   4.446
 7496SOL    HW123387   5.067   3.652   4.453
 7496SOL    HW223388   5.222   3.625   4.499
 7497SOL     OW23389   1.712   5.672   1.492
 7497SOL    HW123390   1.735   5.599   1.556
 7497SOL    HW223391   1.623   5.654   1.451
 7498SOL     OW23392   2.769   1.044   4.024
 7498SOL    HW123393   2.683   1.044   4.074
 7498SOL    HW223394   2.806   1.136   4.019
 7499SOL     OW23395   4.478   2.181   3.436
 7499SOL    HW123396   4.384   2.210   3.415
 7499SOL    HW223397   4.508   2.114   3.368
 7500SOL     OW23398   3.369   5.636   2.818
 7500SOL    HW123399   3.466   5.655   2.829
 7500SOL    HW223400   3.353   5.593   2.729
 7501SOL     OW23401   5.325   4.315   3.718
 7501SOL    HW123402   5.245   4.261   3.747
 7501SOL    HW223403   5.402   4.253   3.704
 7502SOL     OW23404   3.391   6.706   4.196
 7502SOL    HW123405   3.358   6.613   4.178
 7502SOL    HW223406   3.344   6.744   4.275
 7503SOL     OW23407   2.255   6.003   0.946
 7503SOL    HW123408   2.298   5.915   0.966
 7503SOL    HW223409   2.196   6.030   1.022
 7504SOL     OW23410   0.487   6.416   2.868
 7504SOL    HW123411   0.562   6.357   2.838
 7504SOL    HW223412   0.401   6.381   2.830
 7505SOL     OW23413   1.764   1.802   6.694
 7505SOL    HW123414   1.861   1.824   6.685
 7505SOL    HW223415   1.723   1.790   6.604
 7506SOL     OW23416   4.237   2.281   3.355
 7506SOL    HW123417   4.138   2.285   3.372
 7506SOL    HW223418   4.254   2.280   3.257
 7507SOL     OW23419   6.266   2.974   3.501
 7507SOL    HW123420   6.210   3.053   3.474
 7507SOL    HW223421   6.283   2.977   3.599
 7508SOL     OW23422   2.049   5.198   0.818
 7508SOL    HW123423   2.142   5.199   0.856
 7508SOL    HW223424   2.024   5.104   0.797
 7509SOL     OW23425   6.136   2.952   0.474
 7509SOL    HW123426   6.067   2.981   0.540
 7509SOL    HW223427   6.122   3.000   0.388
 7510SOL     OW23428   4.066   3.580   4.459
 7510SOL    HW123429   4.086   3.599   4.555
 7510SOL    HW223430   3.990   3.515   4.453
 7511SOL     OW23431   2.982   6.216   3.367
 7511SOL    HW123432   2.952   6.132   3.322
 7511SOL    HW223433   3.077   6.207   3.396
 7512SOL     OW23434   2.596   0.992   6.877
 7512SOL    HW123435   2.566   1.013   6.784
 7512SOL    HW223436   2.566   0.900   6.901
 7513SOL     OW23437   2.317   2.246   3.052
 7513SOL    HW123438   2.249   2.299   3.002
 7513SOL    HW223439   2.394   2.225   2.992
 7514SOL     OW23440   2.014   5.472   3.425
 7514SOL    HW123441   2.011   5.548   3.360
 7514SOL    HW223442   2.067   5.499   3.505
 7515SOL     OW23443   6.976   4.304   4.958
 7515SOL    HW123444   6.906   4.370   4.985
 7515SOL    HW223445   0.006   4.277   5.039
 7516SOL     OW23446   0.866   5.425   6.144
 7516SOL    HW123447   0.898   5.339   6.103
 7516SOL    HW223448   0.929   5.499   6.120
 7517SOL     OW23449   1.173   2.121   6.857
 7517SOL    HW123450   1.179   2.093   6.953
 7517SOL    HW223451   1.237   2.066   6.803
 7518SOL     OW23452   5.157   3.454   3.365
 7518SOL    HW123453   5.158   3.524   3.437
 7518SOL    HW223454   5.155   3.498   3.275
 7519SOL     OW23455   5.875   6.814   4.510
 7519SOL    HW123456   5.906   6.803   4.416
 7519SOL    HW223457   5.901   6.733   4.563
 7520SOL     OW23458   1.479   0.762   2.514
 7520SOL    HW123459   1.563   0.710   2.502
 7520SOL    HW223460   1.498   0.848   2.561
 7521SOL     OW23461   5.377   2.043   4.924
 7521SOL    HW123462   5.311   2.048   4.998
 7521SOL    HW223463   5.359   2.116   4.858
 7522SOL     OW23464   1.433   0.043   5.289
 7522SOL    HW123465   1.384   7.005   5.352
 7522SOL    HW223466   1.452   0.130   5.334
 7523SOL     OW23467   5.059   0.856   6.063
 7523SOL    HW123468   5.060   0.949   6.027
 7523SOL    HW223469   4.965   0.822   6.064
 7524SOL     OW23470   6.939   3.032   5.060
 7524SOL    HW123471   6.961   2.935   5.050
 7524SOL    HW223472   6.931   3.074   4.969
 7525SOL     OW23473   4.297   6.520   6.761
 7525SOL    HW123474   4.199   6.519   6.742
 7525SOL    HW223475   4.318   6.451   6.830
 7526SOL     OW23476   2.838   2.846   1.306
 7526SOL    HW123477   2.756   2.898   1.284
 7526SOL    HW223478   2.815   2.776   1.374
 7527SOL     OW23479   3.462   5.748   3.623
 7527SOL    HW123480   3.458   5.765   3.722
 7527SOL    HW223481   3.477   5.650   3.607
 7528SOL     OW23482   5.749   2.134   6.751
 7528SOL    HW123483   5.781   2.102   6.841
 7528SOL    HW223484   5.672   2.197   6.764
 7529SOL     OW23485   5.378   1.822   4.171
 7529SOL    HW123486   5.357   1.727   4.198
 7529SOL    HW223487   5.367   1.832   4.072
 7530SOL     OW23488   6.046   2.015   1.718
 7530SOL    HW123489   6.015   2.109   1.732
 7530SOL    HW223490   6.027   1.961   1.799
 7531SOL     OW23491   4.843   3.025   2.956
 7531SOL    HW123492   4.793   3.075   2.887
 7531SOL    HW223493   4.855   3.082   3.038
 7532SOL     OW23494   4.966   6.075   6.880
 7532SOL    HW123495   4.997   6.080   6.975
 7532SOL    HW223496   4.957   6.168   6.843
 7533SOL     OW23497   4.218   2.105   1.655
 7533SOL    HW123498   4.190   2.183   1.710
 7533SOL    HW223499   4.226   2.024   1.713
 7534SOL     OW23500   4.630   5.696   4.065
 7534SOL    HW123501   4.685   5.613   4.060
 7534SOL    HW223502   4.623   5.737   3.975
 7535SOL     OW23503   1.780   6.506   4.767
 7535SOL    HW123504   1.737   6.521   4.678
 7535SOL    HW223505   1.878   6.524   4.760
 7536SOL     OW23506   5.256   5.624   4.447
 7536SOL    HW123507   5.331   5.678   4.408
 7536SOL    HW223508   5.245   5.648   4.544
 7537SOL     OW23509   1.935   4.667   2.159
 7537SOL    HW123510   1.870   4.739   2.133
 7537SOL    HW223511   1.911   4.632   2.249
 7538SOL     OW23512   1.662   2.984   1.690
 7538SOL    HW123513   1.673   2.887   1.713
 7538SOL    HW223514   1.640   3.035   1.774
 7539SOL     OW23515   0.707   4.939   3.407
 7539SOL    HW123516   0.739   4.961   3.315
 7539SOL    HW223517   0.615   4.900   3.402
 7540SOL     OW23518   4.310   6.374   4.435
 7540SOL    HW123519   4.350   6.284   4.418
 7540SOL    HW223520   4.362   6.444   4.385
 7541SOL     OW23521   1.165   4.123   6.191
 7541SOL    HW123522   1.190   4.046   6.132
 7541SOL    HW223523   1.080   4.100   6.240
 7542SOL     OW23524   6.632   5.771   6.092
 7542SOL    HW123525   6.689   5.775   6.010
 7542SOL    HW223526   6.669   5.704   6.156
 7543SOL     OW23527   2.676   0.510   4.791
 7543SOL    HW123528   2.578   0.488   4.788
 7543SOL    HW223529   2.712   0.487   4.881
 7544SOL     OW23530   6.903   2.731   4.399
 7544SOL    HW123531   6.818   2.773   4.430
 7544SOL    HW223532   6.964   2.802   4.363
 7545SOL     OW23533   0.492   6.456   6.025
 7545SOL    HW123534   0.411   6.452   5.967
 7545SOL    HW223535   0.479   6.396   6.104
 7546SOL     OW23536   4.710   2.239   1.467
 7546SOL    HW123537   4.702   2.283   1.556
 7546SOL    HW223538   4.645   2.281   1.403
 7547SOL     OW23539   4.693   0.798   0.879
 7547SOL    HW123540   4.602   0.776   0.912
 7547SOL    HW223541   4.744   0.848   0.950
 7548SOL     OW23542   4.412   2.497   6.755
 7548SOL    HW123543   4.477   2.557   6.803
 7548SOL    HW223544   4.375   2.545   6.676
 7549SOL     OW23545   3.755   3.015   6.791
 7549SOL    HW123546   3.842   3.064   6.794
 7549SOL    HW223547   3.771   2.917   6.802
 7550SOL     OW23548   1.884   4.773   3.497
 7550SOL    HW123549   1.924   4.728   3.578
 7550SOL    HW223550   1.822   4.709   3.451
 7551SOL     OW23551   5.366   3.205   5.312
 7551SOL    HW123552   5.333   3.277   5.252
 7551SOL    HW223553   5.443   3.239   5.366
 7552SOL     OW23554   1.195   6.037   4.345
 7552SOL    HW123555   1.280   5.988   4.363
 7552SOL    HW223556   1.211   6.135   4.349
 7553SOL     OW23557   5.706   6.348   5.782
 7553SOL    HW123558   5.639   6.422   5.773
 7553SOL    HW223559   5.797   6.386   5.797
 7554SOL     OW23560   4.677   0.657   0.500
 7554SOL    HW123561   4.625   0.731   0.541
 7554SOL    HW223562   4.636   0.569   0.526
 7555SOL     OW23563   3.607   5.717   6.223
 7555SOL    HW123564   3.676   5.644   6.223
 7555SOL    HW223565   3.599   5.756   6.314
 7556SOL     OW23566   1.969   1.416   0.264
 7556SOL    HW123567   1.876   1.449   0.278
 7556SOL    HW223568   2.032   1.494   0.267
 7557SOL     OW23569   4.896   0.160   6.856
 7557SOL    HW123570   4.837   0.220   6.803
 7557SOL    HW223571   4.918   0.078   6.802
 7558SOL     OW23572   2.007   3.156   3.541
 7558SOL    HW123573   2.090   3.122   3.496
 7558SOL    HW223574   1.932   3.092   3.525
 7559SOL     OW23575   4.051   2.161   5.623
 7559SOL    HW123576   4.094   2.123   5.705
 7559SOL    HW223577   4.114   2.224   5.578
 7560SOL     OW23578   6.695   6.988   6.917
 7560SOL    HW123579   6.647   0.051   6.898
 7560SOL    HW223580   6.789   6.994   6.887
 7561SOL     OW23581   5.796   3.429   5.574
 7561SOL    HW123582   5.731   3.463   5.643
 7561SOL    HW223583   5.882   3.405   5.618
 7562SOL     OW23584   0.257   5.057   5.054
 7562SOL    HW123585   0.282   4.964   5.081
 7562SOL    HW223586   0.241   5.059   4.955
 7563SOL     OW23587   2.829   6.186   2.081
 7563SOL    HW123588   2.917   6.166   2.038
 7563SOL    HW223589   2.799   6.107   2.134
 7564SOL     OW23590   3.737   0.164   4.736
 7564SOL    HW123591   3.807   0.233   4.717
 7564SOL    HW223592   3.654   0.209   4.770
 7565SOL     OW23593   5.409   4.077   5.876
 7565SOL    HW123594   5.348   4.093   5.954
 7565SOL    HW223595   5.473   4.154   5.868
 7566SOL     OW23596   5.780   5.462   2.240
 7566SOL    HW123597   5.843   5.534   2.270
 7566SOL    HW223598   5.826   5.404   2.173
 7567SOL     OW23599   0.633   0.637   5.066
 7567SOL    HW123600   0.625   0.538   5.052
 7567SOL    HW223601   0.722   0.668   5.033
 7568SOL     OW23602   5.461   5.135   1.549
 7568SOL    HW123603   5.432   5.164   1.458
 7568SOL    HW223604   5.561   5.136   1.554
 7569SOL     OW23605   4.041   4.245   6.122
 7569SOL    HW123606   4.095   4.330   6.123
 7569SOL    HW223607   4.049   4.202   6.032
 7570SOL     OW23608   6.521   3.830   4.113
 7570SOL    HW123609   6.466   3.911   4.093
 7570SOL    HW223610   6.489   3.752   4.060
 7571SOL     OW23611   5.389   3.698   3.313
 7571SOL    HW123612   5.421   3.646   3.392
 7571SOL    HW223613   5.297   3.668   3.289
 7572SOL     OW23614   5.092   0.034   2.894
 7572SOL    HW123615   5.150   0.078   2.962
 7572SOL    HW223616   5.100   6.956   2.902
 7573SOL     OW23617   6.527   0.692   5.357
 7573SOL    HW123618   6.460   0.692   5.283
 7573SOL    HW223619   6.602   0.631   5.333
 7574SOL     OW23620   5.925   1.487   4.459
 7574SOL    HW123621   5.958   1.416   4.397
 7574SOL    HW223622   5.897   1.445   4.545
 7575SOL     OW23623   6.344   6.322   0.785
 7575SOL    HW123624   6.389   6.241   0.823
 7575SOL    HW223625   6.408   6.371   0.726
 7576SOL     OW23626   5.335   2.102   0.156
 7576SOL    HW123627   5.389   2.127   0.236
 7576SOL    HW223628   5.259   2.165   0.145
 7577SOL     OW23629   0.239   6.287   0.250
 7577SOL    HW123630   0.280   6.359   0.305
 7577SOL    HW223631   0.145   6.270   0.281
 7578SOL     OW23632   1.435   5.325   2.571
 7578SOL    HW123633   1.440   5.298   2.475
 7578SOL    HW223634   1.363   5.273   2.617
 7579SOL     OW23635   6.948   2.090   1.637
 7579SOL    HW123636   0.017   2.086   1.598
 7579SOL    HW223637   6.953   2.073   1.735
 7580SOL     OW23638   1.122   4.529   3.091
 7580SOL    HW123639   1.182   4.609   3.098
 7580SOL    HW223640   1.033   4.550   3.133
 7581SOL     OW23641   0.170   1.339   1.580
 7581SOL    HW123642   0.238   1.403   1.542
 7581SOL    HW223643   0.078   1.369   1.553
 7582SOL     OW23644   4.187   1.658   3.628
 7582SOL    HW123645   4.144   1.741   3.665
 7582SOL    HW223646   4.269   1.683   3.577
 7583SOL     OW23647   5.582   3.455   3.110
 7583SOL    HW123648   5.569   3.462   3.011
 7583SOL    HW223649   5.536   3.531   3.156
 7584SOL     OW23650   1.486   0.051   2.670
 7584SOL    HW123651   1.525   7.003   2.729
 7584SOL    HW223652   1.388   0.061   2.689
 7585SOL     OW23653   1.211   1.962   6.462
 7585SOL    HW123654   1.285   1.905   6.500
 7585SOL    HW223655   1.134   1.964   6.525
 7586SOL     OW23656   2.092   6.787   3.408
 7586SOL    HW123657   2.108   6.689   3.409
 7586SOL    HW223658   2.073   6.817   3.314
 7587SOL     OW23659   2.583   1.421   0.113
 7587SOL    HW123660   2.570   1.331   0.072
 7587SOL    HW223661   2.501   1.447   0.165
 7588SOL     OW23662   1.109   3.134   4.234
 7588SOL    HW123663   1.162   3.181   4.164
 7588SOL    HW223664   1.142   3.039   4.242
 7589SOL     OW23665   6.768   1.082   2.983
 7589SOL    HW123666   6.847   1.143   2.974
 7589SOL    HW223667   6.799   0.988   2.997
 7590SOL     OW23668   6.200   0.903   6.659
 7590SOL    HW123669   6.281   0.956   6.683
 7590SOL    HW223670   6.167   0.854   6.740
 7591SOL     OW23671   5.109   3.441   6.704
 7591SOL    HW123672   5.112   3.539   6.686
 7591SOL    HW223673   5.031   3.420   6.764
 7592SOL     OW23674   6.513   4.889   4.775
 7592SOL    HW123675   6.553   4.947   4.846
 7592SOL    HW223676   6.578   4.877   4.701
 7593SOL     OW23677   7.014   2.472   6.564
 7593SOL    HW123678   0.025   2.540   6.629
 7593SOL    HW223679   0.069   2.433   6.514
 7594SOL     OW23680   0.826   4.652   1.450
 7594SOL    HW123681   0.921   4.625   1.468
 7594SOL    HW223682   0.815   4.672   1.353
 7595SOL     OW23683   6.483   3.120   6.574
 7595SOL    HW123684   6.394   3.151   6.607
 7595SOL    HW223685   6.513   3.177   6.498
 7596SOL     OW23686   2.992   6.663   4.723
 7596SOL    HW123687   2.994   6.761   4.703
 7596SOL    HW223688   2.991   6.611   4.638
 7597SOL     OW23689   1.746   6.880   3.007
 7597SOL    HW123690   1.760   6.941   3.085
 7597SOL    HW223691   1.783   6.923   2.924
 7598SOL     OW23692   5.946   0.363   2.508
 7598SOL    HW123693   5.878   0.386   2.438
 7598SOL    HW223694   6.007   0.440   2.522
 7599SOL     OW23695   5.371   3.380   1.000
 7599SOL    HW123696   5.388   3.405   0.905
 7599SOL    HW223697   5.274   3.388   1.020
 7600SOL     OW23698   1.153   0.859   3.179
 7600SOL    HW123699   1.053   0.850   3.178
 7600SOL    HW223700   1.184   0.864   3.274
 7601SOL     OW23701   2.645   5.048   2.292
 7601SOL    HW123702   2.706   5.102   2.349
 7601SOL    HW223703   2.671   5.059   2.196
 7602SOL     OW23704   0.831   3.151   0.129
 7602SOL    HW123705   0.736   3.181   0.122
 7602SOL    HW223706   0.844   3.071   0.071
 7603SOL     OW23707   1.782   6.434   5.653
 7603SOL    HW123708   1.866   6.381   5.666
 7603SOL    HW223709   1.767   6.448   5.555
 7604SOL     OW23710   1.293   2.045   5.312
 7604SOL    HW123711   1.208   2.085   5.279
 7604SOL    HW223712   1.364   2.054   5.242
 7605SOL     OW23713   0.974   0.614   1.141
 7605SOL    HW123714   1.060   0.592   1.095
 7605SOL    HW223715   0.897   0.597   1.080
 7606SOL     OW23716   5.575   2.887   5.142
 7606SOL    HW123717   5.542   2.979   5.122
 7606SOL    HW223718   5.509   2.839   5.199
 7607SOL     OW23719   3.464   5.023   0.154
 7607SOL    HW123720   3.453   5.121   0.142
 7607SOL    HW223721   3.538   5.004   0.218
 7608SOL     OW23722   5.006   2.224   6.812
 7608SOL    HW123723   4.964   2.155   6.871
 7608SOL    HW223724   5.054   2.178   6.737
 7609SOL     OW23725   1.109   4.124   3.724
 7609SOL    HW123726   1.196   4.173   3.723
 7609SOL    HW223727   1.125   4.027   3.708
 7610SOL     OW23728   4.171   5.174   5.706
 7610SOL    HW123729   4.140   5.186   5.801
 7610SOL    HW223730   4.121   5.237   5.647
 7611SOL     OW23731   5.451   3.788   1.235
 7611SOL    HW123732   5.521   3.718   1.250
 7611SOL    HW223733   5.405   3.771   1.148
 7612SOL     OW23734   4.465   2.324   2.910
 7612SOL    HW123735   4.511   2.412   2.922
 7612SOL    HW223736   4.496   2.281   2.825
 7613SOL     OW23737   1.063   2.106   2.166
 7613SOL    HW123738   1.116   2.100   2.082
 7613SOL    HW223739   0.970   2.135   2.145
 7614SOL     OW23740   5.705   3.464   1.613
 7614SOL    HW123741   5.623   3.451   1.669
 7614SOL    HW223742   5.762   3.536   1.653
 7615SOL     OW23743   4.896   4.205   5.642
 7615SOL    HW123744   4.831   4.190   5.568
 7615SOL    HW223745   4.984   4.232   5.603
 7616SOL     OW23746   6.658   0.200   3.379
 7616SOL    HW123747   6.687   0.106   3.359
 7616SOL    HW223748   6.641   0.210   3.477
 7617SOL     OW23749   5.431   5.632   3.004
 7617SOL    HW123750   5.388   5.583   2.928
 7617SOL    HW223751   5.394   5.597   3.090
 7618SOL     OW23752   1.303   2.465   7.012
 7618SOL    HW123753   1.314   2.371   0.021
 7618SOL    HW223754   1.224   2.472   6.951
 7619SOL     OW23755   6.818   2.359   4.638
 7619SOL    HW123756   6.866   2.319   4.716
 7619SOL    HW223757   6.723   2.378   4.664
 7620SOL     OW23758   3.873   4.850   0.952
 7620SOL    HW123759   3.902   4.882   0.862
 7620SOL    HW223760   3.906   4.914   1.022
 7621SOL     OW23761   0.898   0.210   1.247
 7621SOL    HW123762   0.819   0.260   1.211
 7621SOL    HW223763   0.866   0.131   1.300
 7622SOL     OW23764   4.321   4.628   6.656
 7622SOL    HW123765   4.248   4.589   6.713
 7622SOL    HW223766   4.343   4.720   6.690
 7623SOL     OW23767   4.189   4.272   0.944
 7623SOL    HW123768   4.256   4.232   1.006
 7623SOL    HW223769   4.133   4.199   0.904
 7624SOL     OW23770   6.605   2.892   3.519
 7624SOL    HW123771   6.505   2.899   3.522
 7624SOL    HW223772   6.632   2.797   3.538
 7625SOL     OW23773   6.183   2.029   0.125
 7625SOL    HW123774   6.233   1.949   0.090
 7625SOL    HW223775   6.248   2.096   0.160
 7626SOL     OW23776   6.666   1.003   6.108
 7626SOL    HW123777   6.688   0.937   6.180
 7626SOL    HW223778   6.750   1.026   6.058
 7627SOL     OW23779   2.867   1.667   0.531
 7627SOL    HW123780   2.818   1.590   0.572
 7627SOL    HW223781   2.812   1.750   0.539
 7628SOL     OW23782   4.034   2.760   1.305
 7628SOL    HW123783   3.989   2.754   1.394
 7628SOL    HW223784   4.071   2.671   1.281
 7629SOL     OW23785   6.635   4.282   3.696
 7629SOL    HW123786   6.725   4.250   3.668
 7629SOL    HW223787   6.580   4.206   3.729
 7630SOL     OW23788   1.068   0.567   6.507
 7630SOL    HW123789   1.101   0.661   6.512
 7630SOL    HW223790   1.071   0.536   6.412
 7631SOL     OW23791   1.315   1.034   5.429
 7631SOL    HW123792   1.280   0.941   5.432
 7631SOL    HW223793   1.291   1.076   5.341
 7632SOL     OW23794   3.908   5.017   1.192
 7632SOL    HW123795   3.876   5.020   1.287
 7632SOL    HW223796   4.007   5.030   1.189
 7633SOL     OW23797   5.240   0.663   2.026
 7633SOL    HW123798   5.337   0.643   2.023
 7633SOL    HW223799   5.209   0.666   2.121
 7634SOL     OW23800   1.341   1.388   1.694
 7634SOL    HW123801   1.369   1.482   1.713
 7634SOL    HW223802   1.341   1.373   1.595
 7635SOL     OW23803   2.865   5.386   4.130
 7635SOL    HW123804   2.906   5.373   4.040
 7635SOL    HW223805   2.932   5.363   4.201
 7636SOL     OW23806   1.234   4.022   4.080
 7636SOL    HW123807   1.170   3.946   4.090
 7636SOL    HW223808   1.295   4.004   4.003
 7637SOL     OW23809   1.160   6.728   2.635
 7637SOL    HW123810   1.245   6.757   2.589
 7637SOL    HW223811   1.148   6.782   2.718
 7638SOL     OW23812   1.372   5.757   2.072
 7638SOL    HW123813   1.278   5.790   2.063
 7638SOL    HW223814   1.398   5.758   2.168
 7639SOL     OW23815   0.417   1.306   0.524
 7639SOL    HW123816   0.327   1.340   0.495
 7639SOL    HW223817   0.473   1.287   0.443
 7640SOL     OW23818   2.974   2.328   6.726
 7640SOL    HW123819   2.892   2.318   6.782
 7640SOL    HW223820   3.007   2.238   6.699
 7641SOL     OW23821   0.181   4.308   2.674
 7641SOL    HW123822   0.253   4.269   2.615
 7641SOL    HW223823   0.179   4.257   2.760
 7642SOL     OW23824   5.823   0.915   2.640
 7642SOL    HW123825   5.876   0.947   2.719
 7642SOL    HW223826   5.860   0.828   2.608
 7643SOL     OW23827   5.305   1.531   2.271
 7643SOL    HW123828   5.287   1.451   2.328
 7643SOL    HW223829   5.218   1.573   2.244
 7644SOL     OW23830   4.750   2.807   2.188
 7644SOL    HW123831   4.670   2.747   2.189
 7644SOL    HW223832   4.740   2.875   2.115
 7645SOL     OW23833   4.237   3.224   5.744
 7645SOL    HW123834   4.268   3.146   5.690
 7645SOL    HW223835   4.312   3.290   5.754
 7646SOL     OW23836   0.458   2.914   3.358
 7646SOL    HW123837   0.399   2.840   3.324
 7646SOL    HW223838   0.538   2.876   3.403
 7647SOL     OW23839   0.509   3.183   4.240
 7647SOL    HW123840   0.593   3.142   4.275
 7647SOL    HW223841   0.453   3.214   4.316
 7648SOL     OW23842   2.513   1.223   1.984
 7648SOL    HW123843   2.551   1.298   1.930
 7648SOL    HW223844   2.463   1.261   2.063
 7649SOL     OW23845   1.418   1.381   4.522
 7649SOL    HW123846   1.419   1.311   4.593
 7649SOL    HW223847   1.382   1.341   4.437
 7650SOL     OW23848   5.413   0.698   1.293
 7650SOL    HW123849   5.379   0.646   1.214
 7650SOL    HW223850   5.354   0.778   1.307
 7651SOL     OW23851   2.663   5.745   4.545
 7651SOL    HW123852   2.572   5.773   4.577
 7651SOL    HW223853   2.665   5.646   4.534
 7652SOL     OW23854   5.807   2.844   5.284
 7652SOL    HW123855   5.733   2.839   5.216
 7652SOL    HW223856   5.769   2.871   5.373
 7653SOL     OW23857   1.362   1.308   0.178
 7653SOL    HW123858   1.405   1.223   0.209
 7653SOL    HW223859   1.382   1.321   0.081
 7654SOL     OW23860   5.379   3.429   5.167
 7654SOL    HW123861   5.337   3.520   5.166
 7654SOL    HW223862   5.478   3.438   5.165
 7655SOL     OW23863   3.921   0.299   3.759
 7655SOL    HW123864   3.947   0.373   3.696
 7655SOL    HW223865   3.984   0.222   3.748
 7656SOL     OW23866   5.615   3.004   6.199
 7656SOL    HW123867   5.607   2.904   6.196
 7656SOL    HW223868   5.675   3.035   6.125
 7657SOL     OW23869   1.983   2.989   4.019
 7657SOL    HW123870   2.012   3.032   3.933
 7657SOL    HW223871   2.029   3.033   4.096
 7658SOL     OW23872   3.054   0.177   0.935
 7658SOL    HW123873   3.057   0.237   0.856
 7658SOL    HW223874   3.068   0.230   1.018
 7659SOL     OW23875   4.670   3.959   0.155
 7659SOL    HW123876   4.725   4.021   0.210
 7659SOL    HW223877   4.625   4.011   0.081
 7660SOL     OW23878   6.160   5.393   4.865
 7660SOL    HW123879   6.122   5.430   4.950
 7660SOL    HW223880   6.142   5.295   4.860
 7661SOL     OW23881   4.632   1.904   5.853
 7661SOL    HW123882   4.581   1.876   5.934
 7661SOL    HW223883   4.613   2.000   5.833
 7662SOL     OW23884   0.682   2.519   3.375
 7662SOL    HW123885   0.772   2.553   3.402
 7662SOL    HW223886   0.688   2.481   3.282
 7663SOL     OW23887   4.806   5.525   6.676
 7663SOL    HW123888   4.827   5.571   6.589
 7663SOL    HW223889   4.764   5.590   6.739
 7664SOL     OW23890   3.842   1.194   3.126
 7664SOL    HW123891   3.754   1.216   3.166
 7664SOL    HW223892   3.871   1.267   3.064
 7665SOL     OW23893   5.674   1.508   4.304
 7665SOL    HW123894   5.673   1.606   4.283
 7665SOL    HW223895   5.743   1.490   4.373
 7666SOL     OW23896   6.969   5.374   4.350
 7666SOL    HW123897   6.974   5.330   4.261
 7666SOL    HW223898   6.968   5.473   4.339
 7667SOL     OW23899   4.190   0.673   2.782
 7667SOL    HW123900   4.110   0.730   2.761
 7667SOL    HW223901   4.261   0.690   2.714
 7668SOL     OW23902   2.852   4.934   0.615
 7668SOL    HW123903   2.883   4.938   0.709
 7668SOL    HW223904   2.930   4.926   0.554
 7669SOL     OW23905   4.180   0.845   5.401
 7669SOL    HW123906   4.263   0.870   5.352
 7669SOL    HW223907   4.194   0.860   5.499
 7670SOL     OW23908   0.738   6.188   0.904
 7670SOL    HW123909   0.802   6.241   0.959
 7670SOL    HW223910   0.645   6.217   0.923
 7671SOL     OW23911   4.881   6.772   2.719
 7671SOL    HW123912   4.978   6.796   2.713
 7671SOL    HW223913   4.871   6.674   2.735
 7672SOL     OW23914   6.561   5.004   3.473
 7672SOL    HW123915   6.614   4.939   3.528
 7672SOL    HW223916   6.624   5.059   3.418
 7673SOL     OW23917   1.821   5.780   2.521
 7673SOL    HW123918   1.781   5.827   2.442
 7673SOL    HW223919   1.860   5.693   2.491
 7674SOL     OW23920   4.298   0.425   4.107
 7674SOL    HW123921   4.235   0.463   4.039
 7674SOL    HW223922   4.263   0.444   4.199
 7675SOL     OW23923   4.338   6.654   3.516
 7675SOL    HW123924   4.329   6.647   3.416
 7675SOL    HW223925   4.282   6.583   3.559
 7676SOL     OW23926   3.119   2.012   6.050
 7676SOL    HW123927   3.142   2.102   6.085
 7676SOL    HW223928   3.140   2.007   5.952
 7677SOL     OW23929   0.761   4.646   0.705
 7677SOL    HW123930   0.791   4.653   0.610
 7677SOL    HW223931   0.675   4.595   0.709
 7678SOL     OW23932   1.463   2.697   5.019
 7678SOL    HW123933   1.489   2.636   4.944
 7678SOL    HW223934   1.469   2.792   4.989
 7679SOL     OW23935   2.127   5.335   5.424
 7679SOL    HW123936   2.136   5.382   5.336
 7679SOL    HW223937   2.042   5.282   5.425
 7680SOL     OW23938   1.431   0.256   6.044
 7680SOL    HW123939   1.375   0.250   5.962
 7680SOL    HW223940   1.524   0.283   6.019
 7681SOL     OW23941   2.514   1.786   6.898
 7681SOL    HW123942   2.466   1.844   6.832
 7681SOL    HW223943   2.612   1.805   6.893
 7682SOL     OW23944   4.104   1.697   2.290
 7682SOL    HW123945   4.186   1.752   2.278
 7682SOL    HW223946   4.123   1.603   2.264
 7683SOL     OW23947   0.828   1.424   4.881
 7683SOL    HW123948   0.775   1.392   4.960
 7683SOL    HW223949   0.768   1.429   4.801
 7684SOL     OW23950   4.154   2.338   1.798
 7684SOL    HW123951   4.103   2.297   1.874
 7684SOL    HW223952   4.247   2.358   1.827
 7685SOL     OW23953   3.482   1.572   6.924
 7685SOL    HW123954   3.391   1.587   6.885
 7685SOL    HW223955   3.510   1.477   6.906
 7686SOL     OW23956   5.498   6.709   4.708
 7686SOL    HW123957   5.527   6.771   4.636
 7686SOL    HW223958   5.449   6.760   4.778
 7687SOL     OW23959   4.977   5.075   5.022
 7687SOL    HW123960   4.970   5.025   5.108
 7687SOL    HW223961   4.886   5.088   4.982
 7688SOL     OW23962   0.010   6.099   5.965
 7688SOL    HW123963   0.064   6.096   6.048
 7688SOL    HW223964   0.044   6.029   5.901
 7689SOL     OW23965   4.851   0.335   2.468
 7689SOL    HW123966   4.865   0.238   2.492
 7689SOL    HW223967   4.784   0.341   2.394
 7690SOL     OW23968   5.517   5.218   0.509
 7690SOL    HW123969   5.510   5.207   0.608
 7690SOL    HW223970   5.426   5.221   0.469
 7691SOL     OW23971   4.615   4.628   1.672
 7691SOL    HW123972   4.542   4.580   1.622
 7691SOL    HW223973   4.626   4.587   1.762
 7692SOL     OW23974   0.359   6.237   1.689
 7692SOL    HW123975   0.442   6.198   1.727
 7692SOL    HW223976   0.378   6.327   1.651
 7693SOL     OW23977   3.458   0.208   1.735
 7693SOL    HW123978   3.472   0.126   1.680
 7693SOL    HW223979   3.420   0.281   1.678
 7694SOL     OW23980   5.601   2.400   4.429
 7694SOL    HW123981   5.564   2.421   4.339
 7694SOL    HW223982   5.679   2.459   4.449
 7695SOL     OW23983   5.795   0.568   1.951
 7695SOL    HW123984   5.836   0.481   1.923
 7695SOL    HW223985   5.865   0.639   1.952
 7696SOL     OW23986   0.538   1.123   6.116
 7696SOL    HW123987   0.616   1.113   6.053
 7696SOL    HW223988   0.560   1.077   6.202
 7697SOL     OW23989   3.217   0.537   2.651
 7697SOL    HW123990   3.275   0.501   2.578
 7697SOL    HW223991   3.247   0.629   2.676
 7698SOL     OW23992   6.498   1.709   5.191
 7698SOL    HW123993   6.592   1.706   5.158
 7698SOL    HW223994   6.470   1.618   5.222
 7699SOL     OW23995   2.426   5.172   6.907
 7699SOL    HW123996   2.333   5.165   6.872
 7699SOL    HW223997   2.481   5.225   6.841
 7700SOL     OW23998   4.268   6.153   3.063
 7700SOL    HW123999   4.246   6.059   3.091
 7700SOL    HW224000   4.249   6.164   2.966
 7701SOL     OW24001   0.059   1.841   6.432
 7701SOL    HW124002   0.112   1.925   6.432
 7701SOL    HW224003   0.068   1.794   6.520
 7702SOL     OW24004   4.311   5.951   5.080
 7702SOL    HW124005   4.258   5.983   5.158
 7702SOL    HW224006   4.400   5.917   5.111
 7703SOL     OW24007   6.266   6.979   5.357
 7703SOL    HW124008   6.224   0.038   5.316
 7703SOL    HW224009   6.272   6.992   5.456
 7704SOL     OW24010   6.301   2.011   4.292
 7704SOL    HW124011   6.327   2.102   4.259
 7704SOL    HW224012   6.209   2.015   4.330
 7705SOL     OW24013   2.601   5.060   0.641
 7705SOL    HW124014   2.677   5.007   0.605
 7705SOL    HW224015   2.532   5.072   0.570
 7706SOL     OW24016   3.195   3.069   3.364
 7706SOL    HW124017   3.291   3.064   3.334
 7706SOL    HW224018   3.183   3.009   3.443
 7707SOL     OW24019   0.251   4.932   6.397
 7707SOL    HW124020   0.230   4.836   6.413
 7707SOL    HW224021   0.190   4.990   6.451
 7708SOL     OW24022   1.258   0.035   4.150
 7708SOL    HW124023   1.342   0.004   4.104
 7708SOL    HW224024   1.253   0.135   4.145
 7709SOL     OW24025   6.503   5.131   1.125
 7709SOL    HW124026   6.582   5.185   1.096
 7709SOL    HW224027   6.484   5.149   1.221
 7710SOL     OW24028   2.170   2.258   1.023
 7710SOL    HW124029   2.184   2.352   1.053
 7710SOL    HW224030   2.078   2.249   0.984
 7711SOL     OW24031   6.570   5.748   5.644
 7711SOL    HW124032   6.652   5.715   5.691
 7711SOL    HW224033   6.580   5.846   5.623
 7712SOL     OW24034   6.213   4.593   6.965
 7712SOL    HW124035   6.244   4.686   6.986
 7712SOL    HW224036   6.113   4.589   6.972
 7713SOL     OW24037   1.968   4.077   1.096
 7713SOL    HW124038   1.894   4.123   1.047
 7713SOL    HW224039   2.056   4.111   1.063
 7714SOL     OW24040   0.256   6.771   5.080
 7714SOL    HW124041   0.353   6.747   5.088
 7714SOL    HW224042   0.200   6.695   5.114
 7715SOL     OW24043   2.619   1.958   6.506
 7715SOL    HW124044   2.535   1.905   6.520
 7715SOL    HW224045   2.602   2.053   6.531
 7716SOL     OW24046   6.853   5.178   0.105
 7716SOL    HW124047   6.887   5.170   0.012
 7716SOL    HW224048   6.754   5.170   0.106
 7717SOL     OW24049   1.321   1.792   5.131
 7717SOL    HW124050   1.307   1.827   5.039
 7717SOL    HW224051   1.310   1.866   5.197
 7718SOL     OW24052   6.942   4.663   3.223
 7718SOL    HW124053   6.842   4.657   3.213
 7718SOL    HW224054   6.965   4.751   3.264
 7719SOL     OW24055   0.901   4.437   4.938
 7719SOL    HW124056   0.822   4.431   4.878
 7719SOL    HW224057   0.908   4.531   4.974
 7720SOL     OW24058   6.407   1.858   5.738
 7720SOL    HW124059   6.310   1.838   5.752
 7720SOL    HW224060   6.421   1.957   5.745
 7721SOL     OW24061   0.657   0.322   2.229
 7721SOL    HW124062   0.635   0.412   2.191
 7721SOL    HW224063   0.712   0.334   2.311
 7722SOL     OW24064   2.103   5.647   3.982
 7722SOL    HW124065   2.202   5.633   3.980
 7722SOL    HW224066   2.058   5.575   3.929
 7723SOL     OW24067   4.709   3.612   6.682
 7723SOL    HW124068   4.690   3.673   6.759
 7723SOL    HW224069   4.635   3.620   6.614
 7724SOL     OW24070   3.294   4.207   0.637
 7724SOL    HW124071   3.337   4.208   0.727
 7724SOL    HW224072   3.264   4.114   0.616
 7725SOL     OW24073   5.843   2.568   2.666
 7725SOL    HW124074   5.795   2.581   2.753
 7725SOL    HW224075   5.850   2.471   2.645
 7726SOL     OW24076   0.652   2.706   5.875
 7726SOL    HW124077   0.716   2.727   5.801
 7726SOL    HW224078   0.571   2.764   5.866
 7727SOL     OW24079   6.081   2.858   1.612
 7727SOL    HW124080   5.989   2.887   1.587
 7727SOL    HW224081   6.097   2.765   1.581
 7728SOL     OW24082   2.139   3.146   5.106
 7728SOL    HW124083   2.067   3.107   5.050
 7728SOL    HW224084   2.224   3.095   5.091
 7729SOL     OW24085   5.885   1.597   1.827
 7729SOL    HW124086   5.819   1.524   1.848
 7729SOL    HW224087   5.936   1.621   1.909
 7730SOL     OW24088   6.112   4.532   4.964
 7730SOL    HW124089   6.089   4.589   5.044
 7730SOL    HW224090   6.203   4.494   4.976
 7731SOL     OW24091   6.231   0.149   0.644
 7731SOL    HW124092   6.190   0.235   0.674
 7731SOL    HW224093   6.177   0.072   0.677
 7732SOL     OW24094   3.935   0.347   0.009
 7732SOL    HW124095   3.970   0.439   0.027
 7732SOL    HW224096   4.002   0.279   0.037
 7733SOL     OW24097   6.312   5.645   2.632
 7733SOL    HW124098   6.340   5.619   2.724
 7733SOL    HW224099   6.278   5.564   2.584
 7734SOL     OW24100   2.587   4.967   4.610
 7734SOL    HW124101   2.684   4.982   4.628
 7734SOL    HW224102   2.532   5.008   4.683
 7735SOL     OW24103   6.343   5.832   0.055
 7735SOL    HW124104   6.276   5.813   0.127
 7735SOL    HW224105   6.295   5.857   6.993
 7736SOL     OW24106   2.398   2.819   0.360
 7736SOL    HW124107   2.306   2.796   0.394
 7736SOL    HW224108   2.437   2.891   0.416
 7737SOL     OW24109   3.394   5.324   1.789
 7737SOL    HW124110   3.374   5.257   1.861
 7737SOL    HW224111   3.319   5.325   1.723
 7738SOL     OW24112   2.504   6.073   6.888
 7738SOL    HW124113   2.504   6.134   6.808
 7738SOL    HW224114   2.516   6.127   6.971
 7739SOL     OW24115   1.018   2.087   1.718
 7739SOL    HW124116   1.103   2.049   1.682
 7739SOL    HW224117   1.031   2.112   1.814
 7740SOL     OW24118   1.928   1.312   2.648
 7740SOL    HW124119   1.982   1.291   2.566
 7740SOL    HW224120   1.844   1.358   2.621
 7741SOL     OW24121   1.127   3.983   4.903
 7741SOL    HW124122   1.118   4.082   4.905
 7741SOL    HW224123   1.203   3.955   4.962
 7742SOL     OW24124   3.897   1.759   3.941
 7742SOL    HW124125   3.878   1.675   3.890
 7742SOL    HW224126   3.942   1.737   4.027
 7743SOL     OW24127   5.022   0.814   7.020
 7743SOL    HW124128   4.981   0.754   0.067
 7743SOL    HW224129   5.039   0.762   6.936
 7744SOL     OW24130   0.626   6.296   3.340
 7744SOL    HW124131   0.690   6.312   3.265
 7744SOL    HW224132   0.533   6.311   3.309
 7745SOL     OW24133   2.348   6.625   0.214
 7745SOL    HW124134   2.354   6.724   0.198
 7745SOL    HW224135   2.254   6.601   0.237
 7746SOL     OW24136   1.155   0.066   0.702
 7746SOL    HW124137   1.082   7.020   0.705
 7746SOL    HW224138   1.166   0.106   0.793
 7747SOL     OW24139   0.632   5.966   1.154
 7747SOL    HW124140   0.661   5.870   1.156
 7747SOL    HW224141   0.541   5.973   1.113
 7748SOL     OW24142   3.184   3.519   4.912
 7748SOL    HW124143   3.163   3.504   5.009
 7748SOL    HW224144   3.127   3.592   4.876
 7749SOL     OW24145   3.222   3.894   3.548
 7749SOL    HW124146   3.145   3.885   3.485
 7749SOL    HW224147   3.248   3.804   3.583
 7750SOL     OW24148   5.677   5.398   5.747
 7750SOL    HW124149   5.670   5.304   5.780
 7750SOL    HW224150   5.616   5.457   5.799
 7751SOL     OW24151   0.909   1.950   3.277
 7751SOL    HW124152   0.949   1.941   3.186
 7751SOL    HW224153   0.882   2.045   3.293
 7752SOL     OW24154   5.451   5.518   5.835
 7752SOL    HW124155   5.470   5.608   5.874
 7752SOL    HW224156   5.426   5.528   5.739
 7753SOL     OW24157   2.074   0.773   4.150
 7753SOL    HW124158   2.118   0.712   4.084
 7753SOL    HW224159   2.099   0.868   4.131
 7754SOL     OW24160   5.294   0.396   1.723
 7754SOL    HW124161   5.257   0.486   1.701
 7754SOL    HW224162   5.275   0.374   1.819
 7755SOL     OW24163   0.654   0.555   5.787
 7755SOL    HW124164   0.714   0.482   5.757
 7755SOL    HW224165   0.682   0.586   5.879
 7756SOL     OW24166   2.560   5.879   2.419
 7756SOL    HW124167   2.594   5.957   2.367
 7756SOL    HW224168   2.496   5.827   2.364
 7757SOL     OW24169   4.918   6.338   4.848
 7757SOL    HW124170   4.933   6.357   4.945
 7757SOL    HW224171   4.998   6.293   4.810
 7758SOL     OW24172   1.689   2.104   6.772
 7758SOL    HW124173   1.746   2.026   6.750
 7758SOL    HW224174   1.710   2.180   6.709
 7759SOL     OW24175   1.729   1.113   4.843
 7759SOL    HW124176   1.724   1.014   4.852
 7759SOL    HW224177   1.644   1.154   4.877
 7760SOL     OW24178   5.677   3.566   2.322
 7760SOL    HW124179   5.608   3.512   2.273
 7760SOL    HW224180   5.728   3.622   2.256
 7761SOL     OW24181   2.753   0.273   6.417
 7761SOL    HW124182   2.692   0.222   6.356
 7761SOL    HW224183   2.781   0.358   6.373
 7762SOL     OW24184   3.776   0.719   5.549
 7762SOL    HW124185   3.745   0.812   5.526
 7762SOL    HW224186   3.849   0.692   5.487
 7763SOL     OW24187   1.594   1.797   1.210
 7763SOL    HW124188   1.548   1.710   1.191
 7763SOL    HW224189   1.692   1.787   1.195
 7764SOL     OW24190   3.872   3.031   2.769
 7764SOL    HW124191   3.899   3.103   2.704
 7764SOL    HW224192   3.823   2.959   2.720
 7765SOL     OW24193   6.077   3.238   3.778
 7765SOL    HW124194   5.987   3.213   3.815
 7765SOL    HW224195   6.119   3.307   3.836
 7766SOL     OW24196   5.212   1.799   6.798
 7766SOL    HW124197   5.213   1.879   6.737
 7766SOL    HW224198   5.118   1.763   6.804
 7767SOL     OW24199   3.796   6.834   4.384
 7767SOL    HW124200   3.738   6.813   4.306
 7767SOL    HW224201   3.778   6.769   4.458
 7768SOL     OW24202   4.346   5.077   2.611
 7768SOL    HW124203   4.400   4.999   2.580
 7768SOL    HW224204   4.256   5.074   2.568
 7769SOL     OW24205   5.262   1.280   1.626
 7769SOL    HW124206   5.238   1.197   1.577
 7769SOL    HW224207   5.355   1.309   1.601
 7770SOL     OW24208   2.002   4.057   1.875
 7770SOL    HW124209   1.937   4.008   1.933
 7770SOL    HW224210   2.041   4.134   1.925
 7771SOL     OW24211   2.762   2.547   5.293
 7771SOL    HW124212   2.802   2.634   5.322
 7771SOL    HW224213   2.695   2.564   5.220
 7772SOL     OW24214   5.210   1.065   3.831
 7772SOL    HW124215   5.159   1.133   3.779
 7772SOL    HW224216   5.248   0.997   3.769
 7773SOL     OW24217   2.739   4.912   5.366
 7773SOL    HW124218   2.654   4.912   5.420
 7773SOL    HW224219   2.793   4.832   5.390
 7774SOL     OW24220   5.848   2.058   6.231
 7774SOL    HW124221   5.749   2.058   6.250
 7774SOL    HW224222   5.898   2.060   6.318
 7775SOL     OW24223   3.642   6.856   2.976
 7775SOL    HW124224   3.577   6.932   2.987
 7775SOL    HW224225   3.733   6.886   3.004
 7776SOL     OW24226   2.920   3.070   6.603
 7776SOL    HW124227   2.839   3.065   6.544
 7776SOL    HW224228   2.972   2.985   6.596
 7777SOL     OW24229   2.659   1.576   5.450
 7777SOL    HW124230   2.637   1.586   5.547
 7777SOL    HW224231   2.758   1.571   5.438
 7778SOL     OW24232   4.953   6.502   6.960
 7778SOL    HW124233   5.020   6.442   7.006
 7778SOL    HW224234   4.968   6.596   6.989
 7779SOL     OW24235   3.869   3.020   0.547
 7779SOL    HW124236   3.776   3.017   0.512
 7779SOL    HW224237   3.868   3.006   0.647
 7780SOL     OW24238   1.629   5.371   4.833
 7780SOL    HW124239   1.585   5.460   4.826
 7780SOL    HW224240   1.691   5.358   4.756
 7781SOL     OW24241   1.744   4.061   6.366
 7781SOL    HW124242   1.652   4.091   6.393
 7781SOL    HW224243   1.746   4.046   6.267
 7782SOL     OW24244   1.772   3.243   5.488
 7782SOL    HW124245   1.672   3.232   5.487
 7782SOL    HW224246   1.815   3.155   5.470
 7783SOL     OW24247   3.054   6.656   6.003
 7783SOL    HW124248   3.142   6.703   6.005
 7783SOL    HW224249   2.986   6.709   6.053
 7784SOL     OW24250   1.972   2.257   0.282
 7784SOL    HW124251   1.967   2.158   0.271
 7784SOL    HW224252   2.040   2.294   0.219
 7785SOL     OW24253   1.463   6.754   3.898
 7785SOL    HW124254   1.452   6.851   3.877
 7785SOL    HW224255   1.464   6.742   3.997
 7786SOL     OW24256   3.420   5.541   6.489
 7786SOL    HW124257   3.494   5.474   6.481
 7786SOL    HW224258   3.459   5.633   6.495
 7787SOL     OW24259   1.851   3.049   5.256
 7787SOL    HW124260   1.785   2.975   5.260
 7787SOL    HW224261   1.805   3.134   5.229
 7788SOL     OW24262   1.460   0.878   1.599
 7788SOL    HW124263   1.532   0.810   1.585
 7788SOL    HW224264   1.448   0.895   1.697
 7789SOL     OW24265   3.219   0.007   0.500
 7789SOL    HW124266   3.273   0.061   0.563
 7789SOL    HW224267   3.144   0.063   0.463
 7790SOL     OW24268   6.112   4.807   2.406
 7790SOL    HW124269   6.203   4.790   2.443
 7790SOL    HW224270   6.078   4.725   2.361
 7791SOL     OW24271   3.205   6.791   3.977
 7791SOL    HW124272   3.239   6.878   3.942
 7791SOL    HW224273   3.282   6.734   4.005
 7792SOL     OW24274   1.403   5.475   6.092
 7792SOL    HW124275   1.453   5.451   6.176
 7792SOL    HW224276   1.383   5.573   6.092
 7793SOL     OW24277   1.590   0.709   5.845
 7793SOL    HW124278   1.596   0.610   5.857
 7793SOL    HW224279   1.640   0.755   5.919
 7794SOL     OW24280   5.159   5.490   3.774
 7794SOL    HW124281   5.212   5.568   3.742
 7794SOL    HW224282   5.132   5.504   3.869
 7795SOL     OW24283   1.846   4.117   4.831
 7795SOL    HW124284   1.754   4.122   4.870
 7795SOL    HW224285   1.912   4.105   4.905
 7796SOL     OW24286   3.149   3.993   4.081
 7796SOL    HW124287   3.084   4.065   4.105
 7796SOL    HW224288   3.171   3.999   3.984
 7797SOL     OW24289   0.869   5.789   2.441
 7797SOL    HW124290   0.934   5.761   2.370
 7797SOL    HW224291   0.780   5.749   2.422
 7798SOL     OW24292   1.509   5.033   6.381
 7798SOL    HW124293   1.525   5.058   6.476
 7798SOL    HW224294   1.593   4.999   6.340
 7799SOL     OW24295   7.009   6.457   2.081
 7799SOL    HW124296   6.922   6.444   2.127
 7799SOL    HW224297   7.000   6.527   2.010
 7800SOL     OW24298   1.170   4.947   1.152
 7800SOL    HW124299   1.072   4.965   1.137
 7800SOL    HW224300   1.180   4.885   1.230
 7801SOL     OW24301   2.494   1.692   1.712
 7801SOL    HW124302   2.490   1.785   1.675
 7801SOL    HW224303   2.458   1.627   1.645
 7802SOL     OW24304   5.453   2.710   1.232
 7802SOL    HW124305   5.521   2.783   1.243
 7802SOL    HW224306   5.465   2.666   1.143
 7803SOL     OW24307   4.446   3.414   5.793
 7803SOL    HW124308   4.482   3.374   5.709
 7803SOL    HW224309   4.444   3.514   5.784
 7804SOL     OW24310   6.029   1.191   3.643
 7804SOL    HW124311   6.035   1.094   3.617
 7804SOL    HW224312   5.950   1.204   3.703
 7805SOL     OW24313   5.369   1.004   1.474
 7805SOL    HW124314   5.274   0.986   1.498
 7805SOL    HW224315   5.422   1.016   1.558
 7806SOL     OW24316   5.603   2.896   5.875
 7806SOL    HW124317   5.676   2.958   5.845
 7806SOL    HW224318   5.515   2.935   5.850
 7807SOL     OW24319   0.492   5.042   6.439
 7807SOL    HW124320   0.405   4.994   6.423
 7807SOL    HW224321   0.478   5.140   6.428
 7808SOL     OW24322   0.082   3.335   4.331
 7808SOL    HW124323   7.006   3.329   4.309
 7808SOL    HW224324   0.135   3.286   4.262
 7809SOL     OW24325   2.898   5.791   5.012
 7809SOL    HW124326   2.921   5.696   5.034
 7809SOL    HW224327   2.970   5.831   4.956
 7810SOL     OW24328   3.648   0.092   5.374
 7810SOL    HW124329   3.675   0.060   5.465
 7810SOL    HW224330   3.711   0.055   5.305
 7811SOL     OW24331   6.911   4.516   4.275
 7811SOL    HW124332   6.886   4.429   4.231
 7811SOL    HW224333   6.942   4.581   4.205
 7812SOL     OW24334   0.945   2.134   4.047
 7812SOL    HW124335   1.025   2.137   3.987
 7812SOL    HW224336   0.862   2.137   3.991
 7813SOL     OW24337   4.559   2.342   6.046
 7813SOL    HW124338   4.595   2.294   5.966
 7813SOL    HW224339   4.575   2.286   6.128
 7814SOL     OW24340   6.774   3.296   3.677
 7814SOL    HW124341   6.750   3.247   3.593
 7814SOL    HW224342   6.844   3.245   3.726
 7815SOL     OW24343   5.279   0.908   6.961
 7815SOL    HW124344   5.285   0.809   6.948
 7815SOL    HW224345   5.188   0.932   6.995
 7816SOL     OW24346   1.558   2.429   6.438
 7816SOL    HW124347   1.626   2.439   6.366
 7816SOL    HW224348   1.514   2.340   6.431
 7817SOL     OW24349   6.146   3.628   4.072
 7817SOL    HW124350   6.108   3.596   3.985
 7817SOL    HW224351   6.154   3.728   4.069
 7818SOL     OW24352   4.388   0.981   2.753
 7818SOL    HW124353   4.385   0.891   2.709
 7818SOL    HW224354   4.376   1.053   2.685
 7819SOL     OW24355   6.831   3.203   1.540
 7819SOL    HW124356   6.749   3.215   1.596
 7819SOL    HW224357   6.902   3.158   1.595
 7820SOL     OW24358   1.549   2.255   4.703
 7820SOL    HW124359   1.587   2.334   4.751
 7820SOL    HW224360   1.590   2.247   4.613
 7821SOL     OW24361   4.807   6.036   1.018
 7821SOL    HW124362   4.902   6.048   0.989
 7821SOL    HW224363   4.801   5.958   1.080
 7822SOL     OW24364   0.041   0.752   5.153
 7822SOL    HW124365   6.984   0.693   5.138
 7822SOL    HW224366   0.117   0.699   5.189
 7823SOL     OW24367   2.052   3.758   5.011
 7823SOL    HW124368   1.960   3.758   5.050
 7823SOL    HW224369   2.060   3.834   4.946
 7824SOL     OW24370   6.200   2.001   5.463
 7824SOL    HW124371   6.295   2.033   5.465
 7824SOL    HW224372   6.142   2.073   5.424
 7825SOL     OW24373   1.784   2.982   0.362
 7825SOL    HW124374   1.874   3.022   0.378
 7825SOL    HW224375   1.723   3.004   0.438
 7826SOL     OW24376   6.117   1.153   1.169
 7826SOL    HW124377   6.116   1.063   1.213
 7826SOL    HW224378   6.200   1.202   1.197
 7827SOL     OW24379   1.793   5.919   1.158
 7827SOL    HW124380   1.826   5.830   1.190
 7827SOL    HW224381   1.839   5.992   1.208
 7828SOL     OW24382   6.145   4.709   0.475
 7828SOL    HW124383   6.196   4.660   0.405
 7828SOL    HW224384   6.135   4.652   0.556
 7829SOL     OW24385   3.045   3.284   0.968
 7829SOL    HW124386   3.114   3.356   0.955
 7829SOL    HW224387   3.004   3.293   1.059
 7830SOL     OW24388   3.240   4.999   5.618
 7830SOL    HW124389   3.255   4.991   5.520
 7830SOL    HW224390   3.159   5.056   5.634
 7831SOL     OW24391   1.984   0.455   2.221
 7831SOL    HW124392   2.062   0.417   2.172
 7831SOL    HW224393   1.990   0.431   2.317
 7832SOL     OW24394   6.173   0.497   4.783
 7832SOL    HW124395   6.206   0.585   4.748
 7832SOL    HW224396   6.078   0.485   4.756
 7833SOL     OW24397   1.150   0.974   4.948
 7833SOL    HW124398   1.202   0.948   4.866
 7833SOL    HW224399   1.057   0.998   4.922
 7834SOL     OW24400   6.912   1.845   3.418
 7834SOL    HW124401   6.888   1.752   3.392
 7834SOL    HW224402   6.828   1.901   3.422
 7835SOL     OW24403   4.294   1.727   5.313
 7835SOL    HW124404   4.384   1.695   5.343
 7835SOL    HW224405   4.280   1.821   5.342
 7836SOL     OW24406   3.296   4.284   5.340
 7836SOL    HW124407   3.280   4.382   5.325
 7836SOL    HW224408   3.284   4.263   5.437
 7837SOL     OW24409   5.116   5.770   0.109
 7837SOL    HW124410   5.107   5.718   0.024
 7837SOL    HW224411   5.027   5.804   0.137
 7838SOL     OW24412   4.161   6.315   1.086
 7838SOL    HW124413   4.212   6.250   1.143
 7838SOL    HW224414   4.198   6.407   1.098
 7839SOL     OW24415   6.053   3.714   5.124
 7839SOL    HW124416   6.079   3.685   5.216
 7839SOL    HW224417   6.122   3.777   5.088
 7840SOL     OW24418   0.122   3.507   4.529
 7840SOL    HW124419   0.192   3.573   4.500
 7840SOL    HW224420   0.104   3.443   4.454
 7841SOL     OW24421   4.434   1.428   6.715
 7841SOL    HW124422   4.473   1.506   6.763
 7841SOL    HW224423   4.493   1.401   6.640
 7842SOL     OW24424   2.089   1.252   2.402
 7842SOL    HW124425   2.131   1.320   2.343
 7842SOL    HW224426   2.149   1.172   2.410
 7843SOL     OW24427   0.208   6.705   3.713
 7843SOL    HW124428   0.145   6.773   3.674
 7843SOL    HW224429   0.285   6.691   3.651
 7844SOL     OW24430   3.690   0.600   2.238
 7844SOL    HW124431   3.680   0.692   2.274
 7844SOL    HW224432   3.782   0.588   2.200
 7845SOL     OW24433   5.570   1.755   2.365
 7845SOL    HW124434   5.513   1.832   2.337
 7845SOL    HW224435   5.563   1.682   2.297
 7846SOL     OW24436   1.305   2.461   1.339
 7846SOL    HW124437   1.394   2.474   1.296
 7846SOL    HW224438   1.316   2.444   1.436
 7847SOL     OW24439   6.312   1.375   3.711
 7847SOL    HW124440   6.225   1.327   3.720
 7847SOL    HW224441   6.321   1.443   3.784
 7848SOL     OW24442   3.001   4.315   1.075
 7848SOL    HW124443   2.939   4.240   1.098
 7848SOL    HW224444   3.025   4.365   1.159
 7849SOL     OW24445   5.856   4.042   4.880
 7849SOL    HW124446   5.838   3.948   4.850
 7849SOL    HW224447   5.937   4.076   4.833
 7850SOL     OW24448   0.297   1.900   3.844
 7850SOL    HW124449   0.242   1.915   3.762
 7850SOL    HW224450   0.388   1.868   3.818
 7851SOL     OW24451   1.011   2.803   1.491
 7851SOL    HW124452   1.026   2.715   1.445
 7851SOL    HW224453   1.064   2.874   1.445
 7852SOL     OW24454   3.172   0.703   0.327
 7852SOL    HW124455   3.079   0.667   0.315
 7852SOL    HW224456   3.173   0.801   0.305
 7853SOL     OW24457   4.609   2.969   1.352
 7853SOL    HW124458   4.690   2.941   1.302
 7853SOL    HW224459   4.533   2.908   1.330
 7854SOL     OW24460   3.412   2.528   6.164
 7854SOL    HW124461   3.363   2.544   6.249
 7854SOL    HW224462   3.484   2.460   6.180
 7855SOL     OW24463   4.500   6.202   4.758
 7855SOL    HW124464   4.562   6.124   4.752
 7855SOL    HW224465   4.405   6.170   4.758
 7856SOL     OW24466   0.299   5.231   5.339
 7856SOL    HW124467   0.346   5.244   5.252
 7856SOL    HW224468   0.237   5.153   5.333
 7857SOL     OW24469   5.025   3.623   0.690
 7857SOL    HW124470   4.965   3.588   0.619
 7857SOL    HW224471   4.983   3.703   0.733
 7858SOL     OW24472   6.838   6.523   4.688
 7858SOL    HW124473   6.852   6.432   4.650
 7858SOL    HW224474   6.858   6.591   4.618
 7859SOL     OW24475   4.690   3.760   6.955
 7859SOL    HW124476   4.728   3.674   6.989
 7859SOL    HW224477   4.696   3.830   0.004
 7860SOL     OW24478   4.343   0.995   4.610
 7860SOL    HW124479   4.266   0.949   4.566
 7860SOL    HW224480   4.355   1.085   4.568
 7861SOL     OW24481   2.646   5.174   1.665
 7861SOL    HW124482   2.628   5.204   1.759
 7861SOL    HW224483   2.630   5.075   1.659
 7862SOL     OW24484   1.977   6.108   2.395
 7862SOL    HW124485   2.025   6.195   2.410
 7862SOL    HW224486   2.012   6.065   2.312
 7863SOL     OW24487   0.941   4.740   3.680
 7863SOL    HW124488   0.949   4.825   3.628
 7863SOL    HW224489   0.888   4.674   3.627
 7864SOL     OW24490   1.626   5.675   6.224
 7864SOL    HW124491   1.680   5.613   6.281
 7864SOL    HW224492   1.608   5.760   6.275
 7865SOL     OW24493   6.197   5.421   4.419
 7865SOL    HW124494   6.205   5.492   4.489
 7865SOL    HW224495   6.162   5.338   4.460
 7866SOL     OW24496   1.182   0.561   5.661
 7866SOL    HW124497   1.104   0.613   5.626
 7866SOL    HW224498   1.255   0.624   5.687
 7867SOL     OW24499   5.524   6.743   3.403
 7867SOL    HW124500   5.424   6.739   3.399
 7867SOL    HW224501   5.556   6.692   3.483
 7868SOL     OW24502   3.965   5.550   0.424
 7868SOL    HW124503   4.020   5.630   0.396
 7868SOL    HW224504   3.947   5.555   0.522
 7869SOL     OW24505   5.292   4.822   5.550
 7869SOL    HW124506   5.203   4.865   5.531
 7869SOL    HW224507   5.364   4.873   5.502
 7870SOL     OW24508   5.063   6.750   4.933
 7870SOL    HW124509   4.997   6.677   4.951
 7870SOL    HW224510   5.149   6.730   4.980
 7871SOL     OW24511   5.315   2.171   1.863
 7871SOL    HW124512   5.275   2.250   1.817
 7871SOL    HW224513   5.252   2.138   1.933
 7872SOL     OW24514   1.663   4.491   2.331
 7872SOL    HW124515   1.571   4.474   2.295
 7872SOL    HW224516   1.710   4.404   2.345
 7873SOL     OW24517   6.297   0.121   0.360
 7873SOL    HW124518   6.365   0.190   0.337
 7873SOL    HW224519   6.281   0.121   0.458
 7874SOL     OW24520   4.564   2.358   1.266
 7874SOL    HW124521   4.591   2.391   1.175
 7874SOL    HW224522   4.465   2.343   1.268
 7875SOL     OW24523   3.744   3.111   0.204
 7875SOL    HW124524   3.765   3.053   0.282
 7875SOL    HW224525   3.707   3.055   0.130
 7876SOL     OW24526   1.180   6.612   3.428
 7876SOL    HW124527   1.098   6.563   3.459
 7876SOL    HW224528   1.246   6.616   3.503
 7877SOL     OW24529   6.855   1.726   3.008
 7877SOL    HW124530   6.792   1.800   3.034
 7877SOL    HW224531   6.846   1.709   2.909
 7878SOL     OW24532   4.887   4.015   3.502
 7878SOL    HW124533   4.893   3.948   3.428
 7878SOL    HW224534   4.852   3.970   3.584
 7879SOL     OW24535   3.631   4.961   2.641
 7879SOL    HW124536   3.687   4.959   2.558
 7879SOL    HW224537   3.595   5.054   2.654
 7880SOL     OW24538   2.530   3.354   0.852
 7880SOL    HW124539   2.567   3.356   0.759
 7880SOL    HW224540   2.432   3.373   0.850
 7881SOL     OW24541   4.788   4.106   4.315
 7881SOL    HW124542   4.863   4.052   4.352
 7881SOL    HW224543   4.816   4.201   4.306
 7882SOL     OW24544   2.437   3.390   1.593
 7882SOL    HW124545   2.531   3.371   1.620
 7882SOL    HW224546   2.382   3.408   1.675
 7883SOL     OW24547   0.888   0.149   5.776
 7883SOL    HW124548   0.932   0.231   5.814
 7883SOL    HW224549   0.793   0.145   5.809
 7884SOL     OW24550   0.914   3.857   4.396
 7884SOL    HW124551   0.922   3.881   4.493
 7884SOL    HW224552   0.963   3.924   4.341
 7885SOL     OW24553   6.591   5.885   0.765
 7885SOL    HW124554   6.603   5.944   0.845
 7885SOL    HW224555   6.540   5.934   0.694
 7886SOL     OW24556   4.455   5.560   0.040
 7886SOL    HW124557   4.501   5.501   6.996
 7886SOL    HW224558   4.371   5.516   0.072
 7887SOL     OW24559   3.557   2.117   6.997
 7887SOL    HW124560   3.584   2.028   6.959
 7887SOL    HW224561   3.622   2.144   0.045
 7888SOL     OW24562   5.927   0.397   3.920
 7888SOL    HW124563   5.916   0.436   3.829
 7888SOL    HW224564   5.921   0.470   3.988
 7889SOL     OW24565   1.477   4.975   1.685
 7889SOL    HW124566   1.481   5.074   1.681
 7889SOL    HW224567   1.518   4.937   1.602
 7890SOL     OW24568   1.871   3.836   2.773
 7890SOL    HW124569   1.860   3.773   2.696
 7890SOL    HW224570   1.968   3.840   2.799
 7891SOL     OW24571   2.123   4.680   3.080
 7891SOL    HW124572   2.134   4.592   3.126
 7891SOL    HW224573   2.028   4.691   3.052
 7892SOL     OW24574   1.981   2.670   4.354
 7892SOL    HW124575   2.074   2.635   4.347
 7892SOL    HW224576   1.979   2.743   4.423
 7893SOL     OW24577   6.067   6.760   2.211
 7893SOL    HW124578   6.163   6.783   2.228
 7893SOL    HW224579   6.059   6.716   2.121
 7894SOL     OW24580   2.903   6.375   1.734
 7894SOL    HW124581   2.920   6.277   1.719
 7894SOL    HW224582   2.805   6.389   1.751
 7895SOL     OW24583   5.854   1.279   5.833
 7895SOL    HW124584   5.893   1.221   5.904
 7895SOL    HW224585   5.864   1.376   5.859
 7896SOL     OW24586   4.708   4.225   6.576
 7896SOL    HW124587   4.807   4.237   6.585
 7896SOL    HW224588   4.689   4.147   6.515
 7897SOL     OW24589   2.806   3.700   6.251
 7897SOL    HW124590   2.876   3.683   6.181
 7897SOL    HW224591   2.730   3.750   6.211
 7898SOL     OW24592   5.094   2.450   3.901
 7898SOL    HW124593   5.140   2.405   3.824
 7898SOL    HW224594   5.076   2.383   3.972
 7899SOL     OW24595   6.797   1.845   1.837
 7899SOL    HW124596   6.706   1.871   1.803
 7899SOL    HW224597   6.809   1.879   1.930
 7900SOL     OW24598   1.559   5.082   0.875
 7900SOL    HW124599   1.464   5.114   0.866
 7900SOL    HW224600   1.612   5.114   0.797
 7901SOL     OW24601   4.812   0.481   5.797
 7901SOL    HW124602   4.877   0.452   5.727
 7901SOL    HW224603   4.719   0.470   5.762
 7902SOL     OW24604   4.870   5.229   1.451
 7902SOL    HW124605   4.856   5.140   1.495
 7902SOL    HW224606   4.798   5.292   1.480
 7903SOL     OW24607   6.115   2.345   0.603
 7903SOL    HW124608   6.201   2.343   0.653
 7903SOL    HW224609   6.045   2.390   0.659
 7904SOL     OW24610   6.141   0.545   2.575
 7904SOL    HW124611   6.142   0.532   2.674
 7904SOL    HW224612   6.234   0.542   2.539
 7905SOL     OW24613   4.787   1.737   0.344
 7905SOL    HW124614   4.851   1.674   0.389
 7905SOL    HW224615   4.695   1.722   0.379
 7906SOL     OW24616   0.571   5.839   6.953
 7906SOL    HW124617   0.523   5.837   0.019
 7906SOL    HW224618   0.624   5.755   6.942
 7907SOL     OW24619   6.287   2.339   4.497
 7907SOL    HW124620   6.234   2.404   4.552
 7907SOL    HW224621   6.297   2.253   4.548
 7908SOL     OW24622   1.189   1.424   4.051
 7908SOL    HW124623   1.144   1.510   4.076
 7908SOL    HW224624   1.249   1.440   3.973
 7909SOL     OW24625   4.981   3.750   4.860
 7909SOL    HW124626   5.064   3.697   4.877
 7909SOL    HW224627   4.910   3.721   4.924
 7910SOL     OW24628   3.327   3.006   5.481
 7910SOL    HW124629   3.279   3.081   5.526
 7910SOL    HW224630   3.378   3.041   5.403
 7911SOL     OW24631   0.455   4.328   6.831
 7911SOL    HW124632   0.499   4.268   6.898
 7911SOL    HW224633   0.516   4.340   6.753
 7912SOL     OW24634   0.158   5.455   0.108
 7912SOL    HW124635   0.216   5.488   0.033
 7912SOL    HW224636   0.107   5.532   0.146
 7913SOL     OW24637   0.667   5.180   6.870
 7913SOL    HW124638   0.618   5.142   6.948
 7913SOL    HW224639   0.757   5.212   6.899
 7914SOL     OW24640   0.248   5.056   0.096
 7914SOL    HW124641   0.192   5.118   0.150
 7914SOL    HW224642   0.222   4.961   0.117
 7915SOL     OW24643   4.807   2.419   2.614
 7915SOL    HW124644   4.729   2.480   2.624
 7915SOL    HW224645   4.881   2.450   2.674
 7916SOL     OW24646   5.669   3.877   5.223
 7916SOL    HW124647   5.698   3.836   5.137
 7916SOL    HW224648   5.747   3.924   5.266
 7917SOL     OW24649   3.853   3.303   3.938
 7917SOL    HW124650   3.926   3.358   3.979
 7917SOL    HW224651   3.869   3.206   3.957
 7918SOL     OW24652   6.776   1.518   1.244
 7918SOL    HW124653   6.817   1.572   1.170
 7918SOL    HW224654   6.835   1.439   1.264
 7919SOL     OW24655   0.148   4.565   3.559
 7919SOL    HW124656   0.090   4.506   3.503
 7919SOL    HW224657   0.226   4.512   3.593
 7920SOL     OW24658   6.967   4.958   1.515
 7920SOL    HW124659   6.978   4.974   1.417
 7920SOL    HW224660   0.005   4.883   1.543
 7921SOL     OW24661   3.775   6.163   0.322
 7921SOL    HW124662   3.829   6.145   0.240
 7921SOL    HW224663   3.730   6.078   0.351
 7922SOL     OW24664   6.549   6.020   0.106
 7922SOL    HW124665   6.486   5.952   0.068
 7922SOL    HW224666   6.559   6.096   0.041
 7923SOL     OW24667   2.031   0.992   3.105
 7923SOL    HW124668   1.950   1.031   3.062
 7923SOL    HW224669   2.015   0.896   3.127
 7924SOL     OW24670   3.834   6.370   3.229
 7924SOL    HW124671   3.818   6.387   3.326
 7924SOL    HW224672   3.757   6.405   3.176
 7925SOL     OW24673   0.373   1.758   6.637
 7925SOL    HW124674   0.397   1.679   6.579
 7925SOL    HW224675   0.275   1.776   6.630
 7926SOL     OW24676   4.229   0.995   4.086
 7926SOL    HW124677   4.259   0.941   4.165
 7926SOL    HW224678   4.308   1.042   4.046
 7927SOL     OW24679   3.986   5.764   4.859
 7927SOL    HW124680   4.071   5.732   4.901
 7927SOL    HW224681   3.969   5.859   4.885
 7928SOL     OW24682   1.122   4.533   3.714
 7928SOL    HW124683   1.090   4.482   3.634
 7928SOL    HW224684   1.079   4.624   3.714
 7929SOL     OW24685   4.078   3.769   4.903
 7929SOL    HW124686   4.002   3.708   4.924
 7929SOL    HW224687   4.054   3.863   4.928
 7930SOL     OW24688   4.818   5.806   3.464
 7930SOL    HW124689   4.824   5.708   3.450
 7930SOL    HW224690   4.722   5.832   3.480
 7931SOL     OW24691   2.078   2.059   6.850
 7931SOL    HW124692   2.095   2.011   6.936
 7931SOL    HW224693   2.051   2.153   6.870
 7932SOL     OW24694   2.406   6.858   0.037
 7932SOL    HW124695   2.501   6.852   0.006
 7932SOL    HW224696   2.403   6.899   0.127
 7933SOL     OW24697   0.002   7.012   0.629
 7933SOL    HW124698   6.933   6.987   0.595
 7933SOL    HW224699   0.070   6.953   0.586
 7934SOL     OW24700   2.504   3.630   0.142
 7934SOL    HW124701   2.522   3.727   0.126
 7934SOL    HW224702   2.522   3.608   0.238
 7935SOL     OW24703   5.365   5.272   0.207
 7935SOL    HW124704   5.426   5.242   0.133
 7935SOL    HW224705   5.282   5.312   0.168
 7936SOL     OW24706   3.385   5.503   2.541
 7936SOL    HW124707   3.297   5.539   2.510
 7936SOL    HW224708   3.376   5.406   2.563
 7937SOL     OW24709   5.196   6.806   4.281
 7937SOL    HW124710   5.249   6.797   4.196
 7937SOL    HW224711   5.101   6.782   4.264
 7938SOL     OW24712   5.435   5.084   4.729
 7938SOL    HW124713   5.472   4.992   4.718
 7938SOL    HW224714   5.458   5.139   4.650
 7939SOL     OW24715   1.119   1.566   6.144
 7939SOL    HW124716   1.143   1.520   6.229
 7939SOL    HW224717   1.066   1.649   6.163
 7940SOL     OW24718   2.540   5.247   2.023
 7940SOL    HW124719   2.524   5.266   2.119
 7940SOL    HW224720   2.614   5.180   2.014
 7941SOL     OW24721   6.769   6.801   1.752
 7941SOL    HW124722   6.817   6.852   1.824
 7941SOL    HW224723   6.678   6.841   1.737
 7942SOL     OW24724   6.881   6.414   2.945
 7942SOL    HW124725   6.940   6.489   2.916
 7942SOL    HW224726   6.806   6.450   3.001
 7943SOL     OW24727   5.605   2.275   0.897
 7943SOL    HW124728   5.576   2.268   0.801
 7943SOL    HW224729   5.688   2.220   0.911
 7944SOL     OW24730   7.011   3.164   0.895
 7944SOL    HW124731   6.946   3.239   0.905
 7944SOL    HW224732   0.034   3.171   0.806
 7945SOL     OW24733   5.184   6.745   2.747
 7945SOL    HW124734   5.264   6.801   2.769
 7945SOL    HW224735   5.206   6.649   2.763
 7946SOL     OW24736   1.412   2.932   5.612
 7946SOL    HW124737   1.339   2.869   5.587
 7946SOL    HW224738   1.457   2.900   5.695
 7947SOL     OW24739   4.078   3.255   6.882
 7947SOL    HW124740   4.102   3.158   6.888
 7947SOL    HW224741   4.099   3.288   6.790
 7948SOL     OW24742   7.011   6.889   1.322
 7948SOL    HW124743   0.006   6.986   1.337
 7948SOL    HW224744   6.987   6.845   1.408
 7949SOL     OW24745   5.155   4.940   3.829
 7949SOL    HW124746   5.120   5.021   3.877
 7949SOL    HW224747   5.227   4.897   3.884
 7950SOL     OW24748   4.941   5.380   3.607
 7950SOL    HW124749   4.993   5.433   3.673
 7950SOL    HW224750   4.967   5.284   3.613
 7951SOL     OW24751   3.174   3.507   1.165
 7951SOL    HW124752   3.142   3.598   1.139
 7951SOL    HW224753   3.137   3.483   1.255
 7952SOL     OW24754   0.338   2.579   6.511
 7952SOL    HW124755   0.358   2.667   6.555
 7952SOL    HW224756   0.396   2.508   6.550
 7953SOL     OW24757   1.849   3.024   3.055
 7953SOL    HW124758   1.756   3.056   3.036
 7953SOL    HW224759   1.847   2.958   3.130
 7954SOL     OW24760   4.696   5.302   4.659
 7954SOL    HW124761   4.772   5.244   4.688
 7954SOL    HW224762   4.649   5.260   4.582
 7955SOL     OW24763   0.127   6.527   6.364
 7955SOL    HW124764   0.148   6.477   6.448
 7955SOL    HW224765   0.205   6.585   6.340
 7956SOL     OW24766   0.590   5.407   2.883
 7956SOL    HW124767   0.684   5.375   2.893
 7956SOL    HW224768   0.569   5.474   2.953
 7957SOL     OW24769   2.122   1.669   0.685
 7957SOL    HW124770   2.096   1.757   0.644
 7957SOL    HW224771   2.042   1.610   0.691
 7958SOL     OW24772   3.486   5.433   4.297
 7958SOL    HW124773   3.501   5.508   4.361
 7958SOL    HW224774   3.387   5.417   4.288
 7959SOL     OW24775   4.261   5.434   0.585
 7959SOL    HW124776   4.183   5.490   0.614
 7959SOL    HW224777   4.229   5.362   0.523
 7960SOL     OW24778   3.570   1.908   1.012
 7960SOL    HW124779   3.514   1.857   1.077
 7960SOL    HW224780   3.602   1.993   1.053
 7961SOL     OW24781   2.198   6.181   6.235
 7961SOL    HW124782   2.266   6.108   6.242
 7961SOL    HW224783   2.109   6.142   6.215
 7962SOL     OW24784   2.132   0.734   0.387
 7962SOL    HW124785   2.101   0.643   0.416
 7962SOL    HW224786   2.152   0.733   0.289
 7963SOL     OW24787   6.609   1.218   4.387
 7963SOL    HW124788   6.635   1.259   4.300
 7963SOL    HW224789   6.685   1.162   4.421
 7964SOL     OW24790   6.025   5.188   3.586
 7964SOL    HW124791   5.988   5.160   3.674
 7964SOL    HW224792   6.122   5.211   3.596
 7965SOL     OW24793   4.208   3.330   0.079
 7965SOL    HW124794   4.155   3.346   7.018
 7965SOL    HW224795   4.187   3.238   0.114
 7966SOL     OW24796   1.082   3.491   4.843
 7966SOL    HW124797   1.003   3.442   4.806
 7966SOL    HW224798   1.074   3.495   4.943
 7967SOL     OW24799   3.305   6.467   4.120
 7967SOL    HW124800   3.231   6.445   4.057
 7967SOL    HW224801   3.316   6.392   4.186
 7968SOL     OW24802   2.165   3.257   3.256
 7968SOL    HW124803   2.159   3.182   3.322
 7968SOL    HW224804   2.082   3.313   3.263
 7969SOL     OW24805   4.513   0.149   2.038
 7969SOL    HW124806   4.504   0.246   2.059
 7969SOL    HW224807   4.553   0.138   1.947
 7970SOL     OW24808   0.237   3.915   2.582
 7970SOL    HW124809   0.325   3.889   2.545
 7970SOL    HW224810   0.163   3.875   2.527
 7971SOL     OW24811   3.250   1.168   1.561
 7971SOL    HW124812   3.279   1.111   1.638
 7971SOL    HW224813   3.230   1.260   1.593
 7972SOL     OW24814   6.672   3.949   1.256
 7972SOL    HW124815   6.768   3.963   1.281
 7972SOL    HW224816   6.667   3.896   1.172
 7973SOL     OW24817   5.276   3.289   3.162
 7973SOL    HW124818   5.265   3.334   3.250
 7973SOL    HW224819   5.371   3.259   3.151
 7974SOL     OW24820   5.954   0.253   4.480
 7974SOL    HW124821   5.921   0.313   4.553
 7974SOL    HW224822   5.996   0.172   4.521
 7975SOL     OW24823   5.428   0.262   3.841
 7975SOL    HW124824   5.447   0.323   3.918
 7975SOL    HW224825   5.446   0.167   3.868
 7976SOL     OW24826   0.302   6.958   5.673
 7976SOL    HW124827   0.313   6.899   5.594
 7976SOL    HW224828   0.230   0.003   5.656
 7977SOL     OW24829   4.370   5.790   2.510
 7977SOL    HW124830   4.382   5.731   2.590
 7977SOL    HW224831   4.409   5.880   2.528
 7978SOL     OW24832   6.151   4.347   6.000
 7978SOL    HW124833   6.171   4.424   6.060
 7978SOL    HW224834   6.082   4.289   6.042
 7979SOL     OW24835   2.669   0.211   5.019
 7979SOL    HW124836   2.715   0.138   5.069
 7979SOL    HW224837   2.722   0.296   5.028
 7980SOL     OW24838   3.865   5.171   0.100
 7980SOL    HW124839   3.882   5.073   0.111
 7980SOL    HW224840   3.858   5.213   0.191
 7981SOL     OW24841   1.057   5.901   1.757
 7981SOL    HW124842   1.130   5.848   1.714
 7981SOL    HW224843   0.974   5.895   1.701
 7982SOL     OW24844   6.518   1.963   0.901
 7982SOL    HW124845   6.436   2.019   0.915
 7982SOL    HW224846   6.499   1.868   0.925
 7983SOL     OW24847   5.087   1.939   3.057
 7983SOL    HW124848   5.010   1.875   3.052
 7983SOL    HW224849   5.077   1.998   3.137
 7984SOL     OW24850   1.422   1.647   1.675
 7984SOL    HW124851   1.478   1.721   1.710
 7984SOL    HW224852   1.391   1.670   1.582
 7985SOL     OW24853   2.058   6.960   3.184
 7985SOL    HW124854   2.138   7.020   3.189
 7985SOL    HW224855   2.066   6.901   3.103
 7986SOL     OW24856   3.307   1.283   6.924
 7986SOL    HW124857   3.248   1.331   6.989
 7986SOL    HW224858   3.266   1.286   6.833
 7987SOL     OW24859   0.279   3.579   6.538
 7987SOL    HW124860   0.368   3.538   6.519
 7987SOL    HW224861   0.229   3.592   6.453
 7988SOL     OW24862   2.263   2.517   4.584
 7988SOL    HW124863   2.334   2.455   4.618
 7988SOL    HW224864   2.271   2.525   4.484
 7989SOL     OW24865   3.514   2.750   5.240
 7989SOL    HW124866   3.557   2.661   5.252
 7989SOL    HW224867   3.415   2.741   5.249
 7990SOL     OW24868   0.399   3.607   3.091
 7990SOL    HW124869   0.340   3.559   3.026
 7990SOL    HW224870   0.490   3.618   3.051
 7991SOL     OW24871   6.433   2.171   5.437
 7991SOL    HW124872   6.509   2.108   5.449
 7991SOL    HW224873   6.467   2.258   5.399
 7992SOL     OW24874   1.318   6.750   0.889
 7992SOL    HW124875   1.342   6.677   0.953
 7992SOL    HW224876   1.384   6.750   0.814
 7993SOL     OW24877   1.881   5.986   6.392
 7993SOL    HW124878   1.923   5.952   6.307
 7993SOL    HW224879   1.895   5.919   6.465
 7994SOL     OW24880   4.623   0.344   3.669
 7994SOL    HW124881   4.643   0.422   3.610
 7994SOL    HW224882   4.598   0.377   3.760
 7995SOL     OW24883   3.873   5.109   3.248
 7995SOL    HW124884   3.855   5.144   3.156
 7995SOL    HW224885   3.822   5.025   3.263
 7996SOL     OW24886   3.333   6.224   4.437
 7996SOL    HW124887   3.267   6.177   4.379
 7996SOL    HW224888   3.407   6.261   4.381
 7997SOL     OW24889   6.659   1.798   1.297
 7997SOL    HW124890   6.732   1.847   1.346
 7997SOL    HW224891   6.700   1.738   1.228
 7998SOL     OW24892   4.492   5.294   0.677
 7998SOL    HW124893   4.395   5.297   0.651
 7998SOL    HW224894   4.532   5.385   0.668
 7999SOL     OW24895   1.083   0.204   6.214
 7999SOL    HW124896   1.161   0.144   6.232
 7999SOL    HW224897   1.025   0.207   6.295
 8000SOL     OW24898   5.771   0.039   6.512
 8000SOL    HW124899   5.724   0.092   6.441
 8000SOL    HW224900   5.822   6.986   6.470
 8001SOL     OW24901   3.096   5.805   2.071
 8001SOL    HW124902   3.019   5.854   2.031
 8001SOL    HW224903   3.155   5.770   1.998
 8002SOL     OW24904   0.772   3.084   5.697
 8002SOL    HW124905   0.837   3.128   5.759
 8002SOL    HW224906   0.816   3.008   5.650
 8003SOL     OW24907   2.701   4.743   2.585
 8003SOL    HW124908   2.793   4.716   2.558
 8003SOL    HW224909   2.703   4.781   2.678
 8004SOL     OW24910   1.726   4.768   3.153
 8004SOL    HW124911   1.684   4.703   3.216
 8004SOL    HW224912   1.768   4.842   3.205
 8005SOL     OW24913   3.276   1.647   2.453
 8005SOL    HW124914   3.284   1.561   2.504
 8005SOL    HW224915   3.267   1.723   2.518
 8006SOL     OW24916   2.427   6.220   0.824
 8006SOL    HW124917   2.346   6.272   0.796
 8006SOL    HW224918   2.399   6.142   0.880
 8007SOL     OW24919   0.643   0.377   4.036
 8007SOL    HW124920   0.562   0.320   4.048
 8007SOL    HW224921   0.717   0.344   4.095
 8008SOL     OW24922   4.486   6.543   6.104
 8008SOL    HW124923   4.426   6.575   6.178
 8008SOL    HW224924   4.575   6.588   6.111
 8009SOL     OW24925   6.303   0.209   2.752
 8009SOL    HW124926   6.394   0.182   2.721
 8009SOL    HW224927   6.234   0.169   2.692
 8010SOL     OW24928   2.189   1.506   0.053
 8010SOL    HW124929   2.244   1.589   0.051
 8010SOL    HW224930   2.103   1.522   0.004
 8011SOL     OW24931   1.969   2.798   1.525
 8011SOL    HW124932   1.929   2.741   1.454
 8011SOL    HW224933   1.996   2.886   1.486
 8012SOL     OW24934   1.678   5.934   1.449
 8012SOL    HW124935   1.692   5.837   1.471
 8012SOL    HW224936   1.655   5.943   1.352
 8013SOL     OW24937   0.364   5.262   4.433
 8013SOL    HW124938   0.455   5.232   4.460
 8013SOL    HW224939   0.299   5.186   4.446
 8014SOL     OW24940   1.493   6.579   5.444
 8014SOL    HW124941   1.567   6.530   5.398
 8014SOL    HW224942   1.483   6.544   5.537
 8015SOL     OW24943   2.979   1.378   0.468
 8015SOL    HW124944   2.912   1.443   0.431
 8015SOL    HW224945   2.942   1.337   0.552
 8016SOL     OW24946   4.240   0.139   6.762
 8016SOL    HW124947   4.164   0.100   6.814
 8016SOL    HW224948   4.295   0.064   6.723
 8017SOL     OW24949   6.869   4.880   5.800
 8017SOL    HW124950   6.819   4.809   5.848
 8017SOL    HW224951   6.886   4.851   5.706
 8018SOL     OW24952   4.922   2.360   5.998
 8018SOL    HW124953   4.959   2.447   6.032
 8018SOL    HW224954   4.874   2.375   5.912
 8019SOL     OW24955   2.000   3.571   0.098
 8019SOL    HW124956   2.063   3.572   0.176
 8019SOL    HW224957   1.918   3.519   0.122
 8020SOL     OW24958   5.721   6.805   0.190
 8020SOL    HW124959   5.773   6.841   0.268
 8020SOL    HW224960   5.768   6.830   0.105
 8021SOL     OW24961   1.506   1.778   2.071
 8021SOL    HW124962   1.558   1.788   1.987
 8021SOL    HW224963   1.533   1.694   2.118
 8022SOL     OW24964   4.245   0.953   2.997
 8022SOL    HW124965   4.302   0.954   2.916
 8022SOL    HW224966   4.152   0.982   2.973
 8023SOL     OW24967   5.941   6.131   3.562
 8023SOL    HW124968   5.924   6.038   3.594
 8023SOL    HW224969   5.915   6.138   3.466
 8024SOL     OW24970   3.138   4.728   0.169
 8024SOL    HW124971   3.184   4.754   0.084
 8024SOL    HW224972   3.201   4.678   0.228
 8025SOL     OW24973   3.677   6.172   5.795
 8025SOL    HW124974   3.696   6.200   5.701
 8025SOL    HW224975   3.590   6.123   5.798
 8026SOL     OW24976   0.647   3.838   6.783
 8026SOL    HW124977   0.606   3.874   6.699
 8026SOL    HW224978   0.736   3.797   6.761
 8027SOL     OW24979   4.647   2.068   5.520
 8027SOL    HW124980   4.619   2.040   5.428
 8027SOL    HW224981   4.747   2.074   5.524
 8028SOL     OW24982   3.959   4.824   5.818
 8028SOL    HW124983   3.862   4.809   5.802
 8028SOL    HW224984   4.005   4.847   5.732
 8029SOL     OW24985   5.460   3.869   6.595
 8029SOL    HW124986   5.387   3.865   6.527
 8029SOL    HW224987   5.545   3.897   6.551
 8030SOL     OW24988   5.668   3.904   5.874
 8030SOL    HW124989   5.622   3.993   5.879
 8030SOL    HW224990   5.694   3.886   5.779
 8031SOL     OW24991   5.046   5.843   2.508
 8031SOL    HW124992   5.133   5.804   2.537
 8031SOL    HW224993   5.031   5.824   2.411
 8032SOL     OW24994   5.964   4.060   5.196
 8032SOL    HW124995   6.018   3.996   5.141
 8032SOL    HW224996   5.970   4.151   5.155
 8033SOL     OW24997   4.958   3.124   0.035
 8033SOL    HW124998   4.905   3.139   6.974
 8033SOL    HW224999   4.990   3.212   0.070
 8034SOL     OW25000   6.202   1.178   5.068
 8034SOL    HW125001   6.292   1.173   5.112
 8034SOL    HW225002   6.191   1.268   5.026
 8035SOL     OW25003   4.944   6.918   5.310
 8035SOL    HW125004   4.847   6.912   5.287
 8035SOL    HW225005   4.999   6.904   5.227
 8036SOL     OW25006   1.393   3.521   1.749
 8036SOL    HW125007   1.295   3.520   1.769
 8036SOL    HW225008   1.421   3.432   1.714
 8037SOL     OW25009   1.484   3.289   1.665
 8037SOL    HW125010   1.520   3.225   1.732
 8037SOL    HW225011   1.542   3.288   1.583
 8038SOL     OW25012   5.081   1.669   2.875
 8038SOL    HW125013   5.121   1.594   2.929
 8038SOL    HW225014   5.154   1.727   2.839
 8039SOL     OW25015   1.685   0.065   3.505
 8039SOL    HW125016   1.785   0.061   3.511
 8039SOL    HW225017   1.655   0.014   3.424
 8040SOL     OW25018   1.074   5.826   0.692
 8040SOL    HW125019   1.106   5.917   0.665
 8040SOL    HW225020   1.045   5.828   0.788
 8041SOL     OW25021   3.527   1.742   2.270
 8041SOL    HW125022   3.497   1.826   2.316
 8041SOL    HW225023   3.451   1.677   2.269
 8042SOL     OW25024   3.542   2.840   2.336
 8042SOL    HW125025   3.479   2.914   2.316
 8042SOL    HW225026   3.491   2.756   2.355
 8043SOL     OW25027   3.255   6.755   0.570
 8043SOL    HW125028   3.170   6.731   0.618
 8043SOL    HW225029   3.242   6.841   0.521
 8044SOL     OW25030   3.306   3.145   1.455
 8044SOL    HW125031   3.372   3.146   1.379
 8044SOL    HW225032   3.231   3.083   1.433
 8045SOL     OW25033   5.423   1.622   2.033
 8045SOL    HW125034   5.389   1.676   1.955
 8045SOL    HW225035   5.345   1.591   2.088
 8046SOL     OW25036   6.081   4.453   6.498
 8046SOL    HW125037   6.013   4.384   6.524
 8046SOL    HW225038   6.058   4.491   6.408
 8047SOL     OW25039   3.457   5.129   4.956
 8047SOL    HW125040   3.495   5.069   5.026
 8047SOL    HW225041   3.388   5.080   4.903
 8048SOL     OW25042   5.410   1.520   5.292
 8048SOL    HW125043   5.480   1.574   5.339
 8048SOL    HW225044   5.394   1.435   5.342
 8049SOL     OW25045   1.256   6.975   1.700
 8049SOL    HW125046   1.171   6.963   1.750
 8049SOL    HW225047   1.324   6.909   1.734
 8050SOL     OW25048   0.991   4.166   1.091
 8050SOL    HW125049   1.007   4.225   1.011
 8050SOL    HW225050   0.893   4.163   1.110
 8051SOL     OW25051   5.144   0.438   3.736
 8051SOL    HW125052   5.228   0.384   3.727
 8051SOL    HW225053   5.067   0.388   3.699
 8052SOL     OW25054   3.078   1.603   2.274
 8052SOL    HW125055   3.053   1.507   2.288
 8052SOL    HW225056   3.149   1.629   2.340
 8053SOL     OW25057   3.753   3.232   3.219
 8053SOL    HW125058   3.810   3.192   3.147
 8053SOL    HW225059   3.744   3.330   3.203
 8054SOL     OW25060   5.090   6.515   4.482
 8054SOL    HW125061   5.021   6.477   4.544
 8054SOL    HW225062   5.064   6.608   4.456
 8055SOL     OW25063   1.062   0.482   6.253
 8055SOL    HW125064   1.081   0.385   6.237
 8055SOL    HW225065   1.116   0.538   6.190
 8056SOL     OW25066   4.876   1.073   3.558
 8056SOL    HW125067   4.777   1.088   3.567
 8056SOL    HW225068   4.907   1.009   3.628
 8057SOL     OW25069   2.434   1.019   2.565
 8057SOL    HW125070   2.527   1.003   2.598
 8057SOL    HW225071   2.385   1.076   2.630
 8058SOL     OW25072   3.647   0.105   3.122
 8058SOL    HW125073   3.726   0.115   3.182
 8058SOL    HW225074   3.571   0.065   3.174
 8059SOL     OW25075   4.018   2.140   4.814
 8059SOL    HW125076   4.029   2.180   4.723
 8059SOL    HW225077   3.997   2.043   4.806
 8060SOL     OW25078   0.476   1.303   4.568
 8060SOL    HW125079   0.474   1.216   4.519
 8060SOL    HW225080   0.412   1.367   4.525
 8061SOL     OW25081   6.786   6.015   2.235
 8061SOL    HW125082   6.763   5.919   2.248
 8061SOL    HW225083   6.704   6.071   2.248
 8062SOL     OW25084   2.462   4.487   3.757
 8062SOL    HW125085   2.473   4.562   3.692
 8062SOL    HW225086   2.446   4.402   3.707
 8063SOL     OW25087   1.821   3.860   0.539
 8063SOL    HW125088   1.843   3.934   0.603
 8063SOL    HW225089   1.769   3.896   0.462
 8064SOL     OW25090   0.366   4.999   0.555
 8064SOL    HW125091   0.391   4.930   0.623
 8064SOL    HW225092   0.343   4.954   0.469
 8065SOL     OW25093   4.179   6.483   3.639
 8065SOL    HW125094   4.148   6.400   3.593
 8065SOL    HW225095   4.130   6.495   3.725
 8066SOL     OW25096   1.161   1.379   6.336
 8066SOL    HW125097   1.099   1.384   6.414
 8066SOL    HW225098   1.136   1.302   6.278
 8067SOL     OW25099   4.335   3.403   1.340
 8067SOL    HW125100   4.407   3.333   1.349
 8067SOL    HW225101   4.247   3.363   1.365
 8068SOL     OW25102   6.268   5.492   5.652
 8068SOL    HW125103   6.205   5.567   5.632
 8068SOL    HW225104   6.362   5.525   5.647
 8069SOL     OW25105   2.401   6.029   1.535
 8069SOL    HW125106   2.369   5.940   1.567
 8069SOL    HW225107   2.433   6.021   1.440
 8070SOL     OW25108   2.983   4.546   0.598
 8070SOL    HW125109   2.897   4.515   0.639
 8070SOL    HW225110   3.058   4.531   0.663
 8071SOL     OW25111   3.910   6.322   5.245
 8071SOL    HW125112   3.861   6.332   5.331
 8071SOL    HW225113   3.986   6.387   5.241
 8072SOL     OW25114   3.384   1.450   0.291
 8072SOL    HW125115   3.336   1.474   0.375
 8072SOL    HW225116   3.325   1.467   0.212
 8073SOL     OW25117   5.074   7.015   6.702
 8073SOL    HW125118   5.041   0.011   6.610
 8073SOL    HW225119   5.146   0.059   6.725
 8074SOL     OW25120   3.331   2.625   6.994
 8074SOL    HW125121   3.356   2.529   6.984
 8074SOL    HW225122   3.310   2.664   6.904
 8075SOL     OW25123   6.647   1.530   1.632
 8075SOL    HW125124   6.566   1.536   1.574
 8075SOL    HW225125   6.661   1.617   1.678
 8076SOL     OW25126   4.555   2.643   5.785
 8076SOL    HW125127   4.475   2.669   5.731
 8076SOL    HW225128   4.554   2.694   5.871
 8077SOL     OW25129   0.635   6.956   1.912
 8077SOL    HW125130   0.699   7.003   1.973
 8077SOL    HW225131   0.620   6.863   1.945
 8078SOL     OW25132   5.942   1.810   0.656
 8078SOL    HW125133   5.903   1.857   0.577
 8078SOL    HW225134   5.953   1.713   0.635
 8079SOL     OW25135   5.525   2.108   3.502
 8079SOL    HW125136   5.476   2.192   3.476
 8079SOL    HW225137   5.623   2.121   3.489
 8080SOL     OW25138   1.793   3.594   0.647
 8080SOL    HW125139   1.865   3.535   0.610
 8080SOL    HW225140   1.800   3.685   0.607
 8081SOL     OW25141   5.646   0.688   5.414
 8081SOL    HW125142   5.712   0.762   5.396
 8081SOL    HW225143   5.573   0.692   5.346
 8082SOL     OW25144   5.835   2.100   2.889
 8082SOL    HW125145   5.869   2.060   2.804
 8082SOL    HW225146   5.755   2.049   2.920
 8083SOL     OW25147   5.140   3.067   2.077
 8083SOL    HW125148   5.063   3.062   2.014
 8083SOL    HW225149   5.117   3.016   2.161
 8084SOL     OW25150   5.931   6.517   1.415
 8084SOL    HW125151   5.914   6.421   1.437
 8084SOL    HW225152   6.024   6.527   1.378
 8085SOL     OW25153   5.528   0.334   2.087
 8085SOL    HW125154   5.584   0.256   2.062
 8085SOL    HW225155   5.566   0.417   2.046
 8086SOL     OW25156   3.799   0.373   4.008
 8086SOL    HW125157   3.825   0.342   3.917
 8086SOL    HW225158   3.794   0.295   4.070
 8087SOL     OW25159   2.404   1.553   1.079
 8087SOL    HW125160   2.338   1.494   1.124
 8087SOL    HW225161   2.388   1.553   0.980
 8088SOL     OW25162   6.337   1.822   1.920
 8088SOL    HW125163   6.297   1.914   1.921
 8088SOL    HW225164   6.367   1.798   2.013
 8089SOL     OW25165   5.112   2.063   6.631
 8089SOL    HW125166   5.211   2.052   6.625
 8089SOL    HW225167   5.075   2.090   6.542
 8090SOL     OW25168   4.789   2.224   6.211
 8090SOL    HW125169   4.854   2.257   6.143
 8090SOL    HW225170   4.836   2.214   6.299
 8091SOL     OW25171   3.133   3.909   6.782
 8091SOL    HW125172   3.142   3.815   6.751
 8091SOL    HW225173   3.076   3.912   6.864
 8092SOL     OW25174   1.446   1.554   4.960
 8092SOL    HW125175   1.498   1.633   4.927
 8092SOL    HW225176   1.354   1.582   4.986
 8093SOL     OW25177   6.221   6.208   1.269
 8093SOL    HW125178   6.187   6.286   1.216
 8093SOL    HW225179   6.320   6.199   1.257
 8094SOL     OW25180   1.865   4.360   5.390
 8094SOL    HW125181   1.829   4.439   5.340
 8094SOL    HW225182   1.964   4.368   5.397
 8095SOL     OW25183   5.951   3.516   3.902
 8095SOL    HW125184   5.938   3.471   3.991
 8095SOL    HW225185   5.862   3.545   3.867
 8096SOL     OW25186   2.700   5.849   3.541
 8096SOL    HW125187   2.755   5.910   3.598
 8096SOL    HW225188   2.680   5.765   3.592
 8097SOL     OW25189   5.059   1.117   4.088
 8097SOL    HW125190   5.096   1.029   4.060
 8097SOL    HW225191   5.066   1.182   4.012
 8098SOL     OW25192   2.637   6.582   4.620
 8098SOL    HW125193   2.620   6.678   4.644
 8098SOL    HW225194   2.735   6.562   4.631
 8099SOL     OW25195   6.195   0.768   3.974
 8099SOL    HW125196   6.235   0.753   3.883
 8099SOL    HW225197   6.181   0.680   4.019
 8100SOL     OW25198   0.311   0.152   0.179
 8100SOL    HW125199   0.344   0.066   0.218
 8100SOL    HW225200   0.214   0.163   0.201
 8101SOL     OW25201   1.897   6.969   4.568
 8101SOL    HW125202   1.848   0.005   4.633
 8101SOL    HW225203   1.887   7.006   4.476
 8102SOL     OW25204   1.760   5.397   6.849
 8102SOL    HW125205   1.832   5.441   6.796
 8102SOL    HW225206   1.671   5.432   6.820
 8103SOL     OW25207   3.985   1.396   1.387
 8103SOL    HW125208   3.966   1.352   1.299
 8103SOL    HW225209   3.933   1.481   1.394
 8104SOL     OW25210   3.231   6.726   6.397
 8104SOL    HW125211   3.249   6.813   6.444
 8104SOL    HW225212   3.162   6.675   6.448
 8105SOL     OW25213   2.235   2.229   3.319
 8105SOL    HW125214   2.293   2.203   3.241
 8105SOL    HW225215   2.141   2.202   3.301
 8106SOL     OW25216   1.553   5.623   3.401
 8106SOL    HW125217   1.639   5.673   3.391
 8106SOL    HW225218   1.487   5.679   3.452
 8107SOL     OW25219   1.805   6.064   5.767
 8107SOL    HW125220   1.771   5.970   5.772
 8107SOL    HW225221   1.791   6.100   5.675
 8108SOL     OW25222   6.471   2.952   4.815
 8108SOL    HW125223   6.525   2.963   4.898
 8108SOL    HW225224   6.491   3.026   4.752
 8109SOL     OW25225   1.860   4.270   4.594
 8109SOL    HW125226   1.876   4.209   4.672
 8109SOL    HW225227   1.799   4.225   4.528
 8110SOL     OW25228   3.476   6.579   0.604
 8110SOL    HW125229   3.452   6.669   0.639
 8110SOL    HW225230   3.511   6.588   0.510
 8111SOL     OW25231   2.656   0.146   5.664
 8111SOL    HW125232   2.582   0.148   5.596
 8111SOL    HW225233   2.673   0.239   5.697
 8112SOL     OW25234   2.315   0.970   5.332
 8112SOL    HW125235   2.304   0.877   5.296
 8112SOL    HW225236   2.412   0.994   5.334
 8113SOL     OW25237   3.152   2.552   0.210
 8113SOL    HW125238   3.217   2.600   0.152
 8113SOL    HW225239   3.125   2.466   0.168
 8114SOL     OW25240   2.362   2.608   2.318
 8114SOL    HW125241   2.322   2.694   2.347
 8114SOL    HW225242   2.295   2.534   2.327
 8115SOL     OW25243   3.532   1.031   1.605
 8115SOL    HW125244   3.480   0.971   1.666
 8115SOL    HW225245   3.474   1.061   1.529
 8116SOL     OW25246   5.081   6.989   5.074
 8116SOL    HW125247   5.115   0.041   5.016
 8116SOL    HW225248   5.068   6.907   5.019
 8117SOL     OW25249   1.674   1.970   3.539
 8117SOL    HW125250   1.629   1.965   3.628
 8117SOL    HW225251   1.697   1.877   3.509
 8118SOL     OW25252   0.689   3.891   5.776
 8118SOL    HW125253   0.731   3.894   5.685
 8118SOL    HW225254   0.606   3.947   5.776
 8119SOL     OW25255   0.374   5.900   4.157
 8119SOL    HW125256   0.355   5.919   4.061
 8119SOL    HW225257   0.291   5.915   4.211
 8120SOL     OW25258   3.968   3.817   6.844
 8120SOL    HW125259   3.938   3.745   6.782
 8120SOL    HW225260   4.011   3.891   6.792
 8121SOL     OW25261   0.157   6.212   3.108
 8121SOL    HW125262   0.170   6.174   3.017
 8121SOL    HW225263   0.081   6.165   3.153
 8122SOL     OW25264   0.128   4.954   2.272
 8122SOL    HW125265   0.146   4.859   2.245
 8122SOL    HW225266   0.040   4.983   2.233
 8123SOL     OW25267   0.440   0.081   6.668
 8123SOL    HW125268   0.427   0.034   6.581
 8123SOL    HW225269   0.375   0.157   6.676
 8124SOL     OW25270   0.922   6.748   1.544
 8124SOL    HW125271   0.999   6.692   1.511
 8124SOL    HW225272   0.922   6.747   1.644
 8125SOL     OW25273   6.282   5.064   3.345
 8125SOL    HW125274   6.240   4.995   3.285
 8125SOL    HW225275   6.361   5.105   3.299
 8126SOL     OW25276   6.342   4.908   2.057
 8126SOL    HW125277   6.308   4.817   2.077
 8126SOL    HW225278   6.319   4.969   2.133
 8127SOL     OW25279   2.556   5.671   0.536
 8127SOL    HW125280   2.646   5.663   0.493
 8127SOL    HW225281   2.561   5.738   0.610
 8128SOL     OW25282   3.636   2.426   6.808
 8128SOL    HW125283   3.552   2.425   6.862
 8128SOL    HW225284   3.615   2.410   6.712
 8129SOL     OW25285   5.098   1.046   6.590
 8129SOL    HW125286   5.129   1.034   6.496
 8129SOL    HW225287   5.152   1.117   6.635
 8130SOL     OW25288   1.071   5.550   5.966
 8130SOL    HW125289   1.155   5.533   5.914
 8130SOL    HW225290   0.996   5.496   5.928
 8131SOL     OW25291   3.015   1.189   0.269
 8131SOL    HW125292   2.936   1.207   0.211
 8131SOL    HW225293   3.017   1.254   0.345
 8132SOL     OW25294   5.445   5.910   5.979
 8132SOL    HW125295   5.378   5.965   5.929
 8132SOL    HW225296   5.501   5.859   5.914
 8133SOL     OW25297   3.189   5.007   2.897
 8133SOL    HW125298   3.226   5.049   2.814
 8133SOL    HW225299   3.264   4.968   2.950
 8134SOL     OW25300   2.154   1.747   4.094
 8134SOL    HW125301   2.223   1.818   4.079
 8134SOL    HW225302   2.134   1.701   4.008
 8135SOL     OW25303   3.266   4.884   1.975
 8135SOL    HW125304   3.282   4.837   1.888
 8135SOL    HW225305   3.169   4.909   1.982
 8136SOL     OW25306   4.554   5.147   2.784
 8136SOL    HW125307   4.457   5.150   2.810
 8136SOL    HW225308   4.561   5.144   2.684
 8137SOL     OW25309   2.196   2.895   4.192
 8137SOL    HW125310   2.153   2.823   4.139
 8137SOL    HW225311   2.293   2.875   4.205
 8138SOL     OW25312   5.967   1.914   1.969
 8138SOL    HW125313   5.970   1.830   2.022
 8138SOL    HW225314   6.019   1.985   2.017
 8139SOL     OW25315   0.776   2.900   3.679
 8139SOL    HW125316   0.868   2.928   3.708
 8139SOL    HW225317   0.710   2.923   3.750
 8140SOL     OW25318   4.055   0.005   0.519
 8140SOL    HW125319   3.957   0.010   0.538
 8140SOL    HW225320   4.093   0.097   0.517
 8141SOL     OW25321   5.109   0.339   5.240
 8141SOL    HW125322   5.070   0.266   5.295
 8141SOL    HW225323   5.166   0.398   5.297
 8142SOL     OW25324   2.110   5.670   0.561
 8142SOL    HW125325   2.018   5.702   0.538
 8142SOL    HW225326   2.123   5.674   0.660
 8143SOL     OW25327   5.270   5.183   1.319
 8143SOL    HW125328   5.238   5.257   1.378
 8143SOL    HW225329   5.194   5.145   1.268
 8144SOL     OW25330   0.299   6.020   5.560
 8144SOL    HW125331   0.361   5.973   5.623
 8144SOL    HW225332   0.257   5.953   5.499
 8145SOL     OW25333   4.734   5.345   0.479
 8145SOL    HW125334   4.696   5.322   0.390
 8145SOL    HW225335   4.671   5.406   0.528
 8146SOL     OW25336   6.000   0.555   5.219
 8146SOL    HW125337   6.092   0.520   5.236
 8146SOL    HW225338   6.000   0.612   5.136
 8147SOL     OW25339   0.570   0.511   0.453
 8147SOL    HW125340   0.669   0.500   0.464
 8147SOL    HW225341   0.535   0.438   0.395
 8148SOL     OW25342   4.088   4.002   6.651
 8148SOL    HW125343   4.021   4.055   6.704
 8148SOL    HW225344   4.046   3.973   6.565
 8149SOL     OW25345   2.055   6.502   4.702
 8149SOL    HW125346   2.074   6.404   4.712
 8149SOL    HW225347   2.141   6.550   4.686
 8150SOL     OW25348   0.714   3.420   0.922
 8150SOL    HW125349   0.680   3.343   0.868
 8150SOL    HW225350   0.766   3.385   1.001
 8151SOL     OW25351   6.268   5.567   3.730
 8151SOL    HW125352   6.173   5.551   3.756
 8151SOL    HW225353   6.274   5.583   3.632
 8152SOL     OW25354   4.648   2.161   2.747
 8152SOL    HW125355   4.724   2.131   2.804
 8152SOL    HW225356   4.682   2.225   2.677
 8153SOL     OW25357   0.775   0.813   3.363
 8153SOL    HW125358   0.681   0.791   3.391
 8153SOL    HW225359   0.792   0.910   3.380
 8154SOL     OW25360   2.997   1.568   3.200
 8154SOL    HW125361   2.980   1.516   3.284
 8154SOL    HW225362   3.085   1.541   3.160
 8155SOL     OW25363   1.387   3.751   2.629
 8155SOL    HW125364   1.395   3.820   2.557
 8155SOL    HW225365   1.382   3.796   2.718
 8156SOL     OW25366   5.518   6.339   1.237
 8156SOL    HW125367   5.563   6.408   1.294
 8156SOL    HW225368   5.527   6.363   1.140
 8157SOL     OW25369   5.853   3.492   6.254
 8157SOL    HW125370   5.772   3.457   6.300
 8157SOL    HW225371   5.881   3.579   6.295
 8158SOL     OW25372   5.906   5.000   6.313
 8158SOL    HW125373   5.937   4.955   6.229
 8158SOL    HW225374   5.985   5.033   6.365
 8159SOL     OW25375   3.836   6.508   5.660
 8159SOL    HW125376   3.778   6.503   5.741
 8159SOL    HW225377   3.923   6.460   5.678
 8160SOL     OW25378   4.949   0.898   3.750
 8160SOL    HW125379   4.890   0.817   3.748
 8160SOL    HW225380   5.043   0.872   3.730
 8161SOL     OW25381   5.578   3.641   0.160
 8161SOL    HW125382   5.530   3.571   0.214
 8161SOL    HW225383   5.523   3.664   0.079
 8162SOL     OW25384   0.517   5.063   0.052
 8162SOL    HW125385   0.418   5.053   0.041
 8162SOL    HW225386   0.536   5.128   0.125
 8163SOL     OW25387   3.809   5.300   5.252
 8163SOL    HW125388   3.847   5.392   5.260
 8163SOL    HW225389   3.826   5.264   5.161
 8164SOL     OW25390   4.174   0.612   6.746
 8164SOL    HW125391   4.096   0.670   6.768
 8164SOL    HW225392   4.217   0.581   6.831
 8165SOL     OW25393   6.659   3.850   6.435
 8165SOL    HW125394   6.721   3.918   6.474
 8165SOL    HW225395   6.588   3.828   6.502
 8166SOL     OW25396   2.099   2.115   4.057
 8166SOL    HW125397   2.178   2.057   4.078
 8166SOL    HW225398   2.015   2.064   4.072
 8167SOL     OW25399   6.724   1.143   3.538
 8167SOL    HW125400   6.742   1.068   3.474
 8167SOL    HW225401   6.696   1.224   3.488
 8168SOL     OW25402   2.512   0.468   1.273
 8168SOL    HW125403   2.595   0.429   1.312
 8168SOL    HW225404   2.490   0.554   1.319
 8169SOL     OW25405   4.314   1.767   0.590
 8169SOL    HW125406   4.325   1.728   0.681
 8169SOL    HW225407   4.343   1.863   0.591
 8170SOL     OW25408   6.445   4.493   1.727
 8170SOL    HW125409   6.504   4.413   1.736
 8170SOL    HW225410   6.356   4.475   1.769
 8171SOL     OW25411   1.659   0.948   6.377
 8171SOL    HW125412   1.728   1.006   6.419
 8171SOL    HW225413   1.667   0.855   6.412
 8172SOL     OW25414   0.124   2.355   2.048
 8172SOL    HW125415   0.122   2.447   2.008
 8172SOL    HW225416   0.180   2.357   2.131
 8173SOL     OW25417   5.538   2.347   2.884
 8173SOL    HW125418   5.530   2.351   2.784
 8173SOL    HW225419   5.490   2.426   2.924
 8174SOL     OW25420   1.145   6.443   2.351
 8174SOL    HW125421   1.085   6.391   2.412
 8174SOL    HW225422   1.133   6.540   2.367
 8175SOL     OW25423   0.303   2.984   4.201
 8175SOL    HW125424   0.393   3.027   4.190
 8175SOL    HW225425   0.310   2.886   4.188
 8176SOL     OW25426   1.836   4.473   1.584
 8176SOL    HW125427   1.868   4.385   1.618
 8176SOL    HW225428   1.850   4.477   1.485
 8177SOL     OW25429   3.271   0.801   2.649
 8177SOL    HW125430   3.234   0.843   2.565
 8177SOL    HW225431   3.371   0.802   2.645
 8178SOL     OW25432   3.181   6.363   1.084
 8178SOL    HW125433   3.160   6.376   0.988
 8178SOL    HW225434   3.136   6.279   1.117
 8179SOL     OW25435   6.040   0.928   4.371
 8179SOL    HW125436   6.047   0.915   4.470
 8179SOL    HW225437   6.130   0.954   4.335
 8180SOL     OW25438   6.371   0.341   0.038
 8180SOL    HW125439   6.404   0.317   0.129
 8180SOL    HW225440   6.328   0.431   0.040
 8181SOL     OW25441   0.684   1.201   1.016
 8181SOL    HW125442   0.660   1.227   0.922
 8181SOL    HW225443   0.712   1.105   1.017
 8182SOL     OW25444   3.718   3.491   5.084
 8182SOL    HW125445   3.695   3.465   4.990
 8182SOL    HW225446   3.730   3.590   5.089
 8183SOL     OW25447   6.709   1.368   5.053
 8183SOL    HW125448   6.640   1.391   4.985
 8183SOL    HW225449   6.667   1.318   5.128
 8184SOL     OW25450   0.958   0.173   0.255
 8184SOL    HW125451   0.935   0.170   0.158
 8184SOL    HW225452   1.019   0.097   0.278
 8185SOL     OW25453   2.084   0.456   0.495
 8185SOL    HW125454   2.045   0.403   0.420
 8185SOL    HW225455   2.051   0.420   0.582
 8186SOL     OW25456   2.314   4.283   5.517
 8186SOL    HW125457   2.248   4.269   5.443
 8186SOL    HW225458   2.380   4.207   5.518
 8187SOL     OW25459   2.659   1.793   4.922
 8187SOL    HW125460   2.686   1.881   4.883
 8187SOL    HW225461   2.573   1.764   4.880
 8188SOL     OW25462   4.445   1.797   3.820
 8188SOL    HW125463   4.430   1.896   3.817
 8188SOL    HW225464   4.422   1.763   3.911
 8189SOL     OW25465   5.786   5.395   2.571
 8189SOL    HW125466   5.799   5.489   2.602
 8189SOL    HW225467   5.815   5.387   2.476
 8190SOL     OW25468   5.121   4.143   3.581
 8190SOL    HW125469   5.055   4.095   3.524
 8190SOL    HW225470   5.205   4.088   3.588
 8191SOL     OW25471   4.509   5.439   2.369
 8191SOL    HW125472   4.546   5.503   2.437
 8191SOL    HW225473   4.410   5.432   2.381
 8192SOL     OW25474   1.966   5.107   1.902
 8192SOL    HW125475   1.900   5.042   1.864
 8192SOL    HW225476   2.055   5.093   1.858
 8193SOL     OW25477   6.502   5.478   4.495
 8193SOL    HW125478   6.532   5.558   4.547
 8193SOL    HW225479   6.414   5.498   4.451
 8194SOL     OW25480   4.458   0.715   1.001
 8194SOL    HW125481   4.467   0.636   1.062
 8194SOL    HW225482   4.374   0.707   0.949
 8195SOL     OW25483   6.173   0.276   4.001
 8195SOL    HW125484   6.081   0.295   3.966
 8195SOL    HW225485   6.171   0.273   4.101
 8196SOL     OW25486   5.460   0.449   6.848
 8196SOL    HW125487   5.415   0.410   6.768
 8196SOL    HW225488   5.551   0.409   6.858
 8197SOL     OW25489   4.537   1.859   1.388
 8197SOL    HW125490   4.484   1.934   1.429
 8197SOL    HW225491   4.630   1.859   1.426
 8198SOL     OW25492   2.762   0.009   2.577
 8198SOL    HW125493   2.812   0.038   2.495
 8198SOL    HW225494   2.741   6.934   2.571
 8199SOL     OW25495   4.888   3.329   5.780
 8199SOL    HW125496   4.909   3.232   5.769
 8199SOL    HW225497   4.827   3.359   5.707
 8200SOL     OW25498   5.948   4.392   2.134
 8200SOL    HW125499   5.873   4.348   2.184
 8200SOL    HW225500   6.033   4.342   2.150
 8201SOL     OW25501   0.225   1.160   5.053
 8201SOL    HW125502   0.257   1.065   5.058
 8201SOL    HW225503   0.219   1.187   4.957
 8202SOL     OW25504   6.938   5.903   2.761
 8202SOL    HW125505   7.009   5.896   2.690
 8202SOL    HW225506   6.946   5.991   2.807
 8203SOL     OW25507   1.748   2.289   6.978
 8203SOL    HW125508   1.682   2.337   0.013
 8203SOL    HW225509   1.700   2.233   6.911
 8204SOL     OW25510   3.913   3.906   0.649
 8204SOL    HW125511   3.940   3.876   0.558
 8204SOL    HW225512   3.931   4.004   0.658
 8205SOL     OW25513   6.863   3.025   0.170
 8205SOL    HW125514   6.799   2.955   0.203
 8205SOL    HW225515   6.829   3.116   0.193
 8206SOL     OW25516   5.038   1.139   0.292
 8206SOL    HW125517   5.111   1.201   0.320
 8206SOL    HW225518   4.992   1.103   0.373
 8207SOL     OW25519   3.529   3.856   4.335
 8207SOL    HW125520   3.501   3.774   4.384
 8207SOL    HW225521   3.495   3.851   4.240
 8208SOL     OW25522   1.231   0.898   0.780
 8208SOL    HW125523   1.181   0.983   0.795
 8208SOL    HW225524   1.217   0.836   0.857
 8209SOL     OW25525   7.011   0.718   4.780
 8209SOL    HW125526   0.053   0.641   4.776
 8209SOL    HW225527   7.014   0.759   4.871
 8210SOL     OW25528   1.888   2.550   0.455
 8210SOL    HW125529   1.848   2.460   0.472
 8210SOL    HW225530   1.949   2.544   0.376
 8211SOL     OW25531   3.553   3.868   1.358
 8211SOL    HW125532   3.542   3.788   1.299
 8211SOL    HW225533   3.579   3.839   1.450
 8212SOL     OW25534   1.406   2.628   3.022
 8212SOL    HW125535   1.491   2.575   3.033
 8212SOL    HW225536   1.421   2.702   2.956
 8213SOL     OW25537   6.900   5.305   1.366
 8213SOL    HW125538   6.988   5.266   1.393
 8213SOL    HW225539   6.881   5.387   1.419
 8214SOL     OW25540   6.158   4.292   3.873
 8214SOL    HW125541   6.065   4.295   3.910
 8214SOL    HW225542   6.156   4.244   3.785
 8215SOL     OW25543   3.200   5.987   5.295
 8215SOL    HW125544   3.122   6.037   5.259
 8215SOL    HW225545   3.197   5.988   5.395
 8216SOL     OW25546   5.848   5.962   4.231
 8216SOL    HW125547   5.759   5.975   4.274
 8216SOL    HW225548   5.914   5.928   4.299
 8217SOL     OW25549   2.203   4.566   0.097
 8217SOL    HW125550   2.163   4.588   0.186
 8217SOL    HW225551   2.215   4.650   0.044
 8218SOL     OW25552   0.395   1.261   6.925
 8218SOL    HW125553   0.399   1.161   6.923
 8218SOL    HW225554   0.476   1.297   6.971
 8219SOL     OW25555   5.203   1.345   0.370
 8219SOL    HW125556   5.185   1.339   0.468
 8219SOL    HW225557   5.269   1.418   0.353
 8220SOL     OW25558   3.375   3.272   3.474
 8220SOL    HW125559   3.309   3.255   3.548
 8220SOL    HW225560   3.442   3.198   3.471
 8221SOL     OW25561   4.709   6.018   4.682
 8221SOL    HW125562   4.721   6.095   4.619
 8221SOL    HW225563   4.743   5.935   4.638
 8222SOL     OW25564   5.080   1.687   2.174
 8222SOL    HW125565   5.043   1.646   2.090
 8222SOL    HW225566   5.026   1.769   2.197
 8223SOL     OW25567   1.686   3.613   6.103
 8223SOL    HW125568   1.750   3.576   6.035
 8223SOL    HW225569   1.634   3.538   6.145
 8224SOL     OW25570   0.510   2.502   2.757
 8224SOL    HW125571   0.416   2.498   2.723
 8224SOL    HW225572   0.538   2.597   2.770
 8225SOL     OW25573   3.356   0.876   6.938
 8225SOL    HW125574   3.376   0.805   7.006
 8225SOL    HW225575   3.361   0.966   6.981
 8226SOL     OW25576   4.490   0.061   2.658
 8226SOL    HW125577   4.559   0.038   2.589
 8226SOL    HW225578   4.500   0.157   2.684
 8227SOL     OW25579   0.257   2.732   3.603
 8227SOL    HW125580   0.312   2.810   3.633
 8227SOL    HW225581   0.167   2.736   3.647
 8228SOL     OW25582   0.144   2.526   5.411
 8228SOL    HW125583   0.116   2.605   5.466
 8228SOL    HW225584   0.167   2.450   5.471
 8229SOL     OW25585   3.620   4.129   0.470
 8229SOL    HW125586   3.657   4.199   0.408
 8229SOL    HW225587   3.528   4.104   0.440
 8230SOL     OW25588   4.400   6.977   5.264
 8230SOL    HW125589   4.333   6.904   5.244
 8230SOL    HW225590   4.353   0.031   5.308
 8231SOL     OW25591   4.019   5.260   0.834
 8231SOL    HW125592   4.119   5.256   0.829
 8231SOL    HW225593   3.992   5.310   0.917
 8232SOL     OW25594   5.044   1.468   0.687
 8232SOL    HW125595   5.129   1.418   0.698
 8232SOL    HW225596   5.036   1.537   0.760
 8233SOL     OW25597   0.741   6.206   5.986
 8233SOL    HW125598   0.795   6.202   6.070
 8233SOL    HW225599   0.747   6.297   5.947
 8234SOL     OW25600   2.987   3.919   0.014
 8234SOL    HW125601   2.998   3.850   0.086
 8234SOL    HW225602   2.894   3.912   6.998
 8235SOL     OW25603   1.737   3.473   0.346
 8235SOL    HW125604   1.684   3.558   0.346
 8235SOL    HW225605   1.726   3.427   0.258
 8236SOL     OW25606   0.033   4.023   0.269
 8236SOL    HW125607   0.090   3.943   0.253
 8236SOL    HW225608   0.044   4.053   0.364
 8237SOL     OW25609   5.204   5.983   4.433
 8237SOL    HW125610   5.129   6.031   4.388
 8237SOL    HW225611   5.241   5.914   4.371
 8238SOL     OW25612   1.778   4.914   0.499
 8238SOL    HW125613   1.813   4.953   0.413
 8238SOL    HW225614   1.829   4.952   0.576
 8239SOL     OW25615   6.581   1.167   5.248
 8239SOL    HW125616   6.564   1.178   5.345
 8239SOL    HW225617   6.648   1.094   5.233
 8240SOL     OW25618   3.311   3.837   2.882
 8240SOL    HW125619   3.344   3.930   2.897
 8240SOL    HW225620   3.228   3.822   2.936
 8241SOL     OW25621   3.832   6.712   0.112
 8241SOL    HW125622   3.805   6.717   0.016
 8241SOL    HW225623   3.751   6.725   0.170
 8242SOL     OW25624   1.161   4.407   5.812
 8242SOL    HW125625   1.130   4.383   5.904
 8242SOL    HW225626   1.156   4.506   5.800
 8243SOL     OW25627   1.025   3.020   0.424
 8243SOL    HW125628   1.057   2.955   0.493
 8243SOL    HW225629   1.064   2.997   0.335
 8244SOL     OW25630   1.082   0.077   3.765
 8244SOL    HW125631   1.177   0.089   3.736
 8244SOL    HW225632   1.068   0.126   3.852
 8245SOL     OW25633   3.860   1.601   2.938
 8245SOL    HW125634   3.844   1.612   3.036
 8245SOL    HW225635   3.872   1.691   2.896
 8246SOL     OW25636   0.114   3.130   5.444
 8246SOL    HW125637   0.051   3.064   5.404
 8246SOL    HW225638   0.178   3.083   5.505
 8247SOL     OW25639   1.115   0.268   2.488
 8247SOL    HW125640   1.178   0.195   2.461
 8247SOL    HW225641   1.028   0.228   2.519
 8248SOL     OW25642   5.706   5.345   3.771
 8248SOL    HW125643   5.748   5.289   3.700
 8248SOL    HW225644   5.607   5.341   3.763
 8249SOL     OW25645   2.274   3.035   5.556
 8249SOL    HW125646   2.293   2.940   5.530
 8249SOL    HW225647   2.274   3.092   5.474
 8250SOL     OW25648   3.369   4.081   2.405
 8250SOL    HW125649   3.360   4.062   2.503
 8250SOL    HW225650   3.458   4.121   2.387
 8251SOL     OW25651   6.012   2.842   4.283
 8251SOL    HW125652   5.951   2.860   4.206
 8251SOL    HW225653   5.991   2.905   4.358
 8252SOL     OW25654   3.229   2.769   6.293
 8252SOL    HW125655   3.163   2.718   6.238
 8252SOL    HW225656   3.261   2.848   6.241
 8253SOL     OW25657   4.097   4.227   5.319
 8253SOL    HW125658   4.138   4.293   5.256
 8253SOL    HW225659   4.003   4.208   5.291
 8254SOL     OW25660   4.570   4.666   4.621
 8254SOL    HW125661   4.635   4.741   4.607
 8254SOL    HW225662   4.495   4.674   4.556
 8255SOL     OW25663   3.020   6.133   5.085
 8255SOL    HW125664   2.984   6.175   5.168
 8255SOL    HW225665   3.075   6.201   5.034
 8256SOL     OW25666   6.279   1.110   2.029
 8256SOL    HW125667   6.234   1.149   2.109
 8256SOL    HW225668   6.308   1.016   2.049
 8257SOL     OW25669   6.488   4.063   3.716
 8257SOL    HW125670   6.446   4.105   3.635
 8257SOL    HW225671   6.532   3.977   3.689
 8258SOL     OW25672   5.332   0.999   0.501
 8258SOL    HW125673   5.247   1.013   0.553
 8258SOL    HW225674   5.314   1.015   0.404
 8259SOL     OW25675   4.609   2.026   3.250
 8259SOL    HW125676   4.613   2.092   3.174
 8259SOL    HW225677   4.658   1.943   3.224
 8260SOL     OW25678   2.757   7.020   2.113
 8260SOL    HW125679   2.796   0.074   2.164
 8260SOL    HW225680   2.778   6.934   2.159
 8261SOL     OW25681   6.559   1.303   2.228
 8261SOL    HW125682   6.467   1.299   2.268
 8261SOL    HW225683   6.593   1.396   2.232
 8262SOL     OW25684   0.779   3.073   0.459
 8262SOL    HW125685   0.716   3.011   0.413
 8262SOL    HW225686   0.873   3.043   0.444
 8263SOL     OW25687   1.081   2.571   0.437
 8263SOL    HW125688   1.147   2.497   0.450
 8263SOL    HW225689   1.095   2.614   0.348
 8264SOL     OW25690   2.533   6.193   2.424
 8264SOL    HW125691   2.471   6.232   2.492
 8264SOL    HW225692   2.484   6.180   2.337
 8265SOL     OW25693   0.838   7.008   1.386
 8265SOL    HW125694   0.869   6.951   1.463
 8265SOL    HW225695   0.742   6.989   1.368
 8266SOL     OW25696   2.241   1.297   3.929
 8266SOL    HW125697   2.209   1.313   4.022
 8266SOL    HW225698   2.250   1.385   3.881
 8267SOL     OW25699   1.792   2.921   1.098
 8267SOL    HW125700   1.801   3.020   1.087
 8267SOL    HW225701   1.882   2.879   1.100
 8268SOL     OW25702   2.445   6.397   5.677
 8268SOL    HW125703   2.373   6.342   5.636
 8268SOL    HW225704   2.414   6.431   5.766
 8269SOL     OW25705   5.167   1.542   1.555
 8269SOL    HW125706   5.199   1.451   1.531
 8269SOL    HW225707   5.067   1.546   1.547
 8270SOL     OW25708   2.821   6.655   5.190
 8270SOL    HW125709   2.879   6.630   5.113
 8270SOL    HW225710   2.816   6.578   5.254
 8271SOL     OW25711   0.093   0.932   2.757
 8271SOL    HW125712   0.127   0.847   2.716
 8271SOL    HW225713   0.040   0.982   2.689
 8272SOL     OW25714   4.823   1.843   1.482
 8272SOL    HW125715   4.914   1.874   1.511
 8272SOL    HW225716   4.830   1.750   1.445
 8273SOL     OW25717   1.993   6.281   0.816
 8273SOL    HW125718   1.983   6.182   0.822
 8273SOL    HW225719   1.989   6.309   0.720
 8274SOL     OW25720   4.833   4.541   3.000
 8274SOL    HW125721   4.781   4.479   3.060
 8274SOL    HW225722   4.828   4.509   2.906
 8275SOL     OW25723   4.881   1.708   5.782
 8275SOL    HW125724   4.937   1.684   5.862
 8275SOL    HW225725   4.794   1.746   5.813
 8276SOL     OW25726   1.234   2.669   3.578
 8276SOL    HW125727   1.159   2.669   3.644
 8276SOL    HW225728   1.226   2.748   3.518
 8277SOL     OW25729   6.483   0.595   0.471
 8277SOL    HW125730   6.516   0.689   0.465
 8277SOL    HW225731   6.528   0.549   0.547
 8278SOL     OW25732   2.897   1.854   5.467
 8278SOL    HW125733   2.822   1.866   5.402
 8278SOL    HW225734   2.892   1.763   5.507
 8279SOL     OW25735   1.607   0.423   4.032
 8279SOL    HW125736   1.588   0.519   4.014
 8279SOL    HW225737   1.573   0.398   4.122
 8280SOL     OW25738   2.264   2.513   0.483
 8280SOL    HW125739   2.312   2.560   0.557
 8280SOL    HW225740   2.207   2.578   0.434
 8281SOL     OW25741   2.251   4.917   1.426
 8281SOL    HW125742   2.178   4.908   1.493
 8281SOL    HW225743   2.252   4.836   1.367
 8282SOL     OW25744   5.234   3.682   0.321
 8282SOL    HW125745   5.138   3.678   0.293
 8282SOL    HW225746   5.283   3.748   0.264
 8283SOL     OW25747   2.248   5.397   0.228
 8283SOL    HW125748   2.223   5.392   0.132
 8283SOL    HW225749   2.325   5.459   0.240
 8284SOL     OW25750   1.112   3.648   0.589
 8284SOL    HW125751   1.031   3.590   0.594
 8284SOL    HW225752   1.187   3.606   0.641
 8285SOL     OW25753   3.150   3.048   5.030
 8285SOL    HW125754   3.088   3.016   5.101
 8285SOL    HW225755   3.234   2.994   5.031
 8286SOL     OW25756   5.473   3.246   6.620
 8286SOL    HW125757   5.482   3.339   6.583
 8286SOL    HW225758   5.383   3.210   6.596
 8287SOL     OW25759   2.005   5.625   4.242
 8287SOL    HW125760   1.919   5.677   4.241
 8287SOL    HW225761   2.036   5.612   4.148
 8288SOL     OW25762   2.819   1.529   1.417
 8288SOL    HW125763   2.906   1.577   1.401
 8288SOL    HW225764   2.788   1.488   1.331
 8289SOL     OW25765   0.536   5.710   1.415
 8289SOL    HW125766   0.596   5.738   1.340
 8289SOL    HW225767   0.587   5.654   1.480
 8290SOL     OW25768   5.908   0.702   1.189
 8290SOL    HW125769   5.908   0.649   1.105
 8290SOL    HW225770   6.001   0.727   1.215
 8291SOL     OW25771   5.547   6.268   6.016
 8291SOL    HW125772   5.608   6.274   5.937
 8291SOL    HW225773   5.572   6.188   6.071
 8292SOL     OW25774   2.582   6.279   0.052
 8292SOL    HW125775   2.680   6.258   0.046
 8292SOL    HW225776   2.568   6.376   0.038
 8293SOL     OW25777   3.314   6.813   6.829
 8293SOL    HW125778   3.410   6.798   6.852
 8293SOL    HW225779   3.273   6.726   6.801
 8294SOL     OW25780   5.861   4.417   5.258
 8294SOL    HW125781   5.779   4.474   5.263
 8294SOL    HW225782   5.843   4.335   5.205
 8295SOL     OW25783   4.821   5.655   1.542
 8295SOL    HW125784   4.878   5.726   1.584
 8295SOL    HW225785   4.831   5.658   1.443
 8296SOL     OW25786   2.477   6.496   6.490
 8296SOL    HW125787   2.519   6.586   6.499
 8296SOL    HW225788   2.393   6.492   6.545
 8297SOL     OW25789   6.421   2.764   2.134
 8297SOL    HW125790   6.497   2.701   2.116
 8297SOL    HW225791   6.377   2.740   2.220
 8298SOL     OW25792   5.747   2.364   1.225
 8298SOL    HW125793   5.823   2.311   1.262
 8298SOL    HW225794   5.746   2.454   1.269
 8299SOL     OW25795   7.015   2.822   1.840
 8299SOL    HW125796   6.973   2.834   1.930
 8299SOL    HW225797   6.985   2.895   1.779
 8300SOL     OW25798   0.566   6.126   5.261
 8300SOL    HW125799   0.604   6.189   5.328
 8300SOL    HW225800   0.466   6.125   5.269
 8301SOL     OW25801   4.204   1.665   1.706
 8301SOL    HW125802   4.133   1.602   1.737
 8301SOL    HW225803   4.176   1.707   1.619
 8302SOL     OW25804   6.086   6.249   6.608
 8302SOL    HW125805   6.070   6.238   6.706
 8302SOL    HW225806   6.185   6.252   6.591
 8303SOL     OW25807   6.474   0.803   4.050
 8303SOL    HW125808   6.378   0.800   4.076
 8303SOL    HW225809   6.490   0.882   3.991
 8304SOL     OW25810   1.198   3.791   0.922
 8304SOL    HW125811   1.178   3.849   1.001
 8304SOL    HW225812   1.113   3.748   0.891
 8305SOL     OW25813   4.107   4.776   4.480
 8305SOL    HW125814   4.027   4.764   4.421
 8305SOL    HW225815   4.117   4.874   4.502
 8306SOL     OW25816   6.644   2.894   5.341
 8306SOL    HW125817   6.580   2.942   5.400
 8306SOL    HW225818   6.669   2.807   5.383
 8307SOL     OW25819   4.099   5.223   1.767
 8307SOL    HW125820   4.076   5.198   1.861
 8307SOL    HW225821   4.026   5.195   1.706
 8308SOL     OW25822   3.929   5.400   1.043
 8308SOL    HW125823   3.861   5.338   1.081
 8308SOL    HW225824   3.918   5.491   1.082
 8309SOL     OW25825   6.106   5.836   3.462
 8309SOL    HW125826   6.187   5.892   3.450
 8309SOL    HW225827   6.079   5.836   3.558
 8310SOL     OW25828   1.072   4.553   0.622
 8310SOL    HW125829   1.155   4.498   0.635
 8310SOL    HW225830   0.997   4.494   0.593
 8311SOL     OW25831   0.587   1.059   4.787
 8311SOL    HW125832   0.508   1.001   4.768
 8311SOL    HW225833   0.557   1.153   4.798
 8312SOL     OW25834   4.323   6.654   0.896
 8312SOL    HW125835   4.252   6.647   0.966
 8312SOL    HW225836   4.282   6.643   0.806
 8313SOL     OW25837   5.034   0.824   2.531
 8313SOL    HW125838   4.960   0.761   2.554
 8313SOL    HW225839   5.010   0.916   2.563
 8314SOL     OW25840   4.658   0.021   1.030
 8314SOL    HW125841   4.591   6.984   0.986
 8314SOL    HW225842   4.748   6.999   1.027
 8315SOL     OW25843   3.884   3.464   0.724
 8315SOL    HW125844   3.932   3.382   0.759
 8315SOL    HW225845   3.786   3.451   0.735
 8316SOL     OW25846   0.948   2.326   1.594
 8316SOL    HW125847   1.011   2.397   1.625
 8316SOL    HW225848   0.982   2.237   1.624
 8317SOL     OW25849   2.259   2.538   2.635
 8317SOL    HW125850   2.300   2.454   2.600
 8317SOL    HW225851   2.184   2.516   2.698
 8318SOL     OW25852   4.514   1.041   5.019
 8318SOL    HW125853   4.425   1.066   4.980
 8318SOL    HW225854   4.540   1.108   5.088
 8319SOL     OW25855   2.787   1.315   6.376
 8319SOL    HW125856   2.690   1.331   6.398
 8319SOL    HW225857   2.817   1.381   6.307
 8320SOL     OW25858   3.371   3.748   1.601
 8320SOL    HW125859   3.471   3.748   1.603
 8320SOL    HW225860   3.336   3.765   1.693
 8321SOL     OW25861   7.000   1.063   0.492
 8321SOL    HW125862   6.997   1.050   0.393
 8321SOL    HW225863   6.954   1.148   0.516
 8322SOL     OW25864   0.222   0.697   0.668
 8322SOL    HW125865   0.128   0.732   0.665
 8322SOL    HW225866   0.231   0.620   0.606
 8323SOL     OW25867   5.657   5.653   2.663
 8323SOL    HW125868   5.617   5.733   2.620
 8323SOL    HW225869   5.609   5.571   2.634
 8324SOL     OW25870   5.563   1.119   1.660
 8324SOL    HW125871   5.562   1.133   1.759
 8324SOL    HW225872   5.536   1.204   1.614
 8325SOL     OW25873   3.200   3.411   5.285
 8325SOL    HW125874   3.293   3.420   5.250
 8325SOL    HW225875   3.142   3.367   5.216
 8326SOL     OW25876   4.752   3.241   5.203
 8326SOL    HW125877   4.708   3.312   5.148
 8326SOL    HW225878   4.851   3.249   5.194
 8327SOL     OW25879   6.230   2.062   6.211
 8327SOL    HW125880   6.295   2.066   6.287
 8327SOL    HW225881   6.207   1.966   6.192
 8328SOL     OW25882   2.476   4.466   5.631
 8328SOL    HW125883   2.544   4.502   5.568
 8328SOL    HW225884   2.420   4.398   5.585
 8329SOL     OW25885   0.174   3.623   6.270
 8329SOL    HW125886   0.121   3.683   6.329
 8329SOL    HW225887   0.164   3.652   6.175
 8330SOL     OW25888   2.931   6.997   0.208
 8330SOL    HW125889   2.988   0.045   0.252
 8330SOL    HW225890   2.918   7.020   0.112
 8331SOL     OW25891   2.620   1.316   1.018
 8331SOL    HW125892   2.549   1.378   0.987
 8331SOL    HW225893   2.665   1.355   1.099
 8332SOL     OW25894   5.020   4.682   2.611
 8332SOL    HW125895   5.071   4.762   2.582
 8332SOL    HW225896   5.025   4.672   2.710
 8333SOL     OW25897   0.567   6.449   6.508
 8333SOL    HW125898   0.498   6.486   6.447
 8333SOL    HW225899   0.527   6.377   6.565
 8334SOL     OW25900   4.348   1.306   3.981
 8334SOL    HW125901   4.308   1.376   3.922
 8334SOL    HW225902   4.387   1.233   3.925
 8335SOL     OW25903   6.486   5.249   6.263
 8335SOL    HW125904   6.560   5.183   6.248
 8335SOL    HW225905   6.496   5.326   6.200
 8336SOL     OW25906   6.481   6.709   2.841
 8336SOL    HW125907   6.571   6.738   2.872
 8336SOL    HW225908   6.413   6.777   2.868
 8337SOL     OW25909   0.796   6.334   3.127
 8337SOL    HW125910   0.808   6.424   3.085
 8337SOL    HW225911   0.874   6.276   3.105
 8338SOL     OW25912   2.241   4.934   1.883
 8338SOL    HW125913   2.281   4.856   1.932
 8338SOL    HW225914   2.212   4.905   1.792
 8339SOL     OW25915   5.889   0.261   1.920
 8339SOL    HW125916   5.888   0.247   1.821
 8339SOL    HW225917   5.950   0.336   1.943
 8340SOL     OW25918   5.334   3.848   1.509
 8340SOL    HW125919   5.327   3.823   1.412
 8340SOL    HW225920   5.280   3.929   1.527
 8341SOL     OW25921   1.995   6.902   6.648
 8341SOL    HW125922   2.056   6.845   6.592
 8341SOL    HW225923   2.049   6.974   6.692
 8342SOL     OW25924   3.661   0.303   1.454
 8342SOL    HW125925   3.688   0.268   1.543
 8342SOL    HW225926   3.636   0.226   1.394
 8343SOL     OW25927   1.026   4.819   5.951
 8343SOL    HW125928   1.038   4.910   5.911
 8343SOL    HW225929   1.045   4.750   5.881
 8344SOL     OW25930   4.450   0.549   5.238
 8344SOL    HW125931   4.395   0.500   5.170
 8344SOL    HW225932   4.467   0.642   5.204
 8345SOL     OW25933   5.116   1.610   3.569
 8345SOL    HW125934   5.169   1.658   3.640
 8345SOL    HW225935   5.020   1.609   3.594
 8346SOL     OW25936   2.469   4.435   0.445
 8346SOL    HW125937   2.464   4.534   0.434
 8346SOL    HW225938   2.385   4.393   0.409
 8347SOL     OW25939   3.794   5.341   4.770
 8347SOL    HW125940   3.849   5.287   4.706
 8347SOL    HW225941   3.744   5.411   4.719
 8348SOL     OW25942   1.031   0.056   2.107
 8348SOL    HW125943   1.072   0.126   2.165
 8348SOL    HW225944   1.000   7.002   2.164
 8349SOL     OW25945   6.211   6.245   1.797
 8349SOL    HW125946   6.284   6.184   1.827
 8349SOL    HW225947   6.197   6.235   1.698
 8350SOL     OW25948   4.834   1.030   4.812
 8350SOL    HW125949   4.911   0.971   4.786
 8350SOL    HW225950   4.752   0.999   4.765
 8351SOL     OW25951   4.821   5.216   4.231
 8351SOL    HW125952   4.857   5.178   4.146
 8351SOL    HW225953   4.874   5.297   4.256
 8352SOL     OW25954   6.921   6.130   2.897
 8352SOL    HW125955   6.902   6.227   2.884
 8352SOL    HW225956   6.911   6.106   2.993
 8353SOL     OW25957   6.575   3.369   1.564
 8353SOL    HW125958   6.583   3.319   1.478
 8353SOL    HW225959   6.482   3.362   1.598
 8354SOL     OW25960   3.847   0.303   6.776
 8354SOL    HW125961   3.897   0.320   6.862
 8354SOL    HW225962   3.832   0.205   6.766
 8355SOL     OW25963   2.728   0.224   6.924
 8355SOL    HW125964   2.800   0.155   6.914
 8355SOL    HW225965   2.734   0.289   6.847
 8356SOL     OW25966   1.670   6.448   0.916
 8356SOL    HW125967   1.689   6.389   0.995
 8356SOL    HW225968   1.595   6.410   0.863
 8357SOL     OW25969   4.028   0.201   5.948
 8357SOL    HW125970   3.985   0.221   6.036
 8357SOL    HW225971   4.094   0.127   5.959
 8358SOL     OW25972   0.832   3.508   5.657
 8358SOL    HW125973   0.818   3.461   5.569
 8358SOL    HW225974   0.878   3.596   5.640
 8359SOL     OW25975   3.140   6.163   4.681
 8359SOL    HW125976   3.192   6.191   4.600
 8359SOL    HW225977   3.114   6.067   4.672
 8360SOL     OW25978   3.597   6.068   1.141
 8360SOL    HW125979   3.632   6.113   1.059
 8360SOL    HW225980   3.618   6.124   1.221
 8361SOL     OW25981   2.301   0.392   2.752
 8361SOL    HW125982   2.377   0.361   2.694
 8361SOL    HW225983   2.302   0.492   2.757
 8362SOL     OW25984   3.030   1.649   0.755
 8362SOL    HW125985   2.982   1.673   0.671
 8362SOL    HW225986   2.970   1.595   0.814
 8363SOL     OW25987   0.674   2.825   0.311
 8363SOL    HW125988   0.668   2.764   0.390
 8363SOL    HW225989   0.727   2.781   0.239
 8364SOL     OW25990   6.389   3.112   2.669
 8364SOL    HW125991   6.450   3.035   2.658
 8364SOL    HW225992   6.410   3.160   2.754
 8365SOL     OW25993   1.767   4.307   1.980
 8365SOL    HW125994   1.834   4.381   1.988
 8365SOL    HW225995   1.769   4.251   2.063
 8366SOL     OW25996   3.116   5.459   2.143
 8366SOL    HW125997   3.138   5.362   2.148
 8366SOL    HW225998   3.150   5.496   2.057
 8367SOL     OW25999   4.097   5.974   3.861
 8367SOL    HW126000   4.093   5.926   3.949
 8367SOL    HW226001   4.149   6.058   3.871
 8368SOL     OW26002   2.242   6.765   5.803
 8368SOL    HW126003   2.294   6.839   5.846
 8368SOL    HW226004   2.245   6.775   5.704
 8369SOL     OW26005   1.815   6.728   6.826
 8369SOL    HW126006   1.873   6.794   6.778
 8369SOL    HW226007   1.771   6.774   6.904
 8370SOL     OW26008   2.518   1.992   5.646
 8370SOL    HW126009   2.545   2.030   5.557
 8370SOL    HW226010   2.592   2.008   5.712
 8371SOL     OW26011   1.914   4.198   1.649
 8371SOL    HW126012   1.933   4.195   1.747
 8371SOL    HW226013   1.942   4.113   1.606
 8372SOL     OW26014   0.454   5.650   2.188
 8372SOL    HW126015   0.511   5.656   2.270
 8372SOL    HW226016   0.452   5.555   2.156
 8373SOL     OW26017   1.500   0.692   3.967
 8373SOL    HW126018   1.523   0.773   4.021
 8373SOL    HW226019   1.475   0.719   3.874
 8374SOL     OW26020   6.843   0.843   6.272
 8374SOL    HW126021   6.915   0.783   6.237
 8374SOL    HW226022   6.874   0.938   6.271
 8375SOL     OW26023   3.255   0.014   6.223
 8375SOL    HW126024   3.330   0.081   6.215
 8375SOL    HW226025   3.176   0.058   6.265
 8376SOL     OW26026   2.120   0.582   4.362
 8376SOL    HW126027   2.140   0.648   4.290
 8376SOL    HW226028   2.202   0.566   4.417
 8377SOL     OW26029   5.761   5.710   1.481
 8377SOL    HW126030   5.797   5.776   1.547
 8377SOL    HW226031   5.777   5.743   1.389
 8378SOL     OW26032   4.772   4.782   3.135
 8378SOL    HW126033   4.679   4.792   3.099
 8378SOL    HW226034   4.831   4.740   3.066
 8379SOL     OW26035   6.414   2.202   1.195
 8379SOL    HW126036   6.433   2.104   1.185
 8379SOL    HW226037   6.500   2.251   1.209
 8380SOL     OW26038   6.662   1.557   2.534
 8380SOL    HW126039   6.710   1.551   2.447
 8380SOL    HW226040   6.608   1.474   2.549
 8381SOL     OW26041   0.257   4.077   4.814
 8381SOL    HW126042   0.158   4.090   4.811
 8381SOL    HW226043   0.299   4.121   4.735
 8382SOL     OW26044   1.118   0.741   1.992
 8382SOL    HW126045   1.036   0.783   2.030
 8382SOL    HW226046   1.093   0.666   1.931
 8383SOL     OW26047   2.471   0.501   5.907
 8383SOL    HW126048   2.396   0.438   5.921
 8383SOL    HW226049   2.442   0.575   5.845
 8384SOL     OW26050   0.407   6.991   0.514
 8384SOL    HW126051   0.473   0.029   0.468
 8384SOL    HW226052   0.363   0.019   0.588
 8385SOL     OW26053   5.910   2.356   1.609
 8385SOL    HW126054   5.818   2.396   1.606
 8385SOL    HW226055   5.925   2.303   1.525
 8386SOL     OW26056   0.806   4.268   2.406
 8386SOL    HW126057   0.881   4.213   2.442
 8386SOL    HW226058   0.820   4.284   2.308
 8387SOL     OW26059   1.014   1.300   1.798
 8387SOL    HW126060   1.113   1.301   1.785
 8387SOL    HW226061   0.990   1.354   1.879
 8388SOL     OW26062   1.707   6.412   0.559
 8388SOL    HW126063   1.641   6.397   0.485
 8388SOL    HW226064   1.756   6.497   0.542
 8389SOL     OW26065   6.255   3.824   2.899
 8389SOL    HW126066   6.348   3.787   2.905
 8389SOL    HW226067   6.254   3.916   2.938
 8390SOL     OW26068   3.819   1.338   6.545
 8390SOL    HW126069   3.855   1.367   6.633
 8390SOL    HW226070   3.720   1.353   6.543
 8391SOL     OW26071   6.305   5.465   0.099
 8391SOL    HW126072   6.264   5.415   0.175
 8391SOL    HW226073   6.235   5.523   0.056
 8392SOL     OW26074   6.554   3.838   3.536
 8392SOL    HW126075   6.491   3.773   3.494
 8392SOL    HW226076   6.619   3.871   3.468
 8393SOL     OW26077   6.159   1.062   2.497
 8393SOL    HW126078   6.088   1.130   2.517
 8393SOL    HW226079   6.232   1.105   2.443
 8394SOL     OW26080   5.824   2.894   1.483
 8394SOL    HW126081   5.893   2.904   1.412
 8394SOL    HW226082   5.739   2.937   1.455
 8395SOL     OW26083   2.847   6.788   5.450
 8395SOL    HW126084   2.828   6.762   5.356
 8395SOL    HW226085   2.763   6.823   5.493
 8396SOL     OW26086   5.195   4.748   3.356
 8396SOL    HW126087   5.256   4.827   3.361
 8396SOL    HW226088   5.100   4.780   3.347
 8397SOL     OW26089   1.069   1.114   3.125
 8397SOL    HW126090   1.009   1.120   3.205
 8397SOL    HW226091   1.160   1.082   3.154
 8398SOL     OW26092   4.960   2.751   5.777
 8398SOL    HW126093   4.970   2.847   5.801
 8398SOL    HW226094   5.038   2.699   5.812
 8399SOL     OW26095   6.031   6.498   6.880
 8399SOL    HW126096   6.119   6.544   6.865
 8399SOL    HW226097   6.046   6.414   6.931
 8400SOL     OW26098   1.901   2.357   3.841
 8400SOL    HW126099   1.858   2.447   3.853
 8400SOL    HW226100   1.838   2.285   3.868
 8401SOL     OW26101   1.808   1.633   5.126
 8401SOL    HW126102   1.783   1.537   5.110
 8401SOL    HW226103   1.737   1.676   5.182
 8402SOL     OW26104   5.404   1.561   6.339
 8402SOL    HW126105   5.347   1.597   6.413
 8402SOL    HW226106   5.386   1.463   6.328
 8403SOL     OW26107   0.381   3.501   4.070
 8403SOL    HW126108   0.411   3.409   4.044
 8403SOL    HW226109   0.303   3.528   4.014
 8404SOL     OW26110   3.755   0.087   5.904
 8404SOL    HW126111   3.823   0.147   5.946
 8404SOL    HW226112   3.707   0.037   5.976
 8405SOL     OW26113   3.025   1.742   5.903
 8405SOL    HW126114   2.931   1.709   5.898
 8405SOL    HW226115   3.024   1.841   5.918
 8406SOL     OW26116   4.232   0.190   0.334
 8406SOL    HW126117   4.288   0.137   0.398
 8406SOL    HW226118   4.221   0.138   0.249
 8407SOL     OW26119   4.120   6.243   3.535
 8407SOL    HW126120   4.159   6.153   3.555
 8407SOL    HW226121   4.113   6.256   3.436
 8408SOL     OW26122   5.484   4.801   1.030
 8408SOL    HW126123   5.490   4.701   1.028
 8408SOL    HW226124   5.435   4.833   0.949
 8409SOL     OW26125   4.727   2.382   2.095
 8409SOL    HW126126   4.743   2.297   2.045
 8409SOL    HW226127   4.774   2.378   2.183
 8410SOL     OW26128   6.268   1.692   1.688
 8410SOL    HW126129   6.356   1.698   1.640
 8410SOL    HW226130   6.279   1.726   1.782
 8411SOL     OW26131   0.153   5.806   1.213
 8411SOL    HW126132   0.222   5.794   1.142
 8411SOL    HW226133   0.123   5.717   1.246
 8412SOL     OW26134   3.579   2.251   1.141
 8412SOL    HW126135   3.504   2.243   1.206
 8412SOL    HW226136   3.561   2.327   1.078
 8413SOL     OW26137   4.663   5.731   6.072
 8413SOL    HW126138   4.640   5.816   6.119
 8413SOL    HW226139   4.742   5.688   6.116
 8414SOL     OW26140   2.208   0.707   3.405
 8414SOL    HW126141   2.151   0.701   3.487
 8414SOL    HW226142   2.296   0.662   3.422
 8415SOL     OW26143   1.517   6.733   4.186
 8415SOL    HW126144   1.586   6.805   4.188
 8415SOL    HW226145   1.447   6.751   4.255
 8416SOL     OW26146   6.381   1.695   4.786
 8416SOL    HW126147   6.413   1.790   4.789
 8416SOL    HW226148   6.360   1.670   4.692
 8417SOL     OW26149   0.976   2.898   5.478
 8417SOL    HW126150   1.051   2.861   5.423
 8417SOL    HW226151   0.986   2.998   5.484
 8418SOL     OW26152   0.095   5.553   2.009
 8418SOL    HW126153   0.023   5.555   1.940
 8418SOL    HW226154   0.133   5.645   2.021
 8419SOL     OW26155   5.352   1.026   2.226
 8419SOL    HW126156   5.368   0.933   2.259
 8419SOL    HW226157   5.440   1.070   2.208
 8420SOL     OW26158   3.459   6.862   1.736
 8420SOL    HW126159   3.488   6.788   1.797
 8420SOL    HW226160   3.459   6.829   1.641
 8421SOL     OW26161   3.787   4.368   0.065
 8421SOL    HW126162   3.885   4.353   0.049
 8421SOL    HW226163   3.737   4.286   0.040
 8422SOL     OW26164   4.184   1.416   2.191
 8422SOL    HW126165   4.190   1.352   2.115
 8422SOL    HW226166   4.273   1.460   2.205
 8423SOL     OW26167   4.360   4.434   5.671
 8423SOL    HW126168   4.284   4.436   5.735
 8423SOL    HW226169   4.390   4.340   5.657
 8424SOL     OW26170   1.993   2.667   3.064
 8424SOL    HW126171   1.921   2.694   3.128
 8424SOL    HW226172   1.952   2.631   2.980
 8425SOL     OW26173   4.138   3.556   4.713
 8425SOL    HW126174   4.148   3.622   4.788
 8425SOL    HW226175   4.227   3.538   4.672
 8426SOL     OW26176   3.556   3.253   2.799
 8426SOL    HW126177   3.574   3.157   2.781
 8426SOL    HW226178   3.468   3.279   2.760
 8427SOL     OW26179   3.226   4.046   3.807
 8427SOL    HW126180   3.316   4.087   3.795
 8427SOL    HW226181   3.192   4.012   3.719
 8428SOL     OW26182   0.250   6.710   1.720
 8428SOL    HW126183   0.306   6.788   1.691
 8428SOL    HW226184   0.307   6.645   1.770
 8429SOL     OW26185   1.539   5.482   5.459
 8429SOL    HW126186   1.533   5.458   5.362
 8429SOL    HW226187   1.631   5.461   5.493
 8430SOL     OW26188   4.022   4.798   4.040
 8430SOL    HW126189   3.955   4.800   3.965
 8430SOL    HW226190   3.978   4.830   4.124
 8431SOL     OW26191   4.071   3.553   0.246
 8431SOL    HW126192   4.107   3.473   0.199
 8431SOL    HW226193   4.033   3.525   0.334
 8432SOL     OW26194   6.420   5.026   5.693
 8432SOL    HW126195   6.367   4.955   5.740
 8432SOL    HW226196   6.358   5.096   5.657
 8433SOL     OW26197   4.466   2.948   0.860
 8433SOL    HW126198   4.457   2.866   0.917
 8433SOL    HW226199   4.391   2.950   0.793
 8434SOL     OW26200   2.531   6.862   4.579
 8434SOL    HW126201   2.494   6.855   4.672
 8434SOL    HW226202   2.458   6.892   4.517
 8435SOL     OW26203   5.661   0.045   2.818
 8435SOL    HW126204   5.686   0.102   2.740
 8435SOL    HW226205   5.612   0.100   2.886
 8436SOL     OW26206   3.562   6.525   4.000
 8436SOL    HW126207   3.591   6.613   4.037
 8436SOL    HW226208   3.472   6.501   4.038
 8437SOL     OW26209   2.542   2.502   2.525
 8437SOL    HW126210   2.584   2.525   2.438
 8437SOL    HW226211   2.457   2.554   2.536
 8438SOL     OW26212   2.607   4.588   2.986
 8438SOL    HW126213   2.625   4.498   2.945
 8438SOL    HW226214   2.520   4.623   2.952
 8439SOL     OW26215   6.349   4.503   2.642
 8439SOL    HW126216   6.284   4.503   2.718
 8439SOL    HW226217   6.441   4.485   2.677
 8440SOL     OW26218   2.682   2.373   3.198
 8440SOL    HW126219   2.592   2.417   3.196
 8440SOL    HW226220   2.737   2.406   3.121
 8441SOL     OW26221   6.035   6.149   6.096
 8441SOL    HW126222   5.964   6.171   6.163
 8441SOL    HW226223   6.114   6.209   6.110
 8442SOL     OW26224   3.740   1.623   4.733
 8442SOL    HW126225   3.818   1.560   4.739
 8442SOL    HW226226   3.662   1.585   4.782
 8443SOL     OW26227   2.041   5.059   3.547
 8443SOL    HW126228   2.125   5.014   3.577
 8443SOL    HW226229   1.992   5.095   3.626
 8444SOL     OW26230   3.226   6.819   3.591
 8444SOL    HW126231   3.214   6.905   3.641
 8444SOL    HW226232   3.322   6.806   3.570
 8445SOL     OW26233   2.784   0.389   1.029
 8445SOL    HW126234   2.728   0.310   1.004
 8445SOL    HW226235   2.872   0.384   0.981
 8446SOL     OW26236   6.430   4.817   5.288
 8446SOL    HW126237   6.500   4.771   5.234
 8446SOL    HW226238   6.473   4.866   5.364
 8447SOL     OW26239   3.740   1.205   1.454
 8447SOL    HW126240   3.741   1.284   1.516
 8447SOL    HW226241   3.702   1.126   1.502
 8448SOL     OW26242   4.595   6.375   3.471
 8448SOL    HW126243   4.529   6.365   3.397
 8448SOL    HW226244   4.578   6.305   3.540
 8449SOL     OW26245   0.106   3.049   3.423
 8449SOL    HW126246   0.008   3.067   3.422
 8449SOL    HW226247   0.134   3.010   3.336
 8450SOL     OW26248   0.747   1.006   1.419
 8450SOL    HW126249   0.820   0.974   1.359
 8450SOL    HW226250   0.784   1.073   1.484
 8451SOL     OW26251   3.163   0.969   0.268
 8451SOL    HW126252   3.097   1.044   0.270
 8451SOL    HW226253   3.232   0.988   0.197
 8452SOL     OW26254   5.649   2.711   4.634
 8452SOL    HW126255   5.672   2.711   4.731
 8452SOL    HW226256   5.550   2.709   4.623
 8453SOL     OW26257   0.072   5.501   0.438
 8453SOL    HW126258   0.017   5.442   0.497
 8453SOL    HW226259   0.012   5.556   0.381
 8454SOL     OW26260   0.306   5.258   0.454
 8454SOL    HW126261   0.323   5.179   0.513
 8454SOL    HW226262   0.228   5.239   0.395
 8455SOL     OW26263   6.917   2.133   3.142
 8455SOL    HW126264   6.890   2.047   3.184
 8455SOL    HW226265   6.926   2.203   3.213
 8456SOL     OW26266   4.259   0.506   3.483
 8456SOL    HW126267   4.305   0.422   3.511
 8456SOL    HW226268   4.323   0.582   3.486
 8457SOL     OW26269   6.663   6.142   4.804
 8457SOL    HW126270   6.629   6.200   4.730
 8457SOL    HW226271   6.762   6.139   4.802
 8458SOL     OW26272   1.945   0.272   0.359
 8458SOL    HW126273   2.014   0.205   0.333
 8458SOL    HW226274   1.872   0.273   0.290
 8459SOL     OW26275   2.141   5.819   3.165
 8459SOL    HW126276   2.183   5.750   3.106
 8459SOL    HW226277   2.168   5.910   3.134
 8460SOL     OW26278   4.416   3.916   5.335
 8460SOL    HW126279   4.495   3.869   5.296
 8460SOL    HW226280   4.432   3.933   5.433
 8461SOL     OW26281   0.697   2.715   4.743
 8461SOL    HW126282   0.767   2.763   4.796
 8461SOL    HW226283   0.632   2.781   4.706
 8462SOL     OW26284   3.322   1.511   6.583
 8462SOL    HW126285   3.295   1.607   6.572
 8462SOL    HW226286   3.300   1.481   6.676
 8463SOL     OW26287   6.633   0.030   2.050
 8463SOL    HW126288   6.719   7.011   2.081
 8463SOL    HW226289   6.622   0.120   2.090
 8464SOL     OW26290   5.655   4.685   3.763
 8464SOL    HW126291   5.645   4.724   3.854
 8464SOL    HW226292   5.569   4.642   3.735
 8465SOL     OW26293   1.677   2.406   0.742
 8465SOL    HW126294   1.630   2.338   0.685
 8465SOL    HW226295   1.631   2.494   0.733
 8466SOL     OW26296   1.055   6.834   3.771
 8466SOL    HW126297   0.980   6.811   3.709
 8466SOL    HW226298   1.062   6.933   3.780
 8467SOL     OW26299   2.611   6.100   0.515
 8467SOL    HW126300   2.647   6.193   0.521
 8467SOL    HW226301   2.683   6.035   0.538
 8468SOL     OW26302   3.270   1.409   0.903
 8468SOL    HW126303   3.316   1.495   0.879
 8468SOL    HW226304   3.222   1.420   0.990
 8469SOL     OW26305   3.071   2.587   6.661
 8469SOL    HW126306   3.037   2.502   6.700
 8469SOL    HW226307   3.068   2.659   6.730
 8470SOL     OW26308   2.531   3.697   1.235
 8470SOL    HW126309   2.531   3.776   1.296
 8470SOL    HW226310   2.559   3.616   1.285
 8471SOL     OW26311   3.072   1.011   3.100
 8471SOL    HW126312   3.116   0.988   3.187
 8471SOL    HW226313   2.974   0.993   3.107
 8472SOL     OW26314   0.026   6.813   4.102
 8472SOL    HW126315   6.953   6.805   4.073
 8472SOL    HW226316   0.070   6.889   4.055
 8473SOL     OW26317   0.353   5.423   6.614
 8473SOL    HW126318   0.261   5.402   6.648
 8473SOL    HW226319   0.415   5.437   6.691
 8474SOL     OW26320   3.025   2.982   1.874
 8474SOL    HW126321   3.087   3.060   1.873
 8474SOL    HW226322   2.988   2.969   1.966
 8475SOL     OW26323   6.714   1.416   2.828
 8475SOL    HW126324   6.656   1.365   2.764
 8475SOL    HW226325   6.717   1.512   2.799
 8476SOL     OW26326   6.206   0.853   2.156
 8476SOL    HW126327   6.161   0.813   2.076
 8476SOL    HW226328   6.139   0.871   2.227
 8477SOL     OW26329   3.112   6.437   1.328
 8477SOL    HW126330   3.146   6.408   1.239
 8477SOL    HW226331   3.137   6.370   1.397
 8478SOL     OW26332   1.027   0.347   5.917
 8478SOL    HW126333   1.109   0.403   5.908
 8478SOL    HW226334   1.005   0.335   6.013
 8479SOL     OW26335   5.891   1.151   0.603
 8479SOL    HW126336   5.983   1.162   0.567
 8479SOL    HW226337   5.889   1.074   0.667
 8480SOL     OW26338   3.508   0.888   1.228
 8480SOL    HW126339   3.484   0.961   1.292
 8480SOL    HW226340   3.431   0.868   1.168
 8481SOL     OW26341   4.399   1.604   4.043
 8481SOL    HW126342   4.440   1.513   4.033
 8481SOL    HW226343   4.339   1.605   4.123
 8482SOL     OW26344   2.366   0.235   2.161
 8482SOL    HW126345   2.299   0.239   2.087
 8482SOL    HW226346   2.449   0.190   2.129
 8483SOL     OW26347   3.764   6.189   1.732
 8483SOL    HW126348   3.852   6.205   1.776
 8483SOL    HW226349   3.777   6.161   1.637
 8484SOL     OW26350   6.597   4.928   3.023
 8484SOL    HW126351   6.688   4.969   3.026
 8484SOL    HW226352   6.577   4.886   3.112
 8485SOL     OW26353   1.943   3.446   6.755
 8485SOL    HW126354   1.886   3.528   6.749
 8485SOL    HW226355   1.939   3.397   6.668
 8486SOL     OW26356   5.133   1.246   2.830
 8486SOL    HW126357   5.156   1.317   2.897
 8486SOL    HW226358   5.208   1.181   2.824
 8487SOL     OW26359   5.341   6.768   0.709
 8487SOL    HW126360   5.244   6.754   0.728
 8487SOL    HW226361   5.357   6.764   0.610
 8488SOL     OW26362   5.857   4.994   5.564
 8488SOL    HW126363   5.835   5.082   5.522
 8488SOL    HW226364   5.946   4.962   5.532
 8489SOL     OW26365   6.205   0.033   1.271
 8489SOL    HW126366   6.255   6.992   1.330
 8489SOL    HW226367   6.268   0.101   1.233
 8490SOL     OW26368   4.553   6.146   3.689
 8490SOL    HW126369   4.527   6.057   3.724
 8490SOL    HW226370   4.488   6.215   3.720
 8491SOL     OW26371   2.456   0.660   1.509
 8491SOL    HW126372   2.477   0.602   1.587
 8491SOL    HW226373   2.541   0.688   1.464
 8492SOL     OW26374   4.326   4.015   6.092
 8492SOL    HW126375   4.231   3.988   6.105
 8492SOL    HW226376   4.330   4.095   6.033
 8493SOL     OW26377   3.550   1.836   6.976
 8493SOL    HW126378   3.522   1.854   0.048
 8493SOL    HW226379   3.508   1.750   6.945
 8494SOL     OW26380   1.815   4.622   6.265
 8494SOL    HW126381   1.847   4.532   6.235
 8494SOL    HW226382   1.765   4.612   6.351
 8495SOL     OW26383   0.101   3.273   0.684
 8495SOL    HW126384   0.059   3.305   0.599
 8495SOL    HW226385   0.198   3.300   0.686
 8496SOL     OW26386   6.967   2.075   2.878
 8496SOL    HW126387   6.931   2.138   2.809
 8496SOL    HW226388   6.995   2.127   2.959
 8497SOL     OW26389   5.286   6.755   4.036
 8497SOL    HW126390   5.214   6.686   4.041
 8497SOL    HW226391   5.329   6.752   3.946
 8498SOL     OW26392   0.325   6.347   2.136
 8498SOL    HW126393   0.253   6.370   2.201
 8498SOL    HW226394   0.294   6.274   2.075
 8499SOL     OW26395   2.481   5.656   6.406
 8499SOL    HW126396   2.577   5.683   6.397
 8499SOL    HW226397   2.452   5.669   6.501
 8500SOL     OW26398   2.154   0.833   5.775
 8500SOL    HW126399   2.151   0.870   5.868
 8500SOL    HW226400   2.077   0.870   5.722
 8501SOL     OW26401   1.566   2.385   0.188
 8501SOL    HW126402   1.540   2.417   0.279
 8501SOL    HW226403   1.491   2.332   0.149
 8502SOL     OW26404   1.256   5.161   1.360
 8502SOL    HW126405   1.191   5.092   1.328
 8502SOL    HW226406   1.337   5.159   1.302
 8503SOL     OW26407   1.239   5.160   2.658
 8503SOL    HW126408   1.243   5.079   2.599
 8503SOL    HW226409   1.154   5.158   2.712
 8504SOL     OW26410   1.620   6.258   3.292
 8504SOL    HW126411   1.536   6.290   3.335
 8504SOL    HW226412   1.635   6.307   3.206
 8505SOL     OW26413   5.047   4.285   3.325
 8505SOL    HW126414   5.022   4.222   3.252
 8505SOL    HW226415   4.972   4.289   3.392
 8506SOL     OW26416   0.966   6.897   0.725
 8506SOL    HW126417   0.913   6.951   0.791
 8506SOL    HW226418   0.904   6.838   0.673
 8507SOL     OW26419   2.159   0.408   5.360
 8507SOL    HW126420   2.158   0.312   5.390
 8507SOL    HW226421   2.102   0.462   5.421
 8508SOL     OW26422   6.812   3.018   4.735
 8508SOL    HW126423   6.867   3.097   4.707
 8508SOL    HW226424   6.873   2.944   4.764
 8509SOL     OW26425   6.289   1.568   4.559
 8509SOL    HW126426   6.196   1.549   4.527
 8509SOL    HW226427   6.346   1.486   4.548
 8510SOL     OW26428   6.164   4.831   3.193
 8510SOL    HW126429   6.176   4.826   3.094
 8510SOL    HW226430   6.128   4.744   3.227
 8511SOL     OW26431   5.512   4.588   1.972
 8511SOL    HW126432   5.532   4.526   1.897
 8511SOL    HW226433   5.450   4.660   1.941
 8512SOL     OW26434   4.014   2.519   0.222
 8512SOL    HW126435   3.964   2.516   0.135
 8512SOL    HW226436   4.106   2.483   0.209
 8513SOL     OW26437   4.828   4.010   1.243
 8513SOL    HW126438   4.796   3.917   1.224
 8513SOL    HW226439   4.763   4.056   1.303
 8514SOL     OW26440   2.261   2.706   3.172
 8514SOL    HW126441   2.167   2.703   3.138
 8514SOL    HW226442   2.280   2.797   3.210
 8515SOL     OW26443   6.957   0.982   6.837
 8515SOL    HW126444   6.878   0.948   6.787
 8515SOL    HW226445   6.938   1.072   6.875
 8516SOL     OW26446   6.265   2.934   1.324
 8516SOL    HW126447   6.230   2.848   1.363
 8516SOL    HW226448   6.193   3.003   1.324
 8517SOL     OW26449   2.238   2.341   5.905
 8517SOL    HW126450   2.282   2.271   5.848
 8517SOL    HW226451   2.291   2.354   5.989
 8518SOL     OW26452   4.951   4.176   6.116
 8518SOL    HW126453   4.885   4.157   6.044
 8518SOL    HW226454   5.039   4.135   6.093
 8519SOL     OW26455   0.767   5.243   0.740
 8519SOL    HW126456   0.831   5.284   0.675
 8519SOL    HW226457   0.778   5.144   0.738
 8520SOL     OW26458   3.020   2.764   6.124
 8520SOL    HW126459   2.935   2.726   6.086
 8520SOL    HW226460   3.096   2.744   6.063
 8521SOL     OW26461   2.227   5.672   5.422
 8521SOL    HW126462   2.276   5.755   5.447
 8521SOL    HW226463   2.267   5.594   5.471
 8522SOL     OW26464   0.333   0.022   1.464
 8522SOL    HW126465   0.325   6.968   1.528
 8522SOL    HW226466   0.402   0.086   1.498
 8523SOL     OW26467   2.612   6.667   6.840
 8523SOL    HW126468   2.531   6.626   6.882
 8523SOL    HW226469   2.607   6.766   6.848
 8524SOL     OW26470   0.789   3.635   4.479
 8524SOL    HW126471   0.831   3.560   4.530
 8524SOL    HW226472   0.860   3.692   4.439
 8525SOL     OW26473   5.871   4.952   1.329
 8525SOL    HW126474   5.779   4.944   1.290
 8525SOL    HW226475   5.929   5.003   1.266
 8526SOL     OW26476   3.639   6.488   0.802
 8526SOL    HW126477   3.570   6.497   0.731
 8526SOL    HW226478   3.611   6.542   0.882
 8527SOL     OW26479   3.578   0.346   6.880
 8527SOL    HW126480   3.563   0.250   6.904
 8527SOL    HW226481   3.672   0.358   6.847
 8528SOL     OW26482   3.558   1.576   0.682
 8528SOL    HW126483   3.618   1.627   0.743
 8528SOL    HW226484   3.566   1.613   0.589
 8529SOL     OW26485   1.385   6.941   0.446
 8529SOL    HW126486   1.347   7.018   0.497
 8529SOL    HW226487   1.458   6.974   0.386
 8530SOL     OW26488   3.997   3.509   5.186
 8530SOL    HW126489   3.903   3.529   5.158
 8530SOL    HW226490   4.026   3.422   5.146
 8531SOL     OW26491   6.938   5.438   2.623
 8531SOL    HW126492   6.887   5.361   2.661
 8531SOL    HW226493   6.924   5.519   2.680
 8532SOL     OW26494   4.023   6.053   4.538
 8532SOL    HW126495   3.996   5.961   4.567
 8532SOL    HW226496   3.941   6.105   4.514
 8533SOL     OW26497   1.969   5.935   0.215
 8533SOL    HW126498   1.919   5.848   0.208
 8533SOL    HW226499   1.979   5.960   0.311
 8534SOL     OW26500   4.884   2.629   3.832
 8534SOL    HW126501   4.907   2.623   3.735
 8534SOL    HW226502   4.949   2.576   3.886
 8535SOL     OW26503   6.033   1.513   4.125
 8535SOL    HW126504   6.004   1.481   4.035
 8535SOL    HW226505   6.047   1.612   4.122
 8536SOL     OW26506   0.449   1.733   5.156
 8536SOL    HW126507   0.417   1.753   5.063
 8536SOL    HW226508   0.527   1.670   5.152
 8537SOL     OW26509   5.439   1.582   3.316
 8537SOL    HW126510   5.369   1.527   3.360
 8537SOL    HW226511   5.396   1.648   3.253
 8538SOL     OW26512   1.862   1.319   6.823
 8538SOL    HW126513   1.955   1.314   6.787
 8538SOL    HW226514   1.837   1.230   6.861
 8539SOL     OW26515   6.467   1.852   2.179
 8539SOL    HW126516   6.450   1.943   2.218
 8539SOL    HW226517   6.466   1.784   2.252
 8540SOL     OW26518   5.774   6.903   6.742
 8540SOL    HW126519   5.759   6.837   6.669
 8540SOL    HW226520   5.804   6.990   6.703
 8541SOL     OW26521   3.777   1.925   3.582
 8541SOL    HW126522   3.778   2.009   3.636
 8541SOL    HW226523   3.733   1.942   3.494
 8542SOL     OW26524   3.521   4.629   6.548
 8542SOL    HW126525   3.508   4.540   6.592
 8542SOL    HW226526   3.581   4.619   6.469
 8543SOL     OW26527   1.914   1.600   1.545
 8543SOL    HW126528   1.899   1.672   1.477
 8543SOL    HW226529   1.825   1.564   1.575
 8544SOL     OW26530   5.632   3.322   4.108
 8544SOL    HW126531   5.670   3.391   4.170
 8544SOL    HW226532   5.532   3.326   4.111
 8545SOL     OW26533   4.310   0.267   6.047
 8545SOL    HW126534   4.276   0.275   5.953
 8545SOL    HW226535   4.354   0.178   6.059
 8546SOL     OW26536   5.745   2.070   4.156
 8546SOL    HW126537   5.769   2.165   4.176
 8546SOL    HW226538   5.798   2.038   4.078
 8547SOL     OW26539   0.399   6.589   5.629
 8547SOL    HW126540   0.484   6.561   5.584
 8547SOL    HW226541   0.421   6.647   5.707
 8548SOL     OW26542   5.874   2.720   5.646
 8548SOL    HW126543   5.861   2.656   5.721
 8548SOL    HW226544   5.915   2.672   5.568
 8549SOL     OW26545   0.535   3.709   3.658
 8549SOL    HW126546   0.472   3.769   3.609
 8549SOL    HW226547   0.488   3.626   3.685
 8550SOL     OW26548   2.110   4.710   6.340
 8550SOL    HW126549   2.021   4.669   6.320
 8550SOL    HW226550   2.177   4.679   6.273
 8551SOL     OW26551   3.640   3.589   6.280
 8551SOL    HW126552   3.553   3.585   6.231
 8551SOL    HW226553   3.624   3.577   6.378
 8552SOL     OW26554   2.501   6.654   4.242
 8552SOL    HW126555   2.470   6.736   4.291
 8552SOL    HW226556   2.598   6.639   4.260
 8553SOL     OW26557   5.378   5.316   6.385
 8553SOL    HW126558   5.414   5.382   6.318
 8553SOL    HW226559   5.424   5.330   6.473
 8554SOL     OW26560   0.784   5.069   0.349
 8554SOL    HW126561   0.835   5.139   0.399
 8554SOL    HW226562   0.712   5.113   0.295
 8555SOL     OW26563   0.759   0.392   3.184
 8555SOL    HW126564   0.822   0.369   3.259
 8555SOL    HW226565   0.798   0.467   3.130
 8556SOL     OW26566   0.883   0.007   3.577
 8556SOL    HW126567   0.887   6.931   3.595
 8556SOL    HW226568   0.964   0.052   3.616
 8557SOL     OW26569   6.766   1.548   2.015
 8557SOL    HW126570   6.843   1.543   1.951
 8557SOL    HW226571   6.702   1.619   1.985
 8558SOL     OW26572   2.556   5.913   3.067
 8558SOL    HW126573   2.634   5.896   3.008
 8558SOL    HW226574   2.588   5.952   3.154
 8559SOL     OW26575   6.427   0.584   2.494
 8559SOL    HW126576   6.517   0.588   2.450
 8559SOL    HW226577   6.394   0.677   2.510
 8560SOL     OW26578   6.666   0.182   1.257
 8560SOL    HW126579   6.661   0.108   1.325
 8560SOL    HW226580   6.731   0.156   1.186
 8561SOL     OW26581   3.403   6.173   2.080
 8561SOL    HW126582   3.327   6.236   2.093
 8561SOL    HW226583   3.388   6.120   1.996
 8562SOL     OW26584   4.821   6.644   5.041
 8562SOL    HW126585   4.838   6.742   5.041
 8562SOL    HW226586   4.730   6.625   5.004
 8563SOL     OW26587   2.659   3.316   0.107
 8563SOL    HW126588   2.574   3.343   0.152
 8563SOL    HW226589   2.736   3.365   0.148
 8564SOL     OW26590   2.518   0.802   3.787
 8564SOL    HW126591   2.454   0.732   3.755
 8564SOL    HW226592   2.481   0.892   3.767
 8565SOL     OW26593   4.732   6.841   1.285
 8565SOL    HW126594   4.726   6.929   1.332
 8565SOL    HW226595   4.782   6.776   1.343
 8566SOL     OW26596   1.076   1.006   2.159
 8566SOL    HW126597   1.158   0.959   2.126
 8566SOL    HW226598   1.020   0.942   2.211
 8567SOL     OW26599   0.225   1.889   1.821
 8567SOL    HW126600   0.305   1.904   1.879
 8567SOL    HW226601   0.164   1.969   1.827
 8568SOL     OW26602   4.771   0.826   6.421
 8568SOL    HW126603   4.703   0.892   6.452
 8568SOL    HW226604   4.732   0.771   6.346
 8569SOL     OW26605   5.228   1.454   5.827
 8569SOL    HW126606   5.290   1.466   5.905
 8569SOL    HW226607   5.259   1.377   5.771
 8570SOL     OW26608   1.100   2.249   6.285
 8570SOL    HW126609   1.005   2.220   6.293
 8570SOL    HW226610   1.142   2.250   6.376
 8571SOL     OW26611   0.246   5.551   5.957
 8571SOL    HW126612   0.342   5.579   5.966
 8571SOL    HW226613   0.216   5.509   6.041
 8572SOL     OW26614   3.035   5.253   6.275
 8572SOL    HW126615   3.123   5.217   6.245
 8572SOL    HW226616   3.045   5.301   6.362
 8573SOL     OW26617   3.504   6.206   6.817
 8573SOL    HW126618   3.591   6.248   6.843
 8573SOL    HW226619   3.508   6.177   6.721
 8574SOL     OW26620   7.005   4.995   5.262
 8574SOL    HW126621   0.032   4.971   5.345
 8574SOL    HW226622   0.022   4.945   5.184
 8575SOL     OW26623   3.126   2.348   0.038
 8575SOL    HW126624   3.121   2.264   0.090
 8575SOL    HW226625   3.033   2.383   0.021
 8576SOL     OW26626   1.108   6.900   1.020
 8576SOL    HW126627   1.132   6.996   1.004
 8576SOL    HW226628   1.160   6.842   0.956
 8577SOL     OW26629   6.493   5.201   4.625
 8577SOL    HW126630   6.428   5.167   4.694
 8577SOL    HW226631   6.564   5.254   4.670
 8578SOL     OW26632   4.975   0.516   4.388
 8578SOL    HW126633   4.896   0.572   4.362
 8578SOL    HW226634   4.949   0.455   4.463
 8579SOL     OW26635   1.405   6.103   3.564
 8579SOL    HW126636   1.450   6.032   3.511
 8579SOL    HW226637   1.405   6.189   3.513
 8580SOL     OW26638   2.424   6.836   1.999
 8580SOL    HW126639   2.440   6.926   2.041
 8580SOL    HW226640   2.501   6.776   2.021
 8581SOL     OW26641   3.223   2.691   1.721
 8581SOL    HW126642   3.253   2.723   1.811
 8581SOL    HW226643   3.292   2.630   1.683
 8582SOL     OW26644   4.376   4.603   1.933
 8582SOL    HW126645   4.334   4.533   1.876
 8582SOL    HW226646   4.475   4.590   1.935
 8583SOL     OW26647   6.001   0.730   5.789
 8583SOL    HW126648   6.057   0.748   5.708
 8583SOL    HW226649   5.914   0.690   5.761
 8584SOL     OW26650   0.032   3.840   6.404
 8584SOL    HW126651   7.005   3.870   6.486
 8584SOL    HW226652   0.071   3.919   6.357
 8585SOL     OW26653   6.986   6.543   0.222
 8585SOL    HW126654   6.919   6.480   0.182
 8585SOL    HW226655   0.027   6.491   0.280
 8586SOL     OW26656   2.580   6.249   3.618
 8586SOL    HW126657   2.493   6.226   3.661
 8586SOL    HW226658   2.599   6.346   3.632
 8587SOL     OW26659   1.182   0.411   3.164
 8587SOL    HW126660   1.260   0.411   3.226
 8587SOL    HW226661   1.192   0.485   3.098
 8588SOL     OW26662   2.865   0.681   6.898
 8588SOL    HW126663   2.893   0.630   6.817
 8588SOL    HW226664   2.777   0.646   6.931
 8589SOL     OW26665   4.226   1.975   4.576
 8589SOL    HW126666   4.312   1.950   4.622
 8589SOL    HW226667   4.157   1.906   4.595
 8590SOL     OW26668   6.711   5.676   3.989
 8590SOL    HW126669   6.671   5.758   4.029
 8590SOL    HW226670   6.640   5.623   3.942
 8591SOL     OW26671   0.955   4.928   6.197
 8591SOL    HW126672   0.970   4.902   6.102
 8591SOL    HW226673   0.861   4.904   6.224
 8592SOL     OW26674   0.000   4.476   0.561
 8592SOL    HW126675   0.067   4.479   0.487
 8592SOL    HW226676   6.954   4.406   0.541
 8593SOL     OW26677   1.381   6.861   2.434
 8593SOL    HW126678   1.351   6.957   2.434
 8593SOL    HW226679   1.427   6.841   2.348
 8594SOL     OW26680   3.727   3.744   5.194
 8594SOL    HW126681   3.803   3.808   5.184
 8594SOL    HW226682   3.642   3.789   5.169
 8595SOL     OW26683   2.356   1.792   2.328
 8595SOL    HW126684   2.402   1.751   2.248
 8595SOL    HW226685   2.294   1.725   2.368
 8596SOL     OW26686   6.202   5.086   2.215
 8596SOL    HW126687   6.229   5.171   2.260
 8596SOL    HW226688   6.113   5.056   2.250
 8597SOL     OW26689   4.204   2.279   1.048
 8597SOL    HW126690   4.167   2.370   1.025
 8597SOL    HW226691   4.271   2.252   0.979
 8598SOL     OW26692   0.311   5.552   1.508
 8598SOL    HW126693   0.293   5.543   1.606
 8598SOL    HW226694   0.397   5.602   1.495
 8599SOL     OW26695   0.825   3.201   4.018
 8599SOL    HW126696   0.894   3.147   3.971
 8599SOL    HW226697   0.755   3.141   4.055
 8600SOL     OW26698   5.833   4.902   7.000
 8600SOL    HW126699   5.857   4.903   6.903
 8600SOL    HW226700   5.745   4.857   7.012
 8601SOL     OW26701   0.729   1.001   4.550
 8601SOL    HW126702   0.667   0.932   4.512
 8601SOL    HW226703   0.700   1.023   4.643
 8602SOL     OW26704   2.360   6.224   2.647
 8602SOL    HW126705   2.368   6.127   2.672
 8602SOL    HW226706   2.327   6.276   2.725
 8603SOL     OW26707   3.759   3.990   0.198
 8603SOL    HW126708   3.716   4.051   0.132
 8603SOL    HW226709   3.839   4.035   0.238
 8604SOL     OW26710   6.321   2.817   3.288
 8604SOL    HW126711   6.276   2.867   3.214
 8604SOL    HW226712   6.291   2.855   3.376
 8605SOL     OW26713   3.491   4.966   4.429
 8605SOL    HW126714   3.394   4.944   4.420
 8605SOL    HW226715   3.518   5.026   4.353
 8606SOL     OW26716   2.095   4.544   5.332
 8606SOL    HW126717   2.011   4.581   5.373
 8606SOL    HW226718   2.174   4.586   5.377
 8607SOL     OW26719   2.736   4.792   0.991
 8607SOL    HW126720   2.754   4.817   1.086
 8607SOL    HW226721   2.799   4.841   0.931
 8608SOL     OW26722   4.926   4.999   3.063
 8608SOL    HW126723   4.986   5.051   3.124
 8608SOL    HW226724   4.860   4.947   3.117
 8609SOL     OW26725   4.549   0.886   4.161
 8609SOL    HW126726   4.462   0.896   4.209
 8609SOL    HW226727   4.599   0.973   4.164
 8610SOL     OW26728   1.262   0.393   2.788
 8610SOL    HW126729   1.339   0.433   2.838
 8610SOL    HW226730   1.184   0.384   2.850
 8611SOL     OW26731   1.816   2.918   3.806
 8611SOL    HW126732   1.873   2.915   3.888
 8611SOL    HW226733   1.791   3.013   3.787
 8612SOL     OW26734   3.181   3.271   6.728
 8612SOL    HW126735   3.221   3.353   6.768
 8612SOL    HW226736   3.185   3.278   6.628
 8613SOL     OW26737   2.405   1.467   1.569
 8613SOL    HW126738   2.429   1.531   1.496
 8613SOL    HW226739   2.311   1.484   1.599
 8614SOL     OW26740   0.784   3.588   2.653
 8614SOL    HW126741   0.803   3.651   2.728
 8614SOL    HW226742   0.850   3.512   2.656
 8615SOL     OW26743   5.117   1.988   4.737
 8615SOL    HW126744   5.071   1.956   4.654
 8615SOL    HW226745   5.106   1.920   4.810
 8616SOL     OW26746   0.904   5.512   0.958
 8616SOL    HW126747   0.904   5.478   1.051
 8616SOL    HW226748   0.926   5.610   0.958
 8617SOL     OW26749   6.096   1.005   0.249
 8617SOL    HW126750   6.164   1.025   0.179
 8617SOL    HW226751   6.112   0.913   0.285
 8618SOL     OW26752   5.097   6.946   1.190
 8618SOL    HW126753   5.124   0.006   1.240
 8618SOL    HW226754   5.063   6.878   1.254
 8619SOL     OW26755   3.784   5.184   0.723
 8619SOL    HW126756   3.869   5.218   0.763
 8619SOL    HW226757   3.798   5.091   0.690
 8620SOL     OW26758   5.917   6.680   3.357
 8620SOL    HW126759   5.854   6.707   3.430
 8620SOL    HW226760   6.011   6.702   3.384
 8621SOL     OW26761   5.777   1.416   3.661
 8621SOL    HW126762   5.780   1.316   3.666
 8621SOL    HW226763   5.684   1.445   3.638
 8622SOL     OW26764   4.438   4.743   0.954
 8622SOL    HW126765   4.444   4.746   0.855
 8622SOL    HW226766   4.529   4.759   0.993
 8623SOL     OW26767   0.241   4.159   2.897
 8623SOL    HW126768   0.274   4.065   2.887
 8623SOL    HW226769   0.303   4.209   2.958
 8624SOL     OW26770   1.295   4.754   3.698
 8624SOL    HW126771   1.287   4.654   3.691
 8624SOL    HW226772   1.236   4.786   3.772
 8625SOL     OW26773   4.780   0.670   4.247
 8625SOL    HW126774   4.733   0.709   4.168
 8625SOL    HW226775   4.716   0.613   4.299
 8626SOL     OW26776   3.742   2.919   4.875
 8626SOL    HW126777   3.646   2.914   4.846
 8626SOL    HW226778   3.774   2.829   4.903
 8627SOL     OW26779   1.102   0.539   2.623
 8627SOL    HW126780   1.153   0.456   2.646
 8627SOL    HW226781   1.142   0.582   2.542
 8628SOL     OW26782   6.358   6.878   1.440
 8628SOL    HW126783   6.453   6.897   1.466
 8628SOL    HW226784   6.355   6.793   1.387
 8629SOL     OW26785   1.657   5.610   4.496
 8629SOL    HW126786   1.715   5.532   4.521
 8629SOL    HW226787   1.680   5.641   4.404
 8630SOL     OW26788   5.868   4.110   4.449
 8630SOL    HW126789   5.845   4.190   4.504
 8630SOL    HW226790   5.915   4.042   4.507
 8631SOL     OW26791   4.118   6.095   6.326
 8631SOL    HW126792   4.093   6.014   6.378
 8631SOL    HW226793   4.217   6.097   6.312
 8632SOL     OW26794   3.710   6.423   3.489
 8632SOL    HW126795   3.708   6.505   3.545
 8632SOL    HW226796   3.620   6.407   3.450
 8633SOL     OW26797   5.255   1.086   4.476
 8633SOL    HW126798   5.242   1.181   4.449
 8633SOL    HW226799   5.303   1.081   4.563
 8634SOL     OW26800   6.316   2.965   0.994
 8634SOL    HW126801   6.374   2.887   1.015
 8634SOL    HW226802   6.347   3.008   0.908
 8635SOL     OW26803   5.932   4.191   6.104
 8635SOL    HW126804   5.910   4.107   6.055
 8635SOL    HW226805   5.950   4.169   6.200
 8636SOL     OW26806   5.581   4.777   0.075
 8636SOL    HW126807   5.548   4.857   0.124
 8636SOL    HW226808   5.531   4.767   7.011
 8637SOL     OW26809   1.781   0.297   0.587
 8637SOL    HW126810   1.847   0.292   0.512
 8637SOL    HW226811   1.782   0.388   0.626
 8638SOL     OW26812   1.730   3.348   0.108
 8638SOL    HW126813   1.814   3.319   0.062
 8638SOL    HW226814   1.652   3.330   0.049
 8639SOL     OW26815   5.997   2.591   1.855
 8639SOL    HW126816   6.080   2.555   1.812
 8639SOL    HW226817   5.948   2.650   1.790
 8640SOL     OW26818   4.825   3.864   0.497
 8640SOL    HW126819   4.832   3.776   0.450
 8640SOL    HW226820   4.744   3.863   0.556
 8641SOL     OW26821   6.796   4.220   4.605
 8641SOL    HW126822   6.848   4.173   4.677
 8641SOL    HW226823   6.781   4.157   4.529
 8642SOL     OW26824   3.888   0.674   2.496
 8642SOL    HW126825   3.951   0.597   2.506
 8642SOL    HW226826   3.795   0.639   2.487
 8643SOL     OW26827   3.956   6.954   0.109
 8643SOL    HW126828   3.910   7.007   0.181
 8643SOL    HW226829   3.923   6.860   0.111
 8644SOL     OW26830   4.552   2.467   5.542
 8644SOL    HW126831   4.639   2.432   5.507
 8644SOL    HW226832   4.567   2.509   5.631
 8645SOL     OW26833   5.438   4.729   1.374
 8645SOL    HW126834   5.515   4.785   1.343
 8645SOL    HW226835   5.355   4.755   1.324
 8646SOL     OW26836   5.754   0.929   1.246
 8646SOL    HW126837   5.811   0.872   1.185
 8646SOL    HW226838   5.809   0.962   1.322
 8647SOL     OW26839   3.773   4.574   6.097
 8647SOL    HW126840   3.701   4.566   6.027
 8647SOL    HW226841   3.799   4.670   6.106
 8648SOL     OW26842   5.584   1.500   4.839
 8648SOL    HW126843   5.521   1.478   4.764
 8648SOL    HW226844   5.534   1.497   4.925
 8649SOL     OW26845   5.460   5.086   5.811
 8649SOL    HW126846   5.519   5.121   5.883
 8649SOL    HW226847   5.512   5.022   5.754
 8650SOL     OW26848   1.371   4.705   4.517
 8650SOL    HW126849   1.405   4.745   4.602
 8650SOL    HW226850   1.427   4.626   4.493
 8651SOL     OW26851   4.139   0.544   0.744
 8651SOL    HW126852   4.151   0.614   0.814
 8651SOL    HW226853   4.083   0.582   0.669
 8652SOL     OW26854   1.399   4.244   2.899
 8652SOL    HW126855   1.457   4.250   2.818
 8652SOL    HW226856   1.305   4.266   2.874
 8653SOL     OW26857   5.989   2.402   5.971
 8653SOL    HW126858   5.931   2.460   5.915
 8653SOL    HW226859   5.938   2.368   6.050
 8654SOL     OW26860   0.904   6.294   1.863
 8654SOL    HW126861   0.994   6.255   1.880
 8654SOL    HW226862   0.903   6.335   1.771
 8655SOL     OW26863   5.951   0.728   3.825
 8655SOL    HW126864   5.997   0.793   3.885
 8655SOL    HW226865   6.013   0.703   3.750
 8656SOL     OW26866   6.539   1.448   1.391
 8656SOL    HW126867   6.611   1.503   1.349
 8656SOL    HW226868   6.576   1.358   1.416
 8657SOL     OW26869   4.632   4.726   7.018
 8657SOL    HW126870   4.636   4.628   6.999
 8657SOL    HW226871   4.592   4.774   6.940
 8658SOL     OW26872   4.869   5.908   0.231
 8658SOL    HW126873   4.861   5.816   0.269
 8658SOL    HW226874   4.820   5.912   0.144
 8659SOL     OW26875   4.598   1.231   3.500
 8659SOL    HW126876   4.531   1.286   3.550
 8659SOL    HW226877   4.594   1.253   3.403
 8660SOL     OW26878   4.966   3.867   0.820
 8660SOL    HW126879   4.875   3.869   0.860
 8660SOL    HW226880   5.035   3.859   0.892
 8661SOL     OW26881   5.424   4.163   1.594
 8661SOL    HW126882   5.497   4.094   1.601
 8661SOL    HW226883   5.465   4.254   1.587
 8662SOL     OW26884   4.927   6.194   1.885
 8662SOL    HW126885   4.958   6.100   1.899
 8662SOL    HW226886   4.978   6.235   1.809
 8663SOL     OW26887   2.446   5.841   0.739
 8663SOL    HW126888   2.543   5.864   0.734
 8663SOL    HW226889   2.401   5.864   0.653
 8664SOL     OW26890   3.597   5.340   0.653
 8664SOL    HW126891   3.668   5.276   0.683
 8664SOL    HW226892   3.628   5.434   0.670
 8665SOL     OW26893   5.225   5.567   5.115
 8665SOL    HW126894   5.290   5.624   5.166
 8665SOL    HW226895   5.154   5.533   5.177
 8666SOL     OW26896   5.625   2.577   5.364
 8666SOL    HW126897   5.569   2.506   5.322
 8666SOL    HW226898   5.577   2.616   5.442
 8667SOL     OW26899   4.667   2.216   3.083
 8667SOL    HW126900   4.737   2.169   3.030
 8667SOL    HW226901   4.599   2.255   3.020
 8668SOL     OW26902   5.012   2.778   3.586
 8668SOL    HW126903   4.929   2.827   3.614
 8668SOL    HW226904   5.018   2.777   3.486
 8669SOL     OW26905   2.845   6.865   6.749
 8669SOL    HW126906   2.855   6.778   6.699
 8669SOL    HW226907   2.751   6.898   6.738
 8670SOL     OW26908   3.555   4.774   5.537
 8670SOL    HW126909   3.559   4.868   5.503
 8670SOL    HW226910   3.518   4.714   5.465
 8671SOL     OW26911   5.684   1.426   4.047
 8671SOL    HW126912   5.701   1.328   4.037
 8671SOL    HW226913   5.717   1.457   4.135
 8672SOL     OW26914   2.396   6.003   4.031
 8672SOL    HW126915   2.373   5.927   4.091
 8672SOL    HW226916   2.438   5.969   3.947
 8673SOL     OW26917   0.243   1.511   6.840
 8673SOL    HW126918   0.303   1.443   6.882
 8673SOL    HW226919   0.160   1.521   6.895
 8674SOL     OW26920   6.646   5.953   1.605
 8674SOL    HW126921   6.668   6.023   1.673
 8674SOL    HW226922   6.724   5.892   1.594
 8675SOL     OW26923   3.409   1.761   3.760
 8675SOL    HW126924   3.447   1.753   3.668
 8675SOL    HW226925   3.383   1.856   3.778
 8676SOL     OW26926   4.235   6.565   3.251
 8676SOL    HW126927   4.185   6.478   3.244
 8676SOL    HW226928   4.171   6.638   3.274
 8677SOL     OW26929   2.421   5.867   5.439
 8677SOL    HW126930   2.420   5.951   5.385
 8677SOL    HW226931   2.501   5.868   5.499
 8678SOL     OW26932   0.281   0.411   0.762
 8678SOL    HW126933   0.278   0.429   0.664
 8678SOL    HW226934   0.241   0.488   0.812
 8679SOL     OW26935   6.201   2.901   4.888
 8679SOL    HW126936   6.300   2.890   4.900
 8679SOL    HW226937   6.152   2.840   4.950
 8680SOL     OW26938   0.432   3.889   1.456
 8680SOL    HW126939   0.494   3.893   1.378
 8680SOL    HW226940   0.346   3.935   1.433
 8681SOL     OW26941   4.473   4.811   0.688
 8681SOL    HW126942   4.437   4.893   0.645
 8681SOL    HW226943   4.497   4.744   0.618
 8682SOL     OW26944   4.100   6.713   2.119
 8682SOL    HW126945   4.059   6.756   2.199
 8682SOL    HW226946   4.046   6.634   2.091
 8683SOL     OW26947   1.288   2.632   1.903
 8683SOL    HW126948   1.280   2.624   2.003
 8683SOL    HW226949   1.308   2.727   1.880
 8684SOL     OW26950   0.292   2.994   4.738
 8684SOL    HW126951   0.218   3.053   4.705
 8684SOL    HW226952   0.308   3.011   4.835
 8685SOL     OW26953   1.098   2.511   5.951
 8685SOL    HW126954   1.040   2.535   6.028
 8685SOL    HW226955   1.148   2.427   5.971
 8686SOL     OW26956   6.492   1.772   1.531
 8686SOL    HW126957   6.535   1.812   1.450
 8686SOL    HW226958   6.501   1.836   1.608
 8687SOL     OW26959   3.655   6.323   2.795
 8687SOL    HW126960   3.581   6.336   2.861
 8687SOL    HW226961   3.620   6.276   2.714
 8688SOL     OW26962   2.568   6.502   0.335
 8688SOL    HW126963   2.499   6.559   0.292
 8688SOL    HW226964   2.649   6.498   0.276
 8689SOL     OW26965   3.694   4.716   0.322
 8689SOL    HW126966   3.642   4.738   0.405
 8689SOL    HW226967   3.641   4.652   0.266
 8690SOL     OW26968   1.685   2.615   3.582
 8690SOL    HW126969   1.634   2.671   3.646
 8690SOL    HW226970   1.624   2.586   3.508
 8691SOL     OW26971   4.542   2.617   6.135
 8691SOL    HW126972   4.558   2.527   6.096
 8691SOL    HW226973   4.444   2.636   6.136
 8692SOL     OW26974   3.759   2.108   2.530
 8692SOL    HW126975   3.783   2.011   2.543
 8692SOL    HW226976   3.706   2.118   2.446
 8693SOL     OW26977   5.453   1.384   0.872
 8693SOL    HW126978   5.479   1.379   0.968
 8693SOL    HW226979   5.500   1.312   0.820
 8694SOL     OW26980   4.427   1.324   6.128
 8694SOL    HW126981   4.339   1.345   6.170
 8694SOL    HW226982   4.459   1.404   6.077
 8695SOL     OW26983   4.433   2.975   5.789
 8695SOL    HW126984   4.499   2.958   5.716
 8695SOL    HW226985   4.344   2.939   5.762
 8696SOL     OW26986   3.094   5.934   1.046
 8696SOL    HW126987   3.170   5.962   0.987
 8696SOL    HW226988   3.008   5.968   1.008
 8697SOL     OW26989   6.402   3.348   0.717
 8697SOL    HW126990   6.348   3.339   0.634
 8697SOL    HW226991   6.465   3.425   0.708
 8698SOL     OW26992   6.180   6.005   3.906
 8698SOL    HW126993   6.148   6.100   3.916
 8698SOL    HW226994   6.133   5.947   3.972
 8699SOL     OW26995   1.184   2.788   5.308
 8699SOL    HW126996   1.283   2.795   5.293
 8699SOL    HW226997   1.164   2.703   5.358
 8700SOL     OW26998   2.133   1.209   4.676
 8700SOL    HW126999   2.071   1.220   4.753
 8700SOL    HW227000   2.105   1.269   4.601
 8701SOL     OW27001   1.408   0.474   6.951
 8701SOL    HW127002   1.443   0.434   6.866
 8701SOL    HW227003   1.335   0.415   6.987
 8702SOL     OW27004   5.703   5.025   0.429
 8702SOL    HW127005   5.638   5.100   0.442
 8702SOL    HW227006   5.684   4.952   0.495
 8703SOL     OW27007   2.655   5.457   1.172
 8703SOL    HW127008   2.661   5.433   1.269
 8703SOL    HW227009   2.746   5.472   1.135
 8704SOL     OW27010   5.952   3.572   2.581
 8704SOL    HW127011   5.936   3.516   2.663
 8704SOL    HW227012   6.029   3.633   2.597
 8705SOL     OW27013   4.907   0.719   0.709
 8705SOL    HW127014   4.915   0.619   0.708
 8705SOL    HW227015   4.821   0.744   0.754
 8706SOL     OW27016   4.685   1.767   6.187
 8706SOL    HW127017   4.727   1.677   6.175
 8706SOL    HW227018   4.588   1.761   6.162
 8707SOL     OW27019   5.306   2.196   6.891
 8707SOL    HW127020   5.206   2.189   6.896
 8707SOL    HW227021   5.344   2.183   6.983
 8708SOL     OW27022   4.278   2.244   2.125
 8708SOL    HW127023   4.295   2.157   2.079
 8708SOL    HW227024   4.179   2.260   2.129
 8709SOL     OW27025   6.917   6.093   6.341
 8709SOL    HW127026   6.872   6.044   6.417
 8709SOL    HW227027   6.986   6.034   6.300
 8710SOL     OW27028   1.836   3.741   3.160
 8710SOL    HW127029   1.921   3.766   3.207
 8710SOL    HW227030   1.812   3.813   3.095
 8711SOL     OW27031   0.079   5.853   2.544
 8711SOL    HW127032   0.153   5.918   2.535
 8711SOL    HW227033   0.094   5.775   2.483
 8712SOL     OW27034   4.126   2.172   4.227
 8712SOL    HW127035   4.133   2.176   4.127
 8712SOL    HW227036   4.212   2.139   4.265
 8713SOL     OW27037   0.523   4.582   3.555
 8713SOL    HW127038   0.464   4.502   3.538
 8713SOL    HW227039   0.557   4.578   3.649
 8714SOL     OW27040   0.444   0.944   5.906
 8714SOL    HW127041   0.350   0.911   5.896
 8714SOL    HW227042   0.444   1.044   5.910
 8715SOL     OW27043   5.034   0.108   0.772
 8715SOL    HW127044   5.108   0.124   0.837
 8715SOL    HW227045   5.054   0.026   0.718
 8716SOL     OW27046   0.916   0.730   1.530
 8716SOL    HW127047   0.964   0.817   1.535
 8716SOL    HW227048   0.950   0.678   1.451
 8717SOL     OW27049   3.937   3.046   3.026
 8717SOL    HW127050   4.016   3.100   3.056
 8717SOL    HW227051   3.934   3.043   2.926
 8718SOL     OW27052   0.522   3.059   5.432
 8718SOL    HW127053   0.620   3.037   5.439
 8718SOL    HW227054   0.498   3.127   5.501
 8719SOL     OW27055   2.021   7.022   6.157
 8719SOL    HW127056   2.049   6.951   6.092
 8719SOL    HW227057   1.923   0.013   6.151
 8720SOL     OW27058   6.629   5.133   5.809
 8720SOL    HW127059   6.551   5.091   5.762
 8720SOL    HW227060   6.704   5.068   5.816
 8721SOL     OW27061   5.801   2.370   3.549
 8721SOL    HW127062   5.900   2.379   3.561
 8721SOL    HW227063   5.758   2.346   3.636
 8722SOL     OW27064   3.832   0.890   0.556
 8722SOL    HW127065   3.840   0.791   0.546
 8722SOL    HW227066   3.736   0.917   0.553
 8723SOL     OW27067   5.387   6.032   1.254
 8723SOL    HW127068   5.407   6.101   1.185
 8723SOL    HW227069   5.312   6.063   1.312
 8724SOL     OW27070   5.980   0.195   5.255
 8724SOL    HW127071   5.977   0.195   5.355
 8724SOL    HW227072   6.074   0.188   5.224
 8725SOL     OW27073   2.562   6.954   6.791
 8725SOL    HW127074   2.506   7.000   6.860
 8725SOL    HW227075   2.583   7.019   6.718
 8726SOL     OW27076   6.350   0.705   1.730
 8726SOL    HW127077   6.432   0.752   1.697
 8726SOL    HW227078   6.296   0.674   1.653
 8727SOL     OW27079   6.990   7.000   1.836
 8727SOL    HW127080   0.061   0.008   1.857
 8727SOL    HW227081   6.957   0.025   1.754
 8728SOL     OW27082   3.822   0.105   4.476
 8728SOL    HW127083   3.799   0.017   4.435
 8728SOL    HW227084   3.780   0.112   4.566
 8729SOL     OW27085   4.289   5.938   3.279
 8729SOL    HW127086   4.233   5.974   3.354
 8729SOL    HW227087   4.304   5.840   3.292
 8730SOL     OW27088   6.657   4.415   2.324
 8730SOL    HW127089   6.654   4.477   2.402
 8730SOL    HW227090   6.569   4.369   2.314
 8731SOL     OW27091   1.992   1.765   2.755
 8731SOL    HW127092   1.965   1.684   2.807
 8731SOL    HW227093   1.984   1.846   2.812
 8732SOL     OW27094   4.913   4.571   1.884
 8732SOL    HW127095   4.966   4.493   1.917
 8732SOL    HW227096   4.938   4.590   1.789
 8733SOL     OW27097   1.519   6.001   3.324
 8733SOL    HW127098   1.571   5.915   3.327
 8733SOL    HW227099   1.579   6.075   3.296
 8734SOL     OW27100   0.774   4.817   1.903
 8734SOL    HW127101   0.793   4.879   1.827
 8734SOL    HW227102   0.774   4.868   1.989
 8735SOL     OW27103   0.814   1.654   6.972
 8735SOL    HW127104   0.843   1.681   6.880
 8735SOL    HW227105   0.729   1.701   6.995
 8736SOL     OW27106   0.758   6.569   6.857
 8736SOL    HW127107   0.843   6.531   6.894
 8736SOL    HW227108   0.731   6.648   6.913
 8737SOL     OW27109   2.874   6.793   5.811
 8737SOL    HW127110   2.794   6.741   5.780
 8737SOL    HW227111   2.937   6.731   5.858
 8738SOL     OW27112   1.632   4.482   3.556
 8738SOL    HW127113   1.681   4.460   3.641
 8738SOL    HW227114   1.553   4.421   3.548
 8739SOL     OW27115   6.453   5.029   6.062
 8739SOL    HW127116   6.525   5.071   6.007
 8739SOL    HW227117   6.370   5.085   6.056
 8740SOL     OW27118   4.798   1.450   5.324
 8740SOL    HW127119   4.836   1.498   5.403
 8740SOL    HW227120   4.830   1.494   5.240
 8741SOL     OW27121   2.526   0.859   2.354
 8741SOL    HW127122   2.513   0.767   2.391
 8741SOL    HW227123   2.513   0.927   2.426
 8742SOL     OW27124   5.667   5.961   1.290
 8742SOL    HW127125   5.720   5.958   1.206
 8742SOL    HW227126   5.570   5.970   1.268
 8743SOL     OW27127   2.324   6.590   2.588
 8743SOL    HW127128   2.331   6.663   2.520
 8743SOL    HW227129   2.228   6.565   2.600
 8744SOL     OW27130   3.833   2.609   6.112
 8744SOL    HW127131   3.754   2.664   6.086
 8744SOL    HW227132   3.897   2.665   6.165
 8745SOL     OW27133   6.366   2.528   6.259
 8745SOL    HW127134   6.307   2.606   6.237
 8745SOL    HW227135   6.359   2.460   6.187
 8746SOL     OW27136   4.512   4.233   5.237
 8746SOL    HW127137   4.583   4.228   5.167
 8746SOL    HW227138   4.470   4.143   5.250
 8747SOL     OW27139   0.320   2.767   2.805
 8747SOL    HW127140   0.298   2.864   2.791
 8747SOL    HW227141   0.358   2.755   2.896
 8748SOL     OW27142   0.173   1.430   6.272
 8748SOL    HW127143   0.230   1.392   6.199
 8748SOL    HW227144   0.084   1.457   6.235
 8749SOL     OW27145   2.928   0.138   5.399
 8749SOL    HW127146   3.015   0.105   5.361
 8749SOL    HW227147   2.917   0.104   5.492
 8750SOL     OW27148   2.923   3.215   5.271
 8750SOL    HW127149   2.962   3.266   5.194
 8750SOL    HW227150   2.928   3.272   5.354
 8751SOL     OW27151   6.286   6.929   2.586
 8751SOL    HW127152   6.192   6.952   2.611
 8751SOL    HW227153   6.318   6.853   2.642
 8752SOL     OW27154   2.958   4.320   6.594
 8752SOL    HW127155   2.884   4.259   6.565
 8752SOL    HW227156   3.045   4.273   6.585
 8753SOL     OW27157   4.850   1.686   4.717
 8753SOL    HW127158   4.947   1.710   4.713
 8753SOL    HW227159   4.794   1.766   4.698
 8754SOL     OW27160   1.481   1.828   5.952
 8754SOL    HW127161   1.417   1.752   5.961
 8754SOL    HW227162   1.571   1.800   5.985
 8755SOL     OW27163   2.394   0.861   6.380
 8755SOL    HW127164   2.419   0.845   6.284
 8755SOL    HW227165   2.352   0.779   6.418
 8756SOL     OW27166   2.128   3.729   3.256
 8756SOL    HW127167   2.158   3.669   3.182
 8756SOL    HW227168   2.165   3.696   3.343
 8757SOL     OW27169   5.557   6.568   5.864
 8757SOL    HW127170   5.470   6.591   5.822
 8757SOL    HW227171   5.595   6.648   5.911
 8758SOL     OW27172   4.726   6.006   2.033
 8758SOL    HW127173   4.673   5.968   2.109
 8758SOL    HW227174   4.683   5.981   1.946
 8759SOL     OW27175   4.232   2.233   6.269
 8759SOL    HW127176   4.172   2.298   6.316
 8759SOL    HW227177   4.176   2.163   6.225
 8760SOL     OW27178   2.239   1.605   5.110
 8760SOL    HW127179   2.185   1.689   5.119
 8760SOL    HW227180   2.316   1.608   5.173
 8761SOL     OW27181   4.025   0.735   1.283
 8761SOL    HW127182   4.000   0.683   1.365
 8761SOL    HW227183   4.121   0.762   1.290
 8762SOL     OW27184   1.104   3.485   2.844
 8762SOL    HW127185   1.144   3.401   2.808
 8762SOL    HW227186   1.100   3.554   2.771
 8763SOL     OW27187   6.053   5.830   4.892
 8763SOL    HW127188   6.078   5.815   4.796
 8763SOL    HW227189   6.101   5.764   4.950
 8764SOL     OW27190   4.857   0.885   4.408
 8764SOL    HW127191   4.832   0.812   4.345
 8764SOL    HW227192   4.790   0.959   4.402
 8765SOL     OW27193   6.015   6.837   5.036
 8765SOL    HW127194   6.054   6.801   5.121
 8765SOL    HW227195   6.088   6.853   4.970
 8766SOL     OW27196   3.631   4.879   3.234
 8766SOL    HW127197   3.722   4.856   3.198
 8766SOL    HW227198   3.562   4.862   3.162
 8767SOL     OW27199   4.322   0.541   3.200
 8767SOL    HW127200   4.294   0.512   3.292
 8767SOL    HW227201   4.422   0.548   3.196
 8768SOL     OW27202   1.456   2.827   0.188
 8768SOL    HW127203   1.537   2.773   0.210
 8768SOL    HW227204   1.478   2.892   0.115
 8769SOL     OW27205   1.134   0.068   4.669
 8769SOL    HW127206   1.098   0.158   4.644
 8769SOL    HW227207   1.232   0.064   4.651
 8770SOL     OW27208   4.924   4.445   2.142
 8770SOL    HW127209   5.011   4.417   2.101
 8770SOL    HW227210   4.939   4.472   2.237
 8771SOL     OW27211   1.391   0.728   5.669
 8771SOL    HW127212   1.429   0.707   5.579
 8771SOL    HW227213   1.462   0.716   5.738
 8772SOL     OW27214   6.083   6.748   0.063
 8772SOL    HW127215   6.061   6.837   0.103
 8772SOL    HW227216   6.005   6.714   0.010
 8773SOL     OW27217   4.883   1.817   3.447
 8773SOL    HW127218   4.963   1.770   3.484
 8773SOL    HW227219   4.824   1.846   3.523
 8774SOL     OW27220   2.084   1.219   0.460
 8774SOL    HW127221   2.054   1.241   0.367
 8774SOL    HW227222   2.183   1.202   0.460
 8775SOL     OW27223   6.406   0.518   4.332
 8775SOL    HW127224   6.384   0.467   4.415
 8775SOL    HW227225   6.323   0.532   4.279
 8776SOL     OW27226   2.917   3.311   4.752
 8776SOL    HW127227   2.879   3.373   4.821
 8776SOL    HW227228   2.864   3.319   4.667
 8777SOL     OW27229   6.937   4.191   1.087
 8777SOL    HW127230   6.879   4.185   1.006
 8777SOL    HW227231   6.981   4.103   1.104
 8778SOL     OW27232   6.637   2.536   4.408
 8778SOL    HW127233   6.723   2.489   4.427
 8778SOL    HW227234   6.655   2.633   4.392
 8779SOL     OW27235   2.266   5.213   1.953
 8779SOL    HW127236   2.255   5.113   1.954
 8779SOL    HW227237   2.357   5.237   1.987
 8780SOL     OW27238   1.471   5.855   3.783
 8780SOL    HW127239   1.401   5.924   3.802
 8780SOL    HW227240   1.449   5.808   3.697
 8781SOL     OW27241   6.396   2.242   4.145
 8781SOL    HW127242   6.369   2.329   4.186
 8781SOL    HW227243   6.492   2.246   4.117
 8782SOL     OW27244   5.474   0.624   1.622
 8782SOL    HW127245   5.376   0.632   1.603
 8782SOL    HW227246   5.524   0.612   1.536
 8783SOL     OW27247   5.757   3.367   3.702
 8783SOL    HW127248   5.809   3.366   3.616
 8783SOL    HW227249   5.757   3.459   3.741
 8784SOL     OW27250   5.106   4.444   4.886
 8784SOL    HW127251   5.030   4.450   4.821
 8784SOL    HW227252   5.079   4.483   4.974
 8785SOL     OW27253   6.043   3.352   0.124
 8785SOL    HW127254   6.019   3.405   0.205
 8785SOL    HW227255   5.960   3.332   0.071
 8786SOL     OW27256   2.782   6.494   0.159
 8786SOL    HW127257   2.842   6.418   0.134
 8786SOL    HW227258   2.829   6.580   0.141
 8787SOL     OW27259   1.563   2.679   2.017
 8787SOL    HW127260   1.473   2.686   1.974
 8787SOL    HW227261   1.569   2.593   2.068
 8788SOL     OW27262   6.638   2.012   5.547
 8788SOL    HW127263   6.680   1.977   5.631
 8788SOL    HW227264   6.588   1.939   5.502
 8789SOL     OW27265   6.161   0.431   5.588
 8789SOL    HW127266   6.080   0.380   5.559
 8789SOL    HW227267   6.167   0.430   5.688
 8790SOL     OW27268   6.766   1.150   0.634
 8790SOL    HW127269   6.827   1.215   0.680
 8790SOL    HW227270   6.766   1.064   0.684
 8791SOL     OW27271   5.228   6.704   5.400
 8791SOL    HW127272   5.166   6.725   5.476
 8791SOL    HW227273   5.271   6.787   5.368
 8792SOL     OW27274   3.898   6.298   2.947
 8792SOL    HW127275   3.823   6.322   2.886
 8792SOL    HW227276   3.873   6.319   3.042
 8793SOL     OW27277   1.887   5.836   3.952
 8793SOL    HW127278   1.972   5.789   3.977
 8793SOL    HW227279   1.809   5.778   3.974
 8794SOL     OW27280   3.640   6.694   1.862
 8794SOL    HW127281   3.684   6.652   1.783
 8794SOL    HW227282   3.651   6.635   1.942
 8795SOL     OW27283   1.391   6.647   5.145
 8795SOL    HW127284   1.449   6.566   5.154
 8795SOL    HW227285   1.447   6.724   5.112
 8796SOL     OW27286   3.978   0.670   5.361
 8796SOL    HW127287   4.034   0.588   5.350
 8796SOL    HW227288   4.035   0.748   5.385
 8797SOL     OW27289   1.059   6.871   5.353
 8797SOL    HW127290   1.098   6.940   5.415
 8797SOL    HW227291   0.984   6.823   5.400
 8798SOL     OW27292   5.326   4.565   5.153
 8798SOL    HW127293   5.355   4.518   5.069
 8798SOL    HW227294   5.268   4.643   5.129
 8799SOL     OW27295   2.234   4.946   3.078
 8799SOL    HW127296   2.199   5.007   3.149
 8799SOL    HW227297   2.196   4.854   3.093
 8800SOL     OW27298   5.788   3.712   5.049
 8800SOL    HW127299   5.771   3.718   4.950
 8800SOL    HW227300   5.886   3.724   5.066
 8801SOL     OW27301   1.988   1.369   4.511
 8801SOL    HW127302   1.967   1.400   4.418
 8801SOL    HW227303   1.976   1.445   4.574
 8802SOL     OW27304   1.227   0.518   1.000
 8802SOL    HW127305   1.249   0.431   1.044
 8802SOL    HW227306   1.242   0.510   0.901
 8803SOL     OW27307   1.335   4.915   5.945
 8803SOL    HW127308   1.313   4.823   5.978
 8803SOL    HW227309   1.325   4.981   6.019
 8804SOL     OW27310   2.969   0.864   2.117
 8804SOL    HW127311   2.931   0.890   2.028
 8804SOL    HW227312   3.027   0.784   2.106
 8805SOL     OW27313   2.518   0.623   4.230
 8805SOL    HW127314   2.514   0.713   4.274
 8805SOL    HW227315   2.456   0.560   4.277
 8806SOL     OW27316   2.048   5.249   1.619
 8806SOL    HW127317   2.148   5.250   1.622
 8806SOL    HW227318   2.014   5.342   1.625
 8807SOL     OW27319   6.451   6.188   5.984
 8807SOL    HW127320   6.524   6.120   5.996
 8807SOL    HW227321   6.366   6.140   5.960
 8808SOL     OW27322   5.725   1.539   0.851
 8808SOL    HW127323   5.630   1.529   0.879
 8808SOL    HW227324   5.759   1.628   0.880
 8809SOL     OW27325   5.277   4.257   2.523
 8809SOL    HW127326   5.304   4.175   2.572
 8809SOL    HW227327   5.358   4.312   2.501
 8810SOL     OW27328   5.627   1.300   5.510
 8810SOL    HW127329   5.594   1.266   5.422
 8810SOL    HW227330   5.727   1.297   5.512
 8811SOL     OW27331   2.708   1.866   3.975
 8811SOL    HW127332   2.651   1.905   4.048
 8811SOL    HW227333   2.783   1.929   3.954
 8812SOL     OW27334   1.250   0.828   0.453
 8812SOL    HW127335   1.259   0.878   0.539
 8812SOL    HW227336   1.282   0.884   0.377
 8813SOL     OW27337   1.091   4.534   1.419
 8813SOL    HW127338   1.072   4.446   1.376
 8813SOL    HW227339   1.101   4.521   1.518
 8814SOL     OW27340   6.248   1.022   0.786
 8814SOL    HW127341   6.159   1.047   0.826
 8814SOL    HW227342   6.296   0.960   0.848
 8815SOL     OW27343   6.842   6.171   0.878
 8815SOL    HW127344   6.927   6.118   0.878
 8815SOL    HW227345   6.825   6.206   0.786
 8816SOL     OW27346   1.608   0.102   0.676
 8816SOL    HW127347   1.663   0.184   0.665
 8816SOL    HW227348   1.661   0.022   0.648
 8817SOL     OW27349   0.383   5.840   5.887
 8817SOL    HW127350   0.440   5.920   5.907
 8817SOL    HW227351   0.401   5.809   5.793
 8818SOL     OW27352   0.080   3.541   3.407
 8818SOL    HW127353   0.036   3.547   3.497
 8818SOL    HW227354   0.110   3.447   3.391
 8819SOL     OW27355   4.383   5.473   4.110
 8819SOL    HW127356   4.453   5.491   4.041
 8819SOL    HW227357   4.386   5.376   4.135
 8820SOL     OW27358   2.520   2.014   4.155
 8820SOL    HW127359   2.552   1.967   4.238
 8820SOL    HW227360   2.528   2.113   4.168
 8821SOL     OW27361   1.670   6.506   0.056
 8821SOL    HW127362   1.738   6.536   7.012
 8821SOL    HW227363   1.703   6.523   0.149
 8822SOL     OW27364   0.993   0.354   3.361
 8822SOL    HW127365   1.020   0.273   3.414
 8822SOL    HW227366   1.061   0.372   3.291
 8823SOL     OW27367   2.153   0.825   0.848
 8823SOL    HW127368   2.188   0.901   0.902
 8823SOL    HW227369   2.169   0.739   0.896
 8824SOL     OW27370   1.857   3.863   0.891
 8824SOL    HW127371   1.902   3.952   0.884
 8824SOL    HW227372   1.907   3.796   0.837
 8825SOL     OW27373   1.844   0.929   3.711
 8825SOL    HW127374   1.834   0.886   3.801
 8825SOL    HW227375   1.764   0.910   3.656
 8826SOL     OW27376   6.529   2.197   0.536
 8826SOL    HW127377   6.498   2.108   0.503
 8826SOL    HW227378   6.464   2.232   0.604
 8827SOL     OW27379   3.222   1.539   3.043
 8827SOL    HW127380   3.202   1.626   2.998
 8827SOL    HW227381   3.312   1.544   3.087
 8828SOL     OW27382   4.028   5.267   4.241
 8828SOL    HW127383   4.083   5.261   4.157
 8828SOL    HW227384   3.931   5.265   4.218
 8829SOL     OW27385   0.425   2.575   0.057
 8829SOL    HW127386   0.426   2.675   0.051
 8829SOL    HW227387   0.333   2.542   0.035
 8830SOL     OW27388   0.369   1.744   0.988
 8830SOL    HW127389   0.286   1.731   1.042
 8830SOL    HW227390   0.411   1.654   0.970
 8831SOL     OW27391   5.348   1.146   3.437
 8831SOL    HW127392   5.249   1.153   3.445
 8831SOL    HW227393   5.376   1.165   3.343
 8832SOL     OW27394   6.194   6.222   2.582
 8832SOL    HW127395   6.101   6.187   2.573
 8832SOL    HW227396   6.206   6.264   2.672
 8833SOL     OW27397   1.985   6.241   5.614
 8833SOL    HW127398   2.058   6.224   5.681
 8833SOL    HW227399   2.011   6.203   5.526
 8834SOL     OW27400   5.327   3.892   4.545
 8834SOL    HW127401   5.260   3.826   4.511
 8834SOL    HW227402   5.406   3.894   4.484
 8835SOL     OW27403   6.153   0.701   6.022
 8835SOL    HW127404   6.098   0.696   5.939
 8835SOL    HW227405   6.247   0.727   5.998
 8836SOL     OW27406   4.637   1.165   7.021
 8836SOL    HW127407   4.618   1.261   7.000
 8836SOL    HW227408   4.730   1.156   0.035
 8837SOL     OW27409   0.655   6.957   2.309
 8837SOL    HW127410   0.752   6.982   2.320
 8837SOL    HW227411   0.601   7.004   2.379
 8838SOL     OW27412   2.810   5.140   2.851
 8838SOL    HW127413   2.854   5.052   2.867
 8838SOL    HW227414   2.739   5.154   2.920
 8839SOL     OW27415   5.481   5.483   2.205
 8839SOL    HW127416   5.422   5.439   2.137
 8839SOL    HW227417   5.572   5.442   2.202
 8840SOL     OW27418   6.875   2.370   1.942
 8840SOL    HW127419   6.969   2.381   1.975
 8840SOL    HW227420   6.835   2.288   1.982
 8841SOL     OW27421   1.483   0.902   4.822
 8841SOL    HW127422   1.436   0.884   4.735
 8841SOL    HW227423   1.498   0.816   4.870
 8842SOL     OW27424   3.593   2.469   0.426
 8842SOL    HW127425   3.542   2.450   0.510
 8842SOL    HW227426   3.533   2.517   0.361
 8843SOL     OW27427   1.505   2.804   5.281
 8843SOL    HW127428   1.579   2.754   5.328
 8843SOL    HW227429   1.478   2.754   5.199
 8844SOL     OW27430   5.764   1.142   0.118
 8844SOL    HW127431   5.763   1.117   0.215
 8844SOL    HW227432   5.781   1.240   0.110
 8845SOL     OW27433   4.425   4.147   0.142
 8845SOL    HW127434   4.399   4.077   0.209
 8845SOL    HW227435   4.458   4.102   0.059
 8846SOL     OW27436   2.123   6.131   4.043
 8846SOL    HW127437   2.213   6.095   4.021
 8846SOL    HW227438   2.131   6.226   4.072
 8847SOL     OW27439   2.764   0.879   2.834
 8847SOL    HW127440   2.839   0.942   2.813
 8847SOL    HW227441   2.801   0.788   2.853
 8848SOL     OW27442   2.662   0.762   1.392
 8848SOL    HW127443   2.625   0.834   1.334
 8848SOL    HW227444   2.715   0.698   1.336
 8849SOL     OW27445   3.191   6.309   3.031
 8849SOL    HW127446   3.219   6.286   3.125
 8849SOL    HW227447   3.131   6.388   3.033
 8850SOL     OW27448   1.333   1.907   0.005
 8850SOL    HW127449   1.278   1.874   0.083
 8850SOL    HW227450   1.326   1.841   6.952
 8851SOL     OW27451   1.819   4.501   2.658
 8851SOL    HW127452   1.820   4.453   2.746
 8851SOL    HW227453   1.807   4.435   2.585
 8852SOL     OW27454   0.995   1.886   5.324
 8852SOL    HW127455   1.081   1.842   5.353
 8852SOL    HW227456   1.015   1.972   5.279
 8853SOL     OW27457   2.711   0.801   2.162
 8853SOL    HW127458   2.808   0.800   2.182
 8853SOL    HW227459   2.659   0.821   2.245
 8854SOL     OW27460   1.981   3.188   4.428
 8854SOL    HW127461   1.881   3.195   4.435
 8854SOL    HW227462   2.021   3.280   4.428
 8855SOL     OW27463   6.434   5.133   1.394
 8855SOL    HW127464   6.374   5.079   1.453
 8855SOL    HW227465   6.528   5.125   1.426
 8856SOL     OW27466   6.808   6.096   6.775
 8856SOL    HW127467   6.763   6.183   6.753
 8856SOL    HW227468   6.739   6.025   6.788
 8857SOL     OW27469   6.557   1.484   4.840
 8857SOL    HW127470   6.493   1.562   4.841
 8857SOL    HW227471   6.640   1.510   4.792
 8858SOL     OW27472   0.105   4.626   4.752
 8858SOL    HW127473   0.137   4.675   4.671
 8858SOL    HW227474   0.021   4.577   4.731
 8859SOL     OW27475   1.188   0.853   3.846
 8859SOL    HW127476   1.133   0.936   3.851
 8859SOL    HW227477   1.177   0.801   3.931
 8860SOL     OW27478   0.178   3.088   1.301
 8860SOL    HW127479   0.078   3.097   1.303
 8860SOL    HW227480   0.206   3.045   1.216
 8861SOL     OW27481   3.881   1.228   0.349
 8861SOL    HW127482   3.864   1.321   0.381
 8861SOL    HW227483   3.980   1.214   0.339
 8862SOL     OW27484   4.993   6.060   3.792
 8862SOL    HW127485   4.929   6.134   3.810
 8862SOL    HW227486   5.062   6.056   3.865
 8863SOL     OW27487   1.589   5.089   3.233
 8863SOL    HW127488   1.558   4.995   3.217
 8863SOL    HW227489   1.669   5.088   3.292
 8864SOL     OW27490   4.577   4.070   6.924
 8864SOL    HW127491   4.652   4.135   6.941
 8864SOL    HW227492   4.553   4.071   6.827
 8865SOL     OW27493   2.754   0.994   5.642
 8865SOL    HW127494   2.810   0.931   5.588
 8865SOL    HW227495   2.746   1.081   5.593
 8866SOL     OW27496   5.052   6.707   3.010
 8866SOL    HW127497   5.086   6.704   2.916
 8866SOL    HW227498   5.058   6.616   3.051
 8867SOL     OW27499   6.130   3.534   3.711
 8867SOL    HW127500   6.054   3.512   3.772
 8867SOL    HW227501   6.099   3.598   3.641
 8868SOL     OW27502   6.567   3.553   2.490
 8868SOL    HW127503   6.587   3.468   2.441
 8868SOL    HW227504   6.620   3.557   2.574
 8869SOL     OW27505   3.912   6.022   4.922
 8869SOL    HW127506   3.831   6.018   4.864
 8869SOL    HW227507   3.982   6.077   4.878
 8870SOL     OW27508   2.064   6.906   1.725
 8870SOL    HW127509   1.977   6.953   1.741
 8870SOL    HW227510   2.139   6.969   1.746
 8871SOL     OW27511   1.764   1.296   3.366
 8871SOL    HW127512   1.731   1.311   3.459
 8871SOL    HW227513   1.858   1.329   3.358
 8872SOL     OW27514   1.329   4.790   6.299
 8872SOL    HW127515   1.245   4.818   6.346
 8872SOL    HW227516   1.408   4.832   6.343
 8873SOL     OW27517   1.925   0.480   1.407
 8873SOL    HW127518   1.838   0.499   1.360
 8873SOL    HW227519   1.924   0.523   1.497
 8874SOL     OW27520   1.145   5.907   2.078
 8874SOL    HW127521   1.094   5.892   1.993
 8874SOL    HW227522   1.138   6.003   2.104
 8875SOL     OW27523   0.010   3.609   4.137
 8875SOL    HW127524   0.027   3.635   4.041
 8875SOL    HW227525   6.934   3.613   4.155
 8876SOL     OW27526   3.017   0.662   6.275
 8876SOL    HW127527   3.100   0.717   6.275
 8876SOL    HW227528   2.994   0.638   6.181
 8877SOL     OW27529   1.654   3.659   2.866
 8877SOL    HW127530   1.620   3.612   2.784
 8877SOL    HW227531   1.743   3.699   2.847
 8878SOL     OW27532   3.328   4.495   0.624
 8878SOL    HW127533   3.425   4.483   0.642
 8878SOL    HW227534   3.289   4.410   0.589
 8879SOL     OW27535   6.358   4.731   2.485
 8879SOL    HW127536   6.354   4.654   2.548
 8879SOL    HW227537   6.396   4.701   2.397
 8880SOL     OW27538   4.128   6.217   4.159
 8880SOL    HW127539   4.032   6.235   4.182
 8880SOL    HW227540   4.179   6.194   4.242
 8881SOL     OW27541   5.148   5.346   4.556
 8881SOL    HW127542   5.203   5.411   4.608
 8881SOL    HW227543   5.089   5.295   4.618
 8882SOL     OW27544   3.552   0.859   0.411
 8882SOL    HW127545   3.621   0.817   0.352
 8882SOL    HW227546   3.568   0.957   0.417
 8883SOL     OW27547   0.814   5.999   5.436
 8883SOL    HW127548   0.903   5.970   5.472
 8883SOL    HW227549   0.815   5.992   5.337
 8884SOL     OW27550   6.097   3.895   5.581
 8884SOL    HW127551   6.170   3.951   5.619
 8884SOL    HW227552   6.024   3.954   5.546
 8885SOL     OW27553   5.244   4.897   0.256
 8885SOL    HW127554   5.332   4.882   0.211
 8885SOL    HW227555   5.191   4.812   0.254
 8886SOL     OW27556   3.655   5.747   5.902
 8886SOL    HW127557   3.610   5.753   5.813
 8886SOL    HW227558   3.665   5.651   5.928
 8887SOL     OW27559   4.162   1.134   0.818
 8887SOL    HW127560   4.255   1.157   0.789
 8887SOL    HW227561   4.102   1.131   0.738
 8888SOL     OW27562   2.144   2.285   3.866
 8888SOL    HW127563   2.049   2.301   3.838
 8888SOL    HW227564   2.148   2.205   3.925
 8889SOL     OW27565   6.801   6.337   6.279
 8889SOL    HW127566   6.874   6.272   6.297
 8889SOL    HW227567   6.818   6.422   6.329
 8890SOL     OW27568   0.652   6.112   6.710
 8890SOL    HW127569   0.660   6.013   6.702
 8890SOL    HW227570   0.567   6.135   6.758
 8891SOL     OW27571   4.459   4.398   0.031
 8891SOL    HW127572   4.551   4.407   7.013
 8891SOL    HW227573   4.452   4.311   0.079
 8892SOL     OW27574   3.937   4.941   3.762
 8892SOL    HW127575   3.941   5.020   3.823
 8892SOL    HW227576   3.844   4.931   3.726
 8893SOL     OW27577   1.126   5.427   5.211
 8893SOL    HW127578   1.037   5.418   5.167
 8893SOL    HW227579   1.198   5.399   5.148
 8894SOL     OW27580   4.172   1.476   0.043
 8894SOL    HW127581   4.202   1.465   0.138
 8894SOL    HW227582   4.164   1.573   0.021
 8895SOL     OW27583   0.615   2.911   0.713
 8895SOL    HW127584   0.585   2.899   0.619
 8895SOL    HW227585   0.702   2.863   0.727
 8896SOL     OW27586   1.517   2.955   4.938
 8896SOL    HW127587   1.485   3.036   4.988
 8896SOL    HW227588   1.583   2.983   4.868
 8897SOL     OW27589   2.036   3.983   3.587
 8897SOL    HW127590   2.107   3.930   3.634
 8897SOL    HW227591   2.032   4.075   3.624
 8898SOL     OW27592   5.831   4.069   2.111
 8898SOL    HW127593   5.918   4.102   2.147
 8898SOL    HW227594   5.821   4.099   2.016
 8899SOL     OW27595   0.025   4.716   6.817
 8899SOL    HW127596   0.101   4.656   6.840
 8899SOL    HW227597   6.984   4.721   6.895
 8900SOL     OW27598   5.707   2.519   3.231
 8900SOL    HW127599   5.621   2.524   3.282
 8900SOL    HW227600   5.730   2.424   3.213
 8901SOL     OW27601   0.999   1.659   3.569
 8901SOL    HW127602   1.062   1.595   3.526
 8901SOL    HW227603   1.047   1.745   3.589
 8902SOL     OW27604   1.980   5.426   6.697
 8902SOL    HW127605   2.015   5.501   6.641
 8902SOL    HW227606   2.054   5.384   6.749
 8903SOL     OW27607   1.231   1.909   4.885
 8903SOL    HW127608   1.248   1.860   4.799
 8903SOL    HW227609   1.251   2.006   4.873
 8904SOL     OW27610   1.064   2.198   3.170
 8904SOL    HW127611   1.080   2.218   3.074
 8904SOL    HW227612   1.137   2.138   3.204
 8905SOL     OW27613   1.727   3.346   2.650
 8905SOL    HW127614   1.671   3.427   2.633
 8905SOL    HW227615   1.805   3.371   2.708
 8906SOL     OW27616   0.825   5.933   0.883
 8906SOL    HW127617   0.805   6.028   0.906
 8906SOL    HW227618   0.902   5.901   0.940
 8907SOL     OW27619   3.245   2.711   5.246
 8907SOL    HW127620   3.189   2.628   5.252
 8907SOL    HW227621   3.186   2.791   5.253
 8908SOL     OW27622   1.952   4.738   0.386
 8908SOL    HW127623   1.912   4.787   0.464
 8908SOL    HW227624   1.878   4.698   0.331
 8909SOL     OW27625   2.943   1.172   6.181
 8909SOL    HW127626   2.914   1.177   6.277
 8909SOL    HW227627   2.872   1.125   6.128
 8910SOL     OW27628   0.373   3.152   5.227
 8910SOL    HW127629   0.437   3.133   5.301
 8910SOL    HW227630   0.295   3.089   5.233
 8911SOL     OW27631   5.345   2.713   4.607
 8911SOL    HW127632   5.311   2.756   4.690
 8911SOL    HW227633   5.317   2.617   4.605
 8912SOL     OW27634   3.270   2.807   5.639
 8912SOL    HW127635   3.303   2.879   5.578
 8912SOL    HW227636   3.284   2.834   5.734
 8913SOL     OW27637   4.803   5.177   0.106
 8913SOL    HW127638   4.870   5.129   0.163
 8913SOL    HW227639   4.716   5.183   0.155
 8914SOL     OW27640   4.797   6.720   4.703
 8914SOL    HW127641   4.885   6.764   4.724
 8914SOL    HW227642   4.735   6.731   4.781
 8915SOL     OW27643   1.414   1.821   4.351
 8915SOL    HW127644   1.477   1.792   4.423
 8915SOL    HW227645   1.334   1.761   4.350
 8916SOL     OW27646   5.620   1.879   6.619
 8916SOL    HW127647   5.616   1.780   6.604
 8916SOL    HW227648   5.670   1.897   6.704
 8917SOL     OW27649   5.561   1.993   0.600
 8917SOL    HW127650   5.658   2.013   0.616
 8917SOL    HW227651   5.518   1.966   0.686
 8918SOL     OW27652   1.730   5.414   1.220
 8918SOL    HW127653   1.673   5.364   1.285
 8918SOL    HW227654   1.753   5.354   1.143
 8919SOL     OW27655   5.099   4.567   6.498
 8919SOL    HW127656   5.102   4.636   6.426
 8919SOL    HW227657   5.036   4.596   6.570
 8920SOL     OW27658   0.795   1.849   6.603
 8920SOL    HW127659   0.737   1.851   6.684
 8920SOL    HW227660   0.750   1.797   6.531
 8921SOL     OW27661   1.670   2.654   1.559
 8921SOL    HW127662   1.703   2.694   1.473
 8921SOL    HW227663   1.669   2.554   1.551
 8922SOL     OW27664   3.852   6.844   1.949
 8922SOL    HW127665   3.883   6.833   2.043
 8922SOL    HW227666   3.789   6.770   1.926
 8923SOL     OW27667   1.170   1.807   5.623
 8923SOL    HW127668   1.176   1.887   5.683
 8923SOL    HW227669   1.258   1.793   5.576
 8924SOL     OW27670   4.780   5.398   5.273
 8924SOL    HW127671   4.713   5.411   5.200
 8924SOL    HW227672   4.744   5.434   5.359
 8925SOL     OW27673   6.745   0.029   2.505
 8925SOL    HW127674   6.818   0.081   2.548
 8925SOL    HW227675   6.769   6.954   2.503
 8926SOL     OW27676   6.669   3.563   5.546
 8926SOL    HW127677   6.670   3.463   5.549
 8926SOL    HW227678   6.729   3.594   5.472
 8927SOL     OW27679   6.466   1.435   5.266
 8927SOL    HW127680   6.377   1.450   5.310
 8927SOL    HW227681   6.476   1.337   5.245
 8928SOL     OW27682   1.376   6.997   6.080
 8928SOL    HW127683   1.380   0.059   6.134
 8928SOL    HW227684   1.280   6.974   6.062
 8929SOL     OW27685   6.370   1.935   5.060
 8929SOL    HW127686   6.402   1.850   5.103
 8929SOL    HW227687   6.436   1.963   4.990
 8930SOL     OW27688   0.871   3.278   2.957
 8930SOL    HW127689   0.794   3.338   2.977
 8930SOL    HW227690   0.941   3.289   3.027
 8931SOL     OW27691   3.360   3.044   1.705
 8931SOL    HW127692   3.322   3.094   1.628
 8931SOL    HW227693   3.445   3.000   1.678
 8932SOL     OW27694   6.932   2.474   2.432
 8932SOL    HW127695   6.951   2.563   2.473
 8932SOL    HW227696   6.974   2.469   2.342
 8933SOL     OW27697   2.814   2.470   6.416
 8933SOL    HW127698   2.764   2.383   6.416
 8933SOL    HW227699   2.798   2.518   6.502
 8934SOL     OW27700   3.639   5.025   5.114
 8934SOL    HW127701   3.696   5.089   5.063
 8934SOL    HW227702   3.685   4.998   5.199
 8935SOL     OW27703   0.372   4.576   0.505
 8935SOL    HW127704   0.438   4.512   0.468
 8935SOL    HW227705   0.402   4.670   0.486
 8936SOL     OW27706   1.693   3.819   0.105
 8936SOL    HW127707   1.753   3.805   0.027
 8936SOL    HW227708   1.605   3.775   0.088
 8937SOL     OW27709   0.787   6.909   4.797
 8937SOL    HW127710   0.720   6.935   4.727
 8937SOL    HW227711   0.872   6.881   4.753
 8938SOL     OW27712   0.578   5.525   1.016
 8938SOL    HW127713   0.623   5.438   0.996
 8938SOL    HW227714   0.583   5.584   0.936
 8939SOL     OW27715   4.763   2.911   4.285
 8939SOL    HW127716   4.729   2.819   4.304
 8939SOL    HW227717   4.714   2.949   4.207
 8940SOL     OW27718   0.242   1.014   3.955
 8940SOL    HW127719   0.274   1.095   3.907
 8940SOL    HW227720   0.160   0.979   3.910
 8941SOL     OW27721   5.385   2.384   5.635
 8941SOL    HW127722   5.350   2.291   5.625
 8941SOL    HW227723   5.483   2.382   5.654
 8942SOL     OW27724   1.157   3.931   5.569
 8942SOL    HW127725   1.151   4.005   5.503
 8942SOL    HW227726   1.178   3.968   5.660
 8943SOL     OW27727   4.026   3.834   0.400
 8943SOL    HW127728   4.050   3.902   0.331
 8943SOL    HW227729   4.108   3.787   0.431
 8944SOL     OW27730   4.922   4.852   5.211
 8944SOL    HW127731   4.907   4.827   5.306
 8944SOL    HW227732   4.836   4.846   5.160
 8945SOL     OW27733   1.981   1.072   3.975
 8945SOL    HW127734   2.071   1.114   3.970
 8945SOL    HW227735   1.975   0.996   3.910
 8946SOL     OW27736   3.057   1.508   5.239
 8946SOL    HW127737   2.998   1.543   5.166
 8946SOL    HW227738   3.046   1.409   5.246
 8947SOL     OW27739   0.893   3.881   5.049
 8947SOL    HW127740   0.972   3.928   5.010
 8947SOL    HW227741   0.869   3.802   4.991
 8948SOL     OW27742   6.067   5.843   4.081
 8948SOL    HW127743   6.094   5.747   4.094
 8948SOL    HW227744   5.974   5.857   4.115
 8949SOL     OW27745   1.860   0.488   0.948
 8949SOL    HW127746   1.853   0.519   0.853
 8949SOL    HW227747   1.775   0.442   0.974
 8950SOL     OW27748   4.855   3.057   5.725
 8950SOL    HW127749   4.922   3.054   5.651
 8950SOL    HW227750   4.780   2.994   5.705
 8951SOL     OW27751   1.258   2.344   5.100
 8951SOL    HW127752   1.354   2.357   5.122
 8951SOL    HW227753   1.211   2.432   5.100
 8952SOL     OW27754   0.936   0.467   2.161
 8952SOL    HW127755   0.998   0.393   2.189
 8952SOL    HW227756   0.889   0.441   2.076
 8953SOL     OW27757   1.259   3.850   0.059
 8953SOL    HW127758   1.346   3.812   0.091
 8953SOL    HW227759   1.184   3.804   0.106
 8954SOL     OW27760   0.481   6.091   5.944
 8954SOL    HW127761   0.580   6.098   5.926
 8954SOL    HW227762   0.431   6.132   5.867
 8955SOL     OW27763   0.502   4.449   2.434
 8955SOL    HW127764   0.567   4.420   2.504
 8955SOL    HW227765   0.416   4.398   2.445
 8956SOL     OW27766   6.994   1.553   6.929
 8956SOL    HW127767   6.909   1.606   6.928
 8956SOL    HW227768   7.011   1.520   7.022
 8957SOL     OW27769   3.166   4.189   1.546
 8957SOL    HW127770   3.203   4.281   1.534
 8957SOL    HW227771   3.153   4.146   1.457
 8958SOL     OW27772   0.889   0.540   4.100
 8958SOL    HW127773   0.982   0.509   4.119
 8958SOL    HW227774   0.875   0.546   4.001
 8959SOL     OW27775   1.875   4.477   1.318
 8959SOL    HW127776   1.786   4.453   1.279
 8959SOL    HW227777   1.947   4.438   1.262
 8960SOL     OW27778   5.158   5.634   2.083
 8960SOL    HW127779   5.168   5.534   2.085
 8960SOL    HW227780   5.074   5.660   2.131
 8961SOL     OW27781   2.054   2.340   4.694
 8961SOL    HW127782   2.124   2.403   4.660
 8961SOL    HW227783   2.096   2.253   4.720
 8962SOL     OW27784   6.324   6.571   2.320
 8962SOL    HW127785   6.359   6.505   2.387
 8962SOL    HW227786   6.335   6.664   2.357
 8963SOL     OW27787   4.911   6.699   4.296
 8963SOL    HW127788   4.853   6.635   4.345
 8963SOL    HW227789   4.910   6.678   4.198
 8964SOL     OW27790   6.146   3.783   3.543
 8964SOL    HW127791   6.147   3.860   3.478
 8964SOL    HW227792   6.133   3.818   3.635
 8965SOL     OW27793   1.923   4.986   1.050
 8965SOL    HW127794   1.950   4.902   1.002
 8965SOL    HW227795   2.005   5.037   1.077
 8966SOL     OW27796   1.735   3.804   5.390
 8966SOL    HW127797   1.680   3.740   5.443
 8966SOL    HW227798   1.786   3.864   5.452
 8967SOL     OW27799   3.285   5.890   1.667
 8967SOL    HW127800   3.202   5.929   1.626
 8967SOL    HW227801   3.365   5.925   1.618
 8968SOL     OW27802   5.352   5.219   2.476
 8968SOL    HW127803   5.389   5.127   2.483
 8968SOL    HW227804   5.400   5.269   2.404
 8969SOL     OW27805   6.514   0.333   4.072
 8969SOL    HW127806   6.435   0.283   4.039
 8969SOL    HW227807   6.498   0.364   4.166
 8970SOL     OW27808   3.045   2.290   0.730
 8970SOL    HW127809   3.094   2.262   0.648
 8970SOL    HW227810   3.107   2.336   0.794
 8971SOL     OW27811   3.867   5.384   2.429
 8971SOL    HW127812   3.913   5.462   2.471
 8971SOL    HW227813   3.770   5.405   2.416
 8972SOL     OW27814   4.888   5.663   6.219
 8972SOL    HW127815   4.873   5.670   6.317
 8972SOL    HW227816   4.973   5.710   6.195
 8973SOL     OW27817   1.093   3.342   2.057
 8973SOL    HW127818   1.164   3.363   2.125
 8973SOL    HW227819   1.004   3.375   2.091
 8974SOL     OW27820   1.199   4.342   5.544
 8974SOL    HW127821   1.185   4.339   5.643
 8974SOL    HW227822   1.155   4.263   5.502
 8975SOL     OW27823   2.564   0.496   6.683
 8975SOL    HW127824   2.483   0.459   6.729
 8975SOL    HW227825   2.636   0.427   6.683
 8976SOL     OW27826   0.652   5.120   5.210
 8976SOL    HW127827   0.644   5.021   5.199
 8976SOL    HW227828   0.661   5.141   5.307
 8977SOL     OW27829   5.825   1.479   6.744
 8977SOL    HW127830   5.818   1.476   6.644
 8977SOL    HW227831   5.921   1.484   6.771
 8978SOL     OW27832   6.239   6.908   6.602
 8978SOL    HW127833   6.311   6.894   6.670
 8978SOL    HW227834   6.275   6.891   6.510
 8979SOL     OW27835   1.410   3.097   4.553
 8979SOL    HW127836   1.479   3.054   4.610
 8979SOL    HW227837   1.432   3.084   4.457
 8980SOL     OW27838   2.333   3.192   5.338
 8980SOL    HW127839   2.291   3.218   5.251
 8980SOL    HW227840   2.388   3.109   5.324
 8981SOL     OW27841   3.851   1.833   5.016
 8981SOL    HW127842   3.772   1.870   4.968
 8981SOL    HW227843   3.848   1.861   5.112
 8982SOL     OW27844   1.479   2.658   0.608
 8982SOL    HW127845   1.559   2.683   0.553
 8982SOL    HW227846   1.445   2.739   0.655
 8983SOL     OW27847   2.829   6.404   6.171
 8983SOL    HW127848   2.754   6.387   6.107
 8983SOL    HW227849   2.914   6.413   6.119
 8984SOL     OW27850   0.796   7.004   4.022
 8984SOL    HW127851   0.708   6.966   3.993
 8984SOL    HW227852   0.780   0.064   4.077
 8985SOL     OW27853   3.744   2.037   0.620
 8985SOL    HW127854   3.793   2.012   0.703
 8985SOL    HW227855   3.800   2.099   0.565
 8986SOL     OW27856   4.296   5.545   2.682
 8986SOL    HW127857   4.214   5.601   2.696
 8986SOL    HW227858   4.273   5.449   2.696
 8987SOL     OW27859   4.321   6.595   1.862
 8987SOL    HW127860   4.410   6.567   1.898
 8987SOL    HW227861   4.275   6.653   1.929
 8988SOL     OW27862   1.164   4.761   4.709
 8988SOL    HW127863   1.209   4.753   4.620
 8988SOL    HW227864   1.222   4.720   4.780
 8989SOL     OW27865   4.818   3.528   0.489
 8989SOL    HW127866   4.762   3.445   0.494
 8989SOL    HW227867   4.800   3.575   0.402
 8990SOL     OW27868   1.441   5.504   4.605
 8990SOL    HW127869   1.360   5.546   4.564
 8990SOL    HW227870   1.523   5.542   4.562
 8991SOL     OW27871   1.729   2.895   4.471
 8991SOL    HW127872   1.824   2.878   4.499
 8991SOL    HW227873   1.728   2.920   4.374
 8992SOL     OW27874   4.406   1.184   0.682
 8992SOL    HW127875   4.502   1.167   0.704
 8992SOL    HW227876   4.399   1.259   0.617
 8993SOL     OW27877   4.608   2.451   0.688
 8993SOL    HW127878   4.591   2.395   0.770
 8993SOL    HW227879   4.531   2.513   0.674
 8994SOL     OW27880   1.503   4.100   5.674
 8994SOL    HW127881   1.541   4.008   5.671
 8994SOL    HW227882   1.554   4.160   5.612
 8995SOL     OW27883   1.005   2.395   0.140
 8995SOL    HW127884   1.088   2.378   0.192
 8995SOL    HW227885   1.027   2.401   0.042
 8996SOL     OW27886   5.004   4.128   6.785
 8996SOL    HW127887   4.973   4.033   6.784
 8996SOL    HW227888   5.100   4.132   6.754
 8997SOL     OW27889   5.033   2.106   6.385
 8997SOL    HW127890   5.051   2.103   6.286
 8997SOL    HW227891   5.023   2.202   6.414
 8998SOL     OW27892   6.291   3.468   4.309
 8998SOL    HW127893   6.347   3.469   4.392
 8998SOL    HW227894   6.350   3.457   4.229
 8999SOL     OW27895   4.947   6.326   6.338
 8999SOL    HW127896   4.860   6.321   6.387
 8999SOL    HW227897   4.948   6.408   6.281
 9000SOL     OW27898   1.805   3.490   1.984
 9000SOL    HW127899   1.824   3.441   1.898
 9000SOL    HW227900   1.741   3.564   1.966
 9001SOL     OW27901   1.354   4.602   2.121
 9001SOL    HW127902   1.295   4.560   2.052
 9001SOL    HW227903   1.448   4.570   2.108
 9002SOL     OW27904   1.558   5.098   4.823
 9002SOL    HW127905   1.497   5.098   4.902
 9002SOL    HW227906   1.574   5.193   4.794
 9003SOL     OW27907   5.805   4.040   1.844
 9003SOL    HW127908   5.749   3.983   1.784
 9003SOL    HW227909   5.895   3.999   1.856
 9004SOL     OW27910   4.253   5.534   0.934
 9004SOL    HW127911   4.243   5.629   0.965
 9004SOL    HW227912   4.200   5.520   0.850
 9005SOL     OW27913   6.438   1.859   5.432
 9005SOL    HW127914   6.340   1.876   5.446
 9005SOL    HW227915   6.453   1.824   5.340
 9006SOL     OW27916   2.144   5.725   1.417
 9006SOL    HW127917   2.160   5.823   1.413
 9006SOL    HW227918   2.073   5.700   1.351
 9007SOL     OW27919   3.390   0.715   3.345
 9007SOL    HW127920   3.404   0.759   3.434
 9007SOL    HW227921   3.473   0.724   3.290
 9008SOL     OW27922   0.861   5.438   2.956
 9008SOL    HW127923   0.824   5.526   2.925
 9008SOL    HW227924   0.934   5.454   3.022
 9009SOL     OW27925   2.824   5.646   0.807
 9009SOL    HW127926   2.758   5.573   0.787
 9009SOL    HW227927   2.900   5.609   0.860
 9010SOL     OW27928   1.550   6.503   4.037
 9010SOL    HW127929   1.538   6.567   4.113
 9010SOL    HW227930   1.507   6.416   4.059
 9011SOL     OW27931   4.873   0.968   1.095
 9011SOL    HW127932   4.881   0.938   1.190
 9011SOL    HW227933   4.843   1.063   1.092
 9012SOL     OW27934   2.289   4.754   6.948
 9012SOL    HW127935   2.314   4.771   6.853
 9012SOL    HW227936   2.335   4.820   7.007
 9013SOL     OW27937   0.086   0.353   6.242
 9013SOL    HW127938   0.130   0.305   6.165
 9013SOL    HW227939   0.155   0.372   6.312
 9014SOL     OW27940   6.928   2.104   0.809
 9014SOL    HW127941   6.866   2.049   0.752
 9014SOL    HW227942   7.008   2.049   0.833
 9015SOL     OW27943   4.622   2.566   1.738
 9015SOL    HW127944   4.608   2.553   1.640
 9015SOL    HW227945   4.554   2.514   1.788
 9016SOL     OW27946   6.706   6.332   6.693
 9016SOL    HW127947   6.651   6.342   6.610
 9016SOL    HW227948   6.745   6.420   6.719
 9017SOL     OW27949   4.679   1.600   4.279
 9017SOL    HW127950   4.678   1.667   4.206
 9017SOL    HW227951   4.592   1.602   4.328
 9018SOL     OW27952   2.750   3.189   5.989
 9018SOL    HW127953   2.685   3.243   5.935
 9018SOL    HW227954   2.771   3.104   5.941
 9019SOL     OW27955   1.629   5.000   2.671
 9019SOL    HW127956   1.707   4.951   2.709
 9019SOL    HW227957   1.544   4.954   2.699
 9020SOL     OW27958   0.039   3.960   1.065
 9020SOL    HW127959   0.005   3.878   1.111
 9020SOL    HW227960   0.027   3.950   0.966
 9021SOL     OW27961   6.978   1.088   3.624
 9021SOL    HW127962   6.884   1.115   3.601
 9021SOL    HW227963   0.003   1.058   3.541
 9022SOL     OW27964   2.829   1.018   0.009
 9022SOL    HW127965   2.755   1.011   6.963
 9022SOL    HW227966   2.917   1.001   6.986
 9023SOL     OW27967   3.413   3.352   1.831
 9023SOL    HW127968   3.493   3.299   1.803
 9023SOL    HW227969   3.443   3.442   1.864
 9024SOL     OW27970   1.538   3.828   6.012
 9024SOL    HW127971   1.568   3.879   5.931
 9024SOL    HW227972   1.610   3.763   6.038
 9025SOL     OW27973   0.495   5.187   0.738
 9025SOL    HW127974   0.588   5.224   0.738
 9025SOL    HW227975   0.485   5.120   0.665
 9026SOL     OW27976   3.305   2.727   0.767
 9026SOL    HW127977   3.254   2.715   0.852
 9026SOL    HW227978   3.242   2.728   0.689
 9027SOL     OW27979   0.585   3.270   2.667
 9027SOL    HW127980   0.600   3.174   2.690
 9027SOL    HW227981   0.672   3.319   2.670
 9028SOL     OW27982   3.083   2.981   5.300
 9028SOL    HW127983   3.181   2.989   5.320
 9028SOL    HW227984   3.040   3.071   5.307
 9029SOL     OW27985   3.513   6.971   5.073
 9029SOL    HW127986   3.612   6.962   5.083
 9029SOL    HW227987   3.487   6.950   4.979
 9030SOL     OW27988   2.166   2.119   3.622
 9030SOL    HW127989   2.081   2.129   3.569
 9030SOL    HW227990   2.160   2.173   3.706
 9031SOL     OW27991   4.330   6.090   4.039
 9031SOL    HW127992   4.341   6.004   4.090
 9031SOL    HW227993   4.254   6.142   4.078
 9032SOL     OW27994   4.681   4.120   0.968
 9032SOL    HW127995   4.766   4.170   0.950
 9032SOL    HW227996   4.698   4.022   0.959
 9033SOL     OW27997   0.555   4.030   2.683
 9033SOL    HW127998   0.512   4.080   2.608
 9033SOL    HW227999   0.593   4.095   2.749
 9034SOL     OW28000   2.922   5.800   4.497
 9034SOL    HW128001   2.828   5.781   4.524
 9034SOL    HW228002   2.977   5.717   4.505
 9035SOL     OW28003   2.593   4.765   7.008
 9035SOL    HW128004   2.577   4.680   6.956
 9035SOL    HW228005   2.528   4.770   0.062
 9036SOL     OW28006   2.146   3.227   5.721
 9036SOL    HW128007   2.197   3.310   5.700
 9036SOL    HW228008   2.191   3.149   5.678
 9037SOL     OW28009   1.140   4.289   4.139
 9037SOL    HW128010   1.070   4.292   4.211
 9037SOL    HW228011   1.159   4.194   4.115
 9038SOL     OW28012   4.559   1.862   6.467
 9038SOL    HW128013   4.629   1.798   6.436
 9038SOL    HW228014   4.593   1.913   6.546
 9039SOL     OW28015   2.111   4.973   6.359
 9039SOL    HW128016   2.105   4.896   6.423
 9039SOL    HW228017   2.020   4.992   6.321
 9040SOL     OW28018   2.624   2.432   2.772
 9040SOL    HW128019   2.568   2.480   2.840
 9040SOL    HW228020   2.618   2.479   2.684
 9041SOL     OW28021   1.274   2.563   0.949
 9041SOL    HW128022   1.217   2.644   0.960
 9041SOL    HW228023   1.257   2.499   1.024
 9042SOL     OW28024   4.144   0.338   4.335
 9042SOL    HW128025   4.178   0.244   4.330
 9042SOL    HW228026   4.159   0.374   4.428
 9043SOL     OW28027   2.181   0.929   6.009
 9043SOL    HW128028   2.167   1.022   5.976
 9043SOL    HW228029   2.190   0.930   6.109
 9044SOL     OW28030   6.677   0.476   0.701
 9044SOL    HW128031   6.693   0.479   0.603
 9044SOL    HW228032   6.633   0.389   0.725
 9045SOL     OW28033   3.513   1.379   2.633
 9045SOL    HW128034   3.602   1.401   2.673
 9045SOL    HW228035   3.441   1.397   2.701
 9046SOL     OW28036   3.395   4.105   2.930
 9046SOL    HW128037   3.384   4.195   2.887
 9046SOL    HW228038   3.434   4.117   3.021
 9047SOL     OW28039   1.665   3.554   4.726
 9047SOL    HW128040   1.583   3.551   4.669
 9047SOL    HW228041   1.707   3.644   4.720
 9048SOL     OW28042   6.806   3.362   6.276
 9048SOL    HW128043   6.820   3.456   6.247
 9048SOL    HW228044   6.723   3.355   6.331
 9049SOL     OW28045   4.081   6.406   5.700
 9049SOL    HW128046   4.146   6.376   5.631
 9049SOL    HW228047   4.127   6.413   5.788
 9050SOL     OW28048   0.789   3.782   1.112
 9050SOL    HW128049   0.805   3.768   1.209
 9050SOL    HW228050   0.830   3.870   1.084
 9051SOL     OW28051   2.968   0.309   1.221
 9051SOL    HW128052   2.956   0.210   1.233
 9051SOL    HW228053   2.888   0.346   1.174
 9052SOL     OW28054   2.408   2.690   3.686
 9052SOL    HW128055   2.486   2.629   3.674
 9052SOL    HW228056   2.325   2.636   3.702
 9053SOL     OW28057   2.411   1.400   2.273
 9053SOL    HW128058   2.363   1.454   2.343
 9053SOL    HW228059   2.496   1.446   2.248
 9054SOL     OW28060   3.212   5.521   4.247
 9054SOL    HW128061   3.148   5.466   4.301
 9054SOL    HW228062   3.220   5.612   4.288
 9055SOL     OW28063   5.681   1.767   4.204
 9055SOL    HW128064   5.619   1.844   4.190
 9055SOL    HW228065   5.727   1.745   4.118
 9056SOL     OW28066   0.531   2.256   1.280
 9056SOL    HW128067   0.572   2.297   1.362
 9056SOL    HW228068   0.494   2.166   1.303
 9057SOL     OW28069   4.476   2.929   5.280
 9057SOL    HW128070   4.563   2.912   5.234
 9057SOL    HW228071   4.422   2.845   5.282
 9058SOL     OW28072   1.590   0.982   1.858
 9058SOL    HW128073   1.676   0.930   1.863
 9058SOL    HW228074   1.551   0.990   1.950
 9059SOL     OW28075   1.109   2.453   2.885
 9059SOL    HW128076   1.176   2.465   2.812
 9059SOL    HW228077   1.136   2.508   2.964
 9060SOL     OW28078   5.825   2.580   4.475
 9060SOL    HW128079   5.853   2.643   4.403
 9060SOL    HW228080   5.743   2.615   4.521
 9061SOL     OW28081   2.849   5.360   2.159
 9061SOL    HW128082   2.948   5.369   2.170
 9061SOL    HW228083   2.809   5.327   2.244
 9062SOL     OW28084   1.086   6.148   2.201
 9062SOL    HW128085   1.151   6.216   2.167
 9062SOL    HW228086   1.112   6.119   2.293
 9063SOL     OW28087   2.964   0.466   4.108
 9063SOL    HW128088   2.898   0.525   4.156
 9063SOL    HW228089   2.925   0.436   4.021
 9064SOL     OW28090   6.203   3.404   6.374
 9064SOL    HW128091   6.249   3.330   6.326
 9064SOL    HW228092   6.104   3.390   6.372
 9065SOL     OW28093   3.816   0.502   0.309
 9065SOL    HW128094   3.728   0.467   0.342
 9065SOL    HW228095   3.872   0.427   0.275
 9066SOL     OW28096   5.053   6.832   0.034
 9066SOL    HW128097   4.980   6.898   0.049
 9066SOL    HW228098   5.134   6.860   0.085
 9067SOL     OW28099   1.022   0.906   3.556
 9067SOL    HW128100   1.012   0.827   3.496
 9067SOL    HW228101   1.008   0.878   3.651
 9068SOL     OW28102   1.728   6.297   4.486
 9068SOL    HW128103   1.681   6.385   4.499
 9068SOL    HW228104   1.822   6.314   4.458
 9069SOL     OW28105   1.236   3.112   0.762
 9069SOL    HW128106   1.144   3.075   0.751
 9069SOL    HW228107   1.232   3.199   0.810
 9070SOL     OW28108   1.531   3.558   5.165
 9070SOL    HW128109   1.573   3.470   5.145
 9070SOL    HW228110   1.470   3.584   5.091
 9071SOL     OW28111   6.711   6.513   1.241
 9071SOL    HW128112   6.613   6.506   1.255
 9071SOL    HW228113   6.739   6.452   1.167
 9072SOL     OW28114   0.291   2.674   1.044
 9072SOL    HW128115   0.244   2.616   0.978
 9072SOL    HW228116   0.288   2.631   1.134
 9073SOL     OW28117   2.113   0.066   2.225
 9073SOL    HW128118   2.180   0.140   2.221
 9073SOL    HW228119   2.102   0.036   2.319
 9074SOL     OW28120   0.810   0.339   2.459
 9074SOL    HW128121   0.867   0.418   2.438
 9074SOL    HW228122   0.755   0.358   2.541
 9075SOL     OW28123   0.021   1.501   2.381
 9075SOL    HW128124   0.008   1.568   2.455
 9075SOL    HW228125   0.031   1.410   2.421
 9076SOL     OW28126   0.065   1.162   6.491
 9076SOL    HW128127   6.988   1.160   6.473
 9076SOL    HW228128   0.094   1.256   6.502
 9077SOL     OW28129   4.413   6.858   1.454
 9077SOL    HW128130   4.334   6.859   1.516
 9077SOL    HW228131   4.391   6.908   1.371
 9078SOL     OW28132   3.353   3.311   4.774
 9078SOL    HW128133   3.276   3.250   4.794
 9078SOL    HW228134   3.326   3.406   4.793
 9079SOL     OW28135   2.710   0.807   4.785
 9079SOL    HW128136   2.718   0.764   4.695
 9079SOL    HW228137   2.759   0.752   4.853
 9080SOL     OW28138   5.319   2.990   6.500
 9080SOL    HW128139   5.336   2.911   6.558
 9080SOL    HW228140   5.287   3.066   6.557
 9081SOL     OW28141   5.102   6.334   2.201
 9081SOL    HW128142   5.086   6.377   2.290
 9081SOL    HW228143   5.078   6.398   2.128
 9082SOL     OW28144   1.633   0.501   4.719
 9082SOL    HW128145   1.553   0.445   4.697
 9082SOL    HW228146   1.633   0.583   4.662
 9083SOL     OW28147   4.433   4.799   6.132
 9083SOL    HW128148   4.397   4.773   6.222
 9083SOL    HW228149   4.427   4.898   6.121
 9084SOL     OW28150   3.858   3.694   3.305
 9084SOL    HW128151   3.794   3.625   3.272
 9084SOL    HW228152   3.828   3.785   3.275
 9085SOL     OW28153   2.385   0.553   0.474
 9085SOL    HW128154   2.345   0.644   0.463
 9085SOL    HW228155   2.324   0.485   0.432
 9086SOL     OW28156   0.554   4.384   0.384
 9086SOL    HW128157   0.520   4.295   0.413
 9086SOL    HW228158   0.530   4.399   0.288
 9087SOL     OW28159   5.050   2.772   1.953
 9087SOL    HW128160   4.968   2.730   1.912
 9087SOL    HW228161   5.080   2.848   1.896
 9088SOL     OW28162   6.410   0.178   1.144
 9088SOL    HW128163   6.497   0.186   1.192
 9088SOL    HW228164   6.411   0.236   1.062
 9089SOL     OW28165   5.253   6.611   5.828
 9089SOL    HW128166   5.214   6.586   5.739
 9089SOL    HW228167   5.192   6.676   5.873
 9090SOL     OW28168   6.056   1.273   5.624
 9090SOL    HW128169   5.992   1.282   5.700
 9090SOL    HW228170   6.005   1.260   5.539
 9091SOL     OW28171   2.664   3.631   6.681
 9091SOL    HW128172   2.673   3.713   6.737
 9091SOL    HW228173   2.649   3.551   6.740
 9092SOL     OW28174   6.614   1.092   0.397
 9092SOL    HW128175   6.528   1.095   0.448
 9092SOL    HW228176   6.688   1.126   0.454
 9093SOL     OW28177   1.797   5.944   5.482
 9093SOL    HW128178   1.745   5.895   5.412
 9093SOL    HW228179   1.837   5.878   5.546
 9094SOL     OW28180   6.956   4.148   2.564
 9094SOL    HW128181   6.894   4.224   2.545
 9094SOL    HW228182   0.027   4.182   2.570
 9095SOL     OW28183   4.987   4.760   6.029
 9095SOL    HW128184   4.894   4.741   6.060
 9095SOL    HW228185   4.996   4.736   5.932
 9096SOL     OW28186   0.048   5.301   3.466
 9096SOL    HW128187   7.011   5.367   3.511
 9096SOL    HW228188   0.055   5.323   3.368
 9097SOL     OW28189   1.941   1.939   6.578
 9097SOL    HW128190   1.992   1.947   6.664
 9097SOL    HW228191   2.006   1.922   6.503
 9098SOL     OW28192   2.496   2.131   5.045
 9098SOL    HW128193   2.442   2.199   4.996
 9098SOL    HW228194   2.556   2.177   5.111
 9099SOL     OW28195   2.495   3.050   6.677
 9099SOL    HW128196   2.506   2.951   6.662
 9099SOL    HW228197   2.450   3.090   6.598
 9100SOL     OW28198   1.098   3.747   1.849
 9100SOL    HW128199   1.106   3.651   1.824
 9100SOL    HW228200   1.072   3.800   1.768
 9101SOL     OW28201   2.813   1.475   2.424
 9101SOL    HW128202   2.757   1.497   2.345
 9101SOL    HW228203   2.845   1.559   2.467
 9102SOL     OW28204   4.146   6.919   1.918
 9102SOL    HW128205   4.075   6.886   1.855
 9102SOL    HW228206   4.153   6.857   1.995
 9103SOL     OW28207   5.749   1.456   7.009
 9103SOL    HW128208   5.767   1.489   6.916
 9103SOL    HW228209   5.793   1.517   0.053
 9104SOL     OW28210   6.876   6.972   2.106
 9104SOL    HW128211   6.946   6.932   2.166
 9104SOL    HW228212   6.916   6.990   2.017
 9105SOL     OW28213   1.042   6.579   5.119
 9105SOL    HW128214   0.952   6.604   5.085
 9105SOL    HW228215   1.096   6.540   5.045
 9106SOL     OW28216   0.801   3.826   0.058
 9106SOL    HW128217   0.715   3.778   0.045
 9106SOL    HW228218   0.828   3.870   6.995
 9107SOL     OW28219   2.009   0.939   6.294
 9107SOL    HW128220   1.958   0.989   6.365
 9107SOL    HW228221   2.054   0.860   6.335
 9108SOL     OW28222   5.193   4.380   5.321
 9108SOL    HW128223   5.260   4.445   5.284
 9108SOL    HW228224   5.109   4.429   5.344
 9109SOL     OW28225   4.774   2.860   2.452
 9109SOL    HW128226   4.774   2.846   2.353
 9109SOL    HW228227   4.831   2.939   2.475
 9110SOL     OW28228   0.829   5.677   4.318
 9110SOL    HW128229   0.825   5.661   4.417
 9110SOL    HW228230   0.803   5.593   4.270
 9111SOL     OW28231   4.700   3.075   6.235
 9111SOL    HW128232   4.706   3.123   6.147
 9111SOL    HW228233   4.713   2.977   6.220
 9112SOL     OW28234   1.481   4.871   3.002
 9112SOL    HW128235   1.463   4.851   2.905
 9112SOL    HW228236   1.576   4.849   3.023
 9113SOL     OW28237   5.787   2.590   3.834
 9113SOL    HW128238   5.741   2.678   3.817
 9113SOL    HW228239   5.873   2.606   3.882
 9114SOL     OW28240   1.202   6.345   3.855
 9114SOL    HW128241   1.197   6.438   3.890
 9114SOL    HW228242   1.123   6.327   3.795
 9115SOL     OW28243   5.966   5.052   3.336
 9115SOL    HW128244   6.021   4.970   3.350
 9115SOL    HW228245   5.962   5.106   3.420
 9116SOL     OW28246   0.569   0.033   2.980
 9116SOL    HW128247   0.565   0.133   2.980
 9116SOL    HW228248   0.525   7.021   3.063
 9117SOL     OW28249   4.216   1.415   6.402
 9117SOL    HW128250   4.204   1.473   6.482
 9117SOL    HW228251   4.127   1.386   6.368
 9118SOL     OW28252   6.132   3.874   0.627
 9118SOL    HW128253   6.037   3.847   0.644
 9118SOL    HW228254   6.167   3.923   0.706
 9119SOL     OW28255   3.934   6.864   1.338
 9119SOL    HW128256   3.888   6.929   1.277
 9119SOL    HW228257   4.007   6.911   1.388
 9120SOL     OW28258   6.783   3.134   6.132
 9120SOL    HW128259   6.809   3.200   6.203
 9120SOL    HW228260   6.861   3.074   6.113
 9121SOL     OW28261   3.677   0.390   5.306
 9121SOL    HW128262   3.775   0.389   5.328
 9121SOL    HW228263   3.637   0.301   5.329
 9122SOL     OW28264   2.239   3.906   1.934
 9122SOL    HW128265   2.241   3.861   2.023
 9122SOL    HW228266   2.218   4.003   1.946
 9123SOL     OW28267   1.544   0.381   3.229
 9123SOL    HW128268   1.544   0.353   3.133
 9123SOL    HW228269   1.632   0.421   3.253
 9124SOL     OW28270   3.508   4.958   1.758
 9124SOL    HW128271   3.525   4.912   1.671
 9124SOL    HW228272   3.535   4.898   1.833
 9125SOL     OW28273   3.699   5.960   0.470
 9125SOL    HW128274   3.723   5.999   0.558
 9125SOL    HW228275   3.707   5.861   0.473
 9126SOL     OW28276   4.380   4.531   1.159
 9126SOL    HW128277   4.391   4.504   1.063
 9126SOL    HW228278   4.342   4.455   1.211
 9127SOL     OW28279   6.844   3.242   5.212
 9127SOL    HW128280   6.895   3.157   5.197
 9127SOL    HW228281   6.784   3.259   5.134
 9128SOL     OW28282   6.168   2.790   4.641
 9128SOL    HW128283   6.127   2.699   4.648
 9128SOL    HW228284   6.192   2.823   4.732
 9129SOL     OW28285   1.775   1.775   0.891
 9129SOL    HW128286   1.818   1.690   0.859
 9129SOL    HW228287   1.676   1.771   0.873
 9130SOL     OW28288   2.427   4.034   5.567
 9130SOL    HW128289   2.459   4.005   5.476
 9130SOL    HW228290   2.335   3.998   5.582
 9131SOL     OW28291   5.344   2.606   0.315
 9131SOL    HW128292   5.404   2.683   0.293
 9131SOL    HW228293   5.343   2.591   0.414
 9132SOL     OW28294   0.954   4.766   3.996
 9132SOL    HW128295   0.941   4.763   3.897
 9132SOL    HW228296   0.946   4.861   4.028
 9133SOL     OW28297   3.452   0.573   0.934
 9133SOL    HW128298   3.410   0.661   0.911
 9133SOL    HW228299   3.475   0.571   1.031
 9134SOL     OW28300   4.506   5.182   1.119
 9134SOL    HW128301   4.501   5.273   1.162
 9134SOL    HW228302   4.441   5.177   1.044
 9135SOL     OW28303   0.802   6.192   2.206
 9135SOL    HW128304   0.780   6.274   2.153
 9135SOL    HW228305   0.898   6.167   2.191
 9136SOL     OW28306   5.046   4.820   6.277
 9136SOL    HW128307   5.024   4.806   6.181
 9136SOL    HW228308   4.976   4.879   6.319
 9137SOL     OW28309   4.962   6.011   6.082
 9137SOL    HW128310   5.012   5.924   6.085
 9137SOL    HW228311   5.023   6.085   6.113
 9138SOL     OW28312   2.134   2.787   0.407
 9138SOL    HW128313   2.062   2.793   0.476
 9138SOL    HW228314   2.094   2.757   0.320
 9139SOL     OW28315   0.432   0.634   1.183
 9139SOL    HW128316   0.361   0.600   1.245
 9139SOL    HW228317   0.487   0.702   1.231
 9140SOL     OW28318   0.480   4.577   1.993
 9140SOL    HW128319   0.384   4.585   2.021
 9140SOL    HW228320   0.537   4.629   2.057
 9141SOL     OW28321   0.176   5.553   6.254
 9141SOL    HW128322   0.089   5.599   6.237
 9141SOL    HW228323   0.159   5.470   6.309
 9142SOL     OW28324   0.517   3.307   2.967
 9142SOL    HW128325   0.507   3.262   2.879
 9142SOL    HW228326   0.504   3.240   3.041
 9143SOL     OW28327   0.143   3.910   2.179
 9143SOL    HW128328   0.174   3.866   2.095
 9143SOL    HW228329   0.133   3.842   2.251
 9144SOL     OW28330   3.075   5.297   4.331
 9144SOL    HW128331   3.117   5.254   4.250
 9144SOL    HW228332   3.125   5.269   4.413
 9145SOL     OW28333   1.257   6.663   6.317
 9145SOL    HW128334   1.275   6.712   6.232
 9145SOL    HW228335   1.169   6.616   6.311
 9146SOL     OW28336   5.899   3.366   3.452
 9146SOL    HW128337   5.884   3.301   3.378
 9146SOL    HW228338   5.953   3.443   3.418
 9147SOL     OW28339   5.636   6.985   4.247
 9147SOL    HW128340   5.657   0.030   4.319
 9147SOL    HW228341   5.709   6.986   4.179
 9148SOL     OW28342   6.260   0.269   1.858
 9148SOL    HW128343   6.193   0.198   1.880
 9148SOL    HW228344   6.331   0.271   1.928
 9149SOL     OW28345   6.059   2.868   0.955
 9149SOL    HW128346   6.087   2.823   0.870
 9149SOL    HW228347   6.138   2.916   0.995
 9150SOL     OW28348   2.736   3.959   6.876
 9150SOL    HW128349   2.771   4.053   6.869
 9150SOL    HW228350   2.774   3.904   6.802
 9151SOL     OW28351   2.187   3.815   3.769
 9151SOL    HW128352   2.100   3.779   3.801
 9151SOL    HW228353   2.229   3.870   3.841
 9152SOL     OW28354   2.168   3.814   4.112
 9152SOL    HW128355   2.076   3.802   4.075
 9152SOL    HW228356   2.163   3.823   4.211
 9153SOL     OW28357   0.172   2.137   6.847
 9153SOL    HW128358   0.251   2.092   6.807
 9153SOL    HW228359   0.100   2.070   6.863
 9154SOL     OW28360   6.307   5.425   3.281
 9154SOL    HW128361   6.232   5.373   3.240
 9154SOL    HW228362   6.329   5.388   3.371
 9155SOL     OW28363   1.817   5.716   2.813
 9155SOL    HW128364   1.807   5.793   2.877
 9155SOL    HW228365   1.830   5.752   2.720
 9156SOL     OW28366   6.855   3.528   0.894
 9156SOL    HW128367   6.803   3.505   0.812
 9156SOL    HW228368   6.943   3.567   0.867
 9157SOL     OW28369   3.420   4.290   6.201
 9157SOL    HW128370   3.497   4.329   6.151
 9157SOL    HW228371   3.416   4.192   6.186
 9158SOL     OW28372   6.706   3.847   3.916
 9158SOL    HW128373   6.694   3.764   3.862
 9158SOL    HW228374   6.635   3.850   3.987
 9159SOL     OW28375   3.045   6.936   3.080
 9159SOL    HW128376   3.102   6.934   2.998
 9159SOL    HW228377   3.084   7.000   3.146
 9160SOL     OW28378   0.829   4.801   6.521
 9160SOL    HW128379   0.762   4.733   6.493
 9160SOL    HW228380   0.782   4.879   6.562
 9161SOL     OW28381   5.807   3.649   1.780
 9161SOL    HW128382   5.892   3.696   1.756
 9161SOL    HW228383   5.794   3.650   1.879
 9162SOL     OW28384   4.422   1.737   2.554
 9162SOL    HW128385   4.406   1.822   2.503
 9162SOL    HW228386   4.350   1.726   2.623
 9163SOL     OW28387   0.770   2.445   2.889
 9163SOL    HW128388   0.853   2.463   2.836
 9163SOL    HW228389   0.689   2.462   2.833
 9164SOL     OW28390   2.116   0.369   6.500
 9164SOL    HW128391   2.071   0.285   6.471
 9164SOL    HW228392   2.105   0.438   6.428
 9165SOL     OW28393   5.098   2.713   5.139
 9165SOL    HW128394   5.117   2.618   5.113
 9165SOL    HW228395   5.078   2.767   5.057
 9166SOL     OW28396   4.746   5.477   1.759
 9166SOL    HW128397   4.760   5.539   1.682
 9166SOL    HW228398   4.676   5.513   1.820
 9167SOL     OW28399   1.011   1.151   5.753
 9167SOL    HW128400   1.045   1.245   5.750
 9167SOL    HW228401   1.068   1.097   5.816
 9168SOL     OW28402   6.696   5.374   4.764
 9168SOL    HW128403   6.597   5.392   4.761
 9168SOL    HW228404   6.741   5.429   4.694
 9169SOL     OW28405   5.892   5.424   6.690
 9169SOL    HW128406   5.867   5.421   6.786
 9169SOL    HW228407   5.949   5.504   6.672
 9170SOL     OW28408   1.376   1.591   6.011
 9170SOL    HW128409   1.281   1.565   6.022
 9170SOL    HW228410   1.430   1.512   5.981
 9171SOL     OW28411   2.943   4.986   0.861
 9171SOL    HW128412   3.012   4.915   0.875
 9171SOL    HW228413   2.952   5.056   0.931
 9172SOL     OW28414   5.411   1.378   4.658
 9172SOL    HW128415   5.443   1.283   4.655
 9172SOL    HW228416   5.353   1.396   4.579
 9173SOL     OW28417   6.076   2.586   3.674
 9173SOL    HW128418   6.057   2.577   3.771
 9173SOL    HW228419   6.072   2.495   3.631
 9174SOL     OW28420   0.944   5.754   6.989
 9174SOL    HW128421   0.938   5.828   0.035
 9174SOL    HW228422   1.009   5.780   6.918
 9175SOL     OW28423   2.036   6.955   0.553
 9175SOL    HW128424   2.127   6.914   0.558
 9175SOL    HW228425   2.033   7.021   0.478
 9176SOL     OW28426   1.972   1.295   3.052
 9176SOL    HW128427   2.012   1.315   3.141
 9176SOL    HW228428   2.044   1.288   2.983
 9177SOL     OW28429   0.567   4.786   3.988
 9177SOL    HW128430   0.644   4.740   3.943
 9177SOL    HW228431   0.577   4.778   4.087
 9178SOL     OW28432   2.455   6.548   7.005
 9178SOL    HW128433   2.421   6.573   0.074
 9178SOL    HW228434   2.378   6.537   6.943
 9179SOL     OW28435   4.374   6.221   5.248
 9179SOL    HW128436   4.433   6.141   5.246
 9179SOL    HW228437   4.394   6.279   5.169
 9180SOL     OW28438   6.899   1.518   4.285
 9180SOL    HW128439   6.945   1.600   4.250
 9180SOL    HW228440   6.803   1.538   4.301
 9181SOL     OW28441   4.407   1.781   3.545
 9181SOL    HW128442   4.490   1.758   3.495
 9181SOL    HW228443   4.427   1.786   3.643
 9182SOL     OW28444   1.964   1.567   2.974
 9182SOL    HW128445   1.941   1.470   2.964
 9182SOL    HW228446   2.055   1.575   3.013
 9183SOL     OW28447   5.517   2.545   6.488
 9183SOL    HW128448   5.571   2.468   6.522
 9183SOL    HW228449   5.575   2.605   6.433
 9184SOL     OW28450   3.129   3.034   0.655
 9184SOL    HW128451   3.141   2.986   0.741
 9184SOL    HW228452   3.183   3.118   0.655
 9185SOL     OW28453   0.528   0.675   6.893
 9185SOL    HW128454   0.623   0.646   6.894
 9185SOL    HW228455   0.468   0.595   6.892
 9186SOL     OW28456   5.012   0.374   6.562
 9186SOL    HW128457   4.925   0.366   6.611
 9186SOL    HW228458   5.005   0.447   6.494
 9187SOL     OW28459   4.948   1.697   6.910
 9187SOL    HW128460   4.979   1.613   6.957
 9187SOL    HW228461   4.856   1.720   6.941
 9188SOL     OW28462   1.265   0.223   1.693
 9188SOL    HW128463   1.196   0.276   1.644
 9188SOL    HW228464   1.259   0.127   1.666
 9189SOL     OW28465   2.723   1.407   3.340
 9189SOL    HW128466   2.713   1.496   3.294
 9189SOL    HW228467   2.641   1.387   3.393
 9190SOL     OW28468   5.717   3.894   5.591
 9190SOL    HW128469   5.764   3.813   5.556
 9190SOL    HW228470   5.773   3.975   5.573
 9191SOL     OW28471   5.609   6.202   6.558
 9191SOL    HW128472   5.567   6.137   6.496
 9191SOL    HW228473   5.688   6.244   6.514
 9192SOL     OW28474   0.230   4.465   6.024
 9192SOL    HW128475   0.157   4.505   5.968
 9192SOL    HW228476   0.209   4.368   6.042
 9193SOL     OW28477   3.978   3.110   3.363
 9193SOL    HW128478   3.951   3.014   3.355
 9193SOL    HW228479   3.897   3.168   3.356
 9194SOL     OW28480   3.006   5.644   2.881
 9194SOL    HW128481   2.990   5.548   2.903
 9194SOL    HW228482   3.076   5.681   2.942
 9195SOL     OW28483   0.336   3.052   3.576
 9195SOL    HW128484   0.408   3.019   3.515
 9195SOL    HW228485   0.248   3.049   3.528
 9196SOL     OW28486   3.920   0.762   3.464
 9196SOL    HW128487   3.973   0.842   3.494
 9196SOL    HW228488   3.921   0.757   3.364
 9197SOL     OW28489   2.687   3.159   6.804
 9197SOL    HW128490   2.634   3.099   6.744
 9197SOL    HW228491   2.628   3.235   6.834
 9198SOL     OW28492   5.653   3.608   5.835
 9198SOL    HW128493   5.655   3.708   5.831
 9198SOL    HW228494   5.567   3.578   5.876
 9199SOL     OW28495   1.818   3.705   6.452
 9199SOL    HW128496   1.821   3.713   6.353
 9199SOL    HW228497   1.854   3.787   6.494
 9200SOL     OW28498   6.678   0.068   0.793
 9200SOL    HW128499   6.710   0.012   0.716
 9200SOL    HW228500   6.737   0.052   0.872
 9201SOL     OW28501   6.853   4.425   1.731
 9201SOL    HW128502   6.834   4.500   1.668
 9201SOL    HW228503   6.913   4.358   1.687
 9202SOL     OW28504   2.446   4.900   4.367
 9202SOL    HW128505   2.490   4.930   4.452
 9202SOL    HW228506   2.504   4.833   4.322
 9203SOL     OW28507   5.588   1.284   5.935
 9203SOL    HW128508   5.674   1.252   5.895
 9203SOL    HW228509   5.513   1.268   5.871
 9204SOL     OW28510   5.458   3.908   3.431
 9204SOL    HW128511   5.554   3.897   3.456
 9204SOL    HW228512   5.430   3.833   3.370
 9205SOL     OW28513   6.029   3.022   2.895
 9205SOL    HW128514   5.968   2.982   2.963
 9205SOL    HW228515   5.980   3.092   2.843
 9206SOL     OW28516   1.978   6.204   3.686
 9206SOL    HW128517   2.017   6.117   3.717
 9206SOL    HW228518   1.927   6.190   3.601
 9207SOL     OW28519   4.370   6.088   6.205
 9207SOL    HW128520   4.411   6.155   6.143
 9207SOL    HW228521   4.328   6.015   6.151
 9208SOL     OW28522   4.922   3.389   2.404
 9208SOL    HW128523   4.904   3.487   2.414
 9208SOL    HW228524   5.020   3.374   2.394
 9209SOL     OW28525   4.026   1.388   3.001
 9209SOL    HW128526   4.070   1.354   2.917
 9209SOL    HW228527   3.964   1.462   2.978
 9210SOL     OW28528   2.158   0.530   1.256
 9210SOL    HW128529   2.083   0.536   1.321
 9210SOL    HW228530   2.189   0.435   1.248
 9211SOL     OW28531   5.019   1.716   6.446
 9211SOL    HW128532   5.028   1.647   6.375
 9211SOL    HW228533   4.956   1.787   6.416
 9212SOL     OW28534   5.291   4.464   4.409
 9212SOL    HW128535   5.214   4.401   4.407
 9212SOL    HW228536   5.301   4.501   4.502
 9213SOL     OW28537   6.190   0.291   3.685
 9213SOL    HW128538   6.119   0.223   3.665
 9213SOL    HW228539   6.184   0.317   3.782
 9214SOL     OW28540   1.653   2.626   4.567
 9214SOL    HW128541   1.688   2.691   4.499
 9214SOL    HW228542   1.727   2.568   4.599
 9215SOL     OW28543   0.493   3.596   2.672
 9215SOL    HW128544   0.462   3.684   2.638
 9215SOL    HW228545   0.585   3.578   2.638
 9216SOL     OW28546   2.881   5.513   5.065
 9216SOL    HW128547   2.961   5.453   5.058
 9216SOL    HW228548   2.804   5.472   5.017
 9217SOL     OW28549   5.474   1.564   5.940
 9217SOL    HW128550   5.473   1.624   6.019
 9217SOL    HW228551   5.558   1.510   5.939
 9218SOL     OW28552   5.999   6.777   6.547
 9218SOL    HW128553   5.976   6.682   6.568
 9218SOL    HW228554   6.092   6.796   6.577
 9219SOL     OW28555   3.764   2.597   5.488
 9219SOL    HW128556   3.677   2.551   5.507
 9219SOL    HW228557   3.746   2.691   5.460
 9220SOL     OW28558   1.548   6.321   2.705
 9220SOL    HW128559   1.534   6.300   2.802
 9220SOL    HW228560   1.461   6.347   2.663
 9221SOL     OW28561   2.278   0.772   6.643
 9221SOL    HW128562   2.377   0.777   6.654
 9221SOL    HW228563   2.239   0.712   6.713
 9222SOL     OW28564   1.473   4.894   3.523
 9222SOL    HW128565   1.562   4.917   3.563
 9222SOL    HW228566   1.414   4.856   3.594
 9223SOL     OW28567   1.439   4.218   4.471
 9223SOL    HW128568   1.525   4.168   4.486
 9223SOL    HW228569   1.367   4.153   4.446
 9224SOL     OW28570   1.246   4.473   3.396
 9224SOL    HW128571   1.304   4.396   3.424
 9224SOL    HW228572   1.305   4.550   3.370
 9225SOL     OW28573   4.004   6.967   6.668
 9225SOL    HW128574   4.092   6.924   6.650
 9225SOL    HW228575   3.960   6.991   6.581
 9226SOL     OW28576   1.102   6.891   1.292
 9226SOL    HW128577   1.104   6.901   1.192
 9226SOL    HW228578   1.010   6.911   1.326
 9227SOL     OW28579   2.402   5.408   0.909
 9227SOL    HW128580   2.361   5.497   0.931
 9227SOL    HW228581   2.354   5.368   0.832
 9228SOL     OW28582   2.247   2.637   5.549
 9228SOL    HW128583   2.252   2.563   5.482
 9228SOL    HW228584   2.338   2.676   5.564
 9229SOL     OW28585   0.231   4.563   6.879
 9229SOL    HW128586   0.329   4.580   6.893
 9229SOL    HW228587   0.218   4.467   6.852
 9230SOL     OW28588   4.777   2.362   4.058
 9230SOL    HW128589   4.797   2.335   3.964
 9230SOL    HW228590   4.863   2.377   4.107
 9231SOL     OW28591   0.842   5.285   5.093
 9231SOL    HW128592   0.770   5.223   5.124
 9231SOL    HW228593   0.806   5.344   5.021
 9232SOL     OW28594   2.363   5.556   1.738
 9232SOL    HW128595   2.278   5.593   1.777
 9232SOL    HW228596   2.441   5.593   1.788
 9233SOL     OW28597   0.333   0.138   0.807
 9233SOL    HW128598   0.370   0.134   0.901
 9233SOL    HW228599   0.299   0.230   0.789
 9234SOL     OW28600   2.367   4.931   0.724
 9234SOL    HW128601   2.460   4.959   0.700
 9234SOL    HW228602   2.305   4.959   0.651
 9235SOL     OW28603   2.448   2.506   3.151
 9235SOL    HW128604   2.376   2.437   3.142
 9235SOL    HW228605   2.408   2.593   3.179
 9236SOL     OW28606   1.803   2.839   6.633
 9236SOL    HW128607   1.776   2.862   6.726
 9236SOL    HW228608   1.722   2.829   6.576
 9237SOL     OW28609   5.939   5.620   3.403
 9237SOL    HW128610   5.859   5.680   3.397
 9237SOL    HW228611   6.019   5.674   3.429
 9238SOL     OW28612   1.566   3.289   5.098
 9238SOL    HW128613   1.523   3.230   5.166
 9238SOL    HW228614   1.649   3.246   5.064
 9239SOL     OW28615   0.656   4.861   0.478
 9239SOL    HW128616   0.694   4.946   0.443
 9239SOL    HW228617   0.625   4.875   0.572
 9240SOL     OW28618   4.875   2.798   2.738
 9240SOL    HW128619   4.851   2.728   2.806
 9240SOL    HW228620   4.826   2.781   2.653
 9241SOL     OW28621   6.669   6.345   0.428
 9241SOL    HW128622   6.667   6.441   0.398
 9241SOL    HW228623   6.602   6.293   0.376
 9242SOL     OW28624   1.466   2.370   2.147
 9242SOL    HW128625   1.515   2.283   2.147
 9242SOL    HW228626   1.512   2.435   2.206
 9243SOL     OW28627   0.752   0.480   1.526
 9243SOL    HW128628   0.829   0.430   1.565
 9243SOL    HW228629   0.772   0.578   1.526
 9244SOL     OW28630   3.726   6.454   5.422
 9244SOL    HW128631   3.774   6.495   5.500
 9244SOL    HW228632   3.640   6.503   5.406
 9245SOL     OW28633   0.800   4.003   3.378
 9245SOL    HW128634   0.847   3.925   3.420
 9245SOL    HW228635   0.853   4.037   3.301
 9246SOL     OW28636   6.012   0.025   4.628
 9246SOL    HW128637   5.962   0.040   4.713
 9246SOL    HW228638   5.973   6.968   4.580
 9247SOL     OW28639   3.698   5.617   2.753
 9247SOL    HW128640   3.763   5.659   2.690
 9247SOL    HW228641   3.717   5.648   2.846
 9248SOL     OW28642   2.862   1.607   5.051
 9248SOL    HW128643   2.829   1.514   5.069
 9248SOL    HW228644   2.789   1.661   5.009
 9249SOL     OW28645   3.857   4.586   1.705
 9249SOL    HW128646   3.758   4.593   1.704
 9249SOL    HW228647   3.895   4.657   1.765
 9250SOL     OW28648   6.839   4.086   4.304
 9250SOL    HW128649   6.928   4.063   4.343
 9250SOL    HW228650   6.851   4.157   4.234
 9251SOL     OW28651   3.958   2.789   0.778
 9251SOL    HW128652   3.948   2.756   0.872
 9251SOL    HW228653   3.972   2.712   0.716
 9252SOL     OW28654   4.120   0.987   4.965
 9252SOL    HW128655   4.102   0.988   5.063
 9252SOL    HW228656   4.190   1.054   4.942
 9253SOL     OW28657   0.551   4.630   5.639
 9253SOL    HW128658   0.533   4.687   5.719
 9253SOL    HW228659   0.484   4.650   5.568
 9254SOL     OW28660   6.205   4.129   2.569
 9254SOL    HW128661   6.181   4.053   2.508
 9254SOL    HW228662   6.122   4.174   2.601
 9255SOL     OW28663   6.486   4.265   0.475
 9255SOL    HW128664   6.523   4.172   0.474
 9255SOL    HW228665   6.396   4.266   0.430
 9256SOL     OW28666   2.174   6.722   2.049
 9256SOL    HW128667   2.269   6.749   2.035
 9256SOL    HW228668   2.116   6.803   2.050
 9257SOL     OW28669   0.151   5.877   3.542
 9257SOL    HW128670   0.157   5.972   3.512
 9257SOL    HW228671   0.233   5.852   3.593
 9258SOL     OW28672   3.610   3.568   0.184
 9258SOL    HW128673   3.683   3.623   0.224
 9258SOL    HW228674   3.575   3.613   0.102
 9259SOL     OW28675   1.718   1.306   6.222
 9259SOL    HW128676   1.647   1.341   6.283
 9259SOL    HW228677   1.703   1.341   6.129
 9260SOL     OW28678   5.786   3.096   5.842
 9260SOL    HW128679   5.703   3.147   5.867
 9260SOL    HW228680   5.861   3.160   5.828
 9261SOL     OW28681   4.363   1.652   0.846
 9261SOL    HW128682   4.277   1.636   0.894
 9261SOL    HW228683   4.423   1.710   0.902
 9262SOL     OW28684   6.623   6.670   4.160
 9262SOL    HW128685   6.584   6.735   4.226
 9262SOL    HW228686   6.660   6.591   4.210
 9263SOL     OW28687   2.521   4.997   2.789
 9263SOL    HW128688   2.586   4.922   2.803
 9263SOL    HW228689   2.430   4.960   2.770
 9264SOL     OW28690   5.619   3.870   6.832
 9264SOL    HW128691   5.587   3.790   6.882
 9264SOL    HW228692   5.560   3.886   6.753
 9265SOL     OW28693   4.108   2.201   6.815
 9265SOL    HW128694   4.168   2.254   6.875
 9265SOL    HW228695   4.132   2.219   6.720
 9266SOL     OW28696   0.652   4.493   1.576
 9266SOL    HW128697   0.714   4.559   1.533
 9266SOL    HW228698   0.582   4.542   1.627
 9267SOL     OW28699   0.756   1.069   3.811
 9267SOL    HW128700   0.787   1.162   3.830
 9267SOL    HW228701   0.834   1.013   3.783
 9268SOL     OW28702   0.871   0.155   1.709
 9268SOL    HW128703   0.785   0.157   1.760
 9268SOL    HW228704   0.929   0.082   1.743
 9269SOL     OW28705   4.443   6.868   0.454
 9269SOL    HW128706   4.456   6.953   0.505
 9269SOL    HW228707   4.524   6.810   0.464
 9270SOL     OW28708   3.506   1.050   6.262
 9270SOL    HW128709   3.486   1.108   6.183
 9270SOL    HW228710   3.598   1.013   6.254
 9271SOL     OW28711   0.771   0.574   6.885
 9271SOL    HW128712   0.815   0.552   6.972
 9271SOL    HW228713   0.725   0.493   6.849
 9272SOL     OW28714   6.587   6.597   6.214
 9272SOL    HW128715   6.514   6.655   6.178
 9272SOL    HW228716   6.556   6.502   6.216
 9273SOL     OW28717   5.381   5.844   3.942
 9273SOL    HW128718   5.431   5.762   3.913
 9273SOL    HW228719   5.295   5.849   3.891
 9274SOL     OW28720   0.761   3.322   0.584
 9274SOL    HW128721   0.775   3.254   0.512
 9274SOL    HW228722   0.692   3.288   0.648
 9275SOL     OW28723   0.610   6.601   1.107
 9275SOL    HW128724   0.611   6.619   1.009
 9275SOL    HW228725   0.533   6.650   1.149
 9276SOL     OW28726   3.360   4.149   0.332
 9276SOL    HW128727   3.344   4.157   0.430
 9276SOL    HW228728   3.342   4.237   0.288
 9277SOL     OW28729   4.258   4.954   2.276
 9277SOL    HW128730   4.248   4.864   2.234
 9277SOL    HW228731   4.352   4.965   2.309
 9278SOL     OW28732   0.117   0.670   4.173
 9278SOL    HW128733   0.066   0.597   4.219
 9278SOL    HW228734   0.124   0.649   4.076
 9279SOL     OW28735   3.510   5.167   1.489
 9279SOL    HW128736   3.434   5.220   1.450
 9279SOL    HW228737   3.479   5.121   1.572
 9280SOL     OW28738   1.306   1.343   2.763
 9280SOL    HW128739   1.277   1.248   2.751
 9280SOL    HW228740   1.261   1.400   2.695
 9281SOL     OW28741   3.577   3.566   6.531
 9281SOL    HW128742   3.643   3.508   6.579
 9281SOL    HW228743   3.505   3.594   6.594
 9282SOL     OW28744   3.256   0.438   4.746
 9282SOL    HW128745   3.215   0.469   4.832
 9282SOL    HW228746   3.281   0.517   4.691
 9283SOL     OW28747   5.332   6.427   6.188
 9283SOL    HW128748   5.317   6.525   6.175
 9283SOL    HW228749   5.428   6.411   6.212
 9284SOL     OW28750   3.412   4.085   5.200
 9284SOL    HW128751   3.350   4.134   5.261
 9284SOL    HW228752   3.507   4.110   5.222
 9285SOL     OW28753   6.297   3.192   2.423
 9285SOL    HW128754   6.345   3.173   2.509
 9285SOL    HW228755   6.285   3.106   2.373
 9286SOL     OW28756   4.792   6.411   0.801
 9286SOL    HW128757   4.708   6.462   0.816
 9286SOL    HW228758   4.818   6.416   0.705
 9287SOL     OW28759   2.622   4.796   5.729
 9287SOL    HW128760   2.613   4.813   5.631
 9287SOL    HW228761   2.557   4.854   5.779
 9288SOL     OW28762   4.370   2.381   3.941
 9288SOL    HW128763   4.417   2.433   4.013
 9288SOL    HW228764   4.382   2.428   3.853
 9289SOL     OW28765   4.248   6.336   6.473
 9289SOL    HW128766   4.227   6.285   6.390
 9289SOL    HW228767   4.170   6.328   6.537
 9290SOL     OW28768   5.139   0.120   4.754
 9290SOL    HW128769   5.212   0.149   4.816
 9290SOL    HW228770   5.174   0.114   4.661
 9291SOL     OW28771   1.129   5.649   5.406
 9291SOL    HW128772   1.155   5.609   5.493
 9291SOL    HW228773   1.142   5.582   5.333
 9292SOL     OW28774   1.136   1.347   5.976
 9292SOL    HW128775   1.137   1.412   6.051
 9292SOL    HW228776   1.112   1.394   5.891
 9293SOL     OW28777   4.630   2.958   5.588
 9293SOL    HW128778   4.614   2.997   5.498
 9293SOL    HW228779   4.690   2.878   5.580
 9294SOL     OW28780   4.761   0.743   0.266
 9294SOL    HW128781   4.720   0.694   0.342
 9294SOL    HW228782   4.843   0.694   0.235
 9295SOL     OW28783   0.257   0.566   5.208
 9295SOL    HW128784   0.272   0.530   5.116
 9295SOL    HW228785   0.314   0.516   5.273
 9296SOL     OW28786   3.084   4.135   0.845
 9296SOL    HW128787   3.042   4.192   0.916
 9296SOL    HW228788   3.063   4.172   0.755
 9297SOL     OW28789   6.653   6.422   3.125
 9297SOL    HW128790   6.691   6.369   3.201
 9297SOL    HW228791   6.598   6.497   3.161
 9298SOL     OW28792   1.511   6.652   5.786
 9298SOL    HW128793   1.575   6.615   5.719
 9298SOL    HW228794   1.479   6.579   5.846
 9299SOL     OW28795   1.855   2.445   4.540
 9299SOL    HW128796   1.884   2.512   4.471
 9299SOL    HW228797   1.929   2.381   4.558
 9300SOL     OW28798   1.567   5.863   5.320
 9300SOL    HW128799   1.509   5.800   5.269
 9300SOL    HW228800   1.545   5.957   5.294
 9301SOL     OW28801   0.394   4.094   4.322
 9301SOL    HW128802   0.431   4.080   4.230
 9301SOL    HW228803   0.437   4.030   4.386
 9302SOL     OW28804   2.210   3.084   4.747
 9302SOL    HW128805   2.268   3.029   4.806
 9302SOL    HW228806   2.226   3.060   4.651
 9303SOL     OW28807   2.754   3.943   0.373
 9303SOL    HW128808   2.673   3.969   0.320
 9303SOL    HW228809   2.821   3.900   0.312
 9304SOL     OW28810   5.147   4.724   0.856
 9304SOL    HW128811   5.140   4.668   0.939
 9304SOL    HW228812   5.231   4.778   0.859
 9305SOL     OW28813   2.427   1.317   0.679
 9305SOL    HW128814   2.418   1.299   0.581
 9305SOL    HW228815   2.485   1.247   0.720
 9306SOL     OW28816   0.481   4.021   4.982
 9306SOL    HW128817   0.409   4.064   4.927
 9306SOL    HW228818   0.444   3.939   5.026
 9307SOL     OW28819   2.566   3.111   0.988
 9307SOL    HW128820   2.546   3.199   0.944
 9307SOL    HW228821   2.491   3.047   0.971
 9308SOL     OW28822   1.444   3.981   1.505
 9308SOL    HW128823   1.452   4.064   1.561
 9308SOL    HW228824   1.533   3.937   1.497
 9309SOL     OW28825   4.997   5.730   5.703
 9309SOL    HW128826   4.974   5.639   5.737
 9309SOL    HW228827   4.924   5.794   5.727
 9310SOL     OW28828   4.419   5.494   5.604
 9310SOL    HW128829   4.462   5.479   5.694
 9310SOL    HW228830   4.336   5.547   5.616
 9311SOL     OW28831   4.491   3.291   1.735
 9311SOL    HW128832   4.548   3.223   1.781
 9311SOL    HW228833   4.481   3.266   1.639
 9312SOL     OW28834   1.183   2.009   1.019
 9312SOL    HW128835   1.254   2.064   1.064
 9312SOL    HW228836   1.096   2.058   1.023
 9313SOL     OW28837   1.180   0.287   2.186
 9313SOL    HW128838   1.234   0.290   2.102
 9313SOL    HW228839   1.235   0.322   2.262
 9314SOL     OW28840   5.101   2.697   0.632
 9314SOL    HW128841   5.108   2.750   0.717
 9314SOL    HW228842   5.030   2.627   0.642
 9315SOL     OW28843   5.667   1.174   6.798
 9315SOL    HW128844   5.739   1.235   6.833
 9315SOL    HW228845   5.578   1.209   6.826
 9316SOL     OW28846   5.266   0.644   5.587
 9316SOL    HW128847   5.305   0.704   5.516
 9316SOL    HW228848   5.319   0.653   5.671
 9317SOL     OW28849   2.875   5.753   3.934
 9317SOL    HW128850   2.913   5.742   4.026
 9317SOL    HW228851   2.946   5.738   3.866
 9318SOL     OW28852   4.788   6.048   0.458
 9318SOL    HW128853   4.833   6.137   0.467
 9318SOL    HW228854   4.794   6.016   0.363
 9319SOL     OW28855   2.783   4.145   1.099
 9319SOL    HW128856   2.746   4.072   1.041
 9319SOL    HW228857   2.722   4.160   1.177
 9320SOL     OW28858   5.656   0.140   5.947
 9320SOL    HW128859   5.684   0.210   6.013
 9320SOL    HW228860   5.603   0.184   5.873
 9321SOL     OW28861   0.247   2.975   5.665
 9321SOL    HW128862   0.325   2.911   5.660
 9321SOL    HW228863   0.245   3.019   5.754
 9322SOL     OW28864   6.499   3.871   5.729
 9322SOL    HW128865   6.424   3.938   5.723
 9322SOL    HW228866   6.511   3.827   5.640
 9323SOL     OW28867   1.377   3.567   3.572
 9323SOL    HW128868   1.391   3.666   3.583
 9323SOL    HW228869   1.312   3.551   3.497
 9324SOL     OW28870   1.318   4.294   0.854
 9324SOL    HW128871   1.349   4.199   0.857
 9324SOL    HW228872   1.302   4.321   0.759
 9325SOL     OW28873   1.742   5.447   2.457
 9325SOL    HW128874   1.826   5.493   2.430
 9325SOL    HW228875   1.763   5.354   2.488
 9326SOL     OW28876   4.044   4.081   0.261
 9326SOL    HW128877   4.133   4.079   0.307
 9326SOL    HW228878   4.041   4.156   0.196
 9327SOL     OW28879   4.499   0.830   3.284
 9327SOL    HW128880   4.484   0.866   3.376
 9327SOL    HW228881   4.431   0.869   3.222
 9328SOL     OW28882   3.190   6.524   4.469
 9328SOL    HW128883   3.223   6.429   4.477
 9328SOL    HW228884   3.090   6.524   4.469
 9329SOL     OW28885   0.089   5.881   5.802
 9329SOL    HW128886   0.057   5.797   5.847
 9329SOL    HW228887   0.188   5.879   5.795
 9330SOL     OW28888   6.762   0.067   0.162
 9330SOL    HW128889   6.724   0.029   0.078
 9330SOL    HW228890   6.746   0.165   0.164
 9331SOL     OW28891   1.390   3.282   4.874
 9331SOL    HW128892   1.465   3.229   4.836
 9331SOL    HW228893   1.411   3.309   4.968
 9332SOL     OW28894   4.158   5.824   0.789
 9332SOL    HW128895   4.225   5.844   0.716
 9332SOL    HW228896   4.129   5.909   0.832
 9333SOL     OW28897   3.573   4.770   0.618
 9333SOL    HW128898   3.561   4.673   0.596
 9333SOL    HW228899   3.506   4.824   0.567
 9334SOL     OW28900   4.884   6.379   5.152
 9334SOL    HW128901   4.841   6.358   5.240
 9334SOL    HW228902   4.856   6.471   5.123
 9335SOL     OW28903   2.436   1.944   1.617
 9335SOL    HW128904   2.371   2.008   1.656
 9335SOL    HW228905   2.451   1.966   1.521
 9336SOL     OW28906   6.346   0.702   5.146
 9336SOL    HW128907   6.281   0.640   5.189
 9336SOL    HW228908   6.298   0.786   5.118
 9337SOL     OW28909   4.575   0.293   6.258
 9337SOL    HW128910   4.522   0.282   6.174
 9337SOL    HW228911   4.667   0.326   6.235
 9338SOL     OW28912   6.823   6.309   0.661
 9338SOL    HW128913   6.836   6.408   0.658
 9338SOL    HW228914   6.778   6.279   0.577
 9339SOL     OW28915   5.798   4.617   6.447
 9339SOL    HW128916   5.763   4.711   6.453
 9339SOL    HW228917   5.885   4.617   6.398
 9340SOL     OW28918   3.635   6.173   2.242
 9340SOL    HW128919   3.544   6.173   2.199
 9340SOL    HW228920   3.636   6.106   2.316
 9341SOL     OW28921   6.042   4.139   6.370
 9341SOL    HW128922   6.132   4.098   6.380
 9341SOL    HW228923   6.013   4.178   6.458
 9342SOL     OW28924   2.571   0.293   4.508
 9342SOL    HW128925   2.561   0.279   4.607
 9342SOL    HW228926   2.653   0.246   4.476
 9343SOL     OW28927   4.638   4.541   1.946
 9343SOL    HW128928   4.614   4.450   1.978
 9343SOL    HW228929   4.738   4.550   1.943
 9344SOL     OW28930   5.291   4.880   6.226
 9344SOL    HW128931   5.210   4.850   6.276
 9344SOL    HW228932   5.342   4.947   6.281
 9345SOL     OW28933   6.979   6.164   6.999
 9345SOL    HW128934   6.929   6.133   6.919
 9345SOL    HW228935   0.010   6.088   0.015
 9346SOL     OW28936   5.333   6.671   2.041
 9346SOL    HW128937   5.354   6.768   2.028
 9346SOL    HW228938   5.272   6.661   2.120
 9347SOL     OW28939   3.562   5.848   1.285
 9347SOL    HW128940   3.581   5.760   1.241
 9347SOL    HW228941   3.582   5.922   1.222
 9348SOL     OW28942   2.433   6.545   3.076
 9348SOL    HW128943   2.471   6.629   3.037
 9348SOL    HW228944   2.508   6.489   3.112
 9349SOL     OW28945   6.710   5.741   2.459
 9349SOL    HW128946   6.700   5.810   2.531
 9349SOL    HW228947   6.621   5.700   2.440
 9350SOL     OW28948   7.016   1.508   4.923
 9350SOL    HW128949   0.080   1.481   4.879
 9350SOL    HW228950   6.940   1.458   4.880
 9351SOL     OW28951   1.836   0.925   5.195
 9351SOL    HW128952   1.811   0.851   5.131
 9351SOL    HW228953   1.922   0.966   5.166
 9352SOL     OW28954   1.934   2.601   5.281
 9352SOL    HW128955   1.847   2.608   5.331
 9352SOL    HW228956   1.975   2.692   5.272
 9353SOL     OW28957   1.406   4.265   1.583
 9353SOL    HW128958   1.321   4.231   1.543
 9353SOL    HW228959   1.474   4.276   1.510
 9354SOL     OW28960   6.405   1.930   1.228
 9354SOL    HW128961   6.325   1.871   1.222
 9354SOL    HW228962   6.487   1.879   1.201
 9355SOL     OW28963   6.653   0.605   4.395
 9355SOL    HW128964   6.563   0.603   4.351
 9355SOL    HW228965   6.714   0.665   4.343
 9356SOL     OW28966   4.418   5.317   1.882
 9356SOL    HW128967   4.413   5.389   1.812
 9356SOL    HW228968   4.326   5.292   1.911
 9357SOL     OW28969   2.980   3.293   0.364
 9357SOL    HW128970   2.945   3.201   0.378
 9357SOL    HW228971   3.047   3.293   0.290
 9358SOL     OW28972   5.805   4.565   1.764
 9358SOL    HW128973   5.806   4.624   1.683
 9358SOL    HW228974   5.825   4.619   1.845
 9359SOL     OW28975   6.782   3.897   6.925
 9359SOL    HW128976   6.859   3.958   6.914
 9359SOL    HW228977   6.805   3.824   6.989
 9360SOL     OW28978   1.717   0.208   5.342
 9360SOL    HW128979   1.744   0.117   5.374
 9360SOL    HW228980   1.797   0.255   5.304
 9361SOL     OW28981   3.137   6.037   2.993
 9361SOL    HW128982   3.078   6.059   3.071
 9361SOL    HW228983   3.211   6.105   2.986
 9362SOL     OW28984   2.256   1.010   2.358
 9362SOL    HW128985   2.284   0.970   2.271
 9362SOL    HW228986   2.332   1.007   2.422
 9363SOL     OW28987   3.526   5.587   2.124
 9363SOL    HW128988   3.548   5.560   2.218
 9363SOL    HW228989   3.602   5.562   2.063
 9364SOL     OW28990   4.738   2.800   6.230
 9364SOL    HW128991   4.666   2.744   6.189
 9364SOL    HW228992   4.827   2.772   6.194
 9365SOL     OW28993   2.686   2.289   5.201
 9365SOL    HW128994   2.683   2.379   5.245
 9365SOL    HW228995   2.780   2.255   5.202
 9366SOL     OW28996   3.248   1.753   0.356
 9366SOL    HW128997   3.243   1.663   0.399
 9366SOL    HW228998   3.286   1.819   0.421
 9367SOL     OW28999   0.390   5.224   4.078
 9367SOL    HW129000   0.440   5.191   3.998
 9367SOL    HW229001   0.363   5.319   4.064
 9368SOL     OW29002   3.911   1.932   2.246
 9368SOL    HW129003   3.907   1.904   2.342
 9368SOL    HW229004   3.942   1.854   2.191
 9369SOL     OW29005   6.338   1.761   6.170
 9369SOL    HW129006   6.286   1.676   6.180
 9369SOL    HW229007   6.396   1.756   6.088
 9370SOL     OW29008   5.687   1.041   3.083
 9370SOL    HW129009   5.652   0.948   3.070
 9370SOL    HW229010   5.749   1.042   3.161
 9371SOL     OW29011   1.625   5.308   0.707
 9371SOL    HW129012   1.658   5.299   0.613
 9371SOL    HW229013   1.616   5.405   0.729
 9372SOL     OW29014   5.687   6.206   3.068
 9372SOL    HW129015   5.590   6.210   3.047
 9372SOL    HW229016   5.731   6.293   3.042
 9373SOL     OW29017   4.460   1.984   2.809
 9373SOL    HW129018   4.529   2.054   2.790
 9373SOL    HW229019   4.419   1.954   2.723
 9374SOL     OW29020   5.694   2.425   0.585
 9374SOL    HW129021   5.733   2.408   0.494
 9374SOL    HW229022   5.596   2.440   0.576
 9375SOL     OW29023   6.679   1.398   3.421
 9375SOL    HW129024   6.597   1.432   3.466
 9375SOL    HW229025   6.675   1.419   3.323
 9376SOL     OW29026   3.334   3.423   0.933
 9376SOL    HW129027   3.295   3.508   0.896
 9376SOL    HW229028   3.338   3.429   1.032
 9377SOL     OW29029   6.343   5.651   3.483
 9377SOL    HW129030   6.330   5.747   3.455
 9377SOL    HW229031   6.343   5.593   3.401
 9378SOL     OW29032   2.419   0.158   5.514
 9378SOL    HW129033   2.335   0.134   5.465
 9378SOL    HW229034   2.412   0.126   5.608
 9379SOL     OW29035   4.839   4.603   4.868
 9379SOL    HW129036   4.847   4.649   4.957
 9379SOL    HW229037   4.745   4.574   4.853
 9380SOL     OW29038   6.289   6.338   5.786
 9380SOL    HW129039   6.305   6.245   5.819
 9380SOL    HW229040   6.347   6.402   5.837
 9381SOL     OW29041   2.961   3.114   5.623
 9381SOL    HW129042   2.997   3.202   5.592
 9381SOL    HW229043   2.864   3.125   5.647
 9382SOL     OW29044   3.796   1.477   3.445
 9382SOL    HW129045   3.717   1.428   3.407
 9382SOL    HW229046   3.800   1.462   3.544
 9383SOL     OW29047   3.677   6.004   4.775
 9383SOL    HW129048   3.592   6.056   4.776
 9383SOL    HW229049   3.659   5.909   4.801
 9384SOL     OW29050   4.419   5.713   2.138
 9384SOL    HW129051   4.394   5.809   2.125
 9384SOL    HW229052   4.422   5.692   2.236
 9385SOL     OW29053   4.125   2.032   2.723
 9385SOL    HW129054   4.180   1.948   2.717
 9385SOL    HW229055   4.150   2.093   2.649
 9386SOL     OW29056   3.546   6.051   4.470
 9386SOL    HW129057   3.550   5.975   4.535
 9386SOL    HW229058   3.451   6.073   4.449
 9387SOL     OW29059   4.131   6.875   1.032
 9387SOL    HW129060   4.154   6.898   0.938
 9387SOL    HW229061   4.157   6.781   1.051
 9388SOL     OW29062   1.799   6.262   2.627
 9388SOL    HW129063   1.705   6.291   2.646
 9388SOL    HW229064   1.837   6.319   2.555
 9389SOL     OW29065   2.428   0.018   5.079
 9389SOL    HW129066   2.394   7.021   4.986
 9389SOL    HW229067   2.509   0.076   5.073
 9390SOL     OW29068   3.813   5.732   2.991
 9390SOL    HW129069   3.796   5.831   2.988
 9390SOL    HW229070   3.803   5.699   3.085
 9391SOL     OW29071   1.841   0.800   5.467
 9391SOL    HW129072   1.884   0.856   5.537
 9391SOL    HW229073   1.852   0.843   5.377
 9392SOL     OW29074   0.433   6.947   4.225
 9392SOL    HW129075   0.474   6.952   4.133
 9392SOL    HW229076   0.357   6.882   4.224
 9393SOL     OW29077   3.834   1.801   4.361
 9393SOL    HW129078   3.761   1.831   4.300
 9393SOL    HW229079   3.793   1.755   4.441
 9394SOL     OW29080   6.037   2.357   3.289
 9394SOL    HW129081   5.968   2.357   3.217
 9394SOL    HW229082   6.086   2.445   3.288
 9395SOL     OW29083   2.837   2.162   0.573
 9395SOL    HW129084   2.907   2.219   0.615
 9395SOL    HW229085   2.767   2.219   0.531
 9396SOL     OW29086   0.193   6.468   4.682
 9396SOL    HW129087   0.247   6.465   4.766
 9396SOL    HW229088   0.168   6.563   4.663
 9397SOL     OW29089   2.516   0.189   0.093
 9397SOL    HW129090   2.597   0.213   0.039
 9397SOL    HW229091   2.512   0.090   0.106
 9398SOL     OW29092   2.160   0.266   6.832
 9398SOL    HW129093   2.142   0.168   6.836
 9398SOL    HW229094   2.076   0.314   6.805
 9399SOL     OW29095   0.371   2.102   0.082
 9399SOL    HW129096   0.300   2.155   0.129
 9399SOL    HW229097   0.427   2.163   0.025
 9400SOL     OW29098   5.246   3.801   1.915
 9400SOL    HW129099   5.304   3.773   1.838
 9400SOL    HW229100   5.179   3.869   1.883
 9401SOL     OW29101   2.968   6.448   3.768
 9401SOL    HW129102   2.911   6.529   3.752
 9401SOL    HW229103   2.932   6.371   3.714
 9402SOL     OW29104   1.692   4.650   5.484
 9402SOL    HW129105   1.702   4.641   5.385
 9402SOL    HW229106   1.596   4.636   5.509
 9403SOL     OW29107   4.905   1.678   2.669
 9403SOL    HW129108   4.937   1.692   2.763
 9403SOL    HW229109   4.965   1.614   2.622
 9404SOL     OW29110   1.528   4.781   6.657
 9404SOL    HW129111   1.618   4.806   6.693
 9404SOL    HW229112   1.539   4.717   6.581
 9405SOL     OW29113   6.595   6.836   2.258
 9405SOL    HW129114   6.681   6.829   2.308
 9405SOL    HW229115   6.595   6.773   2.181
 9406SOL     OW29116   6.936   1.340   5.945
 9406SOL    HW129117   6.840   1.331   5.916
 9406SOL    HW229118   6.976   1.249   5.956
 9407SOL     OW29119   2.881   6.760   2.627
 9407SOL    HW129120   2.879   6.782   2.725
 9407SOL    HW229121   2.932   6.675   2.614
 9408SOL     OW29122   3.504   1.574   5.661
 9408SOL    HW129123   3.445   1.652   5.645
 9408SOL    HW229124   3.561   1.558   5.580
 9409SOL     OW29125   4.654   4.377   4.642
 9409SOL    HW129126   4.587   4.364   4.715
 9409SOL    HW229127   4.669   4.474   4.626
 9410SOL     OW29128   3.632   5.757   1.864
 9410SOL    HW129129   3.588   5.756   1.774
 9410SOL    HW229130   3.687   5.673   1.875
 9411SOL     OW29131   3.458   4.559   0.909
 9411SOL    HW129132   3.548   4.534   0.873
 9411SOL    HW229133   3.468   4.635   0.974
 9412SOL     OW29134   0.518   3.453   1.778
 9412SOL    HW129135   0.501   3.539   1.730
 9412SOL    HW229136   0.452   3.384   1.746
 9413SOL     OW29137   4.299   5.535   4.744
 9413SOL    HW129138   4.363   5.580   4.682
 9413SOL    HW229139   4.283   5.594   4.823
 9414SOL     OW29140   3.642   1.849   3.338
 9414SOL    HW129141   3.594   1.924   3.292
 9414SOL    HW229142   3.696   1.798   3.270
 9415SOL     OW29143   2.810   6.239   2.391
 9415SOL    HW129144   2.871   6.159   2.391
 9415SOL    HW229145   2.716   6.209   2.379
 9416SOL     OW29146   0.772   1.975   1.629
 9416SOL    HW129147   0.862   1.997   1.665
 9416SOL    HW229148   0.781   1.936   1.537
 9417SOL     OW29149   2.674   0.418   5.739
 9417SOL    HW129150   2.595   0.454   5.787
 9417SOL    HW229151   2.750   0.483   5.745
 9418SOL     OW29152   2.534   6.628   0.600
 9418SOL    HW129153   2.479   6.602   0.679
 9418SOL    HW229154   2.543   6.550   0.538
 9419SOL     OW29155   3.253   6.395   5.336
 9419SOL    HW129156   3.342   6.415   5.376
 9419SOL    HW229157   3.251   6.425   5.240
 9420SOL     OW29158   0.670   1.989   5.012
 9420SOL    HW129159   0.663   1.993   5.112
 9420SOL    HW229160   0.695   1.896   4.984
 9421SOL     OW29161   2.318   5.633   5.029
 9421SOL    HW129162   2.398   5.664   4.977
 9421SOL    HW229163   2.252   5.708   5.034
 9422SOL     OW29164   5.158   0.162   2.621
 9422SOL    HW129165   5.124   0.139   2.712
 9422SOL    HW229166   5.255   0.184   2.625
 9423SOL     OW29167   3.936   0.779   2.750
 9423SOL    HW129168   3.905   0.739   2.836
 9423SOL    HW229169   3.914   0.717   2.675
 9424SOL     OW29170   4.791   0.295   5.353
 9424SOL    HW129171   4.800   0.388   5.389
 9424SOL    HW229172   4.876   0.244   5.369
 9425SOL     OW29173   0.235   3.351   6.316
 9425SOL    HW129174   0.232   3.450   6.300
 9425SOL    HW229175   0.161   3.325   6.377
 9426SOL     OW29176   2.929   1.624   0.268
 9426SOL    HW129177   2.907   1.645   0.363
 9426SOL    HW229178   3.003   1.683   0.237
 9427SOL     OW29179   2.421   4.799   5.221
 9427SOL    HW129180   2.468   4.727   5.171
 9427SOL    HW229181   2.327   4.808   5.188
 9428SOL     OW29182   5.189   0.190   1.569
 9428SOL    HW129183   5.208   0.094   1.589
 9428SOL    HW229184   5.239   0.249   1.633
 9429SOL     OW29185   1.382   4.529   1.703
 9429SOL    HW129186   1.401   4.481   1.617
 9429SOL    HW229187   1.467   4.548   1.750
 9430SOL     OW29188   0.013   6.694   2.286
 9430SOL    HW129189   0.073   6.654   2.356
 9430SOL    HW229190   0.009   6.633   2.207
 9431SOL     OW29191   5.702   4.315   0.723
 9431SOL    HW129192   5.735   4.371   0.647
 9431SOL    HW229193   5.752   4.228   0.725
 9432SOL     OW29194   6.877   0.391   3.343
 9432SOL    HW129195   6.918   0.371   3.432
 9432SOL    HW229196   6.794   0.337   3.331
 9433SOL     OW29197   3.271   4.943   3.818
 9433SOL    HW129198   3.341   4.919   3.751
 9433SOL    HW229199   3.181   4.937   3.775
 9434SOL     OW29200   5.604   4.693   3.402
 9434SOL    HW129201   5.701   4.705   3.382
 9434SOL    HW229202   5.565   4.780   3.434
 9435SOL     OW29203   0.920   1.598   3.842
 9435SOL    HW129204   0.932   1.603   3.743
 9435SOL    HW229205   0.909   1.502   3.870
 9436SOL     OW29206   0.964   4.162   1.861
 9436SOL    HW129207   0.897   4.221   1.815
 9436SOL    HW229208   1.053   4.206   1.860
 9437SOL     OW29209   1.412   6.356   3.413
 9437SOL    HW129210   1.395   6.393   3.505
 9437SOL    HW229211   1.374   6.419   3.345
 9438SOL     OW29212   1.089   6.183   1.231
 9438SOL    HW129213   1.034   6.100   1.220
 9438SOL    HW229214   1.143   6.198   1.148
 9439SOL     OW29215   0.264   3.346   2.032
 9439SOL    HW129216   0.334   3.277   2.051
 9439SOL    HW229217   0.307   3.425   1.987
 9440SOL     OW29218   5.054   5.891   4.055
 9440SOL    HW129219   5.021   5.799   4.073
 9440SOL    HW229220   5.122   5.916   4.123
 9441SOL     OW29221   1.315   5.373   4.983
 9441SOL    HW129222   1.370   5.442   4.937
 9441SOL    HW229223   1.300   5.296   4.921
 9442SOL     OW29224   6.226   2.219   0.394
 9442SOL    HW129225   6.262   2.283   0.462
 9442SOL    HW229226   6.252   2.251   0.302
 9443SOL     OW29227   2.377   4.794   1.217
 9443SOL    HW129228   2.441   4.845   1.273
 9443SOL    HW229229   2.406   4.797   1.121
 9444SOL     OW29230   0.889   3.770   6.699
 9444SOL    HW129231   0.978   3.811   6.719
 9444SOL    HW229232   0.892   3.727   6.609
 9445SOL     OW29233   5.302   3.270   2.039
 9445SOL    HW129234   5.247   3.187   2.050
 9445SOL    HW229235   5.244   3.344   2.006
 9446SOL     OW29236   6.183   6.778   3.399
 9446SOL    HW129237   6.204   6.685   3.428
 9446SOL    HW229238   6.258   6.814   3.345
 9447SOL     OW29239   5.751   3.656   3.341
 9447SOL    HW129240   5.850   3.648   3.339
 9447SOL    HW229241   5.709   3.576   3.297
 9448SOL     OW29242   5.822   6.241   6.237
 9448SOL    HW129243   5.747   6.182   6.208
 9448SOL    HW229244   5.812   6.331   6.194
 9449SOL     OW29245   6.816   5.530   6.559
 9449SOL    HW129246   6.898   5.558   6.610
 9449SOL    HW229247   6.735   5.570   6.601
 9450SOL     OW29248   3.280   4.944   4.851
 9450SOL    HW129249   3.334   4.861   4.860
 9450SOL    HW229250   3.263   4.963   4.754
 9451SOL     OW29251   4.099   5.711   5.975
 9451SOL    HW129252   4.005   5.743   5.993
 9451SOL    HW229253   4.117   5.714   5.876
 9452SOL     OW29254   1.839   3.220   1.069
 9452SOL    HW129255   1.757   3.270   1.098
 9452SOL    HW229256   1.891   3.276   1.004
 9453SOL     OW29257   2.097   4.412   3.155
 9453SOL    HW129258   2.060   4.330   3.112
 9453SOL    HW229259   2.038   4.440   3.230
 9454SOL     OW29260   1.904   3.360   5.704
 9454SOL    HW129261   1.843   3.329   5.631
 9454SOL    HW229262   1.988   3.305   5.702
 9455SOL     OW29263   3.533   1.675   2.783
 9455SOL    HW129264   3.504   1.769   2.769
 9455SOL    HW229265   3.571   1.639   2.697
 9456SOL     OW29266   0.372   4.795   0.346
 9456SOL    HW129267   0.314   4.789   0.265
 9456SOL    HW229268   0.467   4.807   0.317
 9457SOL     OW29269   1.675   3.309   6.159
 9457SOL    HW129270   1.761   3.308   6.107
 9457SOL    HW229271   1.611   3.245   6.117
 9458SOL     OW29272   1.230   4.272   6.480
 9458SOL    HW129273   1.132   4.270   6.462
 9458SOL    HW229274   1.279   4.297   6.396
 9459SOL     OW29275   6.518   4.673   2.215
 9459SOL    HW129276   6.477   4.650   2.127
 9459SOL    HW229277   6.601   4.618   2.229
 9460SOL     OW29278   0.069   1.772   4.853
 9460SOL    HW129279   7.007   1.826   4.855
 9460SOL    HW229280   0.053   1.685   4.900
 9461SOL     OW29281   6.661   1.708   3.514
 9461SOL    HW129282   6.586   1.646   3.537
 9461SOL    HW229283   6.627   1.802   3.514
 9462SOL     OW29284   2.216   4.054   3.066
 9462SOL    HW129285   2.270   4.134   3.040
 9462SOL    HW229286   2.221   4.042   3.166
 9463SOL     OW29287   0.317   1.139   1.305
 9463SOL    HW129288   0.354   1.133   1.212
 9463SOL    HW229289   0.339   1.229   1.343
 9464SOL     OW29290   5.332   6.566   6.941
 9464SOL    HW129291   5.256   6.631   6.927
 9464SOL    HW229292   5.392   6.600   7.013
 9465SOL     OW29293   0.045   0.270   3.165
 9465SOL    HW129294   0.053   0.171   3.176
 9465SOL    HW229295   6.984   0.302   3.211
 9466SOL     OW29296   3.920   3.918   5.109
 9466SOL    HW129297   4.013   3.938   5.142
 9466SOL    HW229298   3.907   3.959   5.019
 9467SOL     OW29299   1.360   3.183   1.337
 9467SOL    HW129300   1.436   3.246   1.348
 9467SOL    HW229301   1.372   3.105   1.399
 9468SOL     OW29302   5.539   2.634   5.922
 9468SOL    HW129303   5.443   2.608   5.906
 9468SOL    HW229304   5.555   2.725   5.885
 9469SOL     OW29305   5.937   5.512   1.641
 9469SOL    HW129306   5.873   5.536   1.568
 9469SOL    HW229307   6.031   5.527   1.609
 9470SOL     OW29308   5.902   2.994   6.301
 9470SOL    HW129309   5.956   2.972   6.381
 9470SOL    HW229310   5.807   3.013   6.328
 9471SOL     OW29311   6.270   2.440   5.314
 9471SOL    HW129312   6.283   2.361   5.374
 9471SOL    HW229313   6.187   2.428   5.261
 9472SOL     OW29314   6.613   3.918   4.349
 9472SOL    HW129315   6.593   3.896   4.253
 9472SOL    HW229316   6.703   3.960   4.355
 9473SOL     OW29317   3.734   6.191   5.492
 9473SOL    HW129318   3.726   6.290   5.487
 9473SOL    HW229319   3.683   6.149   5.417
 9474SOL     OW29320   6.412   3.522   1.113
 9474SOL    HW129321   6.368   3.592   1.170
 9474SOL    HW229322   6.344   3.480   1.054
 9475SOL     OW29323   3.143   3.085   0.184
 9475SOL    HW129324   3.202   3.006   0.168
 9475SOL    HW229325   3.199   3.163   0.212
 9476SOL     OW29326   3.019   3.967   4.794
 9476SOL    HW129327   3.107   3.989   4.752
 9476SOL    HW229328   3.007   4.020   4.878
 9477SOL     OW29329   6.984   3.589   2.109
 9477SOL    HW129330   6.942   3.671   2.071
 9477SOL    HW229331   0.058   3.607   2.129
 9478SOL     OW29332   5.927   3.823   6.292
 9478SOL    HW129333   6.018   3.860   6.305
 9478SOL    HW229334   5.893   3.848   6.201
 9479SOL     OW29335   6.127   6.728   6.224
 9479SOL    HW129336   6.038   6.767   6.250
 9479SOL    HW229337   6.153   6.658   6.291
 9480SOL     OW29338   4.680   4.461   6.914
 9480SOL    HW129339   4.650   4.466   6.819
 9480SOL    HW229340   4.760   4.401   6.921
 9481SOL     OW29341   5.564   4.005   1.307
 9481SOL    HW129342   5.613   4.031   1.223
 9481SOL    HW229343   5.518   3.917   1.293
 9482SOL     OW29344   6.310   1.440   3.329
 9482SOL    HW129345   6.308   1.464   3.232
 9482SOL    HW229346   6.225   1.393   3.353
 9483SOL     OW29347   1.532   1.641   0.890
 9483SOL    HW129348   1.459   1.642   0.958
 9483SOL    HW229349   1.553   1.546   0.865
 9484SOL     OW29350   4.843   1.619   3.270
 9484SOL    HW129351   4.743   1.621   3.282
 9484SOL    HW229352   4.885   1.686   3.331
 9485SOL     OW29353   0.800   0.411   1.931
 9485SOL    HW129354   0.725   0.463   1.971
 9485SOL    HW229355   0.767   0.360   1.851
 9486SOL     OW29356   2.370   5.155   1.446
 9486SOL    HW129357   2.306   5.077   1.449
 9486SOL    HW229358   2.386   5.188   1.539
 9487SOL     OW29359   3.212   3.281   3.673
 9487SOL    HW129360   3.154   3.362   3.666
 9487SOL    HW229361   3.266   3.286   3.758
 9488SOL     OW29362   3.068   6.558   1.576
 9488SOL    HW129363   2.997   6.504   1.622
 9488SOL    HW229364   3.084   6.521   1.485
 9489SOL     OW29365   3.494   4.210   1.433
 9489SOL    HW129366   3.436   4.265   1.493
 9489SOL    HW229367   3.586   4.250   1.430
 9490SOL     OW29368   5.778   6.414   0.305
 9490SOL    HW129369   5.699   6.412   0.365
 9490SOL    HW229370   5.751   6.445   0.214
 9491SOL     OW29371   6.921   4.852   4.524
 9491SOL    HW129372   6.967   4.940   4.540
 9491SOL    HW229373   6.924   4.797   4.607
 9492SOL     OW29374   3.314   3.612   2.738
 9492SOL    HW129375   3.298   3.637   2.643
 9492SOL    HW229376   3.298   3.692   2.797
 9493SOL     OW29377   4.481   5.243   3.381
 9493SOL    HW129378   4.532   5.198   3.455
 9493SOL    HW229379   4.510   5.205   3.293
 9494SOL     OW29380   4.033   4.080   0.844
 9494SOL    HW129381   3.969   4.052   0.916
 9494SOL    HW229382   4.088   4.001   0.815
 9495SOL     OW29383   6.371   2.471   4.288
 9495SOL    HW129384   6.462   2.490   4.325
 9495SOL    HW229385   6.320   2.414   4.352
 9496SOL     OW29386   5.354   4.888   0.788
 9496SOL    HW129387   5.408   4.972   0.793
 9496SOL    HW229388   5.317   4.878   0.695
 9497SOL     OW29389   5.035   4.051   0.384
 9497SOL    HW129390   5.098   4.025   0.457
 9497SOL    HW229391   4.986   3.970   0.352
 9498SOL     OW29392   5.483   0.503   6.447
 9498SOL    HW129393   5.445   0.572   6.384
 9498SOL    HW229394   5.408   0.455   6.492
 9499SOL     OW29395   2.390   3.054   5.835
 9499SOL    HW129396   2.320   3.016   5.774
 9499SOL    HW229397   2.358   3.141   5.871
 9500SOL     OW29398   3.695   7.019   1.782
 9500SOL    HW129399   3.609   6.979   1.748
 9500SOL    HW229400   3.745   6.951   1.834
 9501SOL     OW29401   3.105   1.448   4.016
 9501SOL    HW129402   3.018   1.486   3.984
 9501SOL    HW229403   3.156   1.520   4.063
 9502SOL     OW29404   0.354   1.813   4.879
 9502SOL    HW129405   0.378   1.853   4.791
 9502SOL    HW229406   0.255   1.802   4.885
 9503SOL     OW29407   0.608   1.234   1.888
 9503SOL    HW129408   0.628   1.151   1.837
 9503SOL    HW229409   0.529   1.280   1.847
 9504SOL     OW29410   0.305   2.428   1.210
 9504SOL    HW129411   0.390   2.389   1.246
 9504SOL    HW229412   0.283   2.383   1.123
 9505SOL     OW29413   4.833   3.496   3.372
 9505SOL    HW129414   4.899   3.501   3.446
 9505SOL    HW229415   4.760   3.432   3.397
 9506SOL     OW29416   0.806   3.088   6.162
 9506SOL    HW129417   0.865   3.069   6.241
 9506SOL    HW229418   0.861   3.122   6.087
 9507SOL     OW29419   1.773   1.275   3.979
 9507SOL    HW129420   1.853   1.216   3.989
 9507SOL    HW229421   1.800   1.362   3.936
 9508SOL     OW29422   6.364   2.494   0.487
 9508SOL    HW129423   6.448   2.549   0.481
 9508SOL    HW229424   6.286   2.549   0.456
 9509SOL     OW29425   1.249   6.509   5.393
 9509SOL    HW129426   1.347   6.524   5.399
 9509SOL    HW229427   1.230   6.411   5.384
 9510SOL     OW29428   0.698   3.857   1.743
 9510SOL    HW129429   0.725   3.805   1.824
 9510SOL    HW229430   0.625   3.808   1.695
 9511SOL     OW29431   1.067   1.678   6.735
 9511SOL    HW129432   1.148   1.736   6.737
 9511SOL    HW229433   1.013   1.699   6.653
 9512SOL     OW29434   5.855   1.905   3.346
 9512SOL    HW129435   5.777   1.904   3.283
 9512SOL    HW229436   5.919   1.978   3.319
 9513SOL     OW29437   1.157   3.087   4.753
 9513SOL    HW129438   1.233   3.128   4.802
 9513SOL    HW229439   1.186   3.060   4.661
 9514SOL     OW29440   1.537   3.699   6.827
 9514SOL    HW129441   1.447   3.690   6.783
 9514SOL    HW229442   1.535   3.653   6.916
 9515SOL     OW29443   1.561   6.132   0.271
 9515SOL    HW129444   1.571   6.177   0.182
 9515SOL    HW229445   1.641   6.074   0.288
 9516SOL     OW29446   4.882   3.585   4.403
 9516SOL    HW129447   4.898   3.494   4.441
 9516SOL    HW229448   4.883   3.653   4.476
 9517SOL     OW29449   1.456   4.941   0.471
 9517SOL    HW129450   1.555   4.936   0.454
 9517SOL    HW229451   1.422   4.851   0.498
 9518SOL     OW29452   1.016   2.039   6.635
 9518SOL    HW129453   0.933   1.983   6.631
 9518SOL    HW229454   1.041   2.054   6.731
 9519SOL     OW29455   3.490   3.167   3.224
 9519SOL    HW129456   3.444   3.248   3.259
 9519SOL    HW229457   3.587   3.187   3.210
 9520SOL     OW29458   6.462   1.511   3.526
 9520SOL    HW129459   6.422   1.471   3.608
 9520SOL    HW229460   6.407   1.486   3.446
 9521SOL     OW29461   3.633   3.828   1.627
 9521SOL    HW129462   3.701   3.782   1.684
 9521SOL    HW229463   3.609   3.916   1.669
 9522SOL     OW29464   3.923   5.446   2.885
 9522SOL    HW129465   3.967   5.416   2.800
 9522SOL    HW229466   3.952   5.540   2.905
 9523SOL     OW29467   2.620   5.136   5.235
 9523SOL    HW129468   2.540   5.112   5.179
 9523SOL    HW229469   2.656   5.053   5.278
 9524SOL     OW29470   1.887   2.588   1.209
 9524SOL    HW129471   1.794   2.556   1.224
 9524SOL    HW229472   1.906   2.593   1.111
 9525SOL     OW29473   1.497   2.083   5.125
 9525SOL    HW129474   1.477   2.141   5.047
 9525SOL    HW229475   1.594   2.060   5.126
 9526SOL     OW29476   6.076   4.820   1.482
 9526SOL    HW129477   6.028   4.734   1.499
 9526SOL    HW229478   6.024   4.875   1.417
 9527SOL     OW29479   2.194   0.292   4.790
 9527SOL    HW129480   2.205   0.388   4.815
 9527SOL    HW229481   2.210   0.282   4.691
 9528SOL     OW29482   5.964   1.614   1.216
 9528SOL    HW129483   6.021   1.558   1.276
 9528SOL    HW229484   5.945   1.565   1.131
 9529SOL     OW29485   5.549   4.256   0.483
 9529SOL    HW129486   5.570   4.249   0.581
 9529SOL    HW229487   5.548   4.165   0.443
 9530SOL     OW29488   1.079   4.649   4.204
 9530SOL    HW129489   1.062   4.671   4.108
 9530SOL    HW229490   1.173   4.617   4.215
 9531SOL     OW29491   4.330   4.613   3.130
 9531SOL    HW129492   4.428   4.594   3.139
 9531SOL    HW229493   4.296   4.575   3.044
 9532SOL     OW29494   6.936   5.091   1.050
 9532SOL    HW129495   7.010   5.063   1.112
 9532SOL    HW229496   6.931   5.028   0.973
 9533SOL     OW29497   0.688   5.150   3.624
 9533SOL    HW129498   0.651   5.079   3.563
 9533SOL    HW229499   0.737   5.218   3.569
 9534SOL     OW29500   5.800   4.366   4.622
 9534SOL    HW129501   5.841   4.351   4.712
 9534SOL    HW229502   5.861   4.422   4.566
 9535SOL     OW29503   1.715   0.863   6.072
 9535SOL    HW129504   1.788   0.795   6.082
 9535SOL    HW229505   1.744   0.949   6.114
 9536SOL     OW29506   3.386   3.453   5.680
 9536SOL    HW129507   3.459   3.520   5.695
 9536SOL    HW229508   3.299   3.493   5.707
 9537SOL     OW29509   3.061   1.609   4.876
 9537SOL    HW129510   3.025   1.617   4.784
 9537SOL    HW229511   2.985   1.610   4.942
 9538SOL     OW29512   4.587   0.571   4.397
 9538SOL    HW129513   4.510   0.628   4.427
 9538SOL    HW229514   4.561   0.474   4.404
 9539SOL     OW29515   2.931   3.443   4.428
 9539SOL    HW129516   2.955   3.422   4.333
 9539SOL    HW229517   2.885   3.532   4.433
 9540SOL     OW29518   5.638   5.448   4.191
 9540SOL    HW129519   5.607   5.473   4.282
 9540SOL    HW229520   5.733   5.476   4.179
 9541SOL     OW29521   1.930   0.688   6.085
 9541SOL    HW129522   1.989   0.642   6.151
 9541SOL    HW229523   1.977   0.692   5.996
 9542SOL     OW29524   5.808   5.297   4.544
 9542SOL    HW129525   5.892   5.345   4.570
 9542SOL    HW229526   5.758   5.271   4.627
 9543SOL     OW29527   3.760   0.573   6.343
 9543SOL    HW129528   3.792   0.496   6.398
 9543SOL    HW229529   3.801   0.658   6.376
 9544SOL     OW29530   5.371   3.413   4.420
 9544SOL    HW129531   5.317   3.376   4.495
 9544SOL    HW229532   5.468   3.395   4.436
 9545SOL     OW29533   5.890   4.961   2.476
 9545SOL    HW129534   5.921   5.004   2.561
 9545SOL    HW229535   5.954   4.888   2.451
 9546SOL     OW29536   3.813   1.104   5.944
 9546SOL    HW129537   3.794   1.008   5.924
 9546SOL    HW229538   3.877   1.110   6.020
 9547SOL     OW29539   2.227   5.279   3.753
 9547SOL    HW129540   2.227   5.222   3.671
 9547SOL    HW229541   2.274   5.231   3.827
 9548SOL     OW29542   0.051   5.412   4.623
 9548SOL    HW129543   0.098   5.417   4.535
 9548SOL    HW229544   6.978   5.439   4.611
 9549SOL     OW29545   2.807   1.399   2.013
 9549SOL    HW129546   2.742   1.430   2.082
 9549SOL    HW229547   2.899   1.427   2.039
 9550SOL     OW29548   6.506   1.432   0.560
 9550SOL    HW129549   6.441   1.493   0.604
 9550SOL    HW229550   6.500   1.341   0.601
 9551SOL     OW29551   5.978   2.979   6.049
 9551SOL    HW129552   5.931   2.988   6.137
 9551SOL    HW229553   5.910   2.968   5.976
 9552SOL     OW29554   2.506   6.083   5.961
 9552SOL    HW129555   2.606   6.088   5.964
 9552SOL    HW229556   2.472   6.057   6.051
 9553SOL     OW29557   5.456   2.378   0.190
 9553SOL    HW129558   5.416   2.291   0.219
 9553SOL    HW229559   5.420   2.452   0.247
 9554SOL     OW29560   1.535   6.345   3.000
 9554SOL    HW129561   1.466   6.399   3.048
 9554SOL    HW229562   1.514   6.248   3.009
 9555SOL     OW29563   6.946   1.206   3.201
 9555SOL    HW129564   6.874   1.259   3.157
 9555SOL    HW229565   6.905   1.133   3.255
 9556SOL     OW29566   1.627   3.347   0.815
 9556SOL    HW129567   1.623   3.274   0.746
 9556SOL    HW229568   1.721   3.380   0.822
 9557SOL     OW29569   5.635   7.014   0.904
 9557SOL    HW129570   5.538   0.011   0.888
 9557SOL    HW229571   5.666   0.041   0.985
 9558SOL     OW29572   6.065   5.768   5.284
 9558SOL    HW129573   5.969   5.793   5.273
 9558SOL    HW229574   6.084   5.748   5.380
 9559SOL     OW29575   1.037   4.817   0.418
 9559SOL    HW129576   1.101   4.740   0.424
 9559SOL    HW229577   0.944   4.781   0.412
 9560SOL     OW29578   2.301   1.000   2.977
 9560SOL    HW129579   2.221   0.939   2.979
 9560SOL    HW229580   2.301   1.058   3.059
 9561SOL     OW29581   0.484   0.849   1.364
 9561SOL    HW129582   0.578   0.880   1.382
 9561SOL    HW229583   0.427   0.868   1.444
 9562SOL     OW29584   2.872   0.022   4.878
 9562SOL    HW129585   2.849   6.954   4.914
 9562SOL    HW229586   2.788   0.076   4.867
 9563SOL     OW29587   0.081   6.794   0.115
 9563SOL    HW129588   0.033   6.724   0.168
 9563SOL    HW229589   0.167   6.817   0.161
 9564SOL     OW29590   2.353   0.903   0.661
 9564SOL    HW129591   2.329   0.998   0.679
 9564SOL    HW229592   2.289   0.843   0.709
 9565SOL     OW29593   3.696   1.239   5.702
 9565SOL    HW129594   3.780   1.190   5.729
 9565SOL    HW229595   3.679   1.313   5.767
 9566SOL     OW29596   2.752   5.991   0.246
 9566SOL    HW129597   2.736   6.078   0.198
 9566SOL    HW229598   2.763   5.918   0.179
 9567SOL     OW29599   5.082   4.668   0.209
 9567SOL    HW129600   4.997   4.695   0.163
 9567SOL    HW229601   5.066   4.585   0.261
 9568SOL     OW29602   4.519   2.039   0.223
 9568SOL    HW129603   4.552   2.050   0.129
 9568SOL    HW229604   4.516   2.128   0.268
 9569SOL     OW29605   0.132   1.760   2.283
 9569SOL    HW129606   0.127   1.667   2.320
 9569SOL    HW229607   0.192   1.760   2.203
 9570SOL     OW29608   0.751   3.241   1.666
 9570SOL    HW129609   0.738   3.279   1.575
 9570SOL    HW229610   0.667   3.251   1.719
 9571SOL     OW29611   3.476   2.937   5.873
 9571SOL    HW129612   3.447   2.997   5.798
 9571SOL    HW229613   3.575   2.940   5.883
 9572SOL     OW29614   1.995   5.086   2.383
 9572SOL    HW129615   1.996   5.004   2.440
 9572SOL    HW229616   2.047   5.068   2.299
 9573SOL     OW29617   0.505   1.917   6.450
 9573SOL    HW129618   0.459   1.877   6.529
 9573SOL    HW229619   0.546   1.843   6.396
 9574SOL     OW29620   3.642   2.893   2.630
 9574SOL    HW129621   3.692   2.904   2.544
 9574SOL    HW229622   3.545   2.911   2.615
 9575SOL     OW29623   0.320   1.656   2.103
 9575SOL    HW129624   0.347   1.744   2.063
 9575SOL    HW229625   0.400   1.614   2.145
 9576SOL     OW29626   1.828   1.888   0.629
 9576SOL    HW129627   1.843   1.868   0.726
 9576SOL    HW229628   1.837   1.987   0.614
 9577SOL     OW29629   0.588   0.131   5.874
 9577SOL    HW129630   0.512   0.195   5.860
 9577SOL    HW229631   0.578   0.054   5.812
 9578SOL     OW29632   1.188   3.517   3.103
 9578SOL    HW129633   1.270   3.574   3.095
 9578SOL    HW229634   1.137   3.519   3.017
 9579SOL     OW29635   0.157   5.435   3.003
 9579SOL    HW129636   0.194   5.486   2.925
 9579SOL    HW229637   0.194   5.474   3.088
 9580SOL     OW29638   4.293   3.360   0.860
 9580SOL    HW129639   4.378   3.341   0.909
 9580SOL    HW229640   4.301   3.447   0.812
 9581SOL     OW29641   0.402   0.336   6.900
 9581SOL    HW129642   0.327   0.378   6.848
 9581SOL    HW229643   0.365   0.277   6.971
 9582SOL     OW29644   4.515   5.756   5.147
 9582SOL    HW129645   4.525   5.749   5.048
 9582SOL    HW229646   4.428   5.714   5.175
 9583SOL     OW29647   2.974   3.867   1.360
 9583SOL    HW129648   2.926   3.799   1.415
 9583SOL    HW229649   2.969   3.841   1.264
 9584SOL     OW29650   6.993   5.280   5.936
 9584SOL    HW129651   0.041   5.270   6.007
 9584SOL    HW229652   0.011   5.259   5.847
 9585SOL     OW29653   5.522   6.549   3.677
 9585SOL    HW129654   5.559   6.461   3.707
 9585SOL    HW229655   5.464   6.534   3.597
 9586SOL     OW29656   5.097   5.052   2.311
 9586SOL    HW129657   5.058   5.137   2.346
 9586SOL    HW229658   5.195   5.065   2.295
 9587SOL     OW29659   1.022   0.365   1.592
 9587SOL    HW129660   0.963   0.296   1.634
 9587SOL    HW229661   1.050   0.431   1.660
 9588SOL     OW29662   6.398   6.615   0.983
 9588SOL    HW129663   6.409   6.548   1.056
 9588SOL    HW229664   6.456   6.694   1.002
 9589SOL     OW29665   1.944   5.085   0.260
 9589SOL    HW129666   1.997   5.144   0.321
 9589SOL    HW229667   1.863   5.134   0.229
 9590SOL     OW29668   5.559   3.267   1.500
 9590SOL    HW129669   5.615   3.339   1.541
 9590SOL    HW229670   5.538   3.291   1.405
 9591SOL     OW29671   3.090   5.423   6.040
 9591SOL    HW129672   3.062   5.376   6.124
 9591SOL    HW229673   3.044   5.381   5.961
 9592SOL     OW29674   2.707   4.758   0.284
 9592SOL    HW129675   2.735   4.767   0.380
 9592SOL    HW229676   2.754   4.681   0.242
 9593SOL     OW29677   0.921   1.287   6.870
 9593SOL    HW129678   0.946   1.194   6.899
 9593SOL    HW229679   0.911   1.346   6.950
 9594SOL     OW29680   1.895   5.101   3.790
 9594SOL    HW129681   1.875   5.187   3.836
 9594SOL    HW229682   1.898   5.027   3.858
 9595SOL     OW29683   0.128   3.185   4.118
 9595SOL    HW129684   0.134   3.201   4.019
 9595SOL    HW229685   0.195   3.116   4.145
 9596SOL     OW29686   1.268   4.943   6.618
 9596SOL    HW129687   1.251   4.947   6.520
 9596SOL    HW229688   1.326   4.864   6.639
 9597SOL     OW29689   6.906   4.168   1.517
 9597SOL    HW129690   6.971   4.203   1.449
 9597SOL    HW229691   6.819   4.147   1.472
 9598SOL     OW29692   1.419   4.719   3.310
 9598SOL    HW129693   1.493   4.654   3.293
 9598SOL    HW229694   1.449   4.785   3.380
 9599SOL     OW29695   2.520   0.832   4.447
 9599SOL    HW129696   2.475   0.782   4.522
 9599SOL    HW229697   2.616   0.848   4.471
 9600SOL     OW29698   3.164   6.796   0.109
 9600SOL    HW129699   3.097   6.846   0.165
 9600SOL    HW229700   3.117   6.751   0.033
 9601SOL     OW29701   4.957   4.221   1.137
 9601SOL    HW129702   5.043   4.201   1.090
 9601SOL    HW229703   4.916   4.136   1.170
 9602SOL     OW29704   6.107   3.977   6.739
 9602SOL    HW129705   6.108   3.877   6.738
 9602SOL    HW229706   6.013   4.009   6.752
 9603SOL     OW29707   4.791   1.060   5.449
 9603SOL    HW129708   4.736   1.138   5.480
 9603SOL    HW229709   4.865   1.044   5.514
 9604SOL     OW29710   4.813   0.302   0.925
 9604SOL    HW129711   4.829   0.265   1.016
 9604SOL    HW229712   4.816   0.228   0.858
 9605SOL     OW29713   0.667   6.032   3.427
 9605SOL    HW129714   0.729   6.046   3.503
 9605SOL    HW229715   0.631   6.121   3.396
 9606SOL     OW29716   1.953   6.291   0.536
 9606SOL    HW129717   1.867   6.343   0.541
 9606SOL    HW229718   2.000   6.314   0.451
 9607SOL     OW29719   1.878   1.077   6.486
 9607SOL    HW129720   1.925   1.051   6.571
 9607SOL    HW229721   1.906   1.169   6.459
 9608SOL     OW29722   6.902   5.171   1.992
 9608SOL    HW129723   6.955   5.086   1.993
 9608SOL    HW229724   6.831   5.167   2.061
 9609SOL     OW29725   2.462   3.312   0.290
 9609SOL    HW129726   2.374   3.352   0.265
 9609SOL    HW229727   2.447   3.226   0.340
 9610SOL     OW29728   1.493   4.820   3.969
 9610SOL    HW129729   1.395   4.801   3.970
 9610SOL    HW229730   1.509   4.917   3.987
 9611SOL     OW29731   1.097   6.133   6.694
 9611SOL    HW129732   1.007   6.175   6.701
 9611SOL    HW229733   1.099   6.049   6.749
 9612SOL     OW29734   0.462   4.182   1.322
 9612SOL    HW129735   0.407   4.139   1.250
 9612SOL    HW229736   0.409   4.184   1.407
 9613SOL     OW29737   5.300   0.696   3.816
 9613SOL    HW129738   5.246   0.630   3.763
 9613SOL    HW229739   5.239   0.755   3.869
 9614SOL     OW29740   3.937   2.449   1.624
 9614SOL    HW129741   3.979   2.385   1.688
 9614SOL    HW229742   3.867   2.503   1.672
 9615SOL     OW29743   2.578   0.296   0.558
 9615SOL    HW129744   2.559   0.278   0.654
 9615SOL    HW229745   2.557   0.391   0.537
 9616SOL     OW29746   3.450   3.401   1.257
 9616SOL    HW129747   3.482   3.378   1.348
 9616SOL    HW229748   3.365   3.352   1.237
 9617SOL     OW29749   1.187   3.549   3.377
 9617SOL    HW129750   1.173   3.529   3.279
 9617SOL    HW229751   1.104   3.524   3.428
 9618SOL     OW29752   4.358   6.762   6.876
 9618SOL    HW129753   4.337   6.678   6.825
 9618SOL    HW229754   4.436   6.807   6.833
 9619SOL     OW29755   1.503   6.563   6.418
 9619SOL    HW129756   1.572   6.615   6.368
 9619SOL    HW229757   1.413   6.605   6.404
 9620SOL     OW29758   4.253   0.948   6.304
 9620SOL    HW129759   4.276   0.864   6.256
 9620SOL    HW229760   4.264   0.935   6.403
 9621SOL     OW29761   0.757   2.047   1.898
 9621SOL    HW129762   0.730   2.029   1.803
 9621SOL    HW229763   0.797   1.965   1.938
 9622SOL     OW29764   6.924   1.330   0.764
 9622SOL    HW129765   6.844   1.389   0.774
 9622SOL    HW229766   7.003   1.372   0.809
 9623SOL     OW29767   2.927   3.749   5.524
 9623SOL    HW129768   2.865   3.827   5.526
 9623SOL    HW229769   2.874   3.665   5.511
 9624SOL     OW29770   6.736   4.069   1.989
 9624SOL    HW129771   6.701   4.078   2.083
 9624SOL    HW229772   6.829   4.107   1.985
 9625SOL     OW29773   4.979   5.348   6.778
 9625SOL    HW129774   4.954   5.353   6.874
 9625SOL    HW229775   4.920   5.409   6.725
 9626SOL     OW29776   3.976   4.764   6.763
 9626SOL    HW129777   3.880   4.788   6.767
 9626SOL    HW229778   3.988   4.682   6.707
 9627SOL     OW29779   6.946   6.124   4.841
 9627SOL    HW129780   0.002   6.062   4.837
 9627SOL    HW229781   6.964   6.197   4.907
 9628SOL     OW29782   4.924   4.672   6.678
 9628SOL    HW129783   4.994   4.730   6.721
 9628SOL    HW229784   4.931   4.579   6.714
 9629SOL     OW29785   0.237   0.094   1.944
 9629SOL    HW129786   0.221   0.187   1.912
 9629SOL    HW229787   0.302   0.095   2.020
 9630SOL     OW29788   6.754   6.847   5.203
 9630SOL    HW129789   6.688   6.919   5.226
 9630SOL    HW229790   6.845   6.875   5.233
 9631SOL     OW29791   7.013   6.651   6.894
 9631SOL    HW129792   0.007   6.717   6.967
 9631SOL    HW229793   0.034   6.683   6.810
 9632SOL     OW29794   0.877   0.074   2.687
 9632SOL    HW129795   0.862   0.170   2.710
 9632SOL    HW229796   0.860   0.018   2.768
 9633SOL     OW29797   5.241   4.951   5.953
 9633SOL    HW129798   5.336   4.977   5.941
 9633SOL    HW229799   5.217   4.951   6.050
 9634SOL     OW29800   1.076   5.899   4.075
 9634SOL    HW129801   1.090   5.815   4.022
 9634SOL    HW229802   1.137   5.899   4.154
 9635SOL     OW29803   1.614   4.702   4.906
 9635SOL    HW129804   1.579   4.752   4.985
 9635SOL    HW229805   1.629   4.606   4.931
 9636SOL     OW29806   4.261   1.891   5.598
 9636SOL    HW129807   4.184   1.839   5.562
 9636SOL    HW229808   4.234   1.937   5.683
 9637SOL     OW29809   2.421   1.408   6.158
 9637SOL    HW129810   2.321   1.408   6.158
 9637SOL    HW229811   2.454   1.414   6.064
 9638SOL     OW29812   6.552   3.699   7.000
 9638SOL    HW129813   6.484   3.770   7.019
 9638SOL    HW229814   6.616   3.731   6.932
 9639SOL     OW29815   3.539   1.329   2.318
 9639SOL    HW129816   3.510   1.367   2.230
 9639SOL    HW229817   3.474   1.358   2.389
 9640SOL     OW29818   2.195   3.026   3.387
 9640SOL    HW129819   2.250   3.022   3.303
 9640SOL    HW229820   2.185   2.934   3.425
 9641SOL     OW29821   3.860   6.393   0.652
 9641SOL    HW129822   3.808   6.446   0.584
 9641SOL    HW229823   3.804   6.380   0.734
 9642SOL     OW29824   3.322   6.635   4.777
 9642SOL    HW129825   3.230   6.643   4.817
 9642SOL    HW229826   3.329   6.549   4.725
 9643SOL     OW29827   5.392   5.243   4.495
 9643SOL    HW129828   5.389   5.156   4.445
 9643SOL    HW229829   5.300   5.274   4.514
 9644SOL     OW29830   1.084   4.343   6.050
 9644SOL    HW129831   1.085   4.421   6.113
 9644SOL    HW229832   1.131   4.266   6.093
 9645SOL     OW29833   2.962   5.214   3.466
 9645SOL    HW129834   3.029   5.217   3.540
 9645SOL    HW229835   2.871   5.233   3.504
 9646SOL     OW29836   2.959   4.783   1.839
 9646SOL    HW129837   2.914   4.696   1.858
 9646SOL    HW229838   3.056   4.776   1.861
 9647SOL     OW29839   6.217   5.334   2.023
 9647SOL    HW129840   6.265   5.293   1.946
 9647SOL    HW229841   6.232   5.279   2.105
 9648SOL     OW29842   4.432   1.396   0.507
 9648SOL    HW129843   4.399   1.486   0.535
 9648SOL    HW229844   4.515   1.407   0.453
 9649SOL     OW29845   2.930   6.633   6.983
 9649SOL    HW129846   2.877   6.691   6.919
 9649SOL    HW229847   2.941   6.542   6.944
 9650SOL     OW29848   5.901   5.298   2.067
 9650SOL    HW129849   5.994   5.335   2.071
 9650SOL    HW229850   5.898   5.223   2.001
 9651SOL     OW29851   0.254   1.120   6.284
 9651SOL    HW129852   0.182   1.145   6.349
 9651SOL    HW229853   0.269   1.195   6.220
 9652SOL     OW29854   2.323   4.460   0.924
 9652SOL    HW129855   2.238   4.481   0.972
 9652SOL    HW229856   2.346   4.536   0.862
 9653SOL     OW29857   4.239   5.328   4.577
 9653SOL    HW129858   4.317   5.339   4.516
 9653SOL    HW229859   4.259   5.370   4.665
 9654SOL     OW29860   3.343   2.760   1.453
 9654SOL    HW129861   3.418   2.816   1.489
 9654SOL    HW229862   3.271   2.752   1.522
 9655SOL     OW29863   6.959   1.152   0.198
 9655SOL    HW129864   6.903   1.120   0.123
 9655SOL    HW229865   0.033   1.151   0.171
 9656SOL     OW29866   2.809   1.536   0.884
 9656SOL    HW129867   2.756   1.610   0.927
 9656SOL    HW229868   2.877   1.503   0.949
 9657SOL     OW29869   5.894   0.472   3.651
 9657SOL    HW129870   5.842   0.557   3.638
 9657SOL    HW229871   5.835   0.393   3.634
 9658SOL     OW29872   6.319   2.066   3.523
 9658SOL    HW129873   6.376   2.011   3.585
 9658SOL    HW229874   6.224   2.034   3.529
 9659SOL     OW29875   6.682   4.468   0.625
 9659SOL    HW129876   6.724   4.385   0.588
 9659SOL    HW229877   6.626   4.512   0.555
 9660SOL     OW29878   0.577   5.608   0.167
 9660SOL    HW129879   0.530   5.521   0.173
 9660SOL    HW229880   0.511   5.681   0.152
 9661SOL     OW29881   4.243   5.659   1.271
 9661SOL    HW129882   4.318   5.724   1.259
 9661SOL    HW229883   4.264   5.597   1.347
 9662SOL     OW29884   5.858   2.501   5.006
 9662SOL    HW129885   5.887   2.445   4.928
 9662SOL    HW229886   5.814   2.585   4.973
 9663SOL     OW29887   1.084   5.721   3.884
 9663SOL    HW129888   0.988   5.704   3.860
 9663SOL    HW229889   1.143   5.692   3.809
 9664SOL     OW29890   5.560   6.466   3.010
 9664SOL    HW129891   5.494   6.391   3.022
 9664SOL    HW229892   5.570   6.515   3.096
 9665SOL     OW29893   5.036   5.515   5.291
 9665SOL    HW129894   4.941   5.502   5.262
 9665SOL    HW229895   5.038   5.579   5.368
 9666SOL     OW29896   5.463   4.482   2.217
 9666SOL    HW129897   5.416   4.567   2.239
 9666SOL    HW229898   5.489   4.483   2.120
 9667SOL     OW29899   3.658   2.896   3.859
 9667SOL    HW129900   3.653   2.876   3.761
 9667SOL    HW229901   3.566   2.901   3.897
 9668SOL     OW29902   6.433   1.166   6.438
 9668SOL    HW129903   6.377   1.235   6.483
 9668SOL    HW229904   6.445   1.190   6.342
 9669SOL     OW29905   0.652   1.396   1.191
 9669SOL    HW129906   0.650   1.310   1.141
 9669SOL    HW229907   0.734   1.447   1.166
 9670SOL     OW29908   5.448   5.063   6.330
 9670SOL    HW129909   5.490   5.019   6.409
 9670SOL    HW229910   5.427   5.158   6.351
 9671SOL     OW29911   0.699   4.809   6.173
 9671SOL    HW129912   0.653   4.817   6.262
 9671SOL    HW229913   0.631   4.812   6.100
 9672SOL     OW29914   1.660   6.551   4.496
 9672SOL    HW129915   1.583   6.597   4.539
 9672SOL    HW229916   1.725   6.620   4.461
 9673SOL     OW29917   5.312   4.502   6.732
 9673SOL    HW129918   5.245   4.531   6.664
 9673SOL    HW229919   5.379   4.442   6.689
 9674SOL     OW29920   2.788   6.130   3.118
 9674SOL    HW129921   2.790   6.229   3.102
 9674SOL    HW229922   2.731   6.111   3.198
 9675SOL     OW29923   5.869   1.281   1.222
 9675SOL    HW129924   5.790   1.254   1.167
 9675SOL    HW229925   5.934   1.205   1.227
 9676SOL     OW29926   1.301   3.447   5.872
 9676SOL    HW129927   1.332   3.498   5.952
 9676SOL    HW229928   1.335   3.353   5.877
 9677SOL     OW29929   2.645   5.223   6.102
 9677SOL    HW129930   2.704   5.242   6.023
 9677SOL    HW229931   2.691   5.254   6.185
 9678SOL     OW29932   3.171   4.055   3.243
 9678SOL    HW129933   3.261   4.097   3.237
 9678SOL    HW229934   3.140   4.056   3.338
 9679SOL     OW29935   1.616   1.803   1.788
 9679SOL    HW129936   1.715   1.814   1.779
 9679SOL    HW229937   1.573   1.892   1.799
 9680SOL     OW29938   6.107   6.942   3.831
 9680SOL    HW129939   6.113   6.850   3.868
 9680SOL    HW229940   6.162   7.004   3.887
 9681SOL     OW29941   2.849   0.857   1.580
 9681SOL    HW129942   2.783   0.825   1.512
 9681SOL    HW229943   2.910   0.924   1.537
 9682SOL     OW29944   5.363   5.433   3.527
 9682SOL    HW129945   5.450   5.476   3.552
 9682SOL    HW229946   5.288   5.489   3.560
 9683SOL     OW29947   3.129   5.349   0.550
 9683SOL    HW129948   3.216   5.303   0.568
 9683SOL    HW229949   3.088   5.310   0.468
 9684SOL     OW29950   0.004   2.766   4.988
 9684SOL    HW129951   0.061   2.700   5.039
 9684SOL    HW229952   0.049   2.788   4.902
 9685SOL     OW29953   2.389   2.918   0.968
 9685SOL    HW129954   2.316   2.915   1.037
 9685SOL    HW229955   2.352   2.895   0.879
 9686SOL     OW29956   5.816   1.812   0.900
 9686SOL    HW129957   5.829   1.906   0.932
 9686SOL    HW229958   5.878   1.793   0.824
 9687SOL     OW29959   2.424   0.425   3.666
 9687SOL    HW129960   2.482   0.436   3.747
 9687SOL    HW229961   2.481   0.396   3.589
 9688SOL     OW29962   6.494   2.293   3.569
 9688SOL    HW129963   6.405   2.256   3.543
 9688SOL    HW229964   6.550   2.220   3.608
 9689SOL     OW29965   1.729   6.299   1.179
 9689SOL    HW129966   1.681   6.304   1.267
 9689SOL    HW229967   1.743   6.392   1.144
 9690SOL     OW29968   5.769   5.228   6.537
 9690SOL    HW129969   5.693   5.242   6.599
 9690SOL    HW229970   5.833   5.305   6.545
 9691SOL     OW29971   2.523   4.600   1.487
 9691SOL    HW129972   2.468   4.553   1.418
 9691SOL    HW229973   2.503   4.563   1.578
 9692SOL     OW29974   1.984   5.286   2.662
 9692SOL    HW129975   1.939   5.270   2.574
 9692SOL    HW229976   2.008   5.382   2.670
 9693SOL     OW29977   6.462   5.256   1.829
 9693SOL    HW129978   6.414   5.258   1.741
 9693SOL    HW229979   6.494   5.162   1.846
 9694SOL     OW29980   2.155   1.167   5.879
 9694SOL    HW129981   2.160   1.243   5.944
 9694SOL    HW229982   2.083   1.184   5.812
 9695SOL     OW29983   6.424   4.083   1.234
 9695SOL    HW129984   6.514   4.040   1.236
 9695SOL    HW229985   6.364   4.033   1.172
 9696SOL     OW29986   4.921   1.929   0.961
 9696SOL    HW129987   4.940   1.973   1.050
 9696SOL    HW229988   4.943   1.993   0.888
 9697SOL     OW29989   0.099   5.354   6.720
 9697SOL    HW129990   0.135   5.266   6.749
 9697SOL    HW229991   0.019   5.378   6.776
 9698SOL     OW29992   5.735   0.915   5.657
 9698SOL    HW129993   5.795   0.919   5.577
 9698SOL    HW229994   5.742   0.824   5.699
 9699SOL     OW29995   0.397   4.607   6.618
 9699SOL    HW129996   0.308   4.572   6.588
 9699SOL    HW229997   0.466   4.534   6.611
 9700SOL     OW29998   4.167   5.360   5.327
 9700SOL    HW129999   4.112   5.352   5.410
 9700SOL    HW230000   4.236   5.288   5.326
 9701SOL     OW30001   3.434   5.369   4.727
 9701SOL    HW130002   3.449   5.389   4.823
 9701SOL    HW230003   3.468   5.277   4.706
 9702SOL     OW30004   5.826   0.749   6.603
 9702SOL    HW130005   5.836   0.833   6.549
 9702SOL    HW230006   5.741   0.754   6.656
 9703SOL     OW30007   3.647   5.707   4.157
 9703SOL    HW130008   3.737   5.717   4.199
 9703SOL    HW230009   3.655   5.721   4.058
 9704SOL     OW30010   3.100   0.939   2.463
 9704SOL    HW130011   3.074   0.935   2.560
 9704SOL    HW230012   3.028   0.984   2.411
 9705SOL     OW30013   5.526   5.379   0.905
 9705SOL    HW130014   5.512   5.367   1.003
 9705SOL    HW230015   5.440   5.404   0.861
 9706SOL     OW30016   0.588   2.311   1.030
 9706SOL    HW130017   0.566   2.283   1.123
 9706SOL    HW230018   0.530   2.261   0.966
 9707SOL     OW30019   6.281   4.296   1.372
 9707SOL    HW130020   6.307   4.241   1.292
 9707SOL    HW230021   6.307   4.248   1.456
 9708SOL     OW30022   1.536   2.746   3.241
 9708SOL    HW130023   1.540   2.687   3.322
 9708SOL    HW230024   1.466   2.712   3.179
 9709SOL     OW30025   6.696   5.708   3.351
 9709SOL    HW130026   6.784   5.685   3.310
 9709SOL    HW230027   6.633   5.631   3.341
 9710SOL     OW30028   0.270   1.931   2.514
 9710SOL    HW130029   0.197   1.934   2.582
 9710SOL    HW230030   0.245   1.870   2.440
 9711SOL     OW30031   1.548   3.109   6.036
 9711SOL    HW130032   1.607   3.035   6.004
 9711SOL    HW230033   1.467   3.115   5.978
 9712SOL     OW30034   5.405   3.980   4.895
 9712SOL    HW130035   5.386   3.952   4.989
 9712SOL    HW230036   5.404   3.900   4.835
 9713SOL     OW30037   0.341   4.954   3.009
 9713SOL    HW130038   0.354   5.030   3.072
 9713SOL    HW230039   0.400   4.967   2.929
 9714SOL     OW30040   2.021   0.996   2.051
 9714SOL    HW130041   1.989   1.091   2.051
 9714SOL    HW230042   2.111   0.991   2.093
 9715SOL     OW30043   6.343   5.364   5.157
 9715SOL    HW130044   6.253   5.346   5.197
 9715SOL    HW230045   6.390   5.277   5.142
 9716SOL     OW30046   4.197   2.801   6.760
 9716SOL    HW130047   4.202   2.702   6.754
 9716SOL    HW230048   4.190   2.840   6.668
 9717SOL     OW30049   6.083   5.691   5.567
 9717SOL    HW130050   6.018   5.618   5.589
 9717SOL    HW230051   6.054   5.776   5.611
 9718SOL     OW30052   4.779   3.131   1.635
 9718SOL    HW130053   4.707   3.108   1.701
 9718SOL    HW230054   4.774   3.068   1.558
 9719SOL     OW30055   1.054   2.428   6.898
 9719SOL    HW130056   1.066   2.331   6.880
 9719SOL    HW230057   1.009   2.471   6.820
 9720SOL     OW30058   0.647   5.581   1.659
 9720SOL    HW130059   0.580   5.602   1.730
 9720SOL    HW230060   0.738   5.572   1.700
 9721SOL     OW30061   0.740   2.514   0.924
 9721SOL    HW130062   0.707   2.602   0.960
 9721SOL    HW230063   0.685   2.440   0.962
 9722SOL     OW30064   0.431   6.751   3.563
 9722SOL    HW130065   0.489   6.810   3.618
 9722SOL    HW230066   0.483   6.713   3.487
 9723SOL     OW30067   1.928   6.157   3.035
 9723SOL    HW130068   1.894   6.251   3.043
 9723SOL    HW230069   1.913   6.124   2.941
 9724SOL     OW30070   2.782   2.992   0.838
 9724SOL    HW130071   2.690   3.018   0.866
 9724SOL    HW230072   2.835   2.962   0.917
 9725SOL     OW30073   4.124   3.685   6.310
 9725SOL    HW130074   4.218   3.653   6.294
 9725SOL    HW230075   4.075   3.617   6.365
 9726SOL     OW30076   4.178   7.013   4.619
 9726SOL    HW130077   4.230   6.936   4.655
 9726SOL    HW230078   4.215   0.019   4.531
 9727SOL     OW30079   1.204   3.542   5.335
 9727SOL    HW130080   1.290   3.573   5.375
 9727SOL    HW230081   1.191   3.445   5.357
 9728SOL     OW30082   0.761   6.698   6.278
 9728SOL    HW130083   0.745   6.679   6.375
 9728SOL    HW230084   0.836   6.642   6.245
 9729SOL     OW30085   0.750   4.448   2.627
 9729SOL    HW130086   0.792   4.396   2.553
 9729SOL    HW230087   0.727   4.540   2.594
 9730SOL     OW30088   0.660   3.724   2.146
 9730SOL    HW130089   0.727   3.694   2.077
 9730SOL    HW230090   0.697   3.709   2.237
 9731SOL     OW30091   4.279   4.521   0.901
 9731SOL    HW130092   4.238   4.430   0.896
 9731SOL    HW230093   4.351   4.529   0.832
 9732SOL     OW30094   5.341   5.879   2.692
 9732SOL    HW130095   5.328   5.892   2.790
 9732SOL    HW230096   5.321   5.784   2.668
 9733SOL     OW30097   5.757   5.151   5.189
 9733SOL    HW130098   5.672   5.150   5.136
 9733SOL    HW230099   5.794   5.059   5.194
 9734SOL     OW30100   5.379   1.941   3.940
 9734SOL    HW130101   5.458   1.997   3.914
 9734SOL    HW230102   5.342   1.896   3.859
 9735SOL     OW30103   1.585   4.650   2.540
 9735SOL    HW130104   1.655   4.626   2.606
 9735SOL    HW230105   1.595   4.593   2.458
 9736SOL     OW30106   5.796   1.580   6.179
 9736SOL    HW130107   5.865   1.630   6.230
 9736SOL    HW230108   5.772   1.631   6.096
 9737SOL     OW30109   5.501   3.035   4.821
 9737SOL    HW130110   5.444   2.961   4.856
 9737SOL    HW230111   5.472   3.058   4.728
 9738SOL     OW30112   1.423   6.967   3.312
 9738SOL    HW130113   1.362   6.948   3.389
 9738SOL    HW230114   1.376   0.004   3.246
 9739SOL     OW30115   0.126   5.302   1.916
 9739SOL    HW130116   0.108   5.393   1.954
 9739SOL    HW230117   0.044   5.246   1.926
 9740SOL     OW30118   5.969   3.334   3.186
 9740SOL    HW130119   6.068   3.320   3.191
 9740SOL    HW230120   5.950   3.423   3.145
 9741SOL     OW30121   4.759   1.278   2.265
 9741SOL    HW130122   4.819   1.212   2.221
 9741SOL    HW230123   4.811   1.361   2.289
 9742SOL     OW30124   4.585   0.126   3.245
 9742SOL    HW130125   4.575   0.044   3.302
 9742SOL    HW230126   4.575   0.102   3.149
 9743SOL     OW30127   1.928   2.054   4.867
 9743SOL    HW130128   1.971   2.062   4.957
 9743SOL    HW230129   1.999   2.056   4.796
 9744SOL     OW30130   0.428   0.471   2.932
 9744SOL    HW130131   0.465   0.385   2.966
 9744SOL    HW230132   0.328   0.467   2.934
 9745SOL     OW30133   0.072   2.516   6.116
 9745SOL    HW130134   0.169   2.538   6.125
 9745SOL    HW230135   0.020   2.565   6.185
 9746SOL     OW30136   5.841   1.561   5.839
 9746SOL    HW130137   5.809   1.655   5.848
 9746SOL    HW230138   5.938   1.556   5.862
 9747SOL     OW30139   1.589   1.249   1.747
 9747SOL    HW130140   1.494   1.277   1.731
 9747SOL    HW230141   1.595   1.149   1.740
 9748SOL     OW30142   1.170   0.658   4.789
 9748SOL    HW130143   1.077   0.693   4.779
 9748SOL    HW230144   1.167   0.566   4.828
 9749SOL     OW30145   2.043   2.160   5.108
 9749SOL    HW130146   2.090   2.093   5.165
 9749SOL    HW230147   2.109   2.229   5.077
 9750SOL     OW30148   5.385   5.259   3.773
 9750SOL    HW130149   5.357   5.335   3.715
 9750SOL    HW230150   5.376   5.285   3.869
 9751SOL     OW30151   2.449   2.140   1.083
 9751SOL    HW130152   2.469   2.219   1.142
 9751SOL    HW230153   2.362   2.155   1.037
 9752SOL     OW30154   4.510   0.748   6.817
 9752SOL    HW130155   4.450   0.682   6.861
 9752SOL    HW230156   4.485   0.757   6.720
 9753SOL     OW30157   6.288   6.042   4.742
 9753SOL    HW130158   6.312   6.027   4.838
 9753SOL    HW230159   6.192   6.018   4.727
 9754SOL     OW30160   1.108   1.371   0.282
 9754SOL    HW130161   1.201   1.349   0.254
 9754SOL    HW230162   1.101   1.470   0.296
 9755SOL     OW30163   4.496   3.351   5.533
 9755SOL    HW130164   4.472   3.428   5.474
 9755SOL    HW230165   4.495   3.266   5.480
 9756SOL     OW30166   6.101   3.083   0.247
 9756SOL    HW130167   6.107   3.014   0.175
 9756SOL    HW230168   6.059   3.166   0.211
 9757SOL     OW30169   5.054   3.189   3.389
 9757SOL    HW130170   5.123   3.131   3.431
 9757SOL    HW230171   5.089   3.283   3.382
 9758SOL     OW30172   1.486   6.421   6.015
 9758SOL    HW130173   1.521   6.328   6.013
 9758SOL    HW230174   1.553   6.481   6.058
 9759SOL     OW30175   2.108   6.725   1.126
 9759SOL    HW130176   2.165   6.643   1.136
 9759SOL    HW230177   2.125   6.786   1.203
 9760SOL     OW30178   4.665   3.739   5.340
 9760SOL    HW130179   4.679   3.665   5.274
 9760SOL    HW230180   4.721   3.722   5.421
 9761SOL     OW30181   5.891   6.189   2.219
 9761SOL    HW130182   5.800   6.187   2.260
 9761SOL    HW230183   5.942   6.267   2.254
 9762SOL     OW30184   2.716   2.357   4.412
 9762SOL    HW130185   2.702   2.266   4.451
 9762SOL    HW230186   2.757   2.417   4.481
 9763SOL     OW30187   4.462   2.377   1.893
 9763SOL    HW130188   4.468   2.281   1.864
 9763SOL    HW230189   4.489   2.383   1.990
 9764SOL     OW30190   0.507   2.307   3.222
 9764SOL    HW130191   0.588   2.272   3.174
 9764SOL    HW230192   0.431   2.314   3.157
 9765SOL     OW30193   6.828   2.121   4.486
 9765SOL    HW130194   6.842   2.207   4.535
 9765SOL    HW230195   6.743   2.126   4.433
 9766SOL     OW30196   2.623   0.346   3.234
 9766SOL    HW130197   2.659   0.253   3.241
 9766SOL    HW230198   2.630   0.377   3.139
 9767SOL     OW30199   5.726   2.315   5.124
 9767SOL    HW130200   5.776   2.388   5.076
 9767SOL    HW230201   5.747   2.227   5.083
 9768SOL     OW30202   4.797   1.950   2.150
 9768SOL    HW130203   4.854   1.947   2.232
 9768SOL    HW230204   4.813   2.036   2.102
 9769SOL     OW30205   1.945   1.262   2.026
 9769SOL    HW130206   1.864   1.312   1.995
 9769SOL    HW230207   2.015   1.326   2.057
 9770SOL     OW30208   5.907   6.495   6.648
 9770SOL    HW130209   5.973   6.432   6.606
 9770SOL    HW230210   5.935   6.514   6.742
 9771SOL     OW30211   4.431   4.461   1.518
 9771SOL    HW130212   4.384   4.434   1.602
 9771SOL    HW230213   4.395   4.407   1.442
 9772SOL     OW30214   0.889   6.691   1.839
 9772SOL    HW130215   0.941   6.636   1.905
 9772SOL    HW230216   0.792   6.663   1.842
 9773SOL     OW30217   5.085   6.163   4.246
 9773SOL    HW130218   5.063   6.159   4.149
 9773SOL    HW230219   5.139   6.246   4.264
 9774SOL     OW30220   6.169   5.239   2.590
 9774SOL    HW130221   6.135   5.328   2.561
 9774SOL    HW230222   6.098   5.192   2.643
 9775SOL     OW30223   2.323   1.953   3.995
 9775SOL    HW130224   2.417   1.981   4.017
 9775SOL    HW230225   2.314   1.946   3.895
 9776SOL     OW30226   6.892   5.818   4.687
 9776SOL    HW130227   6.818   5.838   4.752
 9776SOL    HW230228   6.980   5.818   4.735
 9777SOL     OW30229   5.759   5.219   6.262
 9777SOL    HW130230   5.813   5.134   6.268
 9777SOL    HW230231   5.721   5.240   6.351
 9778SOL     OW30232   5.906   0.312   3.388
 9778SOL    HW130233   5.845   0.360   3.326
 9778SOL    HW230234   5.941   0.375   3.457
 9779SOL     OW30235   2.708   2.085   4.547
 9779SOL    HW130236   2.735   2.056   4.639
 9779SOL    HW230237   2.648   2.016   4.507
 9780SOL     OW30238   2.010   1.902   0.970
 9780SOL    HW130239   1.915   1.874   0.980
 9780SOL    HW230240   2.066   1.821   0.949
 9781SOL     OW30241   1.958   4.399   3.726
 9781SOL    HW130242   1.970   4.498   3.720
 9781SOL    HW230243   2.044   4.356   3.753
 9782SOL     OW30244   6.806   0.392   1.404
 9782SOL    HW130245   6.764   0.479   1.379
 9782SOL    HW230246   6.745   0.317   1.377
 9783SOL     OW30247   6.204   1.443   2.044
 9783SOL    HW130248   6.163   1.357   2.072
 9783SOL    HW230249   6.134   1.514   2.036
 9784SOL     OW30250   5.054   1.272   3.749
 9784SOL    HW130251   4.970   1.279   3.696
 9784SOL    HW230252   5.115   1.347   3.725
 9785SOL     OW30253   0.075   4.082   3.814
 9785SOL    HW130254   0.033   4.061   3.903
 9785SOL    HW230255   0.085   3.997   3.762
 9786SOL     OW30256   1.574   5.198   5.819
 9786SOL    HW130257   1.536   5.125   5.876
 9786SOL    HW230258   1.504   5.266   5.800
 9787SOL     OW30259   5.159   4.114   1.648
 9787SOL    HW130260   5.256   4.133   1.632
 9787SOL    HW230261   5.149   4.061   1.732
 9788SOL     OW30262   0.233   0.581   3.936
 9788SOL    HW130263   0.238   0.542   3.844
 9788SOL    HW230264   0.307   0.647   3.948
 9789SOL     OW30265   2.361   5.725   6.626
 9789SOL    HW130266   2.427   5.713   6.699
 9789SOL    HW230267   2.301   5.802   6.647
 9790SOL     OW30268   5.757   3.050   4.917
 9790SOL    HW130269   5.774   3.149   4.911
 9790SOL    HW230270   5.659   3.034   4.927
 9791SOL     OW30271   0.804   0.862   2.429
 9791SOL    HW130272   0.792   0.961   2.430
 9791SOL    HW230273   0.896   0.839   2.398
 9792SOL     OW30274   4.736   5.226   1.825
 9792SOL    HW130275   4.744   5.319   1.789
 9792SOL    HW230276   4.826   5.183   1.827
 9793SOL     OW30277   5.564   5.389   2.784
 9793SOL    HW130278   5.568   5.299   2.828
 9793SOL    HW230279   5.639   5.397   2.718
 9794SOL     OW30280   5.776   3.429   6.880
 9794SOL    HW130281   5.754   3.470   6.792
 9794SOL    HW230282   5.779   3.330   6.871
 9795SOL     OW30283   0.675   2.957   4.133
 9795SOL    HW130284   0.661   2.915   4.043
 9795SOL    HW230285   0.654   2.891   4.204
 9796SOL     OW30286   3.436   4.246   0.898
 9796SOL    HW130287   3.453   4.345   0.897
 9796SOL    HW230288   3.523   4.197   0.898
 9797SOL     OW30289   4.442   3.751   0.525
 9797SOL    HW130290   4.467   3.686   0.453
 9797SOL    HW230291   4.353   3.726   0.563
 9798SOL     OW30292   2.622   0.848   0.579
 9798SOL    HW130293   2.533   0.874   0.616
 9798SOL    HW230294   2.625   0.749   0.564
 9799SOL     OW30295   3.603   3.573   2.729
 9799SOL    HW130296   3.519   3.625   2.712
 9799SOL    HW230297   3.596   3.483   2.687
 9800SOL     OW30298   3.880   5.873   5.962
 9800SOL    HW130299   3.789   5.839   5.938
 9800SOL    HW230300   3.898   5.853   6.058
 9801SOL     OW30301   4.020   4.710   0.077
 9801SOL    HW130302   4.106   4.675   0.039
 9801SOL    HW230303   4.026   4.710   0.176
 9802SOL     OW30304   6.698   3.021   1.845
 9802SOL    HW130305   6.788   3.062   1.834
 9802SOL    HW230306   6.705   2.942   1.907
 9803SOL     OW30307   6.280   0.518   6.643
 9803SOL    HW130308   6.315   0.428   6.617
 9803SOL    HW230309   6.195   0.536   6.593
 9804SOL     OW30310   0.446   5.399   3.695
 9804SOL    HW130311   0.535   5.357   3.714
 9804SOL    HW230312   0.376   5.328   3.694
 9805SOL     OW30313   1.458   5.679   6.894
 9805SOL    HW130314   1.488   5.613   6.824
 9805SOL    HW230315   1.525   5.753   6.901
 9806SOL     OW30316   0.678   2.288   1.599
 9806SOL    HW130317   0.702   2.194   1.623
 9806SOL    HW230318   0.760   2.345   1.600
 9807SOL     OW30319   3.038   1.652   6.579
 9807SOL    HW130320   3.045   1.636   6.481
 9807SOL    HW230321   3.004   1.570   6.624
 9808SOL     OW30322   5.873   0.859   5.430
 9808SOL    HW130323   5.870   0.883   5.333
 9808SOL    HW230324   5.959   0.814   5.450
 9809SOL     OW30325   0.759   1.514   6.042
 9809SOL    HW130326   0.768   1.444   6.113
 9809SOL    HW230327   0.759   1.470   5.952
 9810SOL     OW30328   2.599   2.002   3.315
 9810SOL    HW130329   2.679   1.965   3.362
 9810SOL    HW230330   2.620   2.016   3.219
 9811SOL     OW30331   6.367   5.933   3.434
 9811SOL    HW130332   6.359   6.020   3.386
 9811SOL    HW230333   6.406   5.948   3.525
 9812SOL     OW30334   3.843   2.114   6.876
 9812SOL    HW130335   3.926   2.162   6.848
 9812SOL    HW230336   3.772   2.180   6.899
 9813SOL     OW30337   6.524   5.644   6.975
 9813SOL    HW130338   6.555   5.582   0.025
 9813SOL    HW230339   6.466   5.716   7.016
 9814SOL     OW30340   6.514   0.487   6.392
 9814SOL    HW130341   6.525   0.553   6.466
 9814SOL    HW230342   6.594   0.426   6.389
 9815SOL     OW30343   6.665   2.278   1.189
 9815SOL    HW130344   6.742   2.341   1.184
 9815SOL    HW230345   6.689   2.192   1.144
 9816SOL     OW30346   6.470   0.780   6.281
 9816SOL    HW130347   6.491   0.811   6.188
 9816SOL    HW230348   6.499   0.684   6.290
 9817SOL     OW30349   3.123   5.401   1.609
 9817SOL    HW130350   3.058   5.393   1.685
 9817SOL    HW230351   3.150   5.496   1.598
 9818SOL     OW30352   1.793   1.719   3.482
 9818SOL    HW130353   1.860   1.655   3.519
 9818SOL    HW230354   1.840   1.788   3.426
 9819SOL     OW30355   5.932   4.376   4.857
 9819SOL    HW130356   5.989   4.431   4.917
 9819SOL    HW230357   5.878   4.312   4.911
 9820SOL     OW30358   2.850   2.152   6.468
 9820SOL    HW130359   2.942   2.142   6.506
 9820SOL    HW230360   2.804   2.063   6.469
 9821SOL     OW30361   4.639   2.005   1.669
 9821SOL    HW130362   4.721   1.949   1.657
 9821SOL    HW230363   4.609   2.039   1.579
 9822SOL     OW30364   4.190   5.641   4.253
 9822SOL    HW130365   4.272   5.591   4.225
 9822SOL    HW230366   4.150   5.596   4.333
 9823SOL     OW30367   1.257   0.654   2.415
 9823SOL    HW130368   1.277   0.626   2.321
 9823SOL    HW230369   1.342   0.683   2.459
 9824SOL     OW30370   2.656   5.880   5.600
 9824SOL    HW130371   2.708   5.831   5.530
 9824SOL    HW230372   2.695   5.972   5.611
 9825SOL     OW30373   5.316   6.161   5.082
 9825SOL    HW130374   5.256   6.081   5.078
 9825SOL    HW230375   5.277   6.229   5.144
 9826SOL     OW30376   3.757   0.008   5.634
 9826SOL    HW130377   3.768   0.050   5.724
 9826SOL    HW230378   3.725   6.936   5.644
 9827SOL     OW30379   2.214   5.659   2.955
 9827SOL    HW130380   2.149   5.584   2.965
 9827SOL    HW230381   2.219   5.685   2.858
 9828SOL     OW30382   3.372   2.015   4.763
 9828SOL    HW130383   3.443   1.976   4.704
 9828SOL    HW230384   3.356   1.954   4.840
 9829SOL     OW30385   5.296   6.315   5.882
 9829SOL    HW130386   5.380   6.270   5.913
 9829SOL    HW230387   5.295   6.409   5.915
 9830SOL     OW30388   5.855   1.355   2.293
 9830SOL    HW130389   5.914   1.410   2.353
 9830SOL    HW230390   5.765   1.398   2.286
 9831SOL     OW30391   0.464   4.338   2.115
 9831SOL    HW130392   0.467   4.428   2.070
 9831SOL    HW230393   0.540   4.332   2.180
 9832SOL     OW30394   5.263   4.766   4.296
 9832SOL    HW130395   5.285   4.674   4.327
 9832SOL    HW230396   5.231   4.762   4.201
 9833SOL     OW30397   3.435   3.802   3.270
 9833SOL    HW130398   3.493   3.789   3.350
 9833SOL    HW230399   3.422   3.715   3.223
 9834SOL     OW30400   2.296   5.472   5.608
 9834SOL    HW130401   2.238   5.424   5.542
 9834SOL    HW230402   2.336   5.405   5.671
 9835SOL     OW30403   3.782   4.097   4.468
 9835SOL    HW130404   3.797   4.022   4.533
 9835SOL    HW230405   3.815   4.070   4.378
 9836SOL     OW30406   1.101   3.728   6.265
 9836SOL    HW130407   1.078   3.657   6.199
 9836SOL    HW230408   1.056   3.813   6.240
 9837SOL     OW30409   5.442   2.078   1.615
 9837SOL    HW130410   5.387   2.073   1.698
 9837SOL    HW230411   5.425   2.165   1.569
 9838SOL     OW30412   1.255   6.030   1.391
 9838SOL    HW130413   1.322   6.024   1.317
 9838SOL    HW230414   1.198   6.112   1.378
 9839SOL     OW30415   4.629   1.257   3.833
 9839SOL    HW130416   4.603   1.318   3.908
 9839SOL    HW230417   4.687   1.184   3.868
 9840SOL     OW30418   5.285   1.152   6.867
 9840SOL    HW130419   5.228   1.220   6.914
 9840SOL    HW230420   5.286   1.067   6.920
 9841SOL     OW30421   0.157   5.625   3.421
 9841SOL    HW130422   0.128   5.577   3.504
 9841SOL    HW230423   0.142   5.723   3.432
 9842SOL     OW30424   3.618   2.969   0.470
 9842SOL    HW130425   3.580   2.898   0.411
 9842SOL    HW230426   3.552   3.045   0.477
 9843SOL     OW30427   6.489   0.281   1.630
 9843SOL    HW130428   6.399   0.263   1.670
 9843SOL    HW230429   6.559   0.228   1.680
 9844SOL     OW30430   5.588   0.435   4.522
 9844SOL    HW130431   5.535   0.407   4.442
 9844SOL    HW230432   5.597   0.534   4.523
 9845SOL     OW30433   1.266   2.328   2.539
 9845SOL    HW130434   1.182   2.317   2.593
 9845SOL    HW230435   1.242   2.335   2.442
 9846SOL     OW30436   5.233   1.120   1.144
 9846SOL    HW130437   5.259   1.209   1.181
 9846SOL    HW230438   5.314   1.062   1.137
 9847SOL     OW30439   3.850   2.901   1.722
 9847SOL    HW130440   3.831   2.969   1.652
 9847SOL    HW230441   3.793   2.919   1.802
 9848SOL     OW30442   3.045   4.071   5.287
 9848SOL    HW130443   3.040   4.170   5.299
 9848SOL    HW230444   3.102   4.031   5.359
 9849SOL     OW30445   1.385   0.590   6.480
 9849SOL    HW130446   1.365   0.504   6.432
 9849SOL    HW230447   1.309   0.653   6.468
 9850SOL     OW30448   0.410   0.321   4.336
 9850SOL    HW130449   0.434   0.401   4.282
 9850SOL    HW230450   0.474   0.312   4.413
 9851SOL     OW30451   3.504   5.112   4.668
 9851SOL    HW130452   3.512   5.050   4.590
 9851SOL    HW230453   3.572   5.088   4.737
 9852SOL     OW30454   1.384   1.661   6.349
 9852SOL    HW130455   1.299   1.666   6.401
 9852SOL    HW230456   1.364   1.632   6.256
 9853SOL     OW30457   0.057   4.035   4.438
 9853SOL    HW130458   0.127   4.091   4.482
 9853SOL    HW230459   0.101   3.956   4.394
 9854SOL     OW30460   0.872   5.736   6.041
 9854SOL    HW130461   0.939   5.665   6.020
 9854SOL    HW230462   0.847   5.785   5.957
 9855SOL     OW30463   0.820   3.578   0.690
 9855SOL    HW130464   0.739   3.636   0.684
 9855SOL    HW230465   0.810   3.500   0.628
 9856SOL     OW30466   5.910   5.105   3.797
 9856SOL    HW130467   5.884   5.021   3.749
 9856SOL    HW230468   5.922   5.085   3.894
 9857SOL     OW30469   5.310   2.808   3.325
 9857SOL    HW130470   5.333   2.903   3.347
 9857SOL    HW230471   5.212   2.793   3.335
 9858SOL     OW30472   1.020   6.683   2.093
 9858SOL    HW130473   1.093   6.617   2.078
 9858SOL    HW230474   0.989   6.678   2.188
 9859SOL     OW30475   6.635   4.699   5.148
 9859SOL    HW130476   6.688   4.766   5.096
 9859SOL    HW230477   6.690   4.664   5.223
 9860SOL     OW30478   2.021   2.485   5.040
 9860SOL    HW130479   1.967   2.484   4.956
 9860SOL    HW230480   1.974   2.538   5.110
 9861SOL     OW30481   2.654   1.401   3.935
 9861SOL    HW130482   2.725   1.466   3.962
 9861SOL    HW230483   2.591   1.387   4.011
 9862SOL     OW30484   2.358   4.526   1.255
 9862SOL    HW130485   2.430   4.481   1.202
 9862SOL    HW230486   2.362   4.625   1.241
 9863SOL     OW30487   2.843   5.922   0.510
 9863SOL    HW130488   2.831   5.930   0.411
 9863SOL    HW230489   2.926   5.871   0.530
 9864SOL     OW30490   2.747   6.451   5.369
 9864SOL    HW130491   2.832   6.402   5.348
 9864SOL    HW230492   2.679   6.386   5.403
 9865SOL     OW30493   0.701   6.876   5.229
 9865SOL    HW130494   0.634   6.930   5.281
 9865SOL    HW230495   0.654   6.828   5.155
 9866SOL     OW30496   5.964   4.490   4.437
 9866SOL    HW130497   6.024   4.418   4.401
 9866SOL    HW230498   6.020   4.569   4.462
 9867SOL     OW30499   4.963   1.967   2.355
 9867SOL    HW130500   4.915   1.938   2.437
 9867SOL    HW230501   5.035   2.033   2.380
 9868SOL     OW30502   0.993   4.351   3.492
 9868SOL    HW130503   1.056   4.369   3.417
 9868SOL    HW230504   1.031   4.279   3.551
 9869SOL     OW30505   0.252   2.569   0.720
 9869SOL    HW130506   0.311   2.550   0.641
 9869SOL    HW230507   0.248   2.489   0.779
 9870SOL     OW30508   3.849   1.686   1.828
 9870SOL    HW130509   3.781   1.699   1.900
 9870SOL    HW230510   3.918   1.757   1.834
 9871SOL     OW30511   0.074   3.362   5.278
 9871SOL    HW130512   0.092   3.279   5.330
 9871SOL    HW230513   7.001   3.362   5.246
 9872SOL     OW30514   2.297   5.314   4.971
 9872SOL    HW130515   2.312   5.413   4.966
 9872SOL    HW230516   2.205   5.292   4.939
 9873SOL     OW30517   1.999   2.199   5.833
 9873SOL    HW130518   1.982   2.219   5.930
 9873SOL    HW230519   2.098   2.193   5.817
 9874SOL     OW30520   0.541   2.900   4.625
 9874SOL    HW130521   0.518   2.879   4.530
 9874SOL    HW230522   0.459   2.931   4.674
 9875SOL     OW30523   0.265   6.126   0.762
 9875SOL    HW130524   0.207   6.200   0.729
 9875SOL    HW230525   0.318   6.157   0.841
 9876SOL     OW30526   3.158   0.008   3.391
 9876SOL    HW130527   3.137   0.102   3.364
 9876SOL    HW230528   3.157   0.001   3.491
 9877SOL     OW30529   6.980   4.464   4.524
 9877SOL    HW130530   6.955   4.507   4.438
 9877SOL    HW230531   6.905   4.407   4.556
 9878SOL     OW30532   1.870   3.003   0.092
 9878SOL    HW130533   1.896   3.100   0.088
 9878SOL    HW230534   1.826   2.984   0.180
 9879SOL     OW30535   1.263   4.643   6.088
 9879SOL    HW130536   1.308   4.686   6.167
 9879SOL    HW230537   1.168   4.624   6.111
 9880SOL     OW30538   2.553   1.021   0.312
 9880SOL    HW130539   2.637   0.986   0.271
 9880SOL    HW230540   2.514   0.952   0.373
 9881SOL     OW30541   5.273   0.541   4.445
 9881SOL    HW130542   5.174   0.532   4.436
 9881SOL    HW230543   5.318   0.469   4.392
 9882SOL     OW30544   3.812   3.126   5.043
 9882SOL    HW130545   3.781   3.060   4.975
 9882SOL    HW230546   3.791   3.219   5.012
 9883SOL     OW30547   1.660   6.259   1.718
 9883SOL    HW130548   1.613   6.320   1.654
 9883SOL    HW230549   1.647   6.292   1.811
 9884SOL     OW30550   1.634   3.152   6.662
 9884SOL    HW130551   1.680   3.138   6.575
 9884SOL    HW230552   1.646   3.247   6.692
 9885SOL     OW30553   6.494   2.920   3.993
 9885SOL    HW130554   6.500   2.836   3.939
 9885SOL    HW230555   6.403   2.959   3.984
 9886SOL     OW30556   5.623   6.181   1.471
 9886SOL    HW130557   5.568   6.240   1.413
 9886SOL    HW230558   5.660   6.106   1.416
 9887SOL     OW30559   4.157   6.678   0.690
 9887SOL    HW130560   4.160   6.747   0.618
 9887SOL    HW230561   4.133   6.589   0.650
 9888SOL     OW30562   5.537   5.639   2.417
 9888SOL    HW130563   5.507   5.595   2.331
 9888SOL    HW230564   5.596   5.717   2.396
 9889SOL     OW30565   6.885   4.616   2.814
 9889SOL    HW130566   6.845   4.556   2.745
 9889SOL    HW230567   6.949   4.564   2.870
 9890SOL     OW30568   6.644   2.888   0.532
 9890SOL    HW130569   6.723   2.947   0.545
 9890SOL    HW230570   6.597   2.875   0.619
 9891SOL     OW30571   4.781   5.365   1.030
 9891SOL    HW130572   4.784   5.273   0.991
 9891SOL    HW230573   4.809   5.361   1.126
 9892SOL     OW30574   2.119   5.500   3.676
 9892SOL    HW130575   2.152   5.413   3.712
 9892SOL    HW230576   2.027   5.518   3.711
 9893SOL     OW30577   5.911   5.152   2.712
 9893SOL    HW130578   5.903   5.176   2.809
 9893SOL    HW230579   5.826   5.177   2.665
 9894SOL     OW30580   4.192   1.989   5.831
 9894SOL    HW130581   4.266   2.028   5.886
 9894SOL    HW230582   4.134   1.933   5.890
 9895SOL     OW30583   5.252   2.516   6.470
 9895SOL    HW130584   5.245   2.421   6.500
 9895SOL    HW230585   5.345   2.549   6.481
 9896SOL     OW30586   3.325   3.222   0.753
 9896SOL    HW130587   3.384   3.159   0.804
 9896SOL    HW230588   3.307   3.302   0.810
 9897SOL     OW30589   4.898   1.173   3.009
 9897SOL    HW130590   4.824   1.205   2.950
 9897SOL    HW230591   4.985   1.177   2.960
 9898SOL     OW30592   1.013   5.277   5.579
 9898SOL    HW130593   0.975   5.289   5.488
 9898SOL    HW230594   1.113   5.273   5.574
 9899SOL     OW30595   5.658   4.482   2.398
 9899SOL    HW130596   5.641   4.476   2.496
 9899SOL    HW230597   5.575   4.457   2.348
 9900SOL     OW30598   1.140   2.182   3.867
 9900SOL    HW130599   1.150   2.161   3.770
 9900SOL    HW230600   1.129   2.281   3.879
 9901SOL     OW30601   2.232   2.130   6.496
 9901SOL    HW130602   2.284   2.063   6.549
 9901SOL    HW230603   2.200   2.203   6.555
 9902SOL     OW30604   3.599   3.458   0.770
 9902SOL    HW130605   3.532   3.446   0.843
 9902SOL    HW230606   3.553   3.492   0.688
 9903SOL     OW30607   4.443   1.529   2.354
 9903SOL    HW130608   4.435   1.598   2.425
 9903SOL    HW230609   4.461   1.440   2.396
 9904SOL     OW30610   6.438   2.859   0.328
 9904SOL    HW130611   6.366   2.790   0.335
 9904SOL    HW230612   6.492   2.859   0.412
 9905SOL     OW30613   1.168   6.367   6.595
 9905SOL    HW130614   1.080   6.410   6.574
 9905SOL    HW230615   1.154   6.272   6.622
 9906SOL     OW30616   1.706   2.539   6.205
 9906SOL    HW130617   1.792   2.586   6.184
 9906SOL    HW230618   1.717   2.441   6.189
 9907SOL     OW30619   2.606   6.029   3.352
 9907SOL    HW130620   2.569   6.103   3.407
 9907SOL    HW230621   2.624   5.950   3.410
 9908SOL     OW30622   0.623   3.100   6.365
 9908SOL    HW130623   0.709   3.108   6.315
 9908SOL    HW230624   0.610   3.006   6.395
 9909SOL     OW30625   3.028   1.635   2.650
 9909SOL    HW130626   3.050   1.587   2.735
 9909SOL    HW230627   3.102   1.698   2.627
 9910SOL     OW30628   6.893   4.898   0.852
 9910SOL    HW130629   6.977   4.872   0.804
 9910SOL    HW230630   6.825   4.825   0.843
 9911SOL     OW30631   4.524   4.717   2.753
 9911SOL    HW130632   4.583   4.782   2.706
 9911SOL    HW230633   4.524   4.738   2.851
 9912SOL     OW30634   4.520   1.169   2.179
 9912SOL    HW130635   4.535   1.171   2.080
 9912SOL    HW230636   4.601   1.204   2.226
 9913SOL     OW30637   5.330   2.958   2.570
 9913SOL    HW130638   5.265   2.945   2.646
 9913SOL    HW230639   5.330   2.876   2.513
 9914SOL     OW30640   1.557   0.339   5.162
 9914SOL    HW130641   1.470   0.368   5.202
 9914SOL    HW230642   1.612   0.293   5.232
 9915SOL     OW30643   5.371   3.364   4.147
 9915SOL    HW130644   5.375   3.357   4.246
 9915SOL    HW230645   5.290   3.317   4.113
 9916SOL     OW30646   2.074   3.210   2.659
 9916SOL    HW130647   2.084   3.224   2.757
 9916SOL    HW230648   2.132   3.134   2.629
 9917SOL     OW30649   3.466   3.827   5.120
 9917SOL    HW130650   3.383   3.776   5.098
 9917SOL    HW230651   3.442   3.915   5.160
 9918SOL     OW30652   2.168   1.682   6.004
 9918SOL    HW130653   2.248   1.681   5.944
 9918SOL    HW230654   2.107   1.606   5.980
 9919SOL     OW30655   1.261   6.152   2.426
 9919SOL    HW130656   1.248   6.226   2.493
 9919SOL    HW230657   1.247   6.064   2.471
 9920SOL     OW30658   4.267   0.067   2.114
 9920SOL    HW130659   4.360   0.097   2.095
 9920SOL    HW230660   4.225   0.032   2.030
 9921SOL     OW30661   5.850   0.252   3.013
 9921SOL    HW130662   5.935   0.238   2.962
 9921SOL    HW230663   5.833   0.173   3.071
 9922SOL     OW30664   4.019   4.674   1.110
 9922SOL    HW130665   3.969   4.731   1.045
 9922SOL    HW230666   3.974   4.676   1.199
 9923SOL     OW30667   6.514   2.111   6.185
 9923SOL    HW130668   6.422   2.088   6.154
 9923SOL    HW230669   6.510   2.140   6.281
 9924SOL     OW30670   5.984   1.277   2.537
 9924SOL    HW130671   5.900   1.240   2.499
 9924SOL    HW230672   5.963   1.352   2.599
 9925SOL     OW30673   2.605   3.746   5.738
 9925SOL    HW130674   2.683   3.791   5.782
 9925SOL    HW230675   2.616   3.751   5.638
 9926SOL     OW30676   1.562   1.363   0.870
 9926SOL    HW130677   1.645   1.353   0.926
 9926SOL    HW230678   1.489   1.308   0.909
 9927SOL     OW30679   1.150   1.932   2.418
 9927SOL    HW130680   1.137   1.998   2.343
 9927SOL    HW230681   1.061   1.913   2.460
 9928SOL     OW30682   0.322   4.862   1.514
 9928SOL    HW130683   0.320   4.951   1.468
 9928SOL    HW230684   0.416   4.840   1.540
 9929SOL     OW30685   3.419   4.404   5.677
 9929SOL    HW130686   3.503   4.371   5.635
 9929SOL    HW230687   3.393   4.344   5.753
 9930SOL     OW30688   0.374   0.754   6.497
 9930SOL    HW130689   0.394   0.688   6.425
 9930SOL    HW230690   0.364   0.845   6.457
 9931SOL     OW30691   1.393   6.397   4.775
 9931SOL    HW130692   1.427   6.486   4.747
 9931SOL    HW230693   1.370   6.343   4.693
 9932SOL     OW30694   1.501   2.183   0.645
 9932SOL    HW130695   1.409   2.212   0.671
 9932SOL    HW230696   1.535   2.117   0.711
 9933SOL     OW30697   2.920   0.685   3.229
 9933SOL    HW130698   2.985   0.659   3.158
 9933SOL    HW230699   2.853   0.749   3.192
 9934SOL     OW30700   5.741   1.335   6.464
 9934SOL    HW130701   5.745   1.316   6.366
 9934SOL    HW230702   5.691   1.262   6.510
 9935SOL     OW30703   3.149   2.234   0.498
 9935SOL    HW130704   3.218   2.204   0.432
 9935SOL    HW230705   3.058   2.207   0.466
 9936SOL     OW30706   5.018   5.075   5.795
 9936SOL    HW130707   5.090   5.049   5.859
 9936SOL    HW230708   4.947   5.126   5.844
 9937SOL     OW30709   0.125   0.285   2.893
 9937SOL    HW130710   0.211   0.238   2.914
 9937SOL    HW230711   0.064   0.279   2.972
 9938SOL     OW30712   6.540   1.271   4.670
 9938SOL    HW130713   6.552   1.285   4.571
 9938SOL    HW230714   6.537   1.359   4.716
 9939SOL     OW30715   2.110   3.824   1.160
 9939SOL    HW130716   2.053   3.902   1.137
 9939SOL    HW230717   2.205   3.844   1.138
 9940SOL     OW30718   0.534   0.258   3.102
 9940SOL    HW130719   0.608   0.317   3.136
 9940SOL    HW230720   0.457   0.261   3.165
 9941SOL     OW30721   4.020   5.383   5.579
 9941SOL    HW130722   4.081   5.460   5.594
 9941SOL    HW230723   3.933   5.401   5.626
 9942SOL     OW30724   4.581   4.573   3.203
 9942SOL    HW130725   4.574   4.513   3.283
 9942SOL    HW230726   4.655   4.639   3.218
 9943SOL     OW30727   1.671   3.963   0.318
 9943SOL    HW130728   1.702   4.047   0.274
 9943SOL    HW230729   1.678   3.886   0.254
 9944SOL     OW30730   1.800   4.702   0.154
 9944SOL    HW130731   1.809   4.782   0.095
 9944SOL    HW230732   1.704   4.673   0.157
 9945SOL     OW30733   6.250   4.222   0.316
 9945SOL    HW130734   6.254   4.223   0.217
 9945SOL    HW230735   6.197   4.143   0.347
 9946SOL     OW30736   5.944   0.654   2.911
 9946SOL    HW130737   6.015   0.596   2.871
 9946SOL    HW230738   5.962   0.750   2.889
 9947SOL     OW30739   0.999   2.685   4.292
 9947SOL    HW130740   1.076   2.623   4.278
 9947SOL    HW230741   0.916   2.633   4.309
 9948SOL     OW30742   6.106   7.000   3.563
 9948SOL    HW130743   6.130   6.925   3.501
 9948SOL    HW230744   6.118   6.971   3.657
 9949SOL     OW30745   6.269   4.244   5.229
 9949SOL    HW130746   6.342   4.234   5.296
 9949SOL    HW230747   6.306   4.281   5.144
 9950SOL     OW30748   6.658   4.830   6.158
 9950SOL    HW130749   6.670   4.731   6.152
 9950SOL    HW230750   6.573   4.856   6.113
 9951SOL     OW30751   0.831   3.074   2.262
 9951SOL    HW130752   0.809   2.987   2.219
 9951SOL    HW230753   0.896   3.060   2.336
 9952SOL     OW30754   0.831   3.816   1.375
 9952SOL    HW130755   0.776   3.889   1.414
 9952SOL    HW230756   0.927   3.828   1.402
 9953SOL     OW30757   6.366   2.333   3.206
 9953SOL    HW130758   6.417   2.405   3.254
 9953SOL    HW230759   6.420   2.249   3.205
 9954SOL     OW30760   2.923   1.553   5.478
 9954SOL    HW130761   2.953   1.494   5.553
 9954SOL    HW230762   2.993   1.556   5.407
 9955SOL     OW30763   4.352   3.656   0.878
 9955SOL    HW130764   4.362   3.641   0.976
 9955SOL    HW230765   4.440   3.681   0.838
 9956SOL     OW30766   1.137   4.382   2.877
 9956SOL    HW130767   1.134   4.432   2.964
 9956SOL    HW230768   1.128   4.447   2.801
 9957SOL     OW30769   5.371   6.937   1.627
 9957SOL    HW130770   5.437   6.936   1.552
 9957SOL    HW230771   5.393   7.011   1.691
 9958SOL     OW30772   3.896   4.820   6.090
 9958SOL    HW130773   3.926   4.847   5.999
 9958SOL    HW230774   3.825   4.883   6.122
 9959SOL     OW30775   4.365   3.991   1.439
 9959SOL    HW130776   4.287   3.947   1.394
 9959SOL    HW230777   4.345   4.005   1.536
 9960SOL     OW30778   6.427   6.504   1.259
 9960SOL    HW130779   6.332   6.534   1.246
 9960SOL    HW230780   6.450   6.508   1.357
 9961SOL     OW30781   1.557   3.892   1.830
 9961SOL    HW130782   1.598   3.849   1.750
 9961SOL    HW230783   1.564   3.992   1.821
 9962SOL     OW30784   3.380   5.993   1.901
 9962SOL    HW130785   3.346   5.925   1.836
 9962SOL    HW230786   3.476   6.012   1.882
 9963SOL     OW30787   2.313   1.651   0.460
 9963SOL    HW130788   2.339   1.747   0.469
 9963SOL    HW230789   2.253   1.625   0.536
 9964SOL     OW30790   4.660   4.483   5.367
 9964SOL    HW130791   4.675   4.404   5.427
 9964SOL    HW230792   4.746   4.505   5.320
 9965SOL     OW30793   2.852   6.087   4.875
 9965SOL    HW130794   2.907   6.028   4.816
 9965SOL    HW230795   2.903   6.106   4.959
 9966SOL     OW30796   3.025   4.762   2.133
 9966SOL    HW130797   3.078   4.679   2.151
 9966SOL    HW230798   2.937   4.736   2.093
 9967SOL     OW30799   5.937   6.519   2.738
 9967SOL    HW130800   5.967   6.465   2.660
 9967SOL    HW230801   5.840   6.541   2.728
 9968SOL     OW30802   4.452   5.834   0.142
 9968SOL    HW130803   4.443   5.736   0.123
 9968SOL    HW230804   4.411   5.854   0.231
 9969SOL     OW30805   0.695   4.419   4.748
 9969SOL    HW130806   0.688   4.359   4.669
 9969SOL    HW230807   0.604   4.436   4.786
 9970SOL     OW30808   5.586   5.378   1.939
 9970SOL    HW130809   5.505   5.377   1.880
 9970SOL    HW230810   5.664   5.341   1.889
 9971SOL     OW30811   1.382   2.906   1.916
 9971SOL    HW130812   1.305   2.970   1.916
 9971SOL    HW230813   1.462   2.949   1.957
 9972SOL     OW30814   3.256   3.680   0.849
 9972SOL    HW130815   3.178   3.742   0.860
 9972SOL    HW230816   3.309   3.707   0.769
 9973SOL     OW30817   3.945   2.062   4.407
 9973SOL    HW130818   3.916   1.977   4.362
 9973SOL    HW230819   4.024   2.099   4.358
 9974SOL     OW30820   6.738   2.110   3.383
 9974SOL    HW130821   6.814   2.175   3.390
 9974SOL    HW230822   6.699   2.094   3.474
 9975SOL     OW30823   0.893   5.340   6.956
 9975SOL    HW130824   0.950   5.373   6.881
 9975SOL    HW230825   0.891   5.408   0.007
 9976SOL     OW30826   1.505   5.484   5.765
 9976SOL    HW130827   1.553   5.534   5.838
 9976SOL    HW230828   1.528   5.525   5.677
 9977SOL     OW30829   5.619   5.003   4.937
 9977SOL    HW130830   5.674   4.937   4.886
 9977SOL    HW230831   5.550   5.043   4.877
 9978SOL     OW30832   0.223   1.984   5.839
 9978SOL    HW130833   0.253   2.022   5.751
 9978SOL    HW230834   0.176   2.055   5.892
 9979SOL     OW30835   4.969   3.366   6.045
 9979SOL    HW130836   4.908   3.403   6.116
 9979SOL    HW230837   4.919   3.358   5.959
 9980SOL     OW30838   1.394   0.797   0.125
 9980SOL    HW130839   1.439   0.724   0.177
 9980SOL    HW230840   1.310   0.761   0.084
 9981SOL     OW30841   1.550   2.463   1.204
 9981SOL    HW130842   1.557   2.431   1.110
 9981SOL    HW230843   1.528   2.560   1.205
 9982SOL     OW30844   2.182   0.967   4.874
 9982SOL    HW130845   2.144   0.884   4.916
 9982SOL    HW230846   2.110   1.035   4.863
 9983SOL     OW30847   5.989   2.798   2.566
 9983SOL    HW130848   5.963   2.710   2.605
 9983SOL    HW230849   5.910   2.858   2.562
 9984SOL     OW30850   0.122   6.294   1.335
 9984SOL    HW130851   0.126   6.197   1.310
 9984SOL    HW230852   0.151   6.304   1.430
 9985SOL     OW30853   3.372   4.884   0.444
 9985SOL    HW130854   3.312   4.918   0.515
 9985SOL    HW230855   3.358   4.936   0.360
 9986SOL     OW30856   4.939   4.291   0.759
 9986SOL    HW130857   5.034   4.293   0.727
 9986SOL    HW230858   4.906   4.385   0.771
 9987SOL     OW30859   5.347   3.177   1.700
 9987SOL    HW130860   5.424   3.195   1.640
 9987SOL    HW230861   5.372   3.106   1.767
 9988SOL     OW30862   6.578   5.339   4.109
 9988SOL    HW130863   6.618   5.323   4.200
 9988SOL    HW230864   6.651   5.364   4.045
 9989SOL     OW30865   5.737   3.300   2.018
 9989SOL    HW130866   5.727   3.220   1.959
 9989SOL    HW230867   5.825   3.294   2.066
 9990SOL     OW30868   0.276   6.619   3.214
 9990SOL    HW130869   0.234   6.708   3.231
 9990SOL    HW230870   0.241   6.582   3.128
 9991SOL     OW30871   1.419   3.826   3.626
 9991SOL    HW130872   1.441   3.870   3.539
 9991SOL    HW230873   1.410   3.896   3.697
 9992SOL     OW30874   3.371   4.020   1.070
 9992SOL    HW130875   3.347   4.080   0.993
 9992SOL    HW230876   3.433   3.948   1.038
 9993SOL     OW30877   3.413   6.212   3.692
 9993SOL    HW130878   3.498   6.181   3.649
 9993SOL    HW230879   3.376   6.289   3.641
 9994SOL     OW30880   0.078   3.973   3.219
 9994SOL    HW130881   0.174   3.954   3.239
 9994SOL    HW230882   0.071   4.030   3.137
 9995SOL     OW30883   3.178   1.299   3.645
 9995SOL    HW130884   3.188   1.379   3.704
 9995SOL    HW230885   3.205   1.217   3.694
 9996SOL     OW30886   2.902   4.146   0.516
 9996SOL    HW130887   2.847   4.073   0.476
 9996SOL    HW230888   2.983   4.107   0.559
 9997SOL     OW30889   5.363   1.912   3.622
 9997SOL    HW130890   5.424   1.968   3.566
 9997SOL    HW230891   5.271   1.951   3.620
 9998SOL     OW30892   5.278   3.847   2.477
 9998SOL    HW130893   5.317   3.824   2.388
 9998SOL    HW230894   5.184   3.879   2.466
 9999SOL     OW30895   0.747   0.180   4.224
 9999SOL    HW130896   0.825   0.216   4.275
 9999SOL    HW230897   0.706   0.105   4.275
10000SOL     OW30898   5.517   1.344   1.493
10000SOL    HW130899   5.542   1.440   1.484
10000SOL    HW230900   5.578   1.288   1.438
10001SOL     OW30901   3.583   6.397   2.440
10001SOL    HW130902   3.599   6.317   2.382
10001SOL    HW230903   3.486   6.421   2.439
10002SOL     OW30904   2.180   1.183   0.756
10002SOL    HW130905   2.218   1.130   0.832
10002SOL    HW230906   2.254   1.236   0.713
10003SOL     OW30907   2.838   1.721   2.230
10003SOL    HW130908   2.837   1.819   2.213
10003SOL    HW230909   2.933   1.690   2.238
10004SOL     OW30910   5.795   4.652   4.711
10004SOL    HW130911   5.716   4.667   4.770
10004SOL    HW230912   5.827   4.558   4.722
10005SOL     OW30913   3.257   5.418   3.330
10005SOL    HW130914   3.256   5.324   3.296
10005SOL    HW230915   3.191   5.473   3.279
10006SOL     OW30916   5.440   0.339   5.155
10006SOL    HW130917   5.375   0.329   5.230
10006SOL    HW230918   5.494   0.256   5.146
10007SOL     OW30919   0.538   3.575   4.580
10007SOL    HW130920   0.635   3.591   4.560
10007SOL    HW230921   0.527   3.483   4.619
10008SOL     OW30922   4.404   2.048   3.862
10008SOL    HW130923   4.458   2.082   3.939
10008SOL    HW230924   4.327   2.110   3.845
10009SOL     OW30925   1.671   3.841   1.591
10009SOL    HW130926   1.758   3.885   1.611
10009SOL    HW230927   1.687   3.756   1.541
10010SOL     OW30928   3.048   5.314   6.585
10010SOL    HW130929   3.139   5.343   6.615
10010SOL    HW230930   3.031   5.221   6.618
10011SOL     OW30931   0.548   4.656   7.000
10011SOL    HW130932   0.619   4.640   6.931
10011SOL    HW230933   0.577   4.728   0.040
10012SOL     OW30934   4.713   0.301   2.244
10012SOL    HW130935   4.737   0.206   2.224
10012SOL    HW230936   4.616   0.315   2.223
10013SOL     OW30937   0.914   4.788   4.582
10013SOL    HW130938   0.900   4.797   4.483
10013SOL    HW230939   1.005   4.750   4.599
10014SOL     OW30940   1.762   6.977   2.570
10014SOL    HW130941   1.710   6.893   2.553
10014SOL    HW230942   1.712   0.033   2.533
10015SOL     OW30943   3.813   4.891   0.130
10015SOL    HW130944   3.753   4.829   0.181
10015SOL    HW230945   3.896   4.842   0.104
10016SOL     OW30946   2.244   1.288   5.103
10016SOL    HW130947   2.303   1.247   5.034
10016SOL    HW230948   2.273   1.382   5.120
10017SOL     OW30949   2.356   1.794   2.686
10017SOL    HW130950   2.283   1.727   2.697
10017SOL    HW230951   2.439   1.748   2.654
10018SOL     OW30952   6.746   3.868   5.382
10018SOL    HW130953   6.662   3.813   5.386
10018SOL    HW230954   6.824   3.809   5.402
10019SOL     OW30955   0.226   1.281   3.250
10019SOL    HW130956   0.236   1.263   3.348
10019SOL    HW230957   0.135   1.252   3.220
10020SOL     OW30958   0.339   1.282   2.256
10020SOL    HW130959   0.264   1.217   2.271
10020SOL    HW230960   0.315   1.344   2.181
10021SOL     OW30961   1.126   3.085   1.948
10021SOL    HW130962   1.112   3.167   2.004
10021SOL    HW230963   1.069   3.091   1.866
10022SOL     OW30964   2.261   5.831   6.939
10022SOL    HW130965   2.245   5.893   7.016
10022SOL    HW230966   2.241   5.879   6.853
10023SOL     OW30967   2.803   6.134   5.632
10023SOL    HW130968   2.845   6.204   5.689
10023SOL    HW230969   2.853   6.126   5.546
10024SOL     OW30970   0.964   4.907   2.571
10024SOL    HW130971   1.016   4.873   2.649
10024SOL    HW230972   1.021   4.905   2.489
10025SOL     OW30973   1.556   2.920   2.467
10025SOL    HW130974   1.481   2.981   2.492
10025SOL    HW230975   1.596   2.950   2.380
10026SOL     OW30976   4.940   0.594   3.510
10026SOL    HW130977   4.880   0.602   3.590
10026SOL    HW230978   5.015   0.660   3.518
10027SOL     OW30979   0.936   2.838   4.887
10027SOL    HW130980   1.014   2.795   4.934
10027SOL    HW230981   0.962   2.860   4.793
10028SOL     OW30982   2.950   0.997   0.769
10028SOL    HW130983   2.909   1.015   0.679
10028SOL    HW230984   3.047   1.019   0.766
10029SOL     OW30985   0.794   3.568   3.724
10029SOL    HW130986   0.767   3.474   3.747
10029SOL    HW230987   0.713   3.627   3.723
10030SOL     OW30988   3.391   6.924   4.842
10030SOL    HW130989   3.319   6.962   4.784
10030SOL    HW230990   3.446   6.859   4.790
10031SOL     OW30991   4.369   4.976   4.761
10031SOL    HW130992   4.468   4.967   4.768
10031SOL    HW230993   4.327   4.885   4.761
10032SOL     OW30994   3.871   0.147   6.204
10032SOL    HW130995   3.928   0.139   6.286
10032SOL    HW230996   3.775   0.131   6.229
10033SOL     OW30997   4.164   1.743   4.736
10033SOL    HW130998   4.175   1.767   4.833
10033SOL    HW230999   4.066   1.737   4.714
10034SOL     OW31000   2.381   1.331   3.580
10034SOL    HW131001   2.283   1.314   3.580
10034SOL    HW231002   2.401   1.411   3.524
10035SOL     OW31003   5.661   4.092   1.059
10035SOL    HW131004   5.715   4.175   1.044
10035SOL    HW231005   5.564   4.115   1.056
10036SOL     OW31006   6.672   0.911   0.750
10036SOL    HW131007   6.628   0.835   0.798
10036SOL    HW231008   6.637   0.998   0.786
10037SOL     OW31009   6.237   6.556   6.410
10037SOL    HW131010   6.219   6.458   6.409
10037SOL    HW231011   6.302   6.578   6.483
10038SOL     OW31012   4.409   6.822   6.029
10038SOL    HW131013   4.476   6.760   5.988
10038SOL    HW231014   4.390   6.793   6.123
10039SOL     OW31015   5.699   6.629   5.247
10039SOL    HW131016   5.679   6.582   5.161
10039SOL    HW231017   5.738   6.565   5.313
10040SOL     OW31018   4.634   5.987   6.181
10040SOL    HW131019   4.557   6.050   6.186
10040SOL    HW231020   4.699   6.008   6.254
10041SOL     OW31021   5.600   5.248   5.988
10041SOL    HW131022   5.691   5.274   6.021
10041SOL    HW231023   5.531   5.282   6.051
10042SOL     OW31024   0.362   0.925   5.429
10042SOL    HW131025   0.322   0.890   5.514
10042SOL    HW231026   0.399   1.017   5.445
10043SOL     OW31027   0.652   0.764   3.717
10043SOL    HW131028   0.588   0.763   3.794
10043SOL    HW231029   0.600   0.768   3.631
10044SOL     OW31030   2.573   1.810   3.736
10044SOL    HW131031   2.640   1.807   3.810
10044SOL    HW231032   2.620   1.827   3.649
10045SOL     OW31033   5.203   0.125   3.887
10045SOL    HW131034   5.193   0.134   3.986
10045SOL    HW231035   5.287   0.169   3.857
10046SOL     OW31036   1.418   1.537   1.932
10046SOL    HW131037   1.400   1.602   1.858
10046SOL    HW231038   1.365   1.563   2.013
10047SOL     OW31039   6.013   3.068   4.817
10047SOL    HW131040   6.089   3.010   4.846
10047SOL    HW231041   5.935   3.054   4.879
10048SOL     OW31042   3.463   1.986   2.400
10048SOL    HW131043   3.412   2.063   2.439
10048SOL    HW231044   3.545   2.020   2.354
10049SOL     OW31045   0.623   0.859   6.612
10049SOL    HW131046   0.678   0.824   6.688
10049SOL    HW231047   0.561   0.787   6.580
10050SOL     OW31048   6.343   2.570   5.069
10050SOL    HW131049   6.325   2.508   5.146
10050SOL    HW231050   6.288   2.653   5.080
10051SOL     OW31051   6.394   2.482   4.824
10051SOL    HW131052   6.360   2.507   4.915
10051SOL    HW231053   6.476   2.536   4.804
10052SOL     OW31054   1.676   2.184   2.407
10052SOL    HW131055   1.673   2.122   2.486
10052SOL    HW231056   1.597   2.168   2.349
10053SOL     OW31057   3.395   5.150   1.997
10053SOL    HW131058   3.397   5.051   1.984
10053SOL    HW231059   3.475   5.178   2.050
10054SOL     OW31060   4.231   6.228   5.916
10054SOL    HW131061   4.279   6.219   5.829
10054SOL    HW231062   4.174   6.147   5.931
10055SOL     OW31063   5.811   2.394   5.378
10055SOL    HW131064   5.802   2.336   5.297
10055SOL    HW231065   5.750   2.472   5.371
10056SOL     OW31066   6.554   5.692   0.448
10056SOL    HW131067   6.551   5.644   0.536
10056SOL    HW231068   6.570   5.790   0.464
10057SOL     OW31069   3.725   1.088   4.274
10057SOL    HW131070   3.821   1.106   4.294
10057SOL    HW231071   3.674   1.174   4.277
10058SOL     OW31072   0.641   3.800   4.286
10058SOL    HW131073   0.733   3.800   4.325
10058SOL    HW231074   0.575   3.772   4.356
10059SOL     OW31075   5.583   6.449   0.527
10059SOL    HW131076   5.502   6.413   0.573
10059SOL    HW231077   5.558   6.533   0.479
10060SOL     OW31078   2.573   1.483   1.873
10060SOL    HW131079   2.557   1.510   1.778
10060SOL    HW231080   2.671   1.492   1.894
10061SOL     OW31081   5.211   1.401   4.480
10061SOL    HW131082   5.132   1.393   4.540
10061SOL    HW231083   5.183   1.438   4.392
10062SOL     OW31084   6.291   6.748   4.975
10062SOL    HW131085   6.368   6.775   5.033
10062SOL    HW231086   6.268   6.653   4.992
10063SOL     OW31087   1.513   2.054   3.320
10063SOL    HW131088   1.582   2.016   3.381
10063SOL    HW231089   1.528   2.019   3.227
10064SOL     OW31090   5.840   5.750   5.795
10064SOL    HW131091   5.865   5.673   5.853
10064SOL    HW231092   5.917   5.814   5.789
10065SOL     OW31093   2.147   0.840   1.785
10065SOL    HW131094   2.232   0.792   1.804
10065SOL    HW231095   2.139   0.920   1.845
10066SOL     OW31096   1.670   1.492   4.570
10066SOL    HW131097   1.727   1.412   4.584
10066SOL    HW231098   1.579   1.464   4.540
10067SOL     OW31099   5.449   3.944   5.639
10067SOL    HW131100   5.441   3.948   5.739
10067SOL    HW231101   5.542   3.917   5.615
10068SOL     OW31102   5.662   3.407   4.478
10068SOL    HW131103   5.707   3.472   4.418
10068SOL    HW231104   5.705   3.317   4.469
10069SOL     OW31105   1.873   5.561   3.727
10069SOL    HW131106   1.786   5.526   3.693
10069SOL    HW231107   1.888   5.653   3.693
10070SOL     OW31108   0.209   0.183   5.053
10070SOL    HW131109   0.170   0.188   5.144
10070SOL    HW231110   0.181   0.098   5.008
10071SOL     OW31111   5.310   5.707   3.681
10071SOL    HW131112   5.222   5.750   3.699
10071SOL    HW231113   5.347   5.741   3.594
10072SOL     OW31114   0.685   6.273   4.045
10072SOL    HW131115   0.757   6.204   4.054
10072SOL    HW231116   0.618   6.242   3.977
10073SOL     OW31117   6.184   4.039   4.499
10073SOL    HW131118   6.283   4.022   4.498
10073SOL    HW231119   6.154   4.049   4.594
10074SOL     OW31120   0.660   0.394   5.292
10074SOL    HW131121   0.732   0.326   5.306
10074SOL    HW231122   0.643   0.406   5.194
10075SOL     OW31123   1.378   2.634   2.667
10075SOL    HW131124   1.455   2.573   2.686
10075SOL    HW231125   1.385   2.715   2.725
10076SOL     OW31126   5.648   0.355   3.638
10076SOL    HW131127   5.582   0.322   3.705
10076SOL    HW231128   5.604   0.362   3.549
10077SOL     OW31129   3.298   2.186   6.539
10077SOL    HW131130   3.382   2.215   6.586
10077SOL    HW231131   3.322   2.124   6.464
10078SOL     OW31132   6.752   6.382   4.154
10078SOL    HW131133   6.781   6.293   4.120
10078SOL    HW231134   6.796   6.454   4.101
10079SOL     OW31135   1.108   3.468   1.798
10079SOL    HW131136   1.096   3.419   1.885
10079SOL    HW231137   1.077   3.409   1.723
10080SOL     OW31138   3.014   1.394   5.727
10080SOL    HW131139   3.059   1.457   5.791
10080SOL    HW231140   2.982   1.313   5.777
10081SOL     OW31141   0.259   0.542   0.201
10081SOL    HW131142   0.194   0.524   0.127
10081SOL    HW231143   0.295   0.635   0.193
10082SOL     OW31144   0.349   4.112   2.233
10082SOL    HW131145   0.381   4.174   2.161
10082SOL    HW231146   0.293   4.040   2.193
10083SOL     OW31147   5.298   0.830   2.552
10083SOL    HW131148   5.198   0.817   2.548
10083SOL    HW231149   5.335   0.827   2.460
10084SOL     OW31150   3.271   0.822   5.984
10084SOL    HW131151   3.281   0.726   5.960
10084SOL    HW231152   3.255   0.876   5.901
10085SOL     OW31153   0.460   6.017   2.305
10085SOL    HW131154   0.363   6.039   2.311
10085SOL    HW231155   0.513   6.083   2.359
10086SOL     OW31156   6.046   5.175   1.610
10086SOL    HW131157   6.134   5.224   1.611
10086SOL    HW231158   6.051   5.098   1.674
10087SOL     OW31159   0.398   0.200   4.046
10087SOL    HW131160   0.307   0.238   4.038
10087SOL    HW231161   0.400   0.134   4.121
10088SOL     OW31162   0.019   0.039   0.191
10088SOL    HW131163   6.942   0.027   0.192
10088SOL    HW231164   0.059   7.002   0.121
10089SOL     OW31165   2.421   2.585   2.880
10089SOL    HW131166   2.412   2.592   2.980
10089SOL    HW231167   2.336   2.549   2.842
10090SOL     OW31168   1.145   4.801   0.893
10090SOL    HW131169   1.220   4.748   0.855
10090SOL    HW231170   1.164   4.822   0.989
10091SOL     OW31171   1.472   3.430   5.603
10091SOL    HW131172   1.457   3.462   5.697
10091SOL    HW231173   1.499   3.334   5.605
10092SOL     OW31174   2.139   3.512   5.001
10092SOL    HW131175   2.103   3.605   5.000
10092SOL    HW231176   2.079   3.454   5.055
10093SOL     OW31177   0.631   4.591   5.046
10093SOL    HW131178   0.590   4.543   4.968
10093SOL    HW231179   0.661   4.682   5.017
10094SOL     OW31180   2.377   6.456   1.854
10094SOL    HW131181   2.436   6.513   1.911
10094SOL    HW231182   2.283   6.459   1.889
10095SOL     OW31183   6.376   2.142   5.709
10095SOL    HW131184   6.376   2.242   5.715
10095SOL    HW231185   6.385   2.114   5.614
10096SOL     OW31186   5.669   4.950   1.977
10096SOL    HW131187   5.661   5.005   2.060
10096SOL    HW231188   5.705   4.860   2.000
10097SOL     OW31189   1.080   1.150   0.077
10097SOL    HW131190   1.056   1.053   0.087
10097SOL    HW231191   1.080   1.194   0.166
10098SOL     OW31192   2.238   0.652   5.223
10098SOL    HW131193   2.337   0.642   5.232
10098SOL    HW231194   2.192   0.584   5.281
10099SOL     OW31195   0.072   4.978   0.462
10099SOL    HW131196   7.012   5.017   0.421
10099SOL    HW231197   0.120   4.923   0.394
10100SOL     OW31198   4.966   6.961   4.418
10100SOL    HW131199   4.979   0.008   4.347
10100SOL    HW231200   4.982   6.870   4.380
10101SOL     OW31201   5.587   4.399   1.773
10101SOL    HW131202   5.666   4.459   1.762
10101SOL    HW231203   5.618   4.306   1.792
10102SOL     OW31204   1.539   1.139   2.859
10102SOL    HW131205   1.572   1.212   2.919
10102SOL    HW231206   1.454   1.101   2.895
10103SOL     OW31207   2.366   1.446   5.582
10103SOL    HW131208   2.270   1.462   5.559
10103SOL    HW231209   2.422   1.515   5.536
10104SOL     OW31210   1.460   2.593   4.245
10104SOL    HW131211   1.557   2.571   4.242
10104SOL    HW231212   1.444   2.664   4.314
10105SOL     OW31213   1.000   0.892   0.162
10105SOL    HW131214   0.978   0.939   0.248
10105SOL    HW231215   1.016   0.795   0.180
10106SOL     OW31216   4.514   5.477   1.145
10106SOL    HW131217   4.606   5.512   1.127
10106SOL    HW231218   4.491   5.494   1.241
10107SOL     OW31219   0.431   2.102   6.739
10107SOL    HW131220   0.454   2.136   6.647
10107SOL    HW231221   0.462   2.168   6.807
10108SOL     OW31222   6.378   6.049   6.733
10108SOL    HW131223   6.327   6.131   6.709
10108SOL    HW231224   6.362   5.978   6.664
10109SOL     OW31225   3.600   6.689   1.410
10109SOL    HW131226   3.699   6.680   1.405
10109SOL    HW231227   3.561   6.682   1.318
10110SOL     OW31228   4.594   6.642   4.885
10110SOL    HW131229   4.531   6.715   4.913
10110SOL    HW231230   4.559   6.598   4.803
10111SOL     OW31231   5.728   3.002   4.124
10111SOL    HW131232   5.736   3.101   4.114
10111SOL    HW231233   5.678   2.965   4.045
10112SOL     OW31234   5.292   4.159   4.662
10112SOL    HW131235   5.389   4.180   4.666
10112SOL    HW231236   5.278   4.066   4.628
10113SOL     OW31237   4.177   0.487   5.410
10113SOL    HW131238   4.201   0.517   5.502
10113SOL    HW231239   4.251   0.513   5.347
10114SOL     OW31240   5.170   0.423   0.819
10114SOL    HW131241   5.191   0.347   0.880
10114SOL    HW231242   5.254   0.456   0.776
10115SOL     OW31243   3.158   2.175   3.359
10115SOL    HW131244   3.073   2.220   3.333
10115SOL    HW231245   3.159   2.082   3.322
10116SOL     OW31246   0.485   6.619   0.105
10116SOL    HW131247   0.466   6.566   0.023
10116SOL    HW231248   0.554   6.689   0.084
10117SOL     OW31249   6.900   6.351   5.013
10117SOL    HW131250   6.856   6.441   5.020
10117SOL    HW231251   6.920   6.317   5.105
10118SOL     OW31252   1.103   5.578   3.101
10118SOL    HW131253   1.158   5.531   3.170
10118SOL    HW231254   1.088   5.673   3.128
10119SOL     OW31255   0.720   6.724   4.537
10119SOL    HW131256   0.812   6.684   4.535
10119SOL    HW231257   0.659   6.669   4.480
10120SOL     OW31258   1.252   4.001   4.387
10120SOL    HW131259   1.222   4.027   4.295
10120SOL    HW231260   1.242   3.903   4.399
10121SOL     OW31261   6.465   4.403   6.450
10121SOL    HW131262   6.370   4.428   6.466
10121SOL    HW231263   6.525   4.472   6.490
10122SOL     OW31264   5.791   3.173   0.666
10122SOL    HW131265   5.851   3.098   0.638
10122SOL    HW231266   5.802   3.189   0.764
10123SOL     OW31267   6.747   6.655   0.341
10123SOL    HW131268   6.715   6.715   0.268
10123SOL    HW231269   6.844   6.635   0.326
10124SOL     OW31270   1.957   3.260   6.984
10124SOL    HW131271   2.048   3.230   6.957
10124SOL    HW231272   1.924   3.328   6.918
10125SOL     OW31273   1.742   0.416   2.675
10125SOL    HW131274   1.788   0.450   2.593
10125SOL    HW231275   1.742   0.486   2.745
10126SOL     OW31276   0.003   6.880   6.375
10126SOL    HW131277   7.008   6.971   6.412
10126SOL    HW231278   6.939   6.829   6.372
10127SOL     OW31279   2.213   4.663   5.836
10127SOL    HW131280   2.203   4.720   5.918
10127SOL    HW231281   2.309   4.640   5.823
10128SOL     OW31282   1.664   1.312   1.411
10128SOL    HW131283   1.657   1.216   1.437
10128SOL    HW231284   1.702   1.365   1.487
10129SOL     OW31285   5.143   3.214   4.014
10129SOL    HW131286   5.063   3.184   4.068
10129SOL    HW231287   5.115   3.231   3.920
10130SOL     OW31288   2.141   4.144   2.092
10130SOL    HW131289   2.104   4.149   2.185
10130SOL    HW231290   2.193   4.227   2.072
10131SOL     OW31291   0.336   0.587   3.380
10131SOL    HW131292   0.294   0.654   3.320
10131SOL    HW231293   0.431   0.573   3.353
10132SOL     OW31294   2.981   6.972   4.062
10132SOL    HW131295   3.059   6.925   4.021
10132SOL    HW231296   2.995   0.049   4.058
10133SOL     OW31297   4.766   6.153   1.510
10133SOL    HW131298   4.807   6.221   1.449
10133SOL    HW231299   4.741   6.196   1.596
10134SOL     OW31300   6.508   6.526   3.690
10134SOL    HW131301   6.467   6.579   3.765
10134SOL    HW231302   6.592   6.483   3.723
10135SOL     OW31303   4.810   3.077   3.445
10135SOL    HW131304   4.905   3.105   3.439
10135SOL    HW231305   4.781   3.037   3.358
10136SOL     OW31306   5.646   0.740   2.940
10136SOL    HW131307   5.728   0.684   2.930
10136SOL    HW231308   5.619   0.775   2.850
10137SOL     OW31309   5.908   4.252   3.953
10137SOL    HW131310   5.876   4.171   3.903
10137SOL    HW231311   5.884   4.242   4.050
10138SOL     OW31312   5.311   1.955   0.785
10138SOL    HW131313   5.307   1.983   0.689
10138SOL    HW231314   5.352   1.864   0.791
10139SOL     OW31315   3.720   3.932   3.218
10139SOL    HW131316   3.746   4.001   3.150
10139SOL    HW231317   3.621   3.930   3.227
10140SOL     OW31318   6.543   6.337   6.189
10140SOL    HW131319   6.505   6.259   6.139
10140SOL    HW231320   6.640   6.321   6.208
10141SOL     OW31321   3.404   1.850   4.534
10141SOL    HW131322   3.359   1.777   4.586
10141SOL    HW231323   3.437   1.812   4.447
10142SOL     OW31324   6.237   6.656   4.573
10142SOL    HW131325   6.279   6.735   4.617
10142SOL    HW231326   6.178   6.608   4.638
10143SOL     OW31327   4.334   0.906   0.187
10143SOL    HW131328   4.422   0.927   0.143
10143SOL    HW231329   4.346   0.907   0.286
10144SOL     OW31330   3.592   6.711   6.192
10144SOL    HW131331   3.583   6.695   6.290
10144SOL    HW231332   3.662   6.652   6.154
10145SOL     OW31333   3.025   5.407   5.509
10145SOL    HW131334   2.928   5.422   5.489
10145SOL    HW231335   3.056   5.324   5.461
10146SOL     OW31336   4.244   5.075   4.257
10146SOL    HW131337   4.222   5.024   4.174
10146SOL    HW231338   4.163   5.125   4.287
10147SOL     OW31339   5.772   4.240   5.055
10147SOL    HW131340   5.769   4.148   5.017
10147SOL    HW231341   5.679   4.277   5.060
10148SOL     OW31342   5.142   5.001   6.977
10148SOL    HW131343   5.054   5.029   6.939
10148SOL    HW231344   5.133   4.991   0.054
10149SOL     OW31345   5.507   2.248   1.144
10149SOL    HW131346   5.578   2.297   1.192
10149SOL    HW231347   5.507   2.275   1.047
10150SOL     OW31348   4.051   3.437   0.497
10150SOL    HW131349   4.095   3.364   0.548
10150SOL    HW231350   3.983   3.482   0.554
10151SOL     OW31351   1.113   6.926   0.302
10151SOL    HW131352   1.120   6.857   0.230
10151SOL    HW231353   1.205   6.956   0.328
10152SOL     OW31354   1.018   6.551   4.681
10152SOL    HW131355   0.939   6.557   4.743
10152SOL    HW231356   1.010   6.468   4.626
10153SOL     OW31357   4.811   6.301   3.751
10153SOL    HW131358   4.742   6.237   3.718
10153SOL    HW231359   4.785   6.394   3.725
10154SOL     OW31360   5.498   6.934   4.924
10154SOL    HW131361   5.576   6.885   4.964
10154SOL    HW231362   5.527   6.978   4.840
10155SOL     OW31363   3.720   2.244   5.683
10155SOL    HW131364   3.753   2.318   5.741
10155SOL    HW231365   3.788   2.222   5.614
10156SOL     OW31366   6.290   1.277   2.353
10156SOL    HW131367   6.291   1.322   2.442
10156SOL    HW231368   6.214   1.313   2.298
10157SOL     OW31369   5.898   2.112   6.519
10157SOL    HW131370   5.933   2.204   6.504
10157SOL    HW231371   5.849   2.109   6.607
10158SOL     OW31372   5.869   3.497   1.056
10158SOL    HW131373   5.916   3.512   1.143
10158SOL    HW231374   5.897   3.567   0.990
10159SOL     OW31375   2.668   2.975   6.231
10159SOL    HW131376   2.723   2.895   6.253
10159SOL    HW231377   2.705   3.021   6.150
10160SOL     OW31378   2.122   2.951   2.098
10160SOL    HW131379   2.162   2.971   2.009
10160SOL    HW231380   2.039   2.897   2.086
10161SOL     OW31381   3.075   2.860   6.536
10161SOL    HW131382   3.117   2.853   6.446
10161SOL    HW231383   3.073   2.770   6.580
10162SOL     OW31384   3.608   4.495   0.561
10162SOL    HW131385   3.644   4.466   0.650
10162SOL    HW231386   3.669   4.463   0.488
10163SOL     OW31387   5.940   4.855   6.049
10163SOL    HW131388   5.976   4.784   5.988
10163SOL    HW231389   5.905   4.931   5.995
10164SOL     OW31390   5.810   3.318   4.899
10164SOL    HW131391   5.727   3.370   4.882
10164SOL    HW231392   5.878   3.339   4.829
10165SOL     OW31393   0.400   2.063   3.355
10165SOL    HW131394   0.442   2.145   3.317
10165SOL    HW231395   0.340   2.021   3.287
10166SOL     OW31396   3.252   1.727   1.799
10166SOL    HW131397   3.302   1.802   1.758
10166SOL    HW231398   3.317   1.660   1.836
10167SOL     OW31399   2.770   3.073   0.074
10167SOL    HW131400   2.715   2.999   0.113
10167SOL    HW231401   2.726   3.161   0.095
10168SOL     OW31402   6.100   3.832   5.870
10168SOL    HW131403   6.163   3.906   5.895
10168SOL    HW231404   6.076   3.841   5.774
10169SOL     OW31405   6.393   4.422   3.755
10169SOL    HW131406   6.335   4.367   3.816
10169SOL    HW231407   6.479   4.374   3.739
10170SOL     OW31408   1.235   5.276   5.888
10170SOL    HW131409   1.277   5.330   5.960
10170SOL    HW231410   1.204   5.189   5.926
10171SOL     OW31411   6.701   3.136   5.704
10171SOL    HW131412   6.672   3.213   5.760
10171SOL    HW231413   6.801   3.135   5.698
10172SOL     OW31414   6.684   6.618   4.413
10172SOL    HW131415   6.771   6.663   4.436
10172SOL    HW231416   6.615   6.643   4.481
10173SOL     OW31417   0.964   2.478   1.069
10173SOL    HW131418   1.013   2.565   1.063
10173SOL    HW231419   0.888   2.479   1.004
10174SOL     OW31420   5.614   5.216   2.258
10174SOL    HW131421   5.627   5.118   2.275
10174SOL    HW231422   5.702   5.259   2.241
10175SOL     OW31423   5.493   2.198   4.117
10175SOL    HW131424   5.410   2.151   4.149
10175SOL    HW231425   5.574   2.144   4.143
10176SOL     OW31426   1.058   3.365   5.750
10176SOL    HW131427   1.138   3.419   5.775
10176SOL    HW231428   0.985   3.425   5.719
10177SOL     OW31429   2.430   0.602   0.127
10177SOL    HW131430   2.488   0.615   0.207
10177SOL    HW231431   2.354   0.668   0.130
10178SOL     OW31432   6.959   0.723   5.654
10178SOL    HW131433   6.872   0.755   5.616
10178SOL    HW231434   6.970   0.626   5.633
10179SOL     OW31435   1.070   1.672   6.437
10179SOL    HW131436   1.019   1.747   6.394
10179SOL    HW231437   1.005   1.601   6.466
10180SOL     OW31438   4.064   0.294   6.415
10180SOL    HW131439   4.135   0.335   6.472
10180SOL    HW231440   3.974   0.327   6.445
10181SOL     OW31441   5.578   2.658   1.909
10181SOL    HW131442   5.652   2.700   1.856
10181SOL    HW231443   5.605   2.651   2.005
10182SOL     OW31444   3.911   0.989   1.217
10182SOL    HW131445   3.867   1.039   1.292
10182SOL    HW231446   3.936   0.897   1.247
10183SOL     OW31447   6.959   2.317   6.792
10183SOL    HW131448   6.965   2.363   6.703
10183SOL    HW231449   7.013   2.232   6.789
10184SOL     OW31450   3.771   0.866   6.447
10184SOL    HW131451   3.735   0.940   6.504
10184SOL    HW231452   3.866   0.847   6.473
10185SOL     OW31453   5.814   5.931   1.936
10185SOL    HW131454   5.817   6.031   1.930
10185SOL    HW231455   5.859   5.901   2.020
10186SOL     OW31456   6.193   4.255   3.562
10186SOL    HW131457   6.273   4.204   3.532
10186SOL    HW231458   6.165   4.320   3.491
10187SOL     OW31459   0.365   3.322   0.671
10187SOL    HW131460   0.398   3.409   0.637
10187SOL    HW231461   0.399   3.248   0.614
10188SOL     OW31462   3.668   5.611   0.656
10188SOL    HW131463   3.737   5.673   0.694
10188SOL    HW231464   3.652   5.634   0.560
10189SOL     OW31465   0.799   0.802   6.394
10189SOL    HW131466   0.754   0.817   6.481
10189SOL    HW231467   0.877   0.740   6.407
10190SOL     OW31468   4.897   3.155   1.865
10190SOL    HW131469   4.847   3.089   1.922
10190SOL    HW231470   4.864   3.150   1.771
10191SOL     OW31471   5.524   5.262   5.097
10191SOL    HW131472   5.534   5.343   5.154
10191SOL    HW231473   5.479   5.286   5.011
10192SOL     OW31474   4.473   1.020   5.741
10192SOL    HW131475   4.453   1.033   5.839
10192SOL    HW231476   4.565   0.983   5.730
10193SOL     OW31477   4.123   3.434   2.047
10193SOL    HW131478   4.109   3.361   2.115
10193SOL    HW231479   4.194   3.496   2.081
10194SOL     OW31480   5.567   5.445   5.321
10194SOL    HW131481   5.617   5.529   5.300
10194SOL    HW231482   5.541   5.445   5.418
10195SOL     OW31483   6.271   5.553   0.823
10195SOL    HW131484   6.230   5.581   0.736
10195SOL    HW231485   6.314   5.632   0.867
10196SOL     OW31486   4.658   1.752   4.069
10196SOL    HW131487   4.573   1.719   4.028
10196SOL    HW231488   4.699   1.822   4.011
10197SOL     OW31489   6.129   1.886   5.716
10197SOL    HW131490   6.084   1.915   5.801
10197SOL    HW231491   6.143   1.966   5.657
10198SOL     OW31492   2.606   6.763   2.618
10198SOL    HW131493   2.566   6.673   2.638
10198SOL    HW231494   2.706   6.756   2.622
10199SOL     OW31495   2.466   2.306   0.039
10199SOL    HW131496   2.545   2.256   0.003
10199SOL    HW231497   2.495   2.360   0.118
10200SOL     OW31498   5.003   1.894   0.320
10200SOL    HW131499   5.068   1.818   0.328
10200SOL    HW231500   4.910   1.858   0.318
10201SOL     OW31501   1.765   4.304   0.942
10201SOL    HW131502   1.864   4.306   0.934
10201SOL    HW231503   1.724   4.322   0.853
10202SOL     OW31504   3.581   3.534   0.506
10202SOL    HW131505   3.647   3.460   0.520
10202SOL    HW231506   3.532   3.519   0.419
10203SOL     OW31507   6.105   3.155   3.420
10203SOL    HW131508   6.113   3.196   3.329
10203SOL    HW231509   6.102   3.227   3.489
10204SOL     OW31510   4.970   6.137   0.126
10204SOL    HW131511   4.887   6.191   0.113
10204SOL    HW231512   4.947   6.053   0.176
10205SOL     OW31513   1.854   0.888   1.569
10205SOL    HW131514   1.895   0.838   1.646
10205SOL    HW231515   1.925   0.913   1.503
10206SOL     OW31516   0.185   0.862   0.414
10206SOL    HW131517   0.278   0.826   0.412
10206SOL    HW231518   0.170   0.909   0.501
10207SOL     OW31519   1.325   1.805   6.707
10207SOL    HW131520   1.363   1.896   6.691
10207SOL    HW231521   1.393   1.749   6.754
10208SOL     OW31522   5.686   4.049   3.816
10208SOL    HW131523   5.607   4.006   3.861
10208SOL    HW231524   5.653   4.116   3.750
10209SOL     OW31525   0.168   0.054   6.893
10209SOL    HW131526   0.250   0.002   6.914
10209SOL    HW231527   0.156   0.126   6.962
10210SOL     OW31528   4.640   6.316   2.094
10210SOL    HW131529   4.559   6.297   2.148
10210SOL    HW231530   4.677   6.231   2.057
10211SOL     OW31531   4.085   6.526   4.550
10211SOL    HW131532   4.149   6.470   4.498
10211SOL    HW231533   4.053   6.475   4.630
10212SOL     OW31534   0.877   0.177   5.354
10212SOL    HW131535   0.967   0.135   5.367
10212SOL    HW231536   0.812   0.137   5.418
10213SOL     OW31537   5.407   3.108   0.875
10213SOL    HW131538   5.393   3.182   0.940
10213SOL    HW231539   5.409   3.021   0.924
10214SOL     OW31540   1.630   1.592   2.231
10214SOL    HW131541   1.545   1.557   2.271
10214SOL    HW231542   1.662   1.529   2.160
10215SOL     OW31543   4.114   3.253   3.588
10215SOL    HW131544   4.073   3.233   3.499
10215SOL    HW231545   4.193   3.194   3.601
10216SOL     OW31546   0.271   1.327   1.023
10216SOL    HW131547   0.264   1.363   1.116
10216SOL    HW231548   0.227   1.237   1.019
10217SOL     OW31549   3.332   1.981   3.190
10217SOL    HW131550   3.396   2.041   3.238
10217SOL    HW231551   3.351   1.983   3.092
10218SOL     OW31552   1.691   1.467   1.645
10218SOL    HW131553   1.674   1.379   1.688
10218SOL    HW231554   1.621   1.533   1.673
10219SOL     OW31555   7.003   2.392   2.716
10219SOL    HW131556   6.918   2.431   2.750
10219SOL    HW231557   6.997   2.381   2.616
10220SOL     OW31558   4.532   2.048   0.891
10220SOL    HW131559   4.628   2.077   0.896
10220SOL    HW231560   4.519   1.969   0.951
10221SOL     OW31561   0.709   4.981   2.616
10221SOL    HW131562   0.803   4.952   2.597
10221SOL    HW231563   0.706   5.081   2.624
10222SOL     OW31564   2.869   3.466   5.975
10222SOL    HW131565   2.790   3.459   5.914
10222SOL    HW231566   2.916   3.378   5.980
10223SOL     OW31567   0.613   4.838   1.464
10223SOL    HW131568   0.698   4.788   1.480
10223SOL    HW231569   0.623   4.932   1.495
10224SOL     OW31570   6.762   3.665   4.156
10224SOL    HW131571   6.781   3.666   4.058
10224SOL    HW231572   6.716   3.750   4.182
10225SOL     OW31573   1.493   4.880   5.723
10225SOL    HW131574   1.590   4.868   5.745
10225SOL    HW231575   1.439   4.868   5.806
10226SOL     OW31576   2.805   0.367   6.670
10226SOL    HW131577   2.901   0.389   6.686
10226SOL    HW231578   2.796   0.322   6.581
10227SOL     OW31579   5.206   4.601   0.607
10227SOL    HW131580   5.172   4.641   0.693
10227SOL    HW231581   5.234   4.507   0.623
10228SOL     OW31582   0.363   6.960   1.731
10228SOL    HW131583   0.448   6.996   1.770
10228SOL    HW231584   0.286   6.988   1.787
10229SOL     OW31585   0.910   2.951   4.616
10229SOL    HW131586   0.857   2.873   4.583
10229SOL    HW231587   0.853   3.034   4.614
10230SOL     OW31588   5.668   5.739   2.926
10230SOL    HW131589   5.574   5.726   2.955
10230SOL    HW231590   5.676   5.721   2.828
10231SOL     OW31591   0.201   5.657   5.217
10231SOL    HW131592   0.108   5.621   5.228
10231SOL    HW231593   0.253   5.598   5.155
10232SOL     OW31594   2.675   1.287   3.672
10232SOL    HW131595   2.729   1.308   3.754
10232SOL    HW231596   2.581   1.317   3.685
10233SOL     OW31597   3.865   4.040   4.880
10233SOL    HW131598   3.882   4.017   4.784
10233SOL    HW231599   3.817   4.127   4.885
10234SOL     OW31600   6.301   1.335   1.309
10234SOL    HW131601   6.219   1.359   1.361
10234SOL    HW231602   6.381   1.376   1.353
10235SOL     OW31603   1.758   2.814   2.131
10235SOL    HW131604   1.734   2.893   2.187
10235SOL    HW231605   1.676   2.782   2.082
10236SOL     OW31606   2.675   6.952   0.286
10236SOL    HW131607   2.764   6.998   0.287
10236SOL    HW231608   2.639   6.947   0.379
10237SOL     OW31609   0.106   3.089   0.053
10237SOL    HW131610   0.145   3.001   0.077
10237SOL    HW231611   0.020   3.102   0.104
10238SOL     OW31612   4.089   4.215   1.524
10238SOL    HW131613   4.142   4.149   1.577
10238SOL    HW231614   4.054   4.172   1.441
10239SOL     OW31615   1.124   2.908   4.438
10239SOL    HW131616   1.083   2.824   4.402
10239SOL    HW231617   1.061   2.951   4.503
10240SOL     OW31618   1.956   5.602   2.320
10240SOL    HW131619   2.020   5.675   2.296
10240SOL    HW231620   1.961   5.529   2.252
10241SOL     OW31621   5.458   0.807   2.322
10241SOL    HW131622   5.453   0.707   2.317
10241SOL    HW231623   5.553   0.835   2.333
10242SOL     OW31624   6.570   1.471   1.035
10242SOL    HW131625   6.616   1.459   1.123
10242SOL    HW231626   6.632   1.512   0.969
10243SOL     OW31627   2.360   4.404   1.794
10243SOL    HW131628   2.445   4.456   1.784
10243SOL    HW231629   2.378   4.307   1.777
10244SOL     OW31630   2.318   3.983   0.722
10244SOL    HW131631   2.365   4.063   0.758
10244SOL    HW231632   2.373   3.941   0.650
10245SOL     OW31633   3.540   3.640   1.198
10245SOL    HW131634   3.458   3.683   1.160
10245SOL    HW231635   3.519   3.545   1.224
10246SOL     OW31636   3.442   4.148   4.042
10246SOL    HW131637   3.373   4.076   4.035
10246SOL    HW231638   3.458   4.170   4.139
10247SOL     OW31639   6.988   4.250   6.432
10247SOL    HW131640   0.035   4.190   6.390
10247SOL    HW231641   6.917   4.194   6.474
10248SOL     OW31642   1.160   6.878   2.857
10248SOL    HW131643   1.192   6.962   2.813
10248SOL    HW231644   1.108   6.902   2.939
10249SOL     OW31645   3.359   5.970   6.868
10249SOL    HW131646   3.385   6.059   6.832
10249SOL    HW231647   3.266   5.974   6.903
10250SOL     OW31648   6.558   3.299   1.301
10250SOL    HW131649   6.638   3.335   1.254
10250SOL    HW231650   6.475   3.333   1.257
10251SOL     OW31651   2.231   1.598   4.344
10251SOL    HW131652   2.228   1.498   4.341
10251SOL    HW231653   2.195   1.635   4.258
10252SOL     OW31654   3.954   3.614   6.068
10252SOL    HW131655   4.026   3.624   6.137
10252SOL    HW231656   3.991   3.566   5.988
10253SOL     OW31657   2.758   6.362   0.487
10253SOL    HW131658   2.694   6.420   0.436
10253SOL    HW231659   2.850   6.374   0.451
10254SOL     OW31660   4.685   1.744   5.138
10254SOL    HW131661   4.626   1.711   5.211
10254SOL    HW231662   4.636   1.741   5.051
10255SOL     OW31663   2.510   6.923   0.792
10255SOL    HW131664   2.452   7.001   0.817
10255SOL    HW231665   2.483   6.843   0.845
10256SOL     OW31666   3.910   1.553   2.492
10256SOL    HW131667   3.996   1.593   2.460
10256SOL    HW231668   3.896   1.464   2.449
10257SOL     OW31669   1.641   5.674   3.953
10257SOL    HW131670   1.594   5.741   3.896
10257SOL    HW231671   1.604   5.583   3.937
10258SOL     OW31672   3.800   2.136   2.809
10258SOL    HW131673   3.816   2.141   2.711
10258SOL    HW231674   3.879   2.175   2.857
10259SOL     OW31675   0.723   4.215   3.548
10259SOL    HW131676   0.756   4.129   3.508
10259SOL    HW231677   0.729   4.210   3.648
10260SOL     OW31678   0.491   1.667   3.064
10260SOL    HW131679   0.441   1.581   3.076
10260SOL    HW231680   0.514   1.704   3.154
10261SOL     OW31681   6.800   5.155   0.745
10261SOL    HW131682   6.703   5.173   0.728
10261SOL    HW231683   6.813   5.058   0.767
10262SOL     OW31684   3.197   6.356   6.527
10262SOL    HW131685   3.128   6.327   6.460
10262SOL    HW231686   3.251   6.277   6.557
10263SOL     OW31687   5.699   7.022   0.634
10263SOL    HW131688   5.623   7.011   0.570
10263SOL    HW231689   5.667   7.002   0.727
10264SOL     OW31690   6.717   5.941   6.547
10264SOL    HW131691   6.726   5.844   6.523
10264SOL    HW231692   6.783   5.964   6.619
10265SOL     OW31693   3.756   2.482   0.069
10265SOL    HW131694   3.722   2.461   7.000
10265SOL    HW231695   3.714   2.567   0.102
10266SOL     OW31696   3.701   2.896   3.561
10266SOL    HW131697   3.731   2.811   3.516
10266SOL    HW231698   3.780   2.955   3.577
10267SOL     OW31699   5.265   1.289   0.673
10267SOL    HW131700   5.246   1.191   0.668
10267SOL    HW231701   5.329   1.307   0.747
10268SOL     OW31702   6.056   6.419   2.248
10268SOL    HW131703   6.133   6.481   2.268
10268SOL    HW231704   5.992   6.465   2.186
10269SOL     OW31705   0.555   3.252   5.631
10269SOL    HW131706   0.617   3.182   5.665
10269SOL    HW231707   0.507   3.294   5.709
10270SOL     OW31708   3.174   5.097   2.390
10270SOL    HW131709   3.237   5.137   2.456
10270SOL    HW231710   3.148   5.005   2.421
10271SOL     OW31711   3.920   2.204   0.474
10271SOL    HW131712   3.927   2.178   0.378
10271SOL    HW231713   3.895   2.300   0.481
10272SOL     OW31714   0.921   0.745   5.052
10272SOL    HW131715   1.011   0.781   5.074
10272SOL    HW231716   0.907   0.746   4.953
10273SOL     OW31717   3.465   5.481   3.509
10273SOL    HW131718   3.377   5.454   3.470
10273SOL    HW231719   3.539   5.443   3.455
10274SOL     OW31720   1.032   5.073   5.795
10274SOL    HW131721   1.088   5.006   5.747
10274SOL    HW231722   1.009   5.148   5.733
10275SOL     OW31723   0.221   0.836   2.261
10275SOL    HW131724   0.222   0.776   2.181
10275SOL    HW231725   0.314   0.843   2.299
10276SOL     OW31726   5.030   6.104   5.425
10276SOL    HW131727   4.942   6.057   5.435
10276SOL    HW231728   5.099   6.058   5.481
10277SOL     OW31729   1.678   6.308   4.953
10277SOL    HW131730   1.636   6.245   4.887
10277SOL    HW231731   1.715   6.387   4.905
10278SOL     OW31732   1.220   1.520   3.462
10278SOL    HW131733   1.289   1.492   3.529
10278SOL    HW231734   1.255   1.595   3.407
10279SOL     OW31735   1.668   5.121   4.434
10279SOL    HW131736   1.580   5.076   4.421
10279SOL    HW231737   1.734   5.055   4.470
10280SOL     OW31738   6.301   2.841   6.205
10280SOL    HW131739   6.277   2.878   6.295
10280SOL    HW231740   6.399   2.850   6.190
10281SOL     OW31741   6.039   1.768   4.124
10281SOL    HW131742   6.075   1.856   4.092
10281SOL    HW231743   6.027   1.771   4.223
10282SOL     OW31744   5.324   3.464   3.902
10282SOL    HW131745   5.315   3.399   3.827
10282SOL    HW231746   5.358   3.417   3.983
10283SOL     OW31747   1.597   3.349   1.078
10283SOL    HW131748   1.506   3.322   1.109
10283SOL    HW231749   1.601   3.344   0.978
10284SOL     OW31750   5.485   1.852   5.179
10284SOL    HW131751   5.407   1.804   5.138
10284SOL    HW231752   5.516   1.801   5.260
10285SOL     OW31753   4.718   6.365   3.117
10285SOL    HW131754   4.713   6.321   3.207
10285SOL    HW231755   4.740   6.462   3.129
10286SOL     OW31756   4.105   0.542   3.964
10286SOL    HW131757   4.070   0.635   3.947
10286SOL    HW231758   4.061   0.478   3.902
10287SOL     OW31759   2.782   5.586   1.806
10287SOL    HW131760   2.854   5.655   1.816
10287SOL    HW231761   2.693   5.628   1.820
10288SOL     OW31762   4.457   6.294   3.250
10288SOL    HW131763   4.377   6.241   3.220
10288SOL    HW231764   4.527   6.290   3.179
10289SOL     OW31765   3.049   6.437   0.474
10289SOL    HW131766   3.108   6.429   0.555
10289SOL    HW231767   3.099   6.481   0.400
10290SOL     OW31768   3.040   3.372   2.703
10290SOL    HW131769   3.000   3.333   2.786
10290SOL    HW231770   2.996   3.459   2.682
10291SOL     OW31771   3.899   1.845   2.837
10291SOL    HW131772   3.868   1.934   2.802
10291SOL    HW231773   3.977   1.859   2.897
10292SOL     OW31774   0.675   2.259   5.236
10292SOL    HW131775   0.672   2.177   5.293
10292SOL    HW231776   0.707   2.235   5.145
10293SOL     OW31777   0.913   2.882   2.479
10293SOL    HW131778   0.938   2.835   2.394
10293SOL    HW231779   0.933   2.822   2.557
10294SOL     OW31780   4.398   1.493   3.337
10294SOL    HW131781   4.330   1.462   3.270
10294SOL    HW231782   4.366   1.473   3.429
10295SOL     OW31783   0.799   2.757   5.652
10295SOL    HW131784   0.711   2.720   5.621
10295SOL    HW231785   0.841   2.810   5.578
10296SOL     OW31786   5.513   1.106   6.146
10296SOL    HW131787   5.547   1.019   6.110
10296SOL    HW231788   5.521   1.176   6.075
10297SOL     OW31789   1.859   1.108   6.117
10297SOL    HW131790   1.928   1.064   6.174
10297SOL    HW231791   1.808   1.175   6.172
10298SOL     OW31792   2.776   4.459   0.959
10298SOL    HW131793   2.830   4.380   0.990
10298SOL    HW231794   2.822   4.543   0.988
10299SOL     OW31795   3.811   4.852   2.814
10299SOL    HW131796   3.745   4.907   2.763
10299SOL    HW231797   3.828   4.766   2.765
10300SOL     OW31798   1.190   4.318   1.786
10300SOL    HW131799   1.143   4.314   1.698
10300SOL    HW231800   1.285   4.348   1.772
10301SOL     OW31801   4.439   2.079   5.279
10301SOL    HW131802   4.350   2.043   5.308
10301SOL    HW231803   4.453   2.169   5.320
10302SOL     OW31804   2.490   6.316   4.650
10302SOL    HW131805   2.479   6.333   4.552
10302SOL    HW231806   2.530   6.397   4.693
10303SOL     OW31807   1.312   6.070   3.804
10303SOL    HW131808   1.346   6.080   3.710
10303SOL    HW231809   1.316   6.158   3.851
10304SOL     OW31810   5.987   0.434   1.517
10304SOL    HW131811   6.027   0.390   1.436
10304SOL    HW231812   6.056   0.490   1.562
10305SOL     OW31813   1.828   3.822   5.814
10305SOL    HW131814   1.848   3.854   5.721
10305SOL    HW231815   1.826   3.900   5.876
10306SOL     OW31816   5.342   5.706   0.231
10306SOL    HW131817   5.261   5.718   0.174
10306SOL    HW231818   5.368   5.793   0.271
10307SOL     OW31819   3.275   1.766   5.405
10307SOL    HW131820   3.322   1.702   5.345
10307SOL    HW231821   3.179   1.774   5.377
10308SOL     OW31822   2.145   3.895   2.788
10308SOL    HW131823   2.143   3.943   2.701
10308SOL    HW231824   2.191   3.952   2.857
10309SOL     OW31825   0.412   1.907   0.286
10309SOL    HW131826   0.375   1.994   0.252
10309SOL    HW231827   0.510   1.915   0.300
10310SOL     OW31828   3.101   3.965   0.584
10310SOL    HW131829   3.107   3.899   0.660
10310SOL    HW231830   3.156   3.931   0.507
10311SOL     OW31831   6.819   5.606   0.653
10311SOL    HW131832   6.843   5.521   0.606
10311SOL    HW231833   6.722   5.606   0.675
10312SOL     OW31834   3.982   6.555   2.536
10312SOL    HW131835   4.045   6.616   2.488
10312SOL    HW231836   3.971   6.586   2.631
10313SOL     OW31837   4.028   5.684   2.160
10313SOL    HW131838   4.052   5.733   2.244
10313SOL    HW231839   3.955   5.733   2.112
10314SOL     OW31840   6.548   0.667   0.856
10314SOL    HW131841   6.529   0.628   0.946
10314SOL    HW231842   6.595   0.600   0.799
10315SOL     OW31843   5.796   6.047   4.680
10315SOL    HW131844   5.743   6.131   4.690
10315SOL    HW231845   5.842   6.026   4.766
10316SOL     OW31846   6.346   2.395   5.764
10316SOL    HW131847   6.334   2.387   5.863
10316SOL    HW231848   6.370   2.489   5.740
10317SOL     OW31849   4.166   5.847   6.450
10317SOL    HW131850   4.266   5.841   6.453
10317SOL    HW231851   4.127   5.755   6.449
10318SOL     OW31852   4.750   0.364   6.729
10318SOL    HW131853   4.669   0.322   6.689
10318SOL    HW231854   4.722   0.430   6.799
10319SOL     OW31855   0.558   3.537   5.509
10319SOL    HW131856   0.586   3.453   5.556
10319SOL    HW231857   0.476   3.519   5.454
10320SOL     OW31858   0.990   6.689   2.405
10320SOL    HW131859   0.909   6.634   2.427
10320SOL    HW231860   1.032   6.722   2.489
10321SOL     OW31861   5.074   2.073   1.977
10321SOL    HW131862   5.100   1.992   1.925
10321SOL    HW231863   4.975   2.087   1.971
10322SOL     OW31864   5.179   5.483   4.833
10322SOL    HW131865   5.194   5.571   4.789
10322SOL    HW231866   5.198   5.490   4.931
10323SOL     OW31867   6.091   4.458   5.621
10323SOL    HW131868   6.183   4.436   5.652
10323SOL    HW231869   6.064   4.394   5.549
10324SOL     OW31870   3.298   2.968   2.263
10324SOL    HW131871   3.222   2.976   2.199
10324SOL    HW231872   3.263   2.952   2.355
10325SOL     OW31873   6.272   4.424   1.955
10325SOL    HW131874   6.263   4.332   1.992
10325SOL    HW231875   6.191   4.446   1.901
10326SOL     OW31876   4.455   4.653   6.435
10326SOL    HW131877   4.455   4.574   6.375
10326SOL    HW231878   4.410   4.629   6.521
10327SOL     OW31879   2.526   2.363   0.715
10327SOL    HW131880   2.459   2.290   0.731
10327SOL    HW231881   2.564   2.353   0.623
10328SOL     OW31882   6.590   2.617   0.524
10328SOL    HW131883   6.625   2.680   0.594
10328SOL    HW231884   6.632   2.527   0.535
10329SOL     OW31885   2.764   1.076   3.505
10329SOL    HW131886   2.737   1.004   3.569
10329SOL    HW231887   2.737   1.165   3.542
10330SOL     OW31888   4.007   1.119   2.219
10330SOL    HW131889   4.096   1.128   2.175
10330SOL    HW231890   4.011   1.046   2.287
10331SOL     OW31891   6.769   6.804   6.317
10331SOL    HW131892   6.692   6.747   6.291
10331SOL    HW231893   6.747   6.900   6.300
10332SOL     OW31894   0.092   0.550   0.885
10332SOL    HW131895   0.039   0.620   0.838
10332SOL    HW231896   0.032   0.499   0.947
10333SOL     OW31897   0.405   4.585   5.418
10333SOL    HW131898   0.432   4.490   5.407
10333SOL    HW231899   0.406   4.631   5.329
10334SOL     OW31900   3.208   0.568   4.990
10334SOL    HW131901   3.166   0.659   4.990
10334SOL    HW231902   3.307   0.577   4.996
10335SOL     OW31903   2.768   4.119   6.543
10335SOL    HW131904   2.675   4.155   6.553
10335SOL    HW231905   2.787   4.054   6.617
10336SOL     OW31906   6.658   0.134   1.791
10336SOL    HW131907   6.661   0.095   1.883
10336SOL    HW231908   6.751   0.142   1.755
10337SOL     OW31909   0.115   5.924   6.240
10337SOL    HW131910   0.138   5.915   6.337
10337SOL    HW231911   0.179   5.987   6.196
10338SOL     OW31912   2.247   6.598   2.292
10338SOL    HW131913   2.232   6.665   2.365
10338SOL    HW231914   2.216   6.635   2.205
10339SOL     OW31915   4.488   4.003   6.664
10339SOL    HW131916   4.407   4.040   6.618
10339SOL    HW231917   4.561   3.992   6.597
10340SOL     OW31918   1.291   3.578   0.795
10340SOL    HW131919   1.383   3.572   0.756
10340SOL    HW231920   1.280   3.667   0.841
10341SOL     OW31921   1.994   3.067   2.347
10341SOL    HW131922   2.044   3.060   2.260
10341SOL    HW231923   2.057   3.050   2.423
10342SOL     OW31924   1.568   0.064   4.324
10342SOL    HW131925   1.528   0.011   4.398
10342SOL    HW231926   1.513   0.053   4.241
10343SOL     OW31927   3.292   5.382   6.685
10343SOL    HW131928   3.361   5.429   6.630
10343SOL    HW231929   3.335   5.305   6.733
10344SOL     OW31930   4.162   3.230   0.645
10344SOL    HW131931   4.194   3.257   0.736
10344SOL    HW231932   4.176   3.132   0.633
10345SOL     OW31933   1.709   1.462   5.997
10345SOL    HW131934   1.641   1.437   5.928
10345SOL    HW231935   1.687   1.552   6.035
10346SOL     OW31936   0.537   5.394   1.344
10346SOL    HW131937   0.502   5.488   1.345
10346SOL    HW231938   0.475   5.335   1.396
10347SOL     OW31939   3.923   1.642   3.220
10347SOL    HW131940   4.022   1.646   3.215
10347SOL    HW231941   3.896   1.595   3.304
10348SOL     OW31942   6.614   2.133   0.003
10348SOL    HW131943   6.560   2.170   6.950
10348SOL    HW231944   6.701   2.182   0.009
10349SOL     OW31945   1.189   0.677   6.945
10349SOL    HW131946   1.133   0.628   7.012
10349SOL    HW231947   1.255   0.614   6.905
10350SOL     OW31948   2.545   5.999   4.924
10350SOL    HW131949   2.499   6.074   4.973
10350SOL    HW231950   2.639   6.028   4.901
10351SOL     OW31951   4.286   4.858   6.392
10351SOL    HW131952   4.349   4.785   6.417
10351SOL    HW231953   4.200   4.818   6.361
10352SOL     OW31954   3.441   1.406   6.186
10352SOL    HW131955   3.400   1.321   6.152
10352SOL    HW231956   3.374   1.480   6.177
10353SOL     OW31957   6.949   3.243   5.633
10353SOL    HW131958   0.000   3.212   5.572
10353SOL    HW231959   6.871   3.274   5.578
10354SOL     OW31960   5.522   2.733   2.669
10354SOL    HW131961   5.558   2.821   2.701
10354SOL    HW231962   5.581   2.698   2.596
10355SOL     OW31963   2.631   6.654   2.019
10355SOL    HW131964   2.702   6.710   2.061
10355SOL    HW231965   2.621   6.569   2.072
10356SOL     OW31966   0.751   4.830   4.927
10356SOL    HW131967   0.836   4.788   4.959
10356SOL    HW231968   0.733   4.803   4.833
10357SOL     OW31969   1.572   2.815   6.514
10357SOL    HW131970   1.505   2.747   6.484
10357SOL    HW231971   1.576   2.889   6.448
10358SOL     OW31972   6.721   3.214   3.178
10358SOL    HW131973   6.699   3.260   3.092
10358SOL    HW231974   6.801   3.156   3.165
10359SOL     OW31975   0.748   2.085   0.849
10359SOL    HW131976   0.796   2.013   0.800
10359SOL    HW231977   0.666   2.047   0.892
10360SOL     OW31978   4.578   4.335   3.369
10360SOL    HW131979   4.670   4.329   3.409
10360SOL    HW231980   4.515   4.278   3.422
10361SOL     OW31981   2.854   6.254   3.611
10361SOL    HW131982   2.755   6.261   3.596
10361SOL    HW231983   2.900   6.242   3.522
10362SOL     OW31984   0.551   5.080   4.637
10362SOL    HW131985   0.526   4.984   4.625
10362SOL    HW231986   0.646   5.086   4.667
10363SOL     OW31987   4.529   1.276   1.656
10363SOL    HW131988   4.509   1.368   1.623
10363SOL    HW231989   4.627   1.258   1.650
10364SOL     OW31990   3.303   2.885   1.216
10364SOL    HW131991   3.364   2.845   1.285
10364SOL    HW231992   3.323   2.982   1.206
10365SOL     OW31993   4.068   4.719   6.305
10365SOL    HW131994   4.006   4.762   6.240
10365SOL    HW231995   4.016   4.691   6.387
10366SOL     OW31996   2.795   0.614   4.237
10366SOL    HW131997   2.842   0.698   4.265
10366SOL    HW231998   2.697   0.632   4.229
10367SOL     OW31999   6.401   2.397   2.748
10367SOL    HW132000   6.421   2.490   2.779
10367SOL    HW232001   6.303   2.389   2.731
10368SOL     OW32002   1.863   1.947   1.789
10368SOL    HW132003   1.811   1.960   1.705
10368SOL    HW232004   1.804   1.967   1.868
10369SOL     OW32005   4.191   0.552   5.667
10369SOL    HW132006   4.111   0.608   5.684
10369SOL    HW232007   4.269   0.589   5.718
10370SOL     OW32008   5.166   1.633   5.475
10370SOL    HW132009   5.223   1.678   5.407
10370SOL    HW232010   5.217   1.621   5.560
10371SOL     OW32011   3.150   5.589   4.936
10371SOL    HW132012   3.132   5.506   4.990
10371SOL    HW232013   3.168   5.665   4.998
10372SOL     OW32014   1.497   1.342   5.880
10372SOL    HW132015   1.466   1.331   5.785
10372SOL    HW232016   1.552   1.262   5.906
10373SOL     OW32017   2.272   6.385   5.004
10373SOL    HW132018   2.234   6.356   4.916
10373SOL    HW232019   2.260   6.313   5.071
10374SOL     OW32020   3.777   1.429   2.733
10374SOL    HW132021   3.776   1.476   2.645
10374SOL    HW232022   3.790   1.496   2.806
10375SOL     OW32023   4.194   2.149   6.574
10375SOL    HW132024   4.200   2.050   6.570
10375SOL    HW232025   4.277   2.190   6.537
10376SOL     OW32026   0.926   6.365   3.790
10376SOL    HW132027   0.897   6.438   3.852
10376SOL    HW232028   0.847   6.309   3.765
10377SOL     OW32029   6.703   0.716   3.922
10377SOL    HW132030   6.781   0.743   3.978
10377SOL    HW232031   6.618   0.733   3.973
10378SOL     OW32032   6.901   1.042   5.971
10378SOL    HW132033   6.916   1.018   5.874
10378SOL    HW232034   6.969   0.994   6.027
10379SOL     OW32035   4.021   0.461   5.093
10379SOL    HW132036   3.998   0.557   5.077
10379SOL    HW232037   3.979   0.430   5.178
10380SOL     OW32038   6.353   1.472   3.053
10380SOL    HW132039   6.397   1.399   3.001
10380SOL    HW232040   6.260   1.485   3.020
10381SOL     OW32041   4.858   5.397   6.161
10381SOL    HW132042   4.897   5.476   6.207
10381SOL    HW232043   4.874   5.315   6.217
10382SOL     OW32044   2.517   4.902   5.954
10382SOL    HW132045   2.430   4.864   5.986
10382SOL    HW232046   2.572   4.930   6.032
10383SOL     OW32047   0.971   3.312   0.796
10383SOL    HW132048   0.877   3.338   0.775
10383SOL    HW232049   0.994   3.228   0.746
10384SOL     OW32050   0.812   0.107   0.533
10384SOL    HW132051   0.842   0.147   0.620
10384SOL    HW232052   0.873   0.031   0.509
10385SOL     OW32053   5.046   0.105   6.437
10385SOL    HW132054   5.070   0.186   6.490
10385SOL    HW232055   4.991   0.132   6.358
10386SOL     OW32056   0.520   3.645   4.859
10386SOL    HW132057   0.572   3.568   4.895
10386SOL    HW232058   0.550   3.665   4.766
10387SOL     OW32059   3.897   1.866   2.559
10387SOL    HW132060   3.860   1.791   2.615
10387SOL    HW232061   3.968   1.914   2.611
10388SOL     OW32062   0.822   5.624   3.622
10388SOL    HW132063   0.734   5.628   3.577
10388SOL    HW232064   0.871   5.541   3.594
10389SOL     OW32065   0.587   5.800   2.400
10389SOL    HW132066   0.562   5.884   2.352
10389SOL    HW232067   0.603   5.820   2.496
10390SOL     OW32068   1.484   3.604   2.206
10390SOL    HW132069   1.572   3.610   2.252
10390SOL    HW232070   1.498   3.598   2.108
10391SOL     OW32071   1.352   5.778   5.787
10391SOL    HW132072   1.303   5.691   5.788
10391SOL    HW232073   1.421   5.776   5.714
10392SOL     OW32074   6.565   4.000   0.478
10392SOL    HW132075   6.473   3.963   0.468
10392SOL    HW232076   6.615   3.947   0.546
10393SOL     OW32077   0.963   1.878   2.985
10393SOL    HW132078   0.952   1.840   2.893
10393SOL    HW232079   0.873   1.884   3.029
10394SOL     OW32080   2.870   6.786   6.130
10394SOL    HW132081   2.882   6.882   6.106
10394SOL    HW232082   2.882   6.774   6.228
10395SOL     OW32083   6.618   0.897   4.811
10395SOL    HW132084   6.545   0.959   4.839
10395SOL    HW232085   6.596   0.859   4.721
10396SOL     OW32086   1.267   0.882   3.430
10396SOL    HW132087   1.354   0.904   3.475
10396SOL    HW232088   1.197   0.864   3.499
10397SOL     OW32089   3.856   1.505   3.804
10397SOL    HW132090   3.818   1.524   3.714
10397SOL    HW232091   3.898   1.414   3.805
10398SOL     OW32092   6.364   2.257   0.154
10398SOL    HW132093   6.454   2.226   0.125
10398SOL    HW232094   6.311   2.286   0.074
10399SOL     OW32095   4.542   1.627   5.341
10399SOL    HW132096   4.591   1.540   5.336
10399SOL    HW232097   4.541   1.659   5.436
10400SOL     OW32098   3.495   5.857   2.171
10400SOL    HW132099   3.511   5.762   2.145
10400SOL    HW232100   3.462   5.908   2.091
10401SOL     OW32101   6.624   6.695   2.032
10401SOL    HW132102   6.571   6.624   1.985
10401SOL    HW232103   6.663   6.757   1.964
10402SOL     OW32104   0.358   2.661   5.729
10402SOL    HW132105   0.285   2.701   5.784
10402SOL    HW232106   0.406   2.591   5.783
10403SOL     OW32107   5.288   1.272   2.454
10403SOL    HW132108   5.241   1.229   2.377
10403SOL    HW232109   5.364   1.213   2.483
10404SOL     OW32110   0.877   6.743   3.575
10404SOL    HW132111   0.788   6.698   3.582
10404SOL    HW232112   0.912   6.734   3.482
10405SOL     OW32113   1.731   5.352   5.100
10405SOL    HW132114   1.726   5.352   5.000
10405SOL    HW232115   1.640   5.343   5.138
10406SOL     OW32116   1.595   4.420   5.026
10406SOL    HW132117   1.504   4.404   5.063
10406SOL    HW232118   1.600   4.385   4.932
10407SOL     OW32119   1.349   0.801   5.963
10407SOL    HW132120   1.442   0.767   5.953
10407SOL    HW232121   1.320   0.845   5.878
10408SOL     OW32122   4.451   5.994   2.847
10408SOL    HW132123   4.452   6.090   2.819
10408SOL    HW232124   4.486   5.937   2.773
10409SOL     OW32125   6.908   4.639   1.400
10409SOL    HW132126   7.005   4.624   1.384
10409SOL    HW232127   6.854   4.579   1.340
10410SOL     OW32128   4.866   0.674   1.394
10410SOL    HW132129   4.838   0.635   1.306
10410SOL    HW232130   4.842   0.611   1.467
10411SOL     OW32131   2.214   4.687   4.106
10411SOL    HW132132   2.275   4.766   4.114
10411SOL    HW232133   2.221   4.630   4.188
10412SOL     OW32134   0.601   1.429   0.007
10412SOL    HW132135   0.660   1.470   6.960
10412SOL    HW232136   0.655   1.370   0.067
10413SOL     OW32137   1.129   2.483   0.742
10413SOL    HW132138   1.186   2.530   0.810
10413SOL    HW232139   1.095   2.550   0.676
10414SOL     OW32140   5.132   6.282   6.547
10414SOL    HW132141   5.084   6.310   6.630
10414SOL    HW232142   5.076   6.303   6.467
10415SOL     OW32143   1.269   5.542   3.731
10415SOL    HW132144   1.264   5.466   3.797
10415SOL    HW232145   1.272   5.505   3.638
10416SOL     OW32146   6.137   1.617   5.830
10416SOL    HW132147   6.152   1.572   5.919
10416SOL    HW232148   6.138   1.716   5.843
10417SOL     OW32149   4.195   4.711   3.345
10417SOL    HW132150   4.248   4.650   3.405
10417SOL    HW232151   4.235   4.709   3.253
10418SOL     OW32152   6.798   4.255   5.993
10418SOL    HW132153   6.844   4.306   6.066
10418SOL    HW232154   6.711   4.220   6.028
10419SOL     OW32155   3.496   1.357   5.122
10419SOL    HW132156   3.496   1.280   5.058
10419SOL    HW232157   3.560   1.338   5.197
10420SOL     OW32158   6.952   3.348   2.924
10420SOL    HW132159   6.908   3.438   2.929
10420SOL    HW232160   7.004   3.333   3.008
10421SOL     OW32161   1.263   4.447   3.941
10421SOL    HW132162   1.189   4.480   3.882
10421SOL    HW232163   1.229   4.372   3.999
10422SOL     OW32164   6.738   4.358   5.198
10422SOL    HW132165   6.645   4.345   5.232
10422SOL    HW232166   6.791   4.274   5.214
10423SOL     OW32167   3.728   4.912   4.499
10423SOL    HW132168   3.753   4.855   4.577
10423SOL    HW232169   3.629   4.912   4.488
10424SOL     OW32170   4.097   1.164   0.075
10424SOL    HW132171   4.125   1.260   0.064
10424SOL    HW232172   4.132   1.129   0.162
10425SOL     OW32173   1.092   6.630   1.395
10425SOL    HW132174   1.081   6.722   1.357
10425SOL    HW232175   1.187   6.617   1.423
10426SOL     OW32176   4.963   3.063   5.468
10426SOL    HW132177   4.911   3.119   5.404
10426SOL    HW232178   5.058   3.094   5.471
10427SOL     OW32179   4.944   5.664   4.980
10427SOL    HW132180   4.919   5.568   4.969
10427SOL    HW232181   4.895   5.703   5.058
10428SOL     OW32182   1.286   1.816   3.586
10428SOL    HW132183   1.267   1.914   3.582
10428SOL    HW232184   1.321   1.785   3.498
10429SOL     OW32185   1.070   3.580   2.352
10429SOL    HW132186   1.067   3.609   2.447
10429SOL    HW232187   0.992   3.520   2.333
10430SOL     OW32188   3.742   6.021   4.293
10430SOL    HW132189   3.667   6.038   4.357
10430SOL    HW232190   3.766   5.924   4.296
10431SOL     OW32191   2.542   1.882   4.426
10431SOL    HW132192   2.497   1.823   4.492
10431SOL    HW232193   2.591   1.825   4.359
10432SOL     OW32194   0.150   6.957   4.904
10432SOL    HW132195   0.208   6.911   4.971
10432SOL    HW232196   0.067   6.904   4.889
10433SOL     OW32197   2.030   0.394   1.756
10433SOL    HW132198   1.948   0.448   1.739
10433SOL    HW232199   2.105   0.430   1.700
10434SOL     OW32200   5.019   0.119   5.742
10434SOL    HW132201   4.935   0.091   5.698
10434SOL    HW232202   5.081   0.041   5.750
10435SOL     OW32203   0.860   2.190   6.407
10435SOL    HW132204   0.891   2.134   6.484
10435SOL    HW232205   0.817   2.274   6.441
10436SOL     OW32206   0.275   4.045   5.488
10436SOL    HW132207   0.349   4.041   5.421
10436SOL    HW232208   0.266   3.956   5.533
10437SOL     OW32209   4.593   5.403   5.078
10437SOL    HW132210   4.568   5.413   4.982
10437SOL    HW232211   4.526   5.450   5.136
10438SOL     OW32212   0.126   6.346   6.164
10438SOL    HW132213   0.058   6.369   6.095
10438SOL    HW232214   0.111   6.401   6.246
10439SOL     OW32215   6.495   0.769   4.571
10439SOL    HW132216   6.474   0.840   4.503
10439SOL    HW232217   6.541   0.693   4.526
10440SOL     OW32218   6.915   1.247   6.880
10440SOL    HW132219   6.998   1.302   6.870
10440SOL    HW232220   6.835   1.308   6.885
10441SOL     OW32221   3.484   1.519   1.601
10441SOL    HW132222   3.488   1.613   1.567
10441SOL    HW232223   3.397   1.477   1.572
10442SOL     OW32224   2.986   0.927   5.222
10442SOL    HW132225   2.937   0.953   5.306
10442SOL    HW232226   3.082   0.909   5.244
10443SOL     OW32227   0.415   1.979   2.914
10443SOL    HW132228   0.389   2.046   2.845
10443SOL    HW232229   0.332   1.935   2.951
10444SOL     OW32230   3.457   4.906   3.611
10444SOL    HW132231   3.419   4.993   3.579
10444SOL    HW232232   3.546   4.891   3.569
10445SOL     OW32233   0.361   3.983   1.929
10445SOL    HW132234   0.324   3.891   1.943
10445SOL    HW232235   0.445   3.993   1.982
10446SOL     OW32236   1.587   4.034   5.317
10446SOL    HW132237   1.675   4.069   5.284
10446SOL    HW232238   1.595   3.937   5.337
10447SOL     OW32239   6.255   1.984   3.152
10447SOL    HW132240   6.289   2.029   3.070
10447SOL    HW232241   6.331   1.941   3.200
10448SOL     OW32242   2.772   0.706   3.709
10448SOL    HW132243   2.781   0.733   3.613
10448SOL    HW232244   2.681   0.731   3.742
10449SOL     OW32245   3.552   5.553   6.873
10449SOL    HW132246   3.593   5.607   6.946
10449SOL    HW232247   3.608   5.473   6.855
10450SOL     OW32248   6.107   0.065   6.266
10450SOL    HW132249   6.114   0.142   6.329
10450SOL    HW232250   6.199   0.036   6.239
10451SOL     OW32251   1.860   0.604   4.081
10451SOL    HW132252   1.915   0.571   4.004
10451SOL    HW232253   1.919   0.652   4.146
10452SOL     OW32254   6.471   2.649   2.897
10452SOL    HW132255   6.419   2.613   2.974
10452SOL    HW232256   6.480   2.748   2.906
10453SOL     OW32257   4.289   6.454   2.543
10453SOL    HW132258   4.294   6.535   2.602
10453SOL    HW232259   4.234   6.383   2.589
10454SOL     OW32260   6.680   1.416   6.928
10454SOL    HW132261   6.623   1.405   6.847
10454SOL    HW232262   6.694   1.513   6.947
10455SOL     OW32263   6.195   6.746   4.136
10455SOL    HW132264   6.219   6.707   4.047
10455SOL    HW232265   6.187   6.673   4.204
10456SOL     OW32266   6.941   5.635   0.227
10456SOL    HW132267   6.872   5.573   0.190
10456SOL    HW232268   6.906   5.729   0.224
10457SOL     OW32269   4.458   3.434   0.006
10457SOL    HW132270   4.368   3.392   0.005
10457SOL    HW232271   4.449   3.533   0.018
10458SOL     OW32272   6.864   0.230   5.756
10458SOL    HW132273   6.888   0.134   5.774
10458SOL    HW232274   6.775   0.250   5.796
10459SOL     OW32275   0.005   5.331   0.926
10459SOL    HW132276   0.096   5.300   0.899
10459SOL    HW232277   6.972   5.252   0.953
10460SOL     OW32278   6.671   4.420   1.461
10460SOL    HW132279   6.677   4.417   1.361
10460SOL    HW232280   6.647   4.330   1.497
10461SOL     OW32281   6.268   4.629   5.381
10461SOL    HW132282   6.319   4.572   5.444
10461SOL    HW232283   6.328   4.698   5.341
10462SOL     OW32284   5.070   1.918   1.585
10462SOL    HW132285   5.079   1.872   1.673
10462SOL    HW232286   5.087   2.016   1.597
10463SOL     OW32287   4.917   1.931   6.083
10463SOL    HW132288   4.862   2.013   6.101
10463SOL    HW232289   4.858   1.850   6.086
10464SOL     OW32290   5.472   4.998   2.516
10464SOL    HW132291   5.534   4.987   2.593
10464SOL    HW232292   5.524   4.996   2.430
10465SOL     OW32293   5.501   4.172   2.873
10465SOL    HW132294   5.472   4.130   2.788
10465SOL    HW232295   5.421   4.186   2.932
10466SOL     OW32296   5.243   4.173   6.065
10466SOL    HW132297   5.228   4.265   6.028
10466SOL    HW232298   5.264   4.179   6.162
10467SOL     OW32299   1.870   2.585   6.677
10467SOL    HW132300   1.878   2.546   6.585
10467SOL    HW232301   1.828   2.676   6.671
10468SOL     OW32302   3.093   4.880   3.592
10468SOL    HW132303   3.022   4.811   3.603
10468SOL    HW232304   3.149   4.859   3.512
10469SOL     OW32305   5.270   2.763   5.828
10469SOL    HW132306   5.262   2.756   5.729
10469SOL    HW232307   5.305   2.854   5.852
10470SOL     OW32308   2.242   1.662   3.626
10470SOL    HW132309   2.271   1.746   3.672
10470SOL    HW232310   2.293   1.652   3.540
10471SOL     OW32311   2.563   1.116   6.648
10471SOL    HW132312   2.493   1.147   6.584
10471SOL    HW232313   2.627   1.191   6.667
10472SOL     OW32314   2.928   5.149   1.117
10472SOL    HW132315   2.908   5.242   1.147
10472SOL    HW232316   2.894   5.084   1.185
10473SOL     OW32317   5.413   5.736   6.510
10473SOL    HW132318   5.407   5.829   6.547
10473SOL    HW232319   5.429   5.741   6.411
10474SOL     OW32320   5.368   0.778   4.340
10474SOL    HW132321   5.334   0.688   4.368
10474SOL    HW232322   5.291   0.836   4.314
10475SOL     OW32323   2.597   6.232   1.924
10475SOL    HW132324   2.609   6.316   1.871
10475SOL    HW232325   2.677   6.218   1.982
10476SOL     OW32326   4.775   6.224   6.087
10476SOL    HW132327   4.798   6.126   6.089
10476SOL    HW232328   4.682   6.236   6.054
10477SOL     OW32329   0.185   6.117   3.986
10477SOL    HW132330   0.179   6.163   3.898
10477SOL    HW232331   0.114   6.152   4.047
10478SOL     OW32332   6.343   6.926   0.076
10478SOL    HW132333   6.317   7.005   0.020
10478SOL    HW232334   6.275   6.912   0.148
10479SOL     OW32335   6.684   2.872   2.062
10479SOL    HW132336   6.612   2.858   2.131
10479SOL    HW232337   6.767   2.823   2.091
10480SOL     OW32338   1.764   0.680   2.463
10480SOL    HW132339   1.860   0.706   2.464
10480SOL    HW232340   1.738   0.652   2.370
10481SOL     OW32341   0.773   6.634   3.227
10481SOL    HW132342   0.761   6.729   3.253
10481SOL    HW232343   0.858   6.623   3.176
10482SOL     OW32344   6.176   4.594   4.707
10482SOL    HW132345   6.220   4.683   4.694
10482SOL    HW232346   6.155   4.581   4.804
10483SOL     OW32347   5.767   5.344   0.550
10483SOL    HW132348   5.830   5.276   0.512
10483SOL    HW232349   5.673   5.320   0.527
10484SOL     OW32350   5.111   1.019   0.902
10484SOL    HW132351   5.022   0.993   0.941
10484SOL    HW232352   5.160   1.077   0.966
10485SOL     OW32353   3.714   4.224   6.409
10485SOL    HW132354   3.749   4.249   6.319
10485SOL    HW232355   3.756   4.138   6.438
10486SOL     OW32356   6.710   2.363   0.622
10486SOL    HW132357   6.649   2.293   0.585
10486SOL    HW232358   6.805   2.339   0.604
10487SOL     OW32359   5.017   6.517   2.005
10487SOL    HW132360   5.009   6.617   2.000
10487SOL    HW232361   4.926   6.477   2.011
10488SOL     OW32362   2.489   3.325   6.424
10488SOL    HW132363   2.508   3.414   6.384
10488SOL    HW232364   2.407   3.330   6.481
10489SOL     OW32365   0.424   6.795   5.833
10489SOL    HW132366   0.362   6.863   5.793
10489SOL    HW232367   0.399   6.779   5.929
10490SOL     OW32368   5.993   1.590   2.443
10490SOL    HW132369   6.075   1.597   2.386
10490SOL    HW232370   6.017   1.555   2.533
10491SOL     OW32371   1.754   3.231   6.405
10491SOL    HW132372   1.825   3.279   6.456
10491SOL    HW232373   1.741   3.274   6.316
10492SOL     OW32374   5.191   3.962   5.567
10492SOL    HW132375   5.288   3.958   5.589
10492SOL    HW232376   5.160   4.058   5.569
10493SOL     OW32377   3.296   0.414   1.593
10493SOL    HW132378   3.231   0.467   1.648
10493SOL    HW232379   3.261   0.403   1.501
10494SOL     OW32380   5.443   2.787   5.541
10494SOL    HW132381   5.366   2.842   5.571
10494SOL    HW232382   5.509   2.844   5.493
10495SOL     OW32383   2.015   0.005   0.907
10495SOL    HW132384   1.972   6.991   0.990
10495SOL    HW232385   1.980   0.098   0.890
10496SOL     OW32386   0.288   6.781   0.855
10496SOL    HW132387   0.384   6.757   0.846
10496SOL    HW232388   0.237   6.701   0.887
10497SOL     OW32389   1.881   6.799   1.404
10497SOL    HW132390   1.830   6.884   1.414
10497SOL    HW232391   1.886   6.775   1.307
10498SOL     OW32392   2.609   6.815   1.416
10498SOL    HW132393   2.523   6.786   1.459
10498SOL    HW232394   2.671   6.848   1.487
10499SOL     OW32395   2.778   6.554   2.427
10499SOL    HW132396   2.807   6.485   2.361
10499SOL    HW232397   2.707   6.515   2.486
10500SOL     OW32398   0.462   1.183   5.467
10500SOL    HW132399   0.545   1.233   5.492
10500SOL    HW232400   0.427   1.220   5.381
10501SOL     OW32401   1.757   5.794   3.388
10501SOL    HW132402   1.804   5.804   3.476
10501SOL    HW232403   1.766   5.878   3.336
10502SOL     OW32404   3.158   6.951   1.173
10502SOL    HW132405   3.257   6.947   1.158
10502SOL    HW232406   3.112   6.977   1.088
10503SOL     OW32407   4.327   2.637   0.607
10503SOL    HW132408   4.354   2.709   0.670
10503SOL    HW232409   4.312   2.552   0.657
10504SOL     OW32410   1.949   2.789   0.621
10504SOL    HW132411   1.942   2.690   0.612
10504SOL    HW232412   1.864   2.825   0.660
10505SOL     OW32413   6.166   5.729   0.297
10505SOL    HW132414   6.141   5.707   0.391
10505SOL    HW232415   6.113   5.673   0.234
10506SOL     OW32416   0.677   4.996   6.633
10506SOL    HW132417   0.611   5.000   6.558
10506SOL    HW232418   0.639   5.041   6.714
10507SOL     OW32419   2.071   6.276   0.084
10507SOL    HW132420   2.075   6.350   0.016
10507SOL    HW232421   2.004   6.208   0.054
10508SOL     OW32422   5.931   6.165   4.410
10508SOL    HW132423   5.886   6.122   4.331
10508SOL    HW232424   5.904   6.117   4.493
10509SOL     OW32425   0.879   6.852   6.029
10509SOL    HW132426   0.837   6.800   6.103
10509SOL    HW232427   0.809   6.906   5.982
10510SOL     OW32428   5.801   5.010   5.871
10510SOL    HW132429   5.812   5.022   5.772
10510SOL    HW232430   5.738   4.934   5.888
10511SOL     OW32431   4.831   2.589   1.087
10511SOL    HW132432   4.859   2.660   1.023
10511SOL    HW232433   4.838   2.624   1.180
10512SOL     OW32434   3.837   0.827   6.184
10512SOL    HW132435   3.810   0.851   6.277
10512SOL    HW232436   3.931   0.859   6.168
10513SOL     OW32437   0.163   2.747   5.893
10513SOL    HW132438   0.197   2.684   5.963
10513SOL    HW232439   0.162   2.840   5.930
10514SOL     OW32440   0.036   3.698   0.313
10514SOL    HW132441   6.993   3.718   0.240
10514SOL    HW232442   0.091   3.618   0.288
10515SOL     OW32443   5.516   3.150   3.128
10515SOL    HW132444   5.606   3.158   3.171
10515SOL    HW232445   5.508   3.061   3.084
10516SOL     OW32446   4.933   1.193   6.794
10516SOL    HW132447   4.969   1.131   6.724
10516SOL    HW232448   4.936   1.149   6.883
10517SOL     OW32449   0.903   2.170   2.398
10517SOL    HW132450   0.987   2.157   2.344
10517SOL    HW232451   0.924   2.220   2.482
10518SOL     OW32452   1.281   4.837   0.215
10518SOL    HW132453   1.258   4.915   0.273
10518SOL    HW232454   1.231   4.757   0.246
10519SOL     OW32455   3.047   2.420   6.284
10519SOL    HW132456   3.136   2.437   6.326
10519SOL    HW232457   2.975   2.434   6.351
10520SOL     OW32458   2.245   2.649   6.556
10520SOL    HW132459   2.156   2.660   6.512
10520SOL    HW232460   2.262   2.726   6.618
10521SOL     OW32461   6.368   5.707   1.506
10521SOL    HW132462   6.407   5.704   1.598
10521SOL    HW232463   6.435   5.746   1.442
10522SOL     OW32464   6.096   0.398   0.657
10522SOL    HW132465   6.147   0.461   0.598
10522SOL    HW232466   6.004   0.386   0.620
10523SOL     OW32467   7.020   6.297   4.600
10523SOL    HW132468   0.072   6.363   4.614
10523SOL    HW232469   7.014   6.238   4.680
10524SOL     OW32470   1.612   1.785   4.878
10524SOL    HW132471   1.705   1.748   4.876
10524SOL    HW232472   1.614   1.881   4.850
10525SOL     OW32473   3.106   6.693   5.569
10525SOL    HW132474   3.128   6.615   5.511
10525SOL    HW232475   3.070   6.768   5.514
10526SOL     OW32476   0.361   0.727   2.889
10526SOL    HW132477   0.286   0.691   2.833
10526SOL    HW232478   0.416   0.651   2.923
10527SOL     OW32479   0.884   2.585   3.898
10527SOL    HW132480   0.823   2.570   3.975
10527SOL    HW232481   0.852   2.534   3.819
10528SOL     OW32482   1.082   4.130   5.395
10528SOL    HW132483   0.987   4.136   5.363
10528SOL    HW232484   1.137   4.085   5.325
10529SOL     OW32485   1.431   6.113   3.093
10529SOL    HW132486   1.491   6.041   3.060
10529SOL    HW232487   1.430   6.112   3.193
10530SOL     OW32488   1.646   1.115   5.939
10530SOL    HW132489   1.572   1.059   5.976
10530SOL    HW232490   1.732   1.091   5.985
10531SOL     OW32491   1.143   3.655   4.581
10531SOL    HW132492   1.139   3.576   4.642
10531SOL    HW232493   1.208   3.722   4.619
10532SOL     OW32494   2.303   3.124   0.732
10532SOL    HW132495   2.228   3.059   0.746
10532SOL    HW232496   2.284   3.207   0.784
10533SOL     OW32497   3.176   1.659   4.193
10533SOL    HW132498   3.086   1.685   4.227
10533SOL    HW232499   3.232   1.741   4.182
10534SOL     OW32500   0.057   5.741   0.817
10534SOL    HW132501   0.001   5.683   0.876
10534SOL    HW232502   0.119   5.683   0.763
10535SOL     OW32503   0.385   2.887   2.297
10535SOL    HW132504   0.338   2.971   2.270
10535SOL    HW232505   0.413   2.836   2.215
10536SOL     OW32506   3.691   0.474   2.807
10536SOL    HW132507   3.755   0.432   2.871
10536SOL    HW232508   3.614   0.512   2.857
10537SOL     OW32509   3.436   5.533   3.121
10537SOL    HW132510   3.392   5.623   3.110
10537SOL    HW232511   3.389   5.481   3.192
10538SOL     OW32512   4.849   2.806   6.481
10538SOL    HW132513   4.776   2.785   6.415
10538SOL    HW232514   4.827   2.891   6.528
10539SOL     OW32515   0.874   4.137   6.603
10539SOL    HW132516   0.886   4.231   6.571
10539SOL    HW232517   0.784   4.104   6.575
10540SOL     OW32518   1.598   1.128   5.447
10540SOL    HW132519   1.648   1.094   5.367
10540SOL    HW232520   1.500   1.114   5.433
10541SOL     OW32521   3.524   3.598   1.871
10541SOL    HW132522   3.623   3.611   1.863
10541SOL    HW232523   3.479   3.687   1.880
10542SOL     OW32524   6.849   1.622   0.234
10542SOL    HW132525   6.754   1.600   0.257
10542SOL    HW232526   6.895   1.540   0.201
10543SOL     OW32527   0.630   1.053   5.063
10543SOL    HW132528   0.589   0.986   5.125
10543SOL    HW232529   0.595   1.039   4.971
10544SOL     OW32530   2.183   0.519   3.005
10544SOL    HW132531   2.175   0.462   3.086
10544SOL    HW232532   2.111   0.495   2.939
10545SOL     OW32533   6.594   0.611   2.872
10545SOL    HW132534   6.579   0.671   2.951
10545SOL    HW232535   6.521   0.543   2.868
10546SOL     OW32536   0.746   0.439   6.227
10546SOL    HW132537   0.844   0.418   6.226
10546SOL    HW232538   0.722   0.490   6.144
10547SOL     OW32539   4.799   1.378   1.685
10547SOL    HW132540   4.789   1.456   1.747
10547SOL    HW232541   4.813   1.295   1.739
10548SOL     OW32542   5.015   3.739   5.265
10548SOL    HW132543   5.007   3.833   5.300
10548SOL    HW232544   4.925   3.695   5.270
10549SOL     OW32545   6.805   0.471   2.538
10549SOL    HW132546   6.901   0.458   2.563
10549SOL    HW232547   6.795   0.556   2.487
10550SOL     OW32548   4.215   6.715   4.362
10550SOL    HW132549   4.170   6.726   4.273
10550SOL    HW232550   4.157   6.660   4.422
10551SOL     OW32551   1.176   2.801   5.046
10551SOL    HW132552   1.143   2.766   5.133
10551SOL    HW232553   1.263   2.756   5.023
10552SOL     OW32554   3.943   2.006   5.431
10552SOL    HW132555   3.880   2.077   5.400
10552SOL    HW232556   3.974   2.027   5.524
10553SOL     OW32557   1.147   4.640   1.731
10553SOL    HW132558   1.152   4.739   1.716
10553SOL    HW232559   1.239   4.601   1.729
10554SOL     OW32560   5.570   4.946   6.750
10554SOL    HW132561   5.547   4.860   6.797
10554SOL    HW232562   5.669   4.949   6.733
10555SOL     OW32563   3.000   1.863   1.168
10555SOL    HW132564   2.908   1.904   1.165
10555SOL    HW232565   3.060   1.913   1.106
10556SOL     OW32566   1.445   3.064   5.215
10556SOL    HW132567   1.355   3.072   5.172
10556SOL    HW232568   1.461   2.968   5.240
10557SOL     OW32569   1.162   2.611   3.189
10557SOL    HW132570   1.142   2.704   3.160
10557SOL    HW232571   1.251   2.583   3.152
10558SOL     OW32572   3.869   7.019   4.940
10558SOL    HW132573   3.908   6.962   4.867
10558SOL    HW232574   3.813   0.069   4.901
10559SOL     OW32575   3.826   1.296   0.696
10559SOL    HW132576   3.860   1.386   0.667
10559SOL    HW232577   3.879   1.224   0.652
10560SOL     OW32578   2.403   5.809   4.593
10560SOL    HW132579   2.417   5.896   4.641
10560SOL    HW232580   2.327   5.819   4.529
10561SOL     OW32581   2.548   5.060   0.255
10561SOL    HW132582   2.630   5.012   0.227
10561SOL    HW232583   2.569   5.157   0.269
10562SOL     OW32584   5.095   6.444   0.178
10562SOL    HW132585   5.094   6.352   0.141
10562SOL    HW232586   5.176   6.457   0.235
10563SOL     OW32587   1.540   0.925   4.110
10563SOL    HW132588   1.481   0.921   4.191
10563SOL    HW232589   1.509   0.998   4.049
10564SOL     OW32590   5.818   6.805   2.131
10564SOL    HW132591   5.743   6.744   2.156
10564SOL    HW232592   5.902   6.775   2.176
10565SOL     OW32593   0.703   0.631   6.027
10565SOL    HW132594   0.779   0.697   6.024
10565SOL    HW232595   0.618   0.679   6.047
10566SOL     OW32596   4.547   3.281   6.786
10566SOL    HW132597   4.474   3.213   6.779
10566SOL    HW232598   4.512   3.362   6.834
10567SOL     OW32599   2.077   3.121   3.807
10567SOL    HW132600   2.037   3.117   3.716
10567SOL    HW232601   2.158   3.062   3.810
10568SOL     OW32602   5.522   1.108   1.245
10568SOL    HW132603   5.472   1.070   1.322
10568SOL    HW232604   5.600   1.050   1.224
10569SOL     OW32605   6.459   3.122   1.805
10569SOL    HW132606   6.548   3.081   1.828
10569SOL    HW232607   6.456   3.216   1.838
10570SOL     OW32608   1.780   5.174   2.505
10570SOL    HW132609   1.861   5.127   2.470
10570SOL    HW232610   1.738   5.119   2.577
10571SOL     OW32611   6.688   5.321   4.355
10571SOL    HW132612   6.782   5.350   4.371
10571SOL    HW232613   6.628   5.361   4.424
10572SOL     OW32614   6.045   3.639   3.330
10572SOL    HW132615   6.098   3.709   3.378
10572SOL    HW232616   6.094   3.613   3.246
10573SOL     OW32617   5.595   6.012   3.914
10573SOL    HW132618   5.505   5.968   3.921
10573SOL    HW232619   5.588   6.095   3.859
10574SOL     OW32620   1.826   1.973   3.994
10574SOL    HW132621   1.826   1.880   3.958
10574SOL    HW232622   1.767   2.031   3.936
10575SOL     OW32623   0.531   1.143   3.645
10575SOL    HW132624   0.618   1.112   3.682
10575SOL    HW232625   0.461   1.140   3.716
10576SOL     OW32626   0.634   6.552   5.466
10576SOL    HW132627   0.654   6.455   5.451
10576SOL    HW232628   0.562   6.582   5.403
10577SOL     OW32629   1.413   2.552   6.665
10577SOL    HW132630   1.482   2.525   6.598
10577SOL    HW232631   1.457   2.572   6.753
10578SOL     OW32632   6.592   0.299   3.626
10578SOL    HW132633   6.522   0.232   3.652
10578SOL    HW232634   6.606   0.364   3.701
10579SOL     OW32635   4.040   1.766   0.243
10579SOL    HW132636   3.940   1.755   0.240
10579SOL    HW232637   4.081   1.717   0.166
10580SOL     OW32638   6.605   0.003   0.369
10580SOL    HW132639   6.540   6.954   0.343
10580SOL    HW232640   6.654   0.034   0.288
10581SOL     OW32641   6.020   6.849   2.796
10581SOL    HW132642   5.935   6.854   2.849
10581SOL    HW232643   6.033   6.755   2.763
10582SOL     OW32644   3.842   5.007   6.403
10582SOL    HW132645   3.779   5.037   6.474
10582SOL    HW232646   3.925   4.972   6.444
10583SOL     OW32647   4.211   0.926   5.678
10583SOL    HW132648   4.171   0.954   5.765
10583SOL    HW232649   4.301   0.967   5.667
10584SOL     OW32650   5.720   6.714   1.189
10584SOL    HW132651   5.806   6.704   1.139
10584SOL    HW232652   5.739   6.747   1.281
10585SOL     OW32653   1.324   3.149   5.843
10585SOL    HW132654   1.265   3.103   5.909
10585SOL    HW232655   1.332   3.093   5.761
10586SOL     OW32656   1.509   5.742   5.561
10586SOL    HW132657   1.506   5.807   5.485
10586SOL    HW232658   1.508   5.649   5.525
10587SOL     OW32659   6.024   3.776   0.070
10587SOL    HW132660   5.961   3.699   0.075
10587SOL    HW232661   5.997   3.836   7.016
10588SOL     OW32662   0.824   4.156   2.084
10588SOL    HW132663   0.882   4.123   2.010
10588SOL    HW232664   0.801   4.252   2.069
10589SOL     OW32665   5.172   1.550   4.209
10589SOL    HW132666   5.130   1.565   4.119
10589SOL    HW232667   5.270   1.532   4.197
10590SOL     OW32668   1.336   0.308   1.965
10590SOL    HW132669   1.283   0.288   1.882
10590SOL    HW232670   1.433   0.314   1.941
10591SOL     OW32671   1.416   1.727   5.459
10591SOL    HW132672   1.465   1.728   5.546
10591SOL    HW232673   1.479   1.747   5.385
10592SOL     OW32674   5.286   2.584   0.851
10592SOL    HW132675   5.380   2.598   0.883
10592SOL    HW232676   5.260   2.489   0.866
10593SOL     OW32677   3.026   5.422   0.847
10593SOL    HW132678   3.049   5.364   0.769
10593SOL    HW232679   3.110   5.461   0.886
10594SOL     OW32680   5.583   1.727   3.483
10594SOL    HW132681   5.537   1.670   3.416
10594SOL    HW232682   5.598   1.819   3.445
10595SOL     OW32683   3.535   0.258   5.815
10595SOL    HW132684   3.606   0.194   5.846
10595SOL    HW232685   3.471   0.209   5.756
10596SOL     OW32686   4.535   0.068   1.775
10596SOL    HW132687   4.437   0.071   1.758
10596SOL    HW232688   4.565   6.995   1.785
10597SOL     OW32689   2.815   1.226   4.337
10597SOL    HW132690   2.886   1.228   4.407
10597SOL    HW232691   2.856   1.206   4.248
10598SOL     OW32692   2.835   2.364   0.018
10598SOL    HW132693   2.793   2.319   0.097
10598SOL    HW232694   2.789   2.334   6.957
10599SOL     OW32695   5.793   1.876   0.428
10599SOL    HW132696   5.701   1.903   0.458
10599SOL    HW232697   5.810   1.910   0.336
10600SOL     OW32698   2.308   3.059   0.219
10600SOL    HW132699   2.318   2.970   0.265
10600SOL    HW232700   2.359   3.057   0.133
10601SOL     OW32701   2.250   5.211   5.884
10601SOL    HW132702   2.331   5.210   5.826
10601SOL    HW232703   2.272   5.170   5.973
10602SOL     OW32704   5.090   1.470   2.600
10602SOL    HW132705   5.121   1.382   2.636
10602SOL    HW232706   5.167   1.534   2.602
10603SOL     OW32707   2.106   6.154   3.229
10603SOL    HW132708   2.138   6.249   3.222
10603SOL    HW232709   2.058   6.129   3.144
10604SOL     OW32710   5.555   4.367   4.291
10604SOL    HW132711   5.605   4.449   4.265
10604SOL    HW232712   5.459   4.390   4.308
10605SOL     OW32713   1.158   5.059   7.000
10605SOL    HW132714   1.127   5.107   6.917
10605SOL    HW232715   1.080   5.041   0.037
10606SOL     OW32716   6.164   0.732   1.902
10606SOL    HW132717   6.089   0.778   1.855
10606SOL    HW232718   6.243   0.728   1.841
10607SOL     OW32719   4.265   3.720   5.575
10607SOL    HW132720   4.205   3.667   5.515
10607SOL    HW232721   4.251   3.690   5.670
10608SOL     OW32722   5.655   1.993   4.985
10608SOL    HW132723   5.572   1.988   5.041
10608SOL    HW232724   5.637   2.046   4.903
10609SOL     OW32725   3.422   5.538   1.375
10609SOL    HW132726   3.491   5.541   1.447
10609SOL    HW232727   3.360   5.616   1.385
10610SOL     OW32728   0.774   4.332   0.015
10610SOL    HW132729   0.685   4.367   0.043
10610SOL    HW232730   0.792   4.360   6.943
10611SOL     OW32731   5.523   3.142   6.874
10611SOL    HW132732   5.506   3.185   6.785
10611SOL    HW232733   5.484   3.199   6.946
10612SOL     OW32734   2.365   6.525   5.908
10612SOL    HW132735   2.302   6.581   5.854
10612SOL    HW232736   2.395   6.577   5.988
10613SOL     OW32737   0.284   6.876   6.096
10613SOL    HW132738   0.189   6.846   6.093
10613SOL    HW232739   0.289   6.970   6.130
10614SOL     OW32740   6.959   1.305   4.067
10614SOL    HW132741   6.904   1.360   4.129
10614SOL    HW232742   7.001   1.364   3.998
10615SOL     OW32743   4.287   5.629   5.255
10615SOL    HW132744   4.291   5.701   5.324
10615SOL    HW232745   4.193   5.595   5.248
10616SOL     OW32746   3.590   6.497   0.090
10616SOL    HW132747   3.652   6.531   0.161
10616SOL    HW232748   3.502   6.473   0.132
10617SOL     OW32749   2.154   2.244   0.487
10617SOL    HW132750   2.070   2.253   0.434
10617SOL    HW232751   2.193   2.335   0.503
10618SOL     OW32752   5.748   3.123   0.271
10618SOL    HW132753   5.767   3.205   0.326
10618SOL    HW232754   5.825   3.060   0.277
10619SOL     OW32755   0.221   3.538   2.251
10619SOL    HW132756   0.307   3.520   2.204
10619SOL    HW232757   0.228   3.503   2.345
10620SOL     OW32758   0.786   5.385   5.343
10620SOL    HW132759   0.818   5.373   5.249
10620SOL    HW232760   0.770   5.482   5.360
10621SOL     OW32761   1.222   6.164   0.297
10621SOL    HW132762   1.312   6.193   0.328
10621SOL    HW232763   1.203   6.071   0.330
10622SOL     OW32764   4.473   1.104   1.361
10622SOL    HW132765   4.457   1.079   1.266
10622SOL    HW232766   4.396   1.073   1.417
10623SOL     OW32767   5.711   3.147   4.405
10623SOL    HW132768   5.752   3.117   4.491
10623SOL    HW232769   5.731   3.080   4.333
10624SOL     OW32770   0.877   1.041   4.915
10624SOL    HW132771   0.829   1.024   4.828
10624SOL    HW232772   0.811   1.076   4.982
10625SOL     OW32773   0.879   4.030   6.901
10625SOL    HW132774   0.950   4.088   6.939
10625SOL    HW232775   0.867   4.051   6.804
10626SOL     OW32776   1.052   2.550   1.315
10626SOL    HW132777   1.147   2.522   1.298
10626SOL    HW232778   0.996   2.529   1.235
10627SOL     OW32779   5.732   5.994   2.848
10627SOL    HW132780   5.711   5.905   2.888
10627SOL    HW232781   5.749   6.060   2.921
10628SOL     OW32782   5.319   5.133   5.548
10628SOL    HW132783   5.395   5.119   5.611
10628SOL    HW232784   5.241   5.078   5.577
10629SOL     OW32785   2.640   4.491   5.387
10629SOL    HW132786   2.585   4.527   5.312
10629SOL    HW232787   2.729   4.537   5.387
10630SOL     OW32788   6.612   0.825   3.390
10630SOL    HW132789   6.636   0.801   3.484
10630SOL    HW232790   6.517   0.857   3.387
10631SOL     OW32791   0.899   5.951   4.379
10631SOL    HW132792   0.869   5.866   4.334
10631SOL    HW232793   0.992   5.973   4.349
10632SOL     OW32794   5.855   2.303   4.265
10632SOL    HW132795   5.919   2.231   4.293
10632SOL    HW232796   5.859   2.378   4.331
10633SOL     OW32797   2.612   4.158   1.354
10633SOL    HW132798   2.580   4.068   1.327
10633SOL    HW232799   2.534   4.218   1.373
10634SOL     OW32800   3.372   5.576   0.330
10634SOL    HW132801   3.328   5.558   0.242
10634SOL    HW232802   3.302   5.579   0.402
10635SOL     OW32803   2.689   1.076   1.254
10635SOL    HW132804   2.642   1.154   1.295
10635SOL    HW232805   2.622   1.019   1.205
10636SOL     OW32806   1.206   2.014   1.923
10636SOL    HW132807   1.155   1.928   1.920
10636SOL    HW232808   1.293   2.004   1.875
10637SOL     OW32809   3.601   3.976   5.498
10637SOL    HW132810   3.691   3.950   5.535
10637SOL    HW232811   3.543   3.895   5.493
10638SOL     OW32812   0.229   6.361   2.839
10638SOL    HW132813   0.181   6.355   2.927
10638SOL    HW232814   0.169   6.333   2.766
10639SOL     OW32815   0.799   2.103   3.682
10639SOL    HW132816   0.872   2.043   3.650
10639SOL    HW232817   0.716   2.086   3.627
10640SOL     OW32818   4.503   0.211   6.885
10640SOL    HW132819   4.544   0.196   6.795
10640SOL    HW232820   4.467   0.125   6.921
10641SOL     OW32821   4.205   1.726   0.000
10641SOL    HW132822   4.161   1.803   6.976
10641SOL    HW232823   4.280   1.758   0.057
10642SOL     OW32824   0.604   2.830   1.543
10642SOL    HW132825   0.580   2.734   1.535
10642SOL    HW232826   0.586   2.877   1.457
10643SOL     OW32827   2.432   4.191   5.816
10643SOL    HW132828   2.336   4.217   5.803
10643SOL    HW232829   2.466   4.146   5.733
10644SOL     OW32830   4.693   1.834   3.715
10644SOL    HW132831   4.604   1.804   3.748
10644SOL    HW232832   4.691   1.933   3.698
10645SOL     OW32833   0.976   1.099   4.186
10645SOL    HW132834   0.917   1.178   4.202
10645SOL    HW232835   0.926   1.030   4.134
10646SOL     OW32836   0.565   1.968   5.634
10646SOL    HW132837   0.655   1.949   5.595
10646SOL    HW232838   0.574   1.992   5.731
10647SOL     OW32839   5.403   5.457   6.151
10647SOL    HW132840   5.339   5.464   6.075
10647SOL    HW232841   5.468   5.532   6.146
10648SOL     OW32842   5.439   3.543   6.558
10648SOL    HW132843   5.441   3.552   6.458
10648SOL    HW232844   5.349   3.568   6.592
10649SOL     OW32845   0.044   4.446   3.835
10649SOL    HW132846   0.017   4.500   3.756
10649SOL    HW232847   0.039   4.349   3.813
10650SOL     OW32848   1.354   6.674   3.629
10650SOL    HW132849   1.448   6.646   3.611
10650SOL    HW232850   1.348   6.714   3.720
10651SOL     OW32851   4.213   6.498   5.988
10651SOL    HW132852   4.290   6.516   6.049
10651SOL    HW232853   4.199   6.400   5.980
10652SOL     OW32854   3.537   0.045   6.593
10652SOL    HW132855   3.557   0.098   6.511
10652SOL    HW232856   3.496   0.104   6.662
10653SOL     OW32857   5.252   4.600   4.689
10653SOL    HW132858   5.325   4.566   4.749
10653SOL    HW232859   5.167   4.608   4.741
10654SOL     OW32860   3.330   0.056   1.485
10654SOL    HW132861   3.350   6.984   1.458
10654SOL    HW232862   3.267   0.056   1.562
10655SOL     OW32863   2.953   5.349   1.882
10655SOL    HW132864   2.923   5.322   1.973
10655SOL    HW232865   2.879   5.397   1.835
10656SOL     OW32866   6.201   1.947   0.450
10656SOL    HW132867   6.193   2.042   0.419
10656SOL    HW232868   6.144   1.934   0.531
10657SOL     OW32869   6.220   6.587   0.782
10657SOL    HW132870   6.199   6.506   0.727
10657SOL    HW232871   6.292   6.564   0.848
10658SOL     OW32872   0.441   4.451   4.845
10658SOL    HW132873   0.401   4.476   4.757
10658SOL    HW232874   0.377   4.393   4.895
10659SOL     OW32875   6.409   7.021   0.844
10659SOL    HW132876   6.474   0.073   0.825
10659SOL    HW232877   6.399   6.964   0.763
10660SOL     OW32878   5.131   3.893   6.173
10660SOL    HW132879   5.177   3.974   6.136
10660SOL    HW232880   5.094   3.838   6.098
10661SOL     OW32881   6.722   6.636   2.639
10661SOL    HW132882   6.661   6.558   2.655
10661SOL    HW232883   6.739   6.683   2.726
10662SOL     OW32884   5.939   1.301   1.808
10662SOL    HW132885   6.030   1.342   1.807
10662SOL    HW232886   5.931   1.235   1.733
10663SOL     OW32887   1.309   0.301   1.181
10663SOL    HW132888   1.272   0.315   1.272
10663SOL    HW232889   1.401   0.263   1.188
10664SOL     OW32890   2.244   3.888   6.280
10664SOL    HW132891   2.322   3.948   6.298
10664SOL    HW232892   2.241   3.815   6.349
10665SOL     OW32893   1.455   1.026   6.991
10665SOL    HW132894   1.390   1.051   6.919
10665SOL    HW232895   1.453   0.927   7.005
10666SOL     OW32896   4.057   4.423   0.252
10666SOL    HW132897   4.119   4.426   0.173
10666SOL    HW232898   4.008   4.510   0.259
10667SOL     OW32899   4.084   1.764   5.964
10667SOL    HW132900   4.128   1.674   5.961
10667SOL    HW232901   3.991   1.756   5.927
10668SOL     OW32902   1.258   2.262   6.049
10668SOL    HW132903   1.235   2.276   6.145
10668SOL    HW232904   1.284   2.166   6.035
10669SOL     OW32905   0.650   0.232   0.955
10669SOL    HW132906   0.616   0.293   0.883
10669SOL    HW232907   0.577   0.215   1.021
10670SOL     OW32908   5.243   4.483   5.999
10670SOL    HW132909   5.307   4.494   6.075
10670SOL    HW232910   5.198   4.570   5.981
10671SOL     OW32911   2.175   3.636   2.884
10671SOL    HW132912   2.190   3.613   2.788
10671SOL    HW232913   2.171   3.736   2.895
10672SOL     OW32914   0.054   3.001   0.469
10672SOL    HW132915   0.145   3.031   0.439
10672SOL    HW232916   0.043   2.904   0.450
10673SOL     OW32917   2.920   2.725   5.706
10673SOL    HW132918   2.916   2.626   5.690
10673SOL    HW232919   2.945   2.771   5.621
10674SOL     OW32920   3.904   3.720   0.861
10674SOL    HW132921   3.930   3.781   0.786
10674SOL    HW232922   3.914   3.625   0.833
10675SOL     OW32923   0.396   0.435   5.395
10675SOL    HW132924   0.410   0.488   5.479
10675SOL    HW232925   0.483   0.394   5.367
10676SOL     OW32926   5.992   0.118   6.015
10676SOL    HW132927   6.013   0.212   5.989
10676SOL    HW232928   6.002   0.108   6.114
10677SOL     OW32929   0.553   0.884   2.126
10677SOL    HW132930   0.470   0.862   2.074
10677SOL    HW232931   0.564   0.983   2.130
10678SOL     OW32932   3.516   5.743   2.559
10678SOL    HW132933   3.591   5.695   2.604
10678SOL    HW232934   3.450   5.677   2.523
10679SOL     OW32935   5.510   5.576   4.900
10679SOL    HW132936   5.490   5.484   4.869
10679SOL    HW232937   5.485   5.585   4.997
10680SOL     OW32938   1.934   3.421   2.805
10680SOL    HW132939   1.993   3.352   2.763
10680SOL    HW232940   1.935   3.408   2.905
10681SOL     OW32941   6.477   4.516   0.123
10681SOL    HW132942   6.515   4.565   0.045
10681SOL    HW232943   6.550   4.466   0.171
10682SOL     OW32944   1.594   1.653   3.268
10682SOL    HW132945   1.669   1.633   3.331
10682SOL    HW232946   1.628   1.708   3.191
10683SOL     OW32947   2.187   2.675   3.993
10683SOL    HW132948   2.264   2.625   3.952
10683SOL    HW232949   2.119   2.694   3.923
10684SOL     OW32950   5.463   4.012   0.697
10684SOL    HW132951   5.533   3.978   0.760
10684SOL    HW232952   5.380   3.956   0.706
10685SOL     OW32953   0.613   3.683   3.396
10685SOL    HW132954   0.596   3.689   3.495
10685SOL    HW232955   0.535   3.639   3.352
10686SOL     OW32956   4.214   5.909   6.932
10686SOL    HW132957   4.297   5.854   6.926
10686SOL    HW232958   4.191   5.944   6.841
10687SOL     OW32959   6.753   5.336   1.793
10687SOL    HW132960   6.791   5.252   1.834
10687SOL    HW232961   6.655   5.323   1.778
10688SOL     OW32962   6.424   4.228   2.323
10688SOL    HW132963   6.374   4.262   2.244
10688SOL    HW232964   6.360   4.206   2.397
10689SOL     OW32965   6.996   6.950   2.694
10689SOL    HW132966   7.003   7.006   2.612
10689SOL    HW232967   6.934   6.994   2.759
10690SOL     OW32968   4.468   5.718   3.051
10690SOL    HW132969   4.394   5.699   3.115
10690SOL    HW232970   4.507   5.808   3.070
10691SOL     OW32971   6.647   1.313   1.815
10691SOL    HW132972   6.629   1.380   1.743
10691SOL    HW232973   6.598   1.340   1.898
10692SOL     OW32974   3.084   5.993   3.873
10692SOL    HW132975   3.092   5.894   3.861
10692SOL    HW232976   3.162   6.026   3.927
10693SOL     OW32977   1.071   1.066   0.901
10693SOL    HW132978   1.069   1.136   0.972
10693SOL    HW232979   0.978   1.032   0.884
10694SOL     OW32980   3.689   6.323   1.209
10694SOL    HW132981   3.752   6.338   1.133
10694SOL    HW232982   3.617   6.393   1.207
10695SOL     OW32983   6.935   2.833   4.103
10695SOL    HW132984   6.982   2.887   4.173
10695SOL    HW232985   6.952   2.735   4.119
10696SOL     OW32986   6.830   6.131   1.990
10696SOL    HW132987   6.923   6.167   1.985
10696SOL    HW232988   6.812   6.097   2.083
10697SOL     OW32989   0.448   6.309   3.156
10697SOL    HW132990   0.354   6.279   3.146
10697SOL    HW232991   0.472   6.370   3.081
10698SOL     OW32992   2.826   6.958   3.431
10698SOL    HW132993   2.893   6.887   3.410
10698SOL    HW232994   2.870   0.010   3.483
10699SOL     OW32995   4.604   1.792   2.928
10699SOL    HW132996   4.537   1.854   2.887
10699SOL    HW232997   4.629   1.721   2.862
10700SOL     OW32998   0.847   0.068   0.850
10700SOL    HW132999   0.759   0.112   0.872
10700SOL    HW233000   0.910   0.081   0.927
10701SOL     OW33001   4.432   5.891   6.401
10701SOL    HW133002   4.457   5.828   6.327
10701SOL    HW233003   4.404   5.978   6.362
10702SOL     OW33004   5.574   2.592   0.958
10702SOL    HW133005   5.613   2.640   0.879
10702SOL    HW233006   5.595   2.495   0.951
10703SOL     OW33007   3.988   3.521   3.452
10703SOL    HW133008   3.941   3.601   3.417
10703SOL    HW233009   3.938   3.484   3.530
10704SOL     OW33010   4.844   6.588   1.791
10704SOL    HW133011   4.815   6.622   1.702
10704SOL    HW233012   4.942   6.565   1.787
10705SOL     OW33013   1.348   3.848   6.613
10705SOL    HW133014   1.334   3.764   6.560
10705SOL    HW233015   1.261   3.876   6.654
10706SOL     OW33016   4.483   0.419   2.150
10706SOL    HW133017   4.386   0.403   2.135
10706SOL    HW233018   4.513   0.498   2.095
10707SOL     OW33019   6.941   6.985   5.786
10707SOL    HW133020   6.899   6.983   5.877
10707SOL    HW233021   6.961   6.892   5.756
10708SOL     OW33022   4.910   0.937   1.379
10708SOL    HW133023   4.845   0.987   1.436
10708SOL    HW233024   4.891   0.839   1.384
10709SOL     OW33025   6.613   0.511   5.024
10709SOL    HW133026   6.566   0.479   4.942
10709SOL    HW233027   6.613   0.611   5.025
10710SOL     OW33028   6.458   5.576   3.950
10710SOL    HW133029   6.439   5.502   4.014
10710SOL    HW233030   6.415   5.556   3.862
10711SOL     OW33031   1.743   0.244   3.873
10711SOL    HW133032   1.826   0.279   3.828
10711SOL    HW233033   1.704   0.315   3.931
10712SOL     OW33034   4.053   1.384   5.008
10712SOL    HW133035   4.140   1.427   5.029
10712SOL    HW233036   3.978   1.441   5.043
10713SOL     OW33037   2.298   5.912   2.118
10713SOL    HW133038   2.287   5.813   2.106
10713SOL    HW233039   2.391   5.939   2.092
10714SOL     OW33040   0.402   4.680   5.148
10714SOL    HW133041   0.483   4.638   5.107
10714SOL    HW233042   0.320   4.650   5.100
10715SOL     OW33043   4.793   2.023   3.996
10715SOL    HW133044   4.866   1.987   4.055
10715SOL    HW233045   4.833   2.071   3.919
10716SOL     OW33046   6.209   1.159   4.700
10716SOL    HW133047   6.144   1.225   4.736
10716SOL    HW233048   6.261   1.201   4.625
10717SOL     OW33049   6.760   1.060   2.028
10717SOL    HW133050   6.686   1.050   1.962
10717SOL    HW233051   6.785   1.156   2.037
10718SOL     OW33052   6.778   5.448   0.117
10718SOL    HW133053   6.810   5.355   0.136
10718SOL    HW233054   6.679   5.452   0.130
10719SOL     OW33055   5.353   0.932   1.944
10719SOL    HW133056   5.396   0.842   1.952
10719SOL    HW233057   5.276   0.926   1.880
10720SOL     OW33058   6.977   4.016   6.038
10720SOL    HW133059   0.026   4.015   5.968
10720SOL    HW233060   6.910   4.087   6.015
10721SOL     OW33061   5.911   2.374   4.789
10721SOL    HW133062   5.952   2.283   4.782
10721SOL    HW233063   5.867   2.397   4.702
10722SOL     OW33064   6.344   3.856   0.365
10722SOL    HW133065   6.295   3.771   0.347
10722SOL    HW233066   6.371   3.898   0.278
10723SOL     OW33067   5.266   4.158   6.645
10723SOL    HW133068   5.217   4.238   6.610
10723SOL    HW233069   5.338   4.188   6.708
10724SOL     OW33070   4.363   6.807   6.286
10724SOL    HW133071   4.315   6.761   6.360
10724SOL    HW233072   4.395   6.897   6.318
10725SOL     OW33073   0.505   6.363   4.286
10725SOL    HW133074   0.524   6.313   4.202
10725SOL    HW233075   0.485   6.298   4.359
10726SOL     OW33076   5.901   0.417   4.718
10726SOL    HW133077   5.832   0.425   4.790
10726SOL    HW233078   5.896   0.496   4.658
10727SOL     OW33079   2.163   4.906   5.231
10727SOL    HW133080   2.180   4.975   5.302
10727SOL    HW233081   2.069   4.872   5.238
10728SOL     OW33082   4.845   6.905   3.042
10728SOL    HW133083   4.906   6.830   3.017
10728SOL    HW233084   4.850   6.977   2.973
10729SOL     OW33085   5.752   2.507   2.930
10729SOL    HW133086   5.826   2.452   2.968
10729SOL    HW233087   5.674   2.448   2.909
10730SOL     OW33088   2.381   6.211   2.202
10730SOL    HW133089   2.305   6.190   2.263
10730SOL    HW233090   2.362   6.173   2.112
10731SOL     OW33091   3.381   5.859   0.525
10731SOL    HW133092   3.470   5.900   0.509
10731SOL    HW233093   3.322   5.873   0.445
10732SOL     OW33094   5.046   6.111   2.553
10732SOL    HW133095   5.041   6.014   2.532
10732SOL    HW233096   4.955   6.151   2.551
10733SOL     OW33097   6.012   1.229   6.451
10733SOL    HW133098   5.981   1.134   6.459
10733SOL    HW233099   5.932   1.289   6.447
10734SOL     OW33100   1.298   0.213   6.683
10734SOL    HW133101   1.298   0.301   6.730
10734SOL    HW233102   1.260   0.143   6.743
10735SOL     OW33103   1.044   5.210   1.809
10735SOL    HW133104   0.950   5.209   1.777
10735SOL    HW233105   1.053   5.146   1.886
10736SOL     OW33106   6.819   1.197   3.868
10736SOL    HW133107   6.858   1.144   3.793
10736SOL    HW233108   6.890   1.213   3.937
10737SOL     OW33109   0.370   2.044   1.359
10737SOL    HW133110   0.423   1.961   1.374
10737SOL    HW233111   0.294   2.048   1.424
10738SOL     OW33112   2.858   0.630   2.874
10738SOL    HW133113   2.814   0.553   2.920
10738SOL    HW233114   2.858   0.614   2.775
10739SOL     OW33115   5.963   2.009   2.629
10739SOL    HW133116   6.039   1.945   2.641
10739SOL    HW233117   5.914   1.988   2.545
10740SOL     OW33118   1.561   6.847   5.975
10740SOL    HW133119   1.494   6.909   6.016
10740SOL    HW233120   1.533   6.824   5.882
10741SOL     OW33121   1.515   2.944   3.425
10741SOL    HW133122   1.436   2.928   3.484
10741SOL    HW233123   1.500   2.901   3.336
10742SOL     OW33124   6.324   5.320   2.312
10742SOL    HW133125   6.411   5.367   2.328
10742SOL    HW233126   6.302   5.264   2.392
10743SOL     OW33127   3.674   1.577   5.450
10743SOL    HW133128   3.727   1.637   5.511
10743SOL    HW233129   3.725   1.492   5.434
10744SOL     OW33130   3.417   0.220   1.289
10744SOL    HW133131   3.374   0.149   1.345
10744SOL    HW233132   3.381   0.310   1.316
10745SOL     OW33133   2.079   4.359   1.164
10745SOL    HW133134   2.055   4.338   1.069
10745SOL    HW233135   2.147   4.293   1.196
10746SOL     OW33136   2.373   6.166   0.202
10746SOL    HW133137   2.410   6.207   0.119
10746SOL    HW233138   2.410   6.212   0.282
10747SOL     OW33139   6.226   2.685   4.165
10747SOL    HW133140   6.169   2.718   4.240
10747SOL    HW233141   6.294   2.620   4.200
10748SOL     OW33142   4.296   5.256   0.888
10748SOL    HW133143   4.274   5.323   0.959
10748SOL    HW233144   4.371   5.290   0.832
10749SOL     OW33145   6.209   4.406   3.002
10749SOL    HW133146   6.160   4.443   2.922
10749SOL    HW233147   6.268   4.476   3.040
10750SOL     OW33148   4.929   3.644   3.943
10750SOL    HW133149   5.015   3.679   3.906
10750SOL    HW233150   4.906   3.693   4.027
10751SOL     OW33151   1.436   3.623   4.915
10751SOL    HW133152   1.524   3.583   4.890
10751SOL    HW233153   1.380   3.634   4.834
10752SOL     OW33154   6.394   5.281   6.960
10752SOL    HW133155   6.364   5.369   6.999
10752SOL    HW233156   6.326   5.211   6.979
10753SOL     OW33157   4.663   6.268   4.525
10753SOL    HW133158   4.725   6.344   4.547
10753SOL    HW233159   4.589   6.264   4.592
10754SOL     OW33160   0.747   3.045   1.994
10754SOL    HW133161   0.825   2.983   1.985
10754SOL    HW233162   0.750   3.090   2.084
10755SOL     OW33163   0.050   2.726   1.441
10755SOL    HW133164   0.013   2.654   1.499
10755SOL    HW233165   0.129   2.691   1.390
10756SOL     OW33166   6.217   1.841   0.736
10756SOL    HW133167   6.122   1.821   0.714
10756SOL    HW233168   6.222   1.914   0.804
10757SOL     OW33169   6.505   3.634   0.456
10757SOL    HW133170   6.467   3.704   0.395
10757SOL    HW233171   6.502   3.545   0.410
10758SOL     OW33172   1.031   5.925   6.211
10758SOL    HW133173   0.965   5.866   6.166
10758SOL    HW233174   1.098   5.868   6.260
10759SOL     OW33175   1.717   2.258   6.201
10759SOL    HW133176   1.659   2.210   6.135
10759SOL    HW233177   1.728   2.202   6.283
10760SOL     OW33178   1.016   6.335   0.336
10760SOL    HW133179   1.089   6.269   0.319
10760SOL    HW233180   0.937   6.313   0.278
10761SOL     OW33181   0.758   1.999   6.235
10761SOL    HW133182   0.794   2.064   6.301
10761SOL    HW233183   0.801   1.909   6.249
10762SOL     OW33184   3.964   0.691   5.752
10762SOL    HW133185   3.946   0.604   5.798
10762SOL    HW233186   3.898   0.703   5.678
10763SOL     OW33187   5.863   0.681   3.186
10763SOL    HW133188   5.818   0.595   3.207
10763SOL    HW233189   5.892   0.681   3.090
10764SOL     OW33190   4.303   1.168   4.884
10764SOL    HW133191   4.350   1.253   4.906
10764SOL    HW233192   4.293   1.159   4.785
10765SOL     OW33193   6.022   2.280   2.647
10765SOL    HW133194   5.957   2.301   2.574
10765SOL    HW233195   6.036   2.181   2.653
10766SOL     OW33196   1.307   5.161   0.579
10766SOL    HW133197   1.263   5.178   0.667
10766SOL    HW233198   1.395   5.116   0.594
10767SOL     OW33199   1.445   6.352   0.767
10767SOL    HW133200   1.361   6.310   0.803
10767SOL    HW233201   1.506   6.281   0.733
10768SOL     OW33202   6.067   5.196   0.594
10768SOL    HW133203   6.054   5.097   0.592
10768SOL    HW233204   6.024   5.237   0.514
10769SOL     OW33205   2.692   4.222   5.452
10769SOL    HW133206   2.644   4.155   5.396
10769SOL    HW233207   2.648   4.311   5.443
10770SOL     OW33208   5.464   6.418   4.793
10770SOL    HW133209   5.366   6.402   4.797
10770SOL    HW233210   5.482   6.504   4.746
10771SOL     OW33211   4.778   0.092   5.615
10771SOL    HW133212   4.766   0.128   5.523
10771SOL    HW233213   4.700   0.119   5.672
10772SOL     OW33214   5.176   6.202   3.956
10772SOL    HW133215   5.260   6.215   4.010
10772SOL    HW233216   5.195   6.225   3.861
10773SOL     OW33217   0.047   4.147   0.794
10773SOL    HW133218   0.013   4.195   0.875
10773SOL    HW233219   6.996   4.139   0.726
10774SOL     OW33220   1.901   2.357   0.889
10774SOL    HW133221   1.832   2.358   0.816
10774SOL    HW233222   1.948   2.446   0.891
10775SOL     OW33223   2.066   4.488   0.695
10775SOL    HW133224   2.021   4.476   0.607
10775SOL    HW233225   2.147   4.546   0.683
10776SOL     OW33226   0.107   0.535   2.984
10776SOL    HW133227   0.111   0.437   3.003
10776SOL    HW233228   0.020   0.558   2.941
10777SOL     OW33229   2.761   0.774   3.438
10777SOL    HW133230   2.739   0.862   3.395
10777SOL    HW233231   2.817   0.720   3.376
10778SOL     OW33232   6.695   6.338   4.421
10778SOL    HW133233   6.708   6.365   4.326
10778SOL    HW233234   6.698   6.419   4.479
10779SOL     OW33235   5.744   5.100   3.199
10779SOL    HW133236   5.828   5.128   3.245
10779SOL    HW233237   5.670   5.163   3.223
10780SOL     OW33238   0.691   6.019   4.547
10780SOL    HW133239   0.730   6.082   4.615
10780SOL    HW233240   0.766   5.972   4.499
10781SOL     OW33241   6.059   2.359   5.180
10781SOL    HW133242   6.096   2.283   5.125
10781SOL    HW233243   6.004   2.418   5.121
10782SOL     OW33244   0.384   3.412   5.303
10782SOL    HW133245   0.355   3.316   5.308
10782SOL    HW233246   0.304   3.471   5.294
10783SOL     OW33247   1.504   2.361   2.646
10783SOL    HW133248   1.583   2.335   2.589
10783SOL    HW233249   1.421   2.358   2.591
10784SOL     OW33250   2.885   5.979   2.421
10784SOL    HW133251   2.851   5.930   2.501
10784SOL    HW233252   2.965   5.931   2.385
10785SOL     OW33253   1.628   5.165   1.376
10785SOL    HW133254   1.688   5.107   1.321
10785SOL    HW233255   1.652   5.156   1.472
10786SOL     OW33256   4.295   1.939   1.945
10786SOL    HW133257   4.222   1.881   1.910
10786SOL    HW233258   4.317   1.911   2.039
10787SOL     OW33259   3.247   1.532   3.759
10787SOL    HW133260   3.258   1.498   3.852
10787SOL    HW233261   3.305   1.612   3.746
10788SOL     OW33262   0.218   4.344   0.151
10788SOL    HW133263   0.264   4.255   0.155
10788SOL    HW233264   0.120   4.330   0.138
10789SOL     OW33265   6.614   1.148   6.942
10789SOL    HW133266   6.646   1.242   6.955
10789SOL    HW233267   6.634   1.094   0.002
10790SOL     OW33268   0.416   2.770   4.953
10790SOL    HW133269   0.456   2.688   4.994
10790SOL    HW233270   0.422   2.845   5.018
10791SOL     OW33271   2.044   1.583   2.549
10791SOL    HW133272   2.020   1.667   2.597
10791SOL    HW233273   1.962   1.527   2.537
10792SOL     OW33274   3.462   2.156   1.461
10792SOL    HW133275   3.369   2.123   1.450
10792SOL    HW233276   3.476   2.186   1.556
10793SOL     OW33277   5.123   1.656   4.688
10793SOL    HW133278   5.166   1.572   4.655
10793SOL    HW233279   5.193   1.718   4.724
10794SOL     OW33280   4.327   2.948   1.735
10794SOL    HW133281   4.422   2.940   1.765
10794SOL    HW233282   4.321   3.014   1.660
10795SOL     OW33283   0.049   3.727   2.483
10795SOL    HW133284   0.075   3.683   2.398
10795SOL    HW233285   0.052   3.660   2.558
10796SOL     OW33286   6.538   6.566   6.980
10796SOL    HW133287   6.574   6.623   0.033
10796SOL    HW233288   6.608   6.558   6.909
10797SOL     OW33289   4.050   2.967   0.363
10797SOL    HW133290   4.007   2.906   0.296
10797SOL    HW233291   3.988   2.981   0.440
10798SOL     OW33292   2.889   6.828   6.398
10798SOL    HW133293   2.967   6.887   6.422
10798SOL    HW233294   2.885   6.752   6.463
10799SOL     OW33295   3.143   1.351   2.580
10799SOL    HW133296   3.056   1.323   2.620
10799SOL    HW233297   3.194   1.406   2.647
10800SOL     OW33298   1.198   6.998   6.887
10800SOL    HW133299   1.131   0.040   6.850
10800SOL    HW233300   1.201   6.917   6.829
10801SOL     OW33301   2.128   5.967   5.786
10801SOL    HW133302   2.048   6.025   5.774
10801SOL    HW233303   2.193   5.984   5.712
10802SOL     OW33304   1.624   4.025   4.077
10802SOL    HW133305   1.613   3.959   4.151
10802SOL    HW233306   1.669   3.982   4.000
10803SOL     OW33307   6.031   4.654   5.233
10803SOL    HW133308   6.108   4.616   5.284
10803SOL    HW233309   5.961   4.584   5.222
10804SOL     OW33310   6.072   3.975   1.900
10804SOL    HW133311   6.096   4.055   1.844
10804SOL    HW233312   6.087   3.997   1.997
10805SOL     OW33313   4.141   6.404   0.592
10805SOL    HW133314   4.042   6.401   0.595
10805SOL    HW233315   4.178   6.368   0.678
10806SOL     OW33316   5.647   3.711   0.772
10806SOL    HW133317   5.591   3.629   0.759
10806SOL    HW233318   5.647   3.737   0.868
10807SOL     OW33319   3.416   5.865   3.335
10807SOL    HW133320   3.338   5.923   3.311
10807SOL    HW233321   3.420   5.854   3.435
10808SOL     OW33322   0.336   2.616   6.100
10808SOL    HW133323   0.317   2.713   6.117
10808SOL    HW233324   0.434   2.599   6.110
10809SOL     OW33325   3.148   0.928   4.020
10809SOL    HW133326   3.147   0.953   4.117
10809SOL    HW233327   3.067   0.875   3.998
10810SOL     OW33328   0.021   1.544   5.228
10810SOL    HW133329   0.031   1.522   5.131
10810SOL    HW233330   0.018   1.460   5.282
10811SOL     OW33331   4.034   5.513   5.126
10811SOL    HW133332   4.087   5.447   5.179
10811SOL    HW233333   4.017   5.477   5.035
10812SOL     OW33334   6.489   2.931   2.958
10812SOL    HW133335   6.493   3.022   2.915
10812SOL    HW233336   6.410   2.926   3.019
10813SOL     OW33337   3.081   6.173   1.988
10813SOL    HW133338   3.141   6.107   2.034
10813SOL    HW233339   3.110   6.185   1.894
10814SOL     OW33340   1.827   6.970   4.991
10814SOL    HW133341   1.890   0.020   4.965
10814SOL    HW233342   1.867   6.881   4.969
10815SOL     OW33343   5.635   3.998   3.102
10815SOL    HW133344   5.591   4.084   3.127
10815SOL    HW233345   5.667   4.003   3.008
10816SOL     OW33346   1.697   0.916   2.277
10816SOL    HW133347   1.708   1.014   2.297
10816SOL    HW233348   1.623   0.879   2.333
10817SOL     OW33349   5.187   0.297   2.362
10817SOL    HW133350   5.239   0.234   2.305
10817SOL    HW233351   5.178   0.260   2.454
10818SOL     OW33352   5.410   2.899   6.932
10818SOL    HW133353   5.486   2.847   6.971
10818SOL    HW233354   5.436   2.995   6.925
10819SOL     OW33355   0.575   4.757   6.421
10819SOL    HW133356   0.519   4.719   6.495
10819SOL    HW233357   0.554   4.855   6.410
10820SOL     OW33358   0.115   6.527   3.915
10820SOL    HW133359   0.163   6.590   3.854
10820SOL    HW233360   0.179   6.457   3.947
10821SOL     OW33361   6.862   0.155   1.623
10821SOL    HW133362   6.857   0.254   1.635
10821SOL    HW233363   6.901   0.134   1.533
10822SOL     OW33364   1.079   3.833   2.223
10822SOL    HW133365   0.982   3.847   2.204
10822SOL    HW233366   1.093   3.743   2.264
10823SOL     OW33367   2.372   6.150   1.173
10823SOL    HW133368   2.343   6.246   1.179
10823SOL    HW233369   2.384   6.125   1.077
10824SOL     OW33370   4.589   0.950   2.499
10824SOL    HW133371   4.590   0.933   2.401
10824SOL    HW233372   4.586   1.049   2.516
10825SOL     OW33373   3.310   0.866   1.054
10825SOL    HW133374   3.320   0.834   0.959
10825SOL    HW233375   3.272   0.959   1.054
10826SOL     OW33376   0.236   3.730   1.987
10826SOL    HW133377   0.300   3.658   2.016
10826SOL    HW233378   0.199   3.707   1.897
10827SOL     OW33379   6.844   3.485   4.405
10827SOL    HW133380   6.800   3.543   4.336
10827SOL    HW233381   6.932   3.525   4.430
10828SOL     OW33382   1.195   5.914   0.377
10828SOL    HW133383   1.277   5.859   0.392
10828SOL    HW233384   1.114   5.857   0.388
10829SOL     OW33385   3.125   4.080   1.986
10829SOL    HW133386   3.057   4.131   1.933
10829SOL    HW233387   3.099   3.983   1.986
10830SOL     OW33388   5.528   3.169   5.066
10830SOL    HW133389   5.512   3.147   4.970
10830SOL    HW233390   5.445   3.208   5.106
10831SOL     OW33391   5.663   1.175   2.846
10831SOL    HW133392   5.739   1.213   2.795
10831SOL    HW233393   5.696   1.139   2.933
10832SOL     OW33394   1.161   1.884   0.212
10832SOL    HW133395   1.101   1.931   0.147
10832SOL    HW233396   1.133   1.906   0.305
10833SOL     OW33397   2.512   1.015   4.236
10833SOL    HW133398   2.491   1.096   4.291
10833SOL    HW233399   2.526   0.936   4.297
10834SOL     OW33400   0.630   1.621   5.482
10834SOL    HW133401   0.719   1.664   5.465
10834SOL    HW233402   0.603   1.639   5.577
10835SOL     OW33403   5.870   2.033   2.256
10835SOL    HW133404   5.890   1.952   2.312
10835SOL    HW233405   5.777   2.025   2.220
10836SOL     OW33406   0.565   1.598   5.736
10836SOL    HW133407   0.535   1.504   5.724
10836SOL    HW233408   0.514   1.640   5.812
10837SOL     OW33409   6.993   4.769   0.307
10837SOL    HW133410   0.043   4.700   0.320
10837SOL    HW233411   6.953   4.791   0.395
10838SOL     OW33412   5.677   6.663   6.604
10838SOL    HW133413   5.624   6.630   6.683
10838SOL    HW233414   5.756   6.604   6.589
10839SOL     OW33415   2.369   1.688   0.083
10839SOL    HW133416   2.390   1.732   7.018
10839SOL    HW233417   2.446   1.699   0.146
10840SOL     OW33418   3.613   5.622   1.576
10840SOL    HW133419   3.656   5.542   1.619
10840SOL    HW233420   3.684   5.679   1.534
10841SOL     OW33421   4.214   5.869   6.142
10841SOL    HW133422   4.286   5.825   6.195
10841SOL    HW233423   4.182   5.807   6.070
10842SOL     OW33424   6.470   3.099   0.793
10842SOL    HW133425   6.475   3.194   0.760
10842SOL    HW233426   6.561   3.069   0.821
10843SOL     OW33427   1.081   1.783   1.796
10843SOL    HW133428   1.091   1.782   1.696
10843SOL    HW233429   1.077   1.689   1.830
10844SOL     OW33430   5.633   6.995   3.315
10844SOL    HW133431   5.700   7.014   3.388
10844SOL    HW233432   5.597   6.902   3.328
10845SOL     OW33433   1.393   1.376   1.425
10845SOL    HW133434   1.353   1.313   1.358
10845SOL    HW233435   1.489   1.355   1.437
10846SOL     OW33436   3.940   2.269   0.892
10846SOL    HW133437   3.992   2.224   0.820
10846SOL    HW233438   3.916   2.203   0.963
10847SOL     OW33439   3.651   2.167   6.035
10847SOL    HW133440   3.634   2.217   6.120
10847SOL    HW233441   3.583   2.194   5.966
10848SOL     OW33442   2.083   1.101   6.904
10848SOL    HW133443   2.082   1.082   6.806
10848SOL    HW233444   2.058   1.017   6.954
10849SOL     OW33445   2.987   4.919   4.524
10849SOL    HW133446   2.917   4.986   4.500
10849SOL    HW233447   3.005   4.923   4.622
10850SOL     OW33448   5.488   6.692   0.085
10850SOL    HW133449   5.468   6.774   0.031
10850SOL    HW233450   5.578   6.701   0.127
10851SOL     OW33451   2.589   2.499   5.979
10851SOL    HW133452   2.559   2.517   6.073
10851SOL    HW233453   2.569   2.578   5.921
10852SOL     OW33454   0.168   0.989   6.677
10852SOL    HW133455   0.136   1.052   6.607
10852SOL    HW233456   0.099   0.980   6.749
10853SOL     OW33457   2.788   1.559   4.494
10853SOL    HW133458   2.844   1.481   4.465
10853SOL    HW233459   2.709   1.525   4.546
10854SOL     OW33460   6.585   6.819   0.092
10854SOL    HW133461   6.496   6.862   0.082
10854SOL    HW233462   6.653   6.867   0.036
10855SOL     OW33463   1.513   6.279   2.329
10855SOL    HW133464   1.416   6.253   2.335
10855SOL    HW233465   1.570   6.197   2.340
10856SOL     OW33466   6.067   6.277   0.038
10856SOL    HW133467   6.107   6.274   0.129
10856SOL    HW233468   6.021   6.191   0.018
10857SOL     OW33469   6.066   1.952   3.560
10857SOL    HW133470   6.004   1.963   3.483
10857SOL    HW233471   6.034   1.878   3.619
10858SOL     OW33472   1.311   3.270   0.306
10858SOL    HW133473   1.230   3.295   0.359
10858SOL    HW233474   1.294   3.184   0.258
10859SOL     OW33475   0.884   4.567   3.218
10859SOL    HW133476   0.840   4.642   3.170
10859SOL    HW233477   0.844   4.559   3.310
10860SOL     OW33478   6.308   1.551   0.110
10860SOL    HW133479   6.350   1.461   0.108
10860SOL    HW233480   6.287   1.581   0.017
10861SOL     OW33481   2.962   2.643   1.722
10861SOL    HW133482   3.058   2.670   1.724
10861SOL    HW233483   2.945   2.574   1.793
10862SOL     OW33484   3.418   2.208   5.914
10862SOL    HW133485   3.386   2.260   5.993
10862SOL    HW233486   3.354   2.220   5.838
10863SOL     OW33487   2.493   0.661   3.441
10863SOL    HW133488   2.563   0.730   3.424
10863SOL    HW233489   2.535   0.577   3.473
10864SOL     OW33490   2.258   4.369   2.033
10864SOL    HW133491   2.293   4.391   1.942
10864SOL    HW233492   2.330   4.383   2.101
10865SOL     OW33493   4.874   2.759   3.084
10865SOL    HW133494   4.783   2.727   3.111
10865SOL    HW233495   4.866   2.845   3.034
10866SOL     OW33496   6.618   3.994   1.749
10866SOL    HW133497   6.674   4.008   1.831
10866SOL    HW233498   6.532   3.951   1.774
10867SOL     OW33499   3.399   2.255   0.373
10867SOL    HW133500   3.437   2.203   0.296
10867SOL    HW233501   3.473   2.305   0.418
10868SOL     OW33502   0.744   2.433   3.721
10868SOL    HW133503   0.724   2.335   3.727
10868SOL    HW233504   0.767   2.457   3.627
10869NA      NA33505   0.128   1.753   5.828
10870NA      NA33506   4.442   4.469   5.269
10871NA      NA33507   1.605   5.447   2.658
10872NA      NA33508   5.243   4.359   3.466
10873NA      NA33509   4.417   2.487   5.189
10874NA      NA33510   2.502   5.257   1.078
10875NA      NA33511   1.328   5.558   0.357
10876NA      NA33512   3.375   4.033   1.300
10877NA      NA33513   4.246   4.718   1.063
10878NA      NA33514   3.387   0.979   6.473
10879NA      NA33515   5.610   5.846   1.895
10880NA      NA33516   1.188   6.688   5.262
10881NA      NA33517   4.552   5.108   1.873
10882NA      NA33518   2.916   3.232   6.779
   7.02207   7.02207   7.02207
