Generated by trjconv : CNT in water t= 384.00000
33518
    1C        C    1   2.838   2.767   4.749
    1C        C    2   2.898   2.722   4.869
    1C        C    3   2.836   2.770   4.985
    1C        C    4   2.852   2.775   4.263
    1C        C    5   2.905   2.733   4.387
    1C        C    6   2.851   2.778   4.509
    1C        C    7   3.014   2.641   4.629
    1C        C    8   2.896   2.718   4.629
    1C        C    9   3.078   2.605   4.750
    1C        C   10   3.012   2.639   4.870
    1C        C   11   3.186   2.497   4.979
    1C        C   12   3.064   2.566   4.978
    1C        C   13   2.850   2.770   3.773
    1C        C   14   2.897   2.721   3.897
    1C        C   15   2.848   2.774   4.018
    1C        C   16   3.019   2.648   4.140
    1C        C   17   2.903   2.729   4.140
    1C        C   18   3.080   2.613   4.263
    1C        C   19   3.021   2.652   4.386
    1C        C   20   3.211   2.558   4.506
    1C        C   21   3.080   2.612   4.507
    1C        C   22   3.280   2.540   4.627
    1C        C   23   3.210   2.554   4.749
    1C        C   24   3.415   2.484   4.866
    1C        C   25   3.274   2.506   4.867
    1C        C   26   3.490   2.484   4.984
    1C        C   27   2.846   2.766   3.285
    1C        C   28   2.900   2.719   3.407
    1C        C   29   2.850   2.770   3.528
    1C        C   30   3.019   2.644   3.651
    1C        C   31   2.902   2.723   3.650
    1C        C   32   3.080   2.609   3.774
    1C        C   33   3.015   2.643   3.895
    1C        C   34   3.209   2.558   4.017
    1C        C   35   3.078   2.610   4.017
    1C        C   36   3.280   2.543   4.138
    1C        C   37   3.213   2.567   4.260
    1C        C   38   3.418   2.517   4.383
    1C        C   39   3.279   2.542   4.383
    1C        C   40   3.489   2.507   4.504
    1C        C   41   3.416   2.504   4.626
    1C        C   42   3.632   2.491   4.747
    1C        C   43   3.490   2.483   4.744
    1C        C   44   3.709   2.492   4.865
    1C        C   45   3.629   2.489   4.980
    1C        C   46   2.836   2.751   2.795
    1C        C   47   2.891   2.710   2.918
    1C        C   48   2.842   2.762   3.040
    1C        C   49   3.016   2.640   3.162
    1C        C   50   2.899   2.719   3.163
    1C        C   51   3.078   2.607   3.284
    1C        C   52   3.017   2.639   3.408
    1C        C   53   3.212   2.554   3.532
    1C        C   54   3.081   2.607   3.530
    1C        C   55   3.280   2.532   3.653
    1C        C   56   3.208   2.551   3.774
    1C        C   57   3.419   2.524   3.896
    1C        C   58   3.278   2.537   3.896
    1C        C   59   3.488   2.508   4.019
    1C        C   60   3.417   2.511   4.141
    1C        C   61   3.631   2.503   4.262
    1C        C   62   3.490   2.507   4.262
    1C        C   63   3.701   2.518   4.384
    1C        C   64   3.630   2.513   4.506
    1C        C   65   3.840   2.545   4.625
    1C        C   66   3.704   2.508   4.627
    1C        C   67   3.910   2.564   4.747
    1C        C   68   3.846   2.527   4.867
    1C        C   69   4.052   2.588   4.985
    1C        C   70   3.925   2.529   4.982
    1C        C   71   2.826   2.736   2.309
    1C        C   72   2.886   2.693   2.430
    1C        C   73   2.834   2.747   2.550
    1C        C   74   3.010   2.631   2.675
    1C        C   75   2.888   2.703   2.672
    1C        C   76   3.074   2.602   2.797
    1C        C   77   3.009   2.632   2.919
    1C        C   78   3.208   2.553   3.039
    1C        C   79   3.075   2.600   3.040
    1C        C   80   3.276   2.537   3.161
    1C        C   81   3.210   2.555   3.285
    1C        C   82   3.416   2.510   3.405
    1C        C   83   3.277   2.537   3.408
    1C        C   84   3.488   2.506   3.526
    1C        C   85   3.421   2.516   3.650
    1C        C   86   3.630   2.507   3.771
    1C        C   87   3.489   2.514   3.774
    1C        C   88   3.698   2.517   3.894
    1C        C   89   3.629   2.511   4.018
    1C        C   90   3.837   2.546   4.139
    1C        C   91   3.700   2.512   4.139
    1C        C   92   3.908   2.564   4.261
    1C        C   93   3.840   2.547   4.383
    1C        C   94   4.035   2.632   4.501
    1C        C   95   3.909   2.568   4.505
    1C        C   96   4.095   2.669   4.623
    1C        C   97   4.039   2.623   4.744
    1C        C   98   4.191   2.766   4.862
    1C        C   99   4.104   2.653   4.867
    1C        C  100   4.210   2.847   4.975
    1C        C  101   2.822   2.731   2.072
    1C        C  102   2.991   2.592   2.191
    1C        C  103   2.878   2.679   2.189
    1C        C  104   3.064   2.571   2.312
    1C        C  105   3.005   2.617   2.432
    1C        C  106   3.202   2.538   2.551
    1C        C  107   3.072   2.592   2.554
    1C        C  108   3.271   2.523   2.673
    1C        C  109   3.204   2.546   2.795
    1C        C  110   3.415   2.511   2.916
    1C        C  111   3.276   2.536   2.916
    1C        C  112   3.484   2.499   3.039
    1C        C  113   3.415   2.510   3.161
    1C        C  114   3.628   2.511   3.284
    1C        C  115   3.487   2.504   3.283
    1C        C  116   3.700   2.514   3.405
    1C        C  117   3.629   2.506   3.527
    1C        C  118   3.838   2.546   3.650
    1C        C  119   3.701   2.514   3.649
    1C        C  120   3.904   2.567   3.773
    1C        C  121   3.837   2.542   3.894
    1C        C  122   4.026   2.637   4.015
    1C        C  123   3.904   2.566   4.016
    1C        C  124   4.089   2.675   4.136
    1C        C  125   4.032   2.630   4.258
    1C        C  126   4.198   2.766   4.380
    1C        C  127   4.094   2.671   4.378
    1C        C  128   4.247   2.822   4.501
    1C        C  129   4.198   2.766   4.621
    1C        C  130   4.328   2.937   4.743
    1C        C  131   4.243   2.823   4.742
    1C        C  132   4.352   3.007   4.863
    1C        C  133   4.286   2.963   4.978
    1C        C  134   3.176   2.469   2.083
    1C        C  135   3.042   2.512   2.084
    1C        C  136   3.263   2.483   2.191
    1C        C  137   3.197   2.522   2.310
    1C        C  138   3.408   2.481   2.430
    1C        C  139   3.269   2.506   2.431
    1C        C  140   3.481   2.482   2.550
    1C        C  141   3.411   2.500   2.671
    1C        C  142   3.624   2.502   2.791
    1C        C  143   3.483   2.499   2.793
    1C        C  144   3.693   2.508   2.914
    1C        C  145   3.625   2.505   3.038
    1C        C  146   3.834   2.543   3.158
    1C        C  147   3.697   2.508   3.160
    1C        C  148   3.901   2.567   3.280
    1C        C  149   3.838   2.541   3.404
    1C        C  150   4.031   2.627   3.524
    1C        C  151   3.904   2.565   3.526
    1C        C  152   4.091   2.664   3.647
    1C        C  153   4.030   2.632   3.770
    1C        C  154   4.194   2.765   3.890
    1C        C  155   4.085   2.675   3.893
    1C        C  156   4.250   2.811   4.011
    1C        C  157   4.200   2.762   4.134
    1C        C  158   4.342   2.919   4.254
    1C        C  159   4.252   2.810   4.257
    1C        C  160   4.376   2.984   4.374
    1C        C  161   4.334   2.933   4.499
    1C        C  162   4.444   3.114   4.618
    1C        C  163   4.375   2.991   4.621
    1C        C  164   4.467   3.186   4.737
    1C        C  165   4.431   3.125   4.859
    1C        C  166   4.508   3.324   4.975
    1C        C  167   4.480   3.188   4.974
    1C        C  168   3.480   2.439   2.073
    1C        C  169   3.403   2.467   2.187
    1C        C  170   3.619   2.472   2.308
    1C        C  171   3.477   2.470   2.307
    1C        C  172   3.695   2.488   2.426
    1C        C  173   3.623   2.484   2.547
    1C        C  174   3.828   2.545   2.669
    1C        C  175   3.692   2.505   2.668
    1C        C  176   3.896   2.567   2.790
    1C        C  177   3.830   2.544   2.913
    1C        C  178   4.026   2.627   3.035
    1C        C  179   3.898   2.566   3.035
    1C        C  180   4.090   2.662   3.157
    1C        C  181   4.029   2.628   3.280
    1C        C  182   4.202   2.751   3.400
    1C        C  183   4.090   2.664   3.401
    1C        C  184   4.251   2.805   3.521
    1C        C  185   4.197   2.758   3.643
    1C        C  186   4.338   2.915   3.765
    1C        C  187   4.244   2.810   3.766
    1C        C  188   4.381   2.975   3.886
    1C        C  189   4.342   2.918   4.009
    1C        C  190   4.443   3.104   4.130
    1C        C  191   4.384   2.976   4.131
    1C        C  192   4.465   3.172   4.252
    1C        C  193   4.440   3.109   4.376
    1C        C  194   4.502   3.316   4.496
    1C        C  195   4.472   3.178   4.495
    1C        C  196   4.522   3.390   4.615
    1C        C  197   4.511   3.322   4.738
    1C        C  198   4.555   3.536   4.852
    1C        C  199   4.537   3.394   4.857
    1C        C  200   4.580   3.620   4.965
    1C        C  201   3.619   2.422   2.072
    1C        C  202   3.827   2.518   2.184
    1C        C  203   3.693   2.465   2.187
    1C        C  204   3.899   2.544   2.303
    1C        C  205   3.831   2.526   2.426
    1C        C  206   4.025   2.619   2.546
    1C        C  207   3.897   2.560   2.546
    1C        C  208   4.089   2.656   2.667
    1C        C  209   4.023   2.629   2.789
    1C        C  210   4.198   2.746   2.908
    1C        C  211   4.084   2.663   2.912
    1C        C  212   4.249   2.797   3.030
    1C        C  213   4.203   2.746   3.153
    1C        C  214   4.337   2.909   3.274
    1C        C  215   4.252   2.796   3.276
    1C        C  216   4.376   2.972   3.395
    1C        C  217   4.342   2.913   3.518
    1C        C  218   4.443   3.097   3.639
    1C        C  219   4.381   2.970   3.642
    1C        C  220   4.466   3.167   3.760
    1C        C  221   4.439   3.103   3.883
    1C        C  222   4.501   3.305   4.003
    1C        C  223   4.467   3.168   4.006
    1C        C  224   4.510   3.375   4.126
    1C        C  225   4.503   3.308   4.250
    1C        C  226   4.518   3.522   4.368
    1C        C  227   4.514   3.381   4.371
    1C        C  228   4.513   3.599   4.487
    1C        C  229   4.523   3.531   4.611
    1C        C  230   4.501   3.745   4.727
    1C        C  231   4.535   3.607   4.730
    1C        C  232   4.499   3.821   4.845
    1C        C  233   4.553   3.757   4.958
    1C        C  234   4.022   2.612   2.066
    1C        C  235   3.897   2.549   2.067
    1C        C  236   4.090   2.644   2.184
    1C        C  237   4.028   2.603   2.304
    1C        C  238   4.201   2.734   2.423
    1C        C  239   4.090   2.646   2.423
    1C        C  240   4.258   2.782   2.543
    1C        C  241   4.203   2.739   2.666
    1C        C  242   4.339   2.904   2.785
    1C        C  243   4.255   2.791   2.787
    1C        C  244   4.377   2.965   2.907
    1C        C  245   4.338   2.907   3.030
    1C        C  246   4.440   3.093   3.149
    1C        C  247   4.378   2.967   3.152
    1C        C  248   4.466   3.160   3.271
    1C        C  249   4.438   3.099   3.395
    1C        C  250   4.500   3.301   3.514
    1C        C  251   4.466   3.164   3.517
    1C        C  252   4.509   3.373   3.635
    1C        C  253   4.499   3.304   3.758
    1C        C  254   4.522   3.515   3.880
    1C        C  255   4.511   3.374   3.880
    1C        C  256   4.515   3.587   4.001
    1C        C  257   4.512   3.516   4.123
    1C        C  258   4.491   3.729   4.243
    1C        C  259   4.510   3.589   4.244
    1C        C  260   4.478   3.804   4.362
    1C        C  261   4.491   3.738   4.487
    1C        C  262   4.427   3.945   4.603
    1C        C  263   4.474   3.812   4.606
    1C        C  264   4.406   4.013   4.725
    1C        C  265   4.443   3.950   4.846
    1C        C  266   4.316   4.130   4.958
    1C        C  267   4.390   4.012   4.960
    1C        C  268   4.263   2.772   2.065
    1C        C  269   4.202   2.729   2.184
    1C        C  270   4.351   2.889   2.299
    1C        C  271   4.257   2.782   2.303
    1C        C  272   4.383   2.955   2.419
    1C        C  273   4.342   2.895   2.540
    1C        C  274   4.443   3.085   2.661
    1C        C  275   4.379   2.959   2.661
    1C        C  276   4.467   3.154   2.782
    1C        C  277   4.441   3.091   2.905
    1C        C  278   4.505   3.293   3.024
    1C        C  279   4.472   3.156   3.026
    1C        C  280   4.508   3.366   3.145
    1C        C  281   4.497   3.298   3.268
    1C        C  282   4.516   3.510   3.393
    1C        C  283   4.509   3.369   3.390
    1C        C  284   4.516   3.585   3.513
    1C        C  285   4.513   3.515   3.635
    1C        C  286   4.490   3.725   3.755
    1C        C  287   4.514   3.585   3.758
    1C        C  288   4.471   3.793   3.877
    1C        C  289   4.485   3.725   4.000
    1C        C  290   4.432   3.933   4.120
    1C        C  291   4.474   3.798   4.121
    1C        C  292   4.398   4.001   4.239
    1C        C  293   4.426   3.935   4.360
    1C        C  294   4.330   4.131   4.480
    1C        C  295   4.396   4.006   4.479
    1C        C  296   4.286   4.189   4.601
    1C        C  297   4.328   4.132   4.723
    1C        C  298   4.198   4.313   4.838
    1C        C  299   4.283   4.198   4.841
    1C        C  300   4.171   4.403   4.946
    1C        C  301   4.353   2.878   2.064
    1C        C  302   4.471   3.069   2.176
    1C        C  303   4.400   2.945   2.178
    1C        C  304   4.480   3.146   2.296
    1C        C  305   4.452   3.078   2.417
    1C        C  306   4.509   3.283   2.540
    1C        C  307   4.478   3.146   2.538
    1C        C  308   4.519   3.358   2.659
    1C        C  309   4.508   3.289   2.783
    1C        C  310   4.524   3.504   2.901
    1C        C  311   4.522   3.363   2.902
    1C        C  312   4.518   3.575   3.023
    1C        C  313   4.515   3.507   3.147
    1C        C  314   4.490   3.717   3.265
    1C        C  315   4.513   3.578   3.269
    1C        C  316   4.476   3.789   3.386
    1C        C  317   4.496   3.725   3.511
    1C        C  318   4.426   3.926   3.629
    1C        C  319   4.474   3.793   3.632
    1C        C  320   4.393   3.990   3.751
    1C        C  321   4.423   3.926   3.873
    1C        C  322   4.319   4.109   3.992
    1C        C  323   4.395   3.990   3.996
    1C        C  324   4.276   4.167   4.113
    1C        C  325   4.323   4.121   4.238
    1C        C  326   4.190   4.288   4.357
    1C        C  327   4.292   4.190   4.358
    1C        C  328   4.137   4.341   4.477
    1C        C  329   4.194   4.297   4.599
    1C        C  330   4.025   4.439   4.715
    1C        C  331   4.139   4.353   4.715
    1C        C  332   3.970   4.493   4.833
    1C        C  333   4.052   4.476   4.945
    1C        C  334   4.552   3.267   2.060
    1C        C  335   4.534   3.128   2.062
    1C        C  336   4.542   3.348   2.175
    1C        C  337   4.525   3.281   2.298
    1C        C  338   4.528   3.495   2.411
    1C        C  339   4.523   3.354   2.418
    1C        C  340   4.517   3.570   2.531
    1C        C  341   4.517   3.499   2.653
    1C        C  342   4.492   3.708   2.776
    1C        C  343   4.519   3.569   2.775
    1C        C  344   4.475   3.780   2.897
    1C        C  345   4.493   3.714   3.020
    1C        C  346   4.430   3.917   3.139
    1C        C  347   4.477   3.784   3.142
    1C        C  348   4.394   3.981   3.260
    1C        C  349   4.423   3.920   3.384
    1C        C  350   4.320   4.106   3.504
    1C        C  351   4.397   3.987   3.505
    1C        C  352   4.273   4.165   3.623
    1C        C  353   4.318   4.110   3.746
    1C        C  354   4.176   4.264   3.868
    1C        C  355   4.272   4.160   3.869
    1C        C  356   4.122   4.314   3.989
    1C        C  357   4.177   4.268   4.110
    1C        C  358   4.014   4.399   4.230
    1C        C  359   4.133   4.323   4.233
    1C        C  360   3.955   4.447   4.348
    1C        C  361   4.020   4.419   4.470
    1C        C  362   3.831   4.517   4.592
    1C        C  363   3.962   4.463   4.591
    1C        C  364   3.762   4.548   4.711
    1C        C  365   3.837   4.542   4.830
    1C        C  366   3.629   4.584   4.951
    1C        C  367   3.768   4.573   4.948
    1C        C  368   4.511   3.563   2.055
    1C        C  369   4.531   3.488   2.172
    1C        C  370   4.504   3.706   2.287
    1C        C  371   4.523   3.566   2.289
    1C        C  372   4.487   3.779   2.407
    1C        C  373   4.502   3.710   2.530
    1C        C  374   4.430   3.908   2.652
    1C        C  375   4.482   3.777   2.653
    1C        C  376   4.395   3.973   2.772
    1C        C  377   4.425   3.912   2.895
    1C        C  378   4.321   4.098   3.014
    1C        C  379   4.397   3.979   3.016
    1C        C  380   4.276   4.156   3.135
    1C        C  381   4.320   4.102   3.257
    1C        C  382   4.181   4.260   3.377
    1C        C  383   4.281   4.161   3.380
    1C        C  384   4.127   4.313   3.496
    1C        C  385   4.176   4.268   3.621
    1C        C  386   4.010   4.392   3.744
    1C        C  387   4.126   4.312   3.745
    1C        C  388   3.945   4.428   3.864
    1C        C  389   4.006   4.394   3.987
    1C        C  390   3.818   4.490   4.109
    1C        C  391   3.946   4.432   4.110
    1C        C  392   3.751   4.516   4.230
    1C        C  393   3.822   4.496   4.351
    1C        C  394   3.618   4.552   4.475
    1C        C  395   3.756   4.524   4.473
    1C        C  396   3.545   4.568   4.595
    1C        C  397   3.622   4.566   4.714
    1C        C  398   3.411   4.551   4.842
    1C        C  399   3.550   4.571   4.836
    1C        C  400   3.345   4.507   4.958
    1C        C  401   4.507   3.702   2.052
    1C        C  402   4.454   3.916   2.169
    1C        C  403   4.493   3.780   2.167
    1C        C  404   4.413   3.980   2.288
    1C        C  405   4.437   3.911   2.409
    1C        C  406   4.331   4.096   2.526
    1C        C  407   4.404   3.975   2.530
    1C        C  408   4.283   4.152   2.647
    1C        C  409   4.323   4.095   2.770
    1C        C  410   4.180   4.254   2.887
    1C        C  411   4.277   4.151   2.891
    1C        C  412   4.127   4.303   3.009
    1C        C  413   4.179   4.259   3.133
    1C        C  414   4.003   4.377   3.254
    1C        C  415   4.125   4.305   3.255
    1C        C  416   3.945   4.418   3.376
    1C        C  417   4.006   4.386   3.499
    1C        C  418   3.816   4.479   3.620
    1C        C  419   3.945   4.422   3.622
    1C        C  420   3.746   4.504   3.740
    1C        C  421   3.813   4.478   3.862
    1C        C  422   3.612   4.534   3.986
    1C        C  423   3.751   4.507   3.985
    1C        C  424   3.543   4.541   4.109
    1C        C  425   3.612   4.538   4.232
    1C        C  426   3.402   4.548   4.356
    1C        C  427   3.544   4.552   4.355
    1C        C  428   3.332   4.554   4.478
    1C        C  429   3.404   4.561   4.600
    1C        C  430   3.197   4.518   4.725
    1C        C  431   3.336   4.548   4.723
    1C        C  432   3.128   4.492   4.847
    1C        C  433   3.207   4.489   4.962
    1C        C  434   4.391   4.124   2.053
    1C        C  435   4.451   3.998   2.055
    1C        C  436   4.307   4.165   2.162
    1C        C  437   4.336   4.099   2.285
    1C        C  438   4.182   4.249   2.401
    1C        C  439   4.287   4.154   2.406
    1C        C  440   4.127   4.295   2.523
    1C        C  441   4.182   4.251   2.645
    1C        C  442   4.009   4.379   2.765
    1C        C  443   4.125   4.298   2.765
    1C        C  444   3.947   4.418   2.886
    1C        C  445   4.007   4.378   3.007
    1C        C  446   3.816   4.467   3.131
    1C        C  447   3.945   4.409   3.129
    1C        C  448   3.750   4.495   3.253
    1C        C  449   3.817   4.477   3.376
    1C        C  450   3.609   4.527   3.496
    1C        C  451   3.748   4.500   3.498
    1C        C  452   3.539   4.536   3.618
    1C        C  453   3.608   4.535   3.742
    1C        C  454   3.399   4.549   3.866
    1C        C  455   3.540   4.547   3.865
    1C        C  456   3.331   4.530   3.988
    1C        C  457   3.402   4.529   4.111
    1C        C  458   3.194   4.509   4.237
    1C        C  459   3.333   4.534   4.234
    1C        C  460   3.128   4.492   4.361
    1C        C  461   3.195   4.522   4.481
    1C        C  462   3.001   4.437   4.605
    1C        C  463   3.128   4.497   4.603
    1C        C  464   2.933   4.404   4.725
    1C        C  465   2.993   4.443   4.848
    1C        C  466   2.801   4.340   4.962
    1C        C  467   2.908   4.431   4.962
    1C        C  468   4.122   4.282   2.043
    1C        C  469   4.188   4.245   2.161
    1C        C  470   4.007   4.370   2.278
    1C        C  471   4.126   4.292   2.279
    1C        C  472   3.943   4.402   2.400
    1C        C  473   4.006   4.368   2.522
    1C        C  474   3.811   4.458   2.644
    1C        C  475   3.943   4.407   2.643
    1C        C  476   3.744   4.482   2.766
    1C        C  477   3.816   4.471   2.888
    1C        C  478   3.608   4.515   3.011
    1C        C  479   3.747   4.489   3.010
    1C        C  480   3.536   4.524   3.132
    1C        C  481   3.610   4.517   3.253
    1C        C  482   3.398   4.534   3.376
    1C        C  483   3.539   4.533   3.374
    1C        C  484   3.328   4.527   3.498
    1C        C  485   3.398   4.535   3.620
    1C        C  486   3.192   4.500   3.748
    1C        C  487   3.329   4.536   3.744
    1C        C  488   3.124   4.478   3.870
    1C        C  489   3.193   4.502   3.991
    1C        C  490   3.000   4.425   4.117
    1C        C  491   3.128   4.485   4.115
    1C        C  492   2.944   4.388   4.241
    1C        C  493   3.000   4.431   4.363
    1C        C  494   2.829   4.306   4.483
    1C        C  495   2.940   4.393   4.485
    1C        C  496   2.774   4.260   4.605
    1C        C  497   2.822   4.316   4.725
    1C        C  498   2.670   4.166   4.849
    1C        C  499   2.760   4.275   4.845
    1C        C  500   2.597   4.121   4.960
    1C        C  501   4.002   4.352   2.043
    1C        C  502   3.811   4.461   2.156
    1C        C  503   3.936   4.396   2.159
    1C        C  504   3.745   4.479   2.279
    1C        C  505   3.811   4.452   2.401
    1C        C  506   3.606   4.512   2.521
    1C        C  507   3.743   4.479   2.522
    1C        C  508   3.536   4.526   2.643
    1C        C  509   3.606   4.511   2.765
    1C        C  510   3.397   4.525   2.890
    1C        C  511   3.538   4.520   2.888
    1C        C  512   3.322   4.521   3.009
    1C        C  513   3.395   4.531   3.130
    1C        C  514   3.190   4.494   3.259
    1C        C  515   3.328   4.523   3.254
    1C        C  516   3.122   4.474   3.381
    1C        C  517   3.190   4.496   3.503
    1C        C  518   2.996   4.420   3.629
    1C        C  519   3.124   4.478   3.627
    1C        C  520   2.934   4.382   3.750
    1C        C  521   2.998   4.414   3.872
    1C        C  522   2.831   4.291   3.998
    1C        C  523   2.939   4.383   3.996
    1C        C  524   2.787   4.241   4.122
    1C        C  525   2.836   4.297   4.243
    1C        C  526   2.699   4.133   4.367
    1C        C  527   2.781   4.249   4.363
    1C        C  528   2.655   4.078   4.489
    1C        C  529   2.693   4.144   4.608
    1C        C  530   2.586   3.964   4.730
    1C        C  531   2.644   4.093   4.731
    1C        C  532   2.538   3.905   4.851
    1C        C  533   2.529   3.999   4.959
    1C        C  534   3.617   4.555   2.042
    1C        C  535   3.748   4.504   2.039
    1C        C  536   3.536   4.535   2.159
    1C        C  537   3.606   4.505   2.279
    1C        C  538   3.392   4.514   2.402
    1C        C  539   3.533   4.511   2.400
    1C        C  540   3.322   4.513   2.525
    1C        C  541   3.395   4.519   2.646
    1C        C  542   3.187   4.482   2.768
    1C        C  543   3.325   4.512   2.769
    1C        C  544   3.120   4.463   2.891
    1C        C  545   3.185   4.490   3.014
    1C        C  546   2.994   4.407   3.137
    1C        C  547   3.120   4.473   3.138
    1C        C  548   2.937   4.372   3.262
    1C        C  549   2.995   4.412   3.384
    1C        C  550   2.830   4.284   3.507
    1C        C  551   2.938   4.374   3.508
    1C        C  552   2.781   4.233   3.629
    1C        C  553   2.829   4.288   3.751
    1C        C  554   2.701   4.125   3.877
    1C        C  555   2.782   4.241   3.875
    1C        C  556   2.666   4.064   4.000
    1C        C  557   2.704   4.127   4.120
    1C        C  558   2.604   3.945   4.247
    1C        C  559   2.665   4.072   4.244
    1C        C  560   2.575   3.879   4.369
    1C        C  561   2.598   3.949   4.489
    1C        C  562   2.533   3.751   4.613
    1C        C  563   2.565   3.889   4.612
    1C        C  564   2.518   3.685   4.737
    1C        C  565   2.527   3.762   4.856
    1C        C  566   2.530   3.550   4.976
    1C        C  567   2.525   3.689   4.975
    1C        C  568   3.327   4.480   2.043
    1C        C  569   3.395   4.515   2.160
    1C        C  570   3.184   4.478   2.284
    1C        C  571   3.320   4.516   2.281
    1C        C  572   3.113   4.456   2.405
    1C        C  573   3.184   4.483   2.524
    1C        C  574   2.988   4.406   2.649
    1C        C  575   3.117   4.464   2.647
    1C        C  576   2.928   4.368   2.771
    1C        C  577   2.992   4.402   2.891
    1C        C  578   2.825   4.279   3.018
    1C        C  579   2.935   4.366   3.015
    1C        C  580   2.783   4.223   3.141
    1C        C  581   2.832   4.278   3.262
    1C        C  582   2.697   4.117   3.386
    1C        C  583   2.781   4.231   3.385
    1C        C  584   2.660   4.060   3.509
    1C        C  585   2.695   4.121   3.632
    1C        C  586   2.603   3.935   3.758
    1C        C  587   2.662   4.064   3.757
    1C        C  588   2.577   3.871   3.882
    1C        C  589   2.608   3.935   4.004
    1C        C  590   2.546   3.736   4.129
    1C        C  591   2.582   3.873   4.128
    1C        C  592   2.525   3.670   4.252
    1C        C  593   2.539   3.742   4.372
    1C        C  594   2.517   3.534   4.498
    1C        C  595   2.519   3.675   4.495
    1C        C  596   2.521   3.466   4.622
    1C        C  597   2.511   3.543   4.739
    1C        C  598   2.515   3.331   4.861
    1C        C  599   2.513   3.472   4.861
    1C        C  600   2.513   3.247   4.973
    1C        C  601   3.194   4.443   2.047
    1C        C  602   2.984   4.389   2.160
    1C        C  603   3.116   4.444   2.164
    1C        C  604   2.925   4.354   2.285
    1C        C  605   2.987   4.393   2.405
    1C        C  606   2.818   4.274   2.532
    1C        C  607   2.924   4.368   2.529
    1C        C  608   2.771   4.222   2.655
    1C        C  609   2.823   4.272   2.776
    1C        C  610   2.686   4.113   2.896
    1C        C  611   2.771   4.226   2.899
    1C        C  612   2.654   4.054   3.020
    1C        C  613   2.699   4.109   3.142
    1C        C  614   2.596   3.927   3.268
    1C        C  615   2.659   4.054   3.266
    1C        C  616   2.567   3.867   3.392
    1C        C  617   2.599   3.933   3.513
    1C        C  618   2.532   3.734   3.639
    1C        C  619   2.578   3.868   3.637
    1C        C  620   2.527   3.665   3.762
    1C        C  621   2.539   3.735   3.884
    1C        C  622   2.510   3.527   4.011
    1C        C  623   2.524   3.667   4.007
    1C        C  624   2.515   3.457   4.134
    1C        C  625   2.513   3.529   4.255
    1C        C  626   2.535   3.319   4.380
    1C        C  627   2.517   3.459   4.378
    1C        C  628   2.550   3.250   4.503
    1C        C  629   2.535   3.325   4.622
    1C        C  630   2.592   3.123   4.743
    1C        C  631   2.545   3.257   4.745
    1C        C  632   2.619   3.055   4.865
    1C        C  633   2.554   3.113   4.979
    1C        C  634   2.775   4.310   2.059
    1C        C  635   2.889   4.392   2.053
    1C        C  636   2.738   4.236   2.173
    1C        C  637   2.807   4.275   2.290
    1C        C  638   2.676   4.111   2.411
    1C        C  639   2.764   4.221   2.413
    1C        C  640   2.641   4.048   2.533
    1C        C  641   2.684   4.110   2.652
    1C        C  642   2.583   3.926   2.779
    1C        C  643   2.644   4.053   2.775
    1C        C  644   2.564   3.858   2.902
    1C        C  645   2.595   3.926   3.022
    1C        C  646   2.533   3.725   3.149
    1C        C  647   2.572   3.861   3.146
    1C        C  648   2.523   3.660   3.274
    1C        C  649   2.535   3.729   3.396
    1C        C  650   2.519   3.519   3.520
    1C        C  651   2.524   3.660   3.519
    1C        C  652   2.518   3.453   3.645
    1C        C  653   2.522   3.524   3.768
    1C        C  654   2.527   3.313   3.890
    1C        C  655   2.513   3.454   3.890
    1C        C  656   2.550   3.247   4.013
    1C        C  657   2.536   3.317   4.135
    1C        C  658   2.603   3.118   4.259
    1C        C  659   2.556   3.251   4.258
    1C        C  660   2.630   3.052   4.382
    1C        C  661   2.599   3.118   4.503
    1C        C  662   2.709   2.938   4.627
    1C        C  663   2.627   3.053   4.625
    1C        C  664   2.744   2.873   4.748
    1C        C  665   2.695   2.934   4.867
    1C        C  666   2.739   2.869   4.983
    1C        C  667   2.677   4.026   2.057
    1C        C  668   2.680   4.108   2.170
    1C        C  669   2.584   3.916   2.290
    1C        C  670   2.640   4.046   2.291
    1C        C  671   2.557   3.853   2.414
    1C        C  672   2.583   3.919   2.536
    1C        C  673   2.524   3.718   2.663
    1C        C  674   2.557   3.856   2.659
    1C        C  675   2.516   3.649   2.786
    1C        C  676   2.534   3.720   2.906
    1C        C  677   2.507   3.511   3.033
    1C        C  678   2.519   3.652   3.029
    1C        C  679   2.509   3.443   3.156
    1C        C  680   2.513   3.519   3.275
    1C        C  681   2.534   3.308   3.401
    1C        C  682   2.517   3.448   3.398
    1C        C  683   2.551   3.243   3.525
    1C        C  684   2.533   3.313   3.646
    1C        C  685   2.601   3.113   3.772
    1C        C  686   2.549   3.244   3.769
    1C        C  687   2.634   3.050   3.894
    1C        C  688   2.606   3.118   4.014
    1C        C  689   2.715   2.937   4.141
    1C        C  690   2.637   3.055   4.137
    1C        C  691   2.754   2.878   4.263
    1C        C  692   2.708   2.934   4.384
    1C        C  693   2.755   2.882   4.506
    1C        C  694   2.622   3.897   2.056
    1C        C  695   2.528   3.704   2.179
    1C        C  696   2.577   3.836   2.174
    1C        C  697   2.503   3.639   2.302
    1C        C  698   2.516   3.717   2.419
    1C        C  699   2.491   3.508   2.546
    1C        C  700   2.507   3.648   2.541
    1C        C  701   2.504   3.437   2.667
    1C        C  702   2.508   3.508   2.789
    1C        C  703   2.524   3.298   2.912
    1C        C  704   2.508   3.438   2.912
    1C        C  705   2.547   3.232   3.035
    1C        C  706   2.534   3.304   3.156
    1C        C  707   2.597   3.104   3.280
    1C        C  708   2.551   3.237   3.279
    1C        C  709   2.633   3.047   3.404
    1C        C  710   2.606   3.113   3.526
    1C        C  711   2.710   2.932   3.651
    1C        C  712   2.633   3.050   3.650
    1C        C  713   2.760   2.879   3.772
    1C        C  714   2.713   2.932   3.894
    1C        C  715   2.752   2.878   4.018
    1C        C  716   2.447   3.504   2.061
    1C        C  717   2.498   3.634   2.061
    1C        C  718   2.466   3.429   2.182
    1C        C  719   2.482   3.499   2.305
    1C        C  720   2.513   3.291   2.425
    1C        C  721   2.487   3.430   2.428
    1C        C  722   2.539   3.224   2.547
    1C        C  723   2.526   3.297   2.667
    1C        C  724   2.593   3.098   2.791
    1C        C  725   2.540   3.229   2.790
    1C        C  726   2.623   3.031   2.913
    1C        C  727   2.594   3.099   3.034
    1C        C  728   2.703   2.921   3.163
    1C        C  729   2.625   3.038   3.158
    1C        C  730   2.749   2.869   3.286
    1C        C  731   2.709   2.928   3.408
    1C        C  732   2.749   2.869   3.530
    1C        C  733   2.488   3.203   2.076
    1C        C  734   2.486   3.287   2.188
    1C        C  735   2.580   3.087   2.304
    1C        C  736   2.520   3.216   2.306
    1C        C  737   2.619   3.025   2.425
    1C        C  738   2.591   3.093   2.546
    1C        C  739   2.698   2.912   2.671
    1C        C  740   2.623   3.032   2.670
    1C        C  741   2.744   2.858   2.793
    1C        C  742   2.699   2.912   2.916
    1C        C  743   2.745   2.864   3.040
    1C        C  744   2.548   3.078   2.073
    1C        C  745   2.687   2.901   2.187
    1C        C  746   2.608   3.018   2.184
    1C        C  747   2.732   2.842   2.308
    1C        C  748   2.696   2.907   2.428
    1C        C  749   2.739   2.852   2.551
    1C        C  750   2.734   2.839   2.070
    1C        C  751   3.677   2.318   1.984
    1C        O  752   3.691   2.194   2.002
    1C        O  753   3.699   2.370   1.856
    1C        C  754   4.635   3.053   1.984
    1C        O  755   4.615   2.986   1.880
    1C        O  756   4.768   3.067   2.026
    1C        C  757   4.450   4.225   1.963
    1C        O  758   4.546   4.296   2.002
    1C        O  759   4.433   4.208   1.825
    1C        C  760   3.585   4.641   1.926
    1C        O  761   3.589   4.766   1.913
    1C        O  762   3.589   4.589   1.796
    1C        C  763   2.883   4.506   1.960
    1C        O  764   2.883   4.485   1.835
    1C        O  765   2.868   4.641   1.996
    1C        C  766   2.329   3.484   1.973
    1C        O  767   2.332   3.419   1.865
    1C        O  768   2.203   3.455   2.025
    1C        C  769   4.677   3.589   5.073
    1C        O  770   4.637   3.572   5.191
    1C        O  771   4.815   3.575   5.051
    1C        C  772   4.275   4.476   5.022
    1C        O  773   4.281   4.480   5.148
    1C        O  774   4.382   4.544   4.961
    1C        C  775   4.146   2.530   5.083
    1C        O  776   4.194   2.424   5.034
    1C        O  777   4.116   2.518   5.219
    1C        C  778   2.890   4.547   5.053
    1C        O  779   2.833   4.653   5.017
    1C        O  780   2.962   4.552   5.173
    1C        C  781   2.472   3.034   5.073
    1C        O  782   2.385   2.958   5.023
    1C        O  783   2.465   3.064   5.209
    1C        C  784   2.418   3.985   5.056
    1C        O  785   2.311   4.034   5.010
    1C        O  786   2.445   3.991   5.193
    1C        C  787   2.949   2.433   2.001
    1C        O  788   2.939   2.461   1.878
    1C        O  789   2.923   2.303   2.042
    1C        C  790   3.175   2.368   5.053
    1C        O  791   3.121   2.270   4.996
    1C        O  792   3.196   2.352   5.190
    1C        H  793   4.281   3.019   5.069
    1C        H  794   4.147   2.832   5.060
    1C        H  795   4.540   3.123   5.033
    1C        H  796   4.516   3.371   5.071
    1C        H  797   4.589   3.823   5.034
    1C        H  798   4.390   3.953   5.049
    1C        H  799   4.254   4.150   5.043
    1C        H  800   4.034   4.533   5.035
    1C        H  801   3.821   4.603   5.036
    1C        H  802   3.588   4.634   5.036
    1C        H  803   3.406   4.467   5.037
    1C        H  804   3.171   4.429   5.043
    1C        H  805   3.894   2.471   5.066
    1C        H  806   3.677   2.497   5.076
    1C        H  807   3.013   2.570   5.072
    1C        H  808   3.447   2.505   5.080
    1C        H  809   2.849   2.721   5.079
    1C        H  810   2.693   2.882   5.079
    1C        H  811   2.463   3.282   5.061
    1C        H  812   2.524   3.509   5.075
    1C        H  813   2.538   3.743   5.066
    1C        H  814   2.558   4.195   5.027
    1C        H  815   2.779   4.289   5.054
    1C        H  816   2.724   2.890   1.977
    1C        H  817   2.849   2.690   1.977
    1C        H  818   3.205   2.390   2.017
    1C        H  819   3.435   2.452   1.976
    1C        H  820   3.843   2.547   1.975
    1C        H  821   4.080   2.589   1.979
    1C        H  822   4.288   2.689   2.002
    1C        H  823   4.390   2.906   1.967
    1C        H  824   4.604   3.309   1.977
    1C        H  825   4.443   3.522   1.984
    1C        H  826   4.561   3.745   1.969
    1C        H  827   3.816   4.532   1.961
    1C        H  828   3.964   4.375   1.945
    1C        H  829   4.189   4.297   1.961
    1C        H  830   4.496   3.958   1.967
    1C        H  831   2.652   3.836   1.974
    1C        H  832   2.758   4.038   1.988
    1C        H  833   2.721   4.290   1.970
    1C        H  834   3.373   4.471   1.947
    1C        H  835   3.156   4.383   1.967
    1C        H  836   2.531   3.025   1.981
    1C        H  837   2.450   3.239   1.982
    1C        H  838   2.484   3.689   1.970
    2V3OU   H29  839   2.808   3.549   4.689
    2V3OU   C27  840   2.797   3.504   4.791
    2V3OU   H27  841   2.742   3.577   4.856
    2V3OU   H28  842   2.743   3.407   4.777
    2V3OU   O11  843   2.919   3.470   4.857
    2V3OU   C15  844   2.922   3.397   4.974
    2V3OU   C13  845   3.052   3.377   5.024
    2V3OU   C14  846   3.077   3.267   5.107
    2V3OU   C16  847   2.972   3.185   5.147
    2V3OU    H6  848   2.994   3.099   5.212
    2V3OU   C12  849   3.215   3.231   5.144
    2V3OU    O2  850   3.242   3.119   5.194
    2V3OU   C10  851   3.327   3.310   5.090
    2V3OU    C8  852   3.461   3.276   5.102
    2V3OU   O10  853   3.495   3.166   5.174
    2V3OU   H26  854   3.414   3.115   5.190
    2V3OU    C6  855   3.570   3.350   5.045
    2V3OU    C5  856   3.539   3.464   4.972
    2V3OU    C4  857   3.708   3.294   5.041
    2V3OU    H4  858   3.727   3.231   5.133
    2V3OU    H5  859   3.715   3.225   4.952
    2V3OU    C2  860   3.819   3.399   5.038
    2V3OU    O6  861   3.800   3.478   5.156
    2V3OU   H21  862   3.770   3.564   5.123
    2V3OU    C3  863   3.782   3.497   4.927
    2V3OU    H2  864   3.865   3.571   4.913
    2V3OU    H3  865   3.787   3.439   4.831
    2V3OU   C25  866   3.954   3.328   5.027
    2V3OU    O7  867   4.001   3.291   4.919
    2V3OU   C26  868   4.034   3.291   5.151
    2V3OU   H22  869   4.072   3.383   5.202
    2V3OU   H23  870   4.123   3.229   5.122
    2V3OU    O8  871   3.964   3.206   5.239
    2V3OU   H24  872   3.928   3.259   5.312
    2V3OU    C1  873   3.646   3.564   4.941
    2V3OU    H1  874   3.626   3.620   4.845
    2V3OU    O3  875   3.660   3.658   5.048
    2V3OU   C19  876   3.621   3.795   5.035
    2V3OU    H9  877   3.523   3.805   4.979
    2V3OU    O4  878   3.715   3.854   4.948
    2V3OU   C20  879   3.846   3.881   4.998
    2V3OU   H10  880   3.896   3.780   5.011
    2V3OU   C24  881   3.608   3.856   5.175
    2V3OU   H16  882   3.545   3.790   5.240
    2V3OU   H17  883   3.560   3.956   5.167
    2V3OU   C23  884   3.748   3.879   5.232
    2V3OU   H15  885   3.793   3.776   5.255
    2V3OU    N1  886   3.740   3.958   5.353
    2V3OU   H19  887   3.809   3.927   5.418
    2V3OU   H20  888   3.657   3.940   5.406
    2V3OU   C21  889   3.851   3.947   5.136
    2V3OU   H11  890   3.954   3.932   5.180
    2V3OU    O5  891   3.828   4.087   5.141
    2V3OU   H18  892   3.785   4.105   5.227
    2V3OU   C22  893   3.910   3.948   4.878
    2V3OU   H12  894   3.863   4.047   4.858
    2V3OU   H13  895   3.908   3.879   4.789
    2V3OU   H14  896   4.019   3.965   4.897
    2V3OU   C11  897   3.160   3.473   4.998
    2V3OU    O1  898   3.136   3.594   4.981
    2V3OU    C9  899   3.300   3.429   5.019
    2V3OU    C7  900   3.403   3.505   4.963
    2V3OU    O9  901   3.382   3.620   4.889
    2V3OU   H25  902   3.287   3.638   4.894
    2V3OU   C17  903   2.821   3.314   5.027
    2V3OU    H7  904   2.720   3.354   5.025
    2V3OU   C18  905   2.839   3.205   5.111
    2V3OU    H8  906   2.755   3.147   5.153
    3SOL     OW  907   3.077   4.354   5.278
    3SOL    HW1  908   3.026   4.423   5.229
    3SOL    HW2  909   3.168   4.390   5.302
    4SOL     OW  910   6.914   0.346   0.133
    4SOL    HW1  911   6.972   0.275   0.172
    4SOL    HW2  912   6.959   0.386   0.053
    5SOL     OW  913   4.216   0.868   1.450
    5SOL    HW1  914   4.224   0.914   1.538
    5SOL    HW2  915   4.264   0.920   1.380
    6SOL     OW  916   5.578   1.316   3.521
    6SOL    HW1  917   5.514   1.276   3.587
    6SOL    HW2  918   5.530   1.384   3.465
    7SOL     OW  919   1.011   4.155   5.206
    7SOL    HW1  920   1.069   4.216   5.152
    7SOL    HW2  921   1.061   4.071   5.226
    8SOL     OW  922   2.123   2.564   6.150
    8SOL    HW1  923   2.213   2.590   6.185
    8SOL    HW2  924   2.132   2.524   6.059
    9SOL     OW  925   6.754   1.663   6.261
    9SOL    HW1  926   6.793   1.740   6.310
    9SOL    HW2  927   6.685   1.617   6.318
   10SOL     OW  928   4.437   4.983   2.979
   10SOL    HW1  929   4.459   5.081   2.978
   10SOL    HW2  930   4.343   4.970   2.947
   11SOL     OW  931   1.879   0.851   6.912
   11SOL    HW1  932   1.900   0.790   6.989
   11SOL    HW2  933   1.799   0.907   6.936
   12SOL     OW  934   2.649   4.651   3.356
   12SOL    HW1  935   2.555   4.683   3.360
   12SOL    HW2  936   2.659   4.587   3.279
   13SOL     OW  937   4.664   6.016   2.758
   13SOL    HW1  938   4.758   5.983   2.755
   13SOL    HW2  939   4.656   6.103   2.709
   14SOL     OW  940   4.883   4.990   5.677
   14SOL    HW1  941   4.878   5.087   5.700
   14SOL    HW2  942   4.807   4.966   5.618
   15SOL     OW  943   1.041   6.017   6.239
   15SOL    HW1  944   1.065   6.013   6.336
   15SOL    HW2  945   1.028   6.113   6.212
   16SOL     OW  946   6.025   2.567   6.488
   16SOL    HW1  947   6.017   2.491   6.423
   16SOL    HW2  948   6.120   2.597   6.493
   17SOL     OW  949   6.048   0.701   5.800
   17SOL    HW1  950   6.140   0.663   5.787
   17SOL    HW2  951   5.987   0.629   5.834
   18SOL     OW  952   3.009   0.658   5.136
   18SOL    HW1  953   3.057   0.673   5.049
   18SOL    HW2  954   3.030   0.732   5.199
   19SOL     OW  955   1.112   1.893   3.193
   19SOL    HW1  956   1.023   1.860   3.224
   19SOL    HW2  957   1.113   1.900   3.094
   20SOL     OW  958   5.773   2.581   5.840
   20SOL    HW1  959   5.689   2.618   5.800
   20SOL    HW2  960   5.772   2.594   5.939
   21SOL     OW  961   3.839   6.188   2.702
   21SOL    HW1  962   3.899   6.250   2.652
   21SOL    HW2  963   3.880   6.166   2.791
   22SOL     OW  964   1.952   6.324   4.935
   22SOL    HW1  965   2.028   6.378   4.970
   22SOL    HW2  966   1.972   6.227   4.946
   23SOL     OW  967   5.088   4.714   1.943
   23SOL    HW1  968   5.133   4.670   2.021
   23SOL    HW2  969   5.022   4.650   1.903
   24SOL     OW  970   3.599   0.552   1.663
   24SOL    HW1  971   3.592   0.602   1.577
   24SOL    HW2  972   3.696   0.533   1.683
   25SOL     OW  973   2.662   6.977   3.120
   25SOL    HW1  974   2.711   0.038   3.134
   25SOL    HW2  975   2.629   6.943   3.208
   26SOL     OW  976   1.762   1.944   6.818
   26SOL    HW1  977   1.862   1.935   6.816
   26SOL    HW2  978   1.726   1.900   6.901
   27SOL     OW  979   0.121   0.822   2.355
   27SOL    HW1  980   0.068   0.865   2.428
   27SOL    HW2  981   0.115   0.877   2.272
   28SOL     OW  982   1.871   0.460   4.862
   28SOL    HW1  983   1.801   0.519   4.902
   28SOL    HW2  984   1.932   0.515   4.804
   29SOL     OW  985   6.910   0.819   7.005
   29SOL    HW1  986   6.839   0.749   6.995
   29SOL    HW2  987   6.891   0.874   0.059
   30SOL     OW  988   3.505   0.359   5.097
   30SOL    HW1  989   3.530   0.345   5.193
   30SOL    HW2  990   3.573   0.419   5.054
   31SOL     OW  991   0.235   2.646   4.832
   31SOL    HW1  992   0.170   2.665   4.759
   31SOL    HW2  993   0.222   2.552   4.864
   32SOL     OW  994   1.522   1.493   0.999
   32SOL    HW1  995   1.488   1.445   0.918
   32SOL    HW2  996   1.606   1.543   0.976
   33SOL     OW  997   0.409   3.731   5.512
   33SOL    HW1  998   0.487   3.669   5.522
   33SOL    HW2  999   0.347   3.719   5.589
   34SOL     OW 1000   1.623   5.212   5.007
   34SOL    HW1 1001   1.649   5.126   4.962
   34SOL    HW2 1002   1.641   5.204   5.105
   35SOL     OW 1003   3.952   2.753   6.301
   35SOL    HW1 1004   3.983   2.659   6.314
   35SOL    HW2 1005   3.852   2.757   6.306
   36SOL     OW 1006   5.103   0.995   4.088
   36SOL    HW1 1007   5.107   1.061   4.013
   36SOL    HW2 1008   5.181   0.932   4.082
   37SOL     OW 1009   2.386   1.498   3.213
   37SOL    HW1 1010   2.350   1.464   3.300
   37SOL    HW2 1011   2.310   1.514   3.150
   38SOL     OW 1012   1.880   5.267   2.090
   38SOL    HW1 1013   1.918   5.354   2.058
   38SOL    HW2 1014   1.955   5.206   2.116
   39SOL     OW 1015   5.895   4.499   6.806
   39SOL    HW1 1016   5.917   4.403   6.827
   39SOL    HW2 1017   5.808   4.523   6.848
   40SOL     OW 1018   3.486   0.468   6.310
   40SOL    HW1 1019   3.437   0.381   6.301
   40SOL    HW2 1020   3.584   0.449   6.322
   41SOL     OW 1021   5.764   4.202   2.143
   41SOL    HW1 1022   5.704   4.138   2.191
   41SOL    HW2 1023   5.711   4.281   2.111
   42SOL     OW 1024   2.910   5.598   4.440
   42SOL    HW1 1025   2.836   5.606   4.507
   42SOL    HW2 1026   2.883   5.644   4.355
   43SOL     OW 1027   4.075   6.827   4.798
   43SOL    HW1 1028   4.039   6.735   4.778
   43SOL    HW2 1029   4.044   6.890   4.727
   44SOL     OW 1030   6.140   3.282   5.105
   44SOL    HW1 1031   6.171   3.221   5.032
   44SOL    HW2 1032   6.138   3.376   5.070
   45SOL     OW 1033   4.316   5.617   1.055
   45SOL    HW1 1034   4.408   5.651   1.033
   45SOL    HW2 1035   4.316   5.517   1.052
   46SOL     OW 1036   0.524   3.048   4.077
   46SOL    HW1 1037   0.550   2.995   4.158
   46SOL    HW2 1038   0.495   2.986   4.004
   47SOL     OW 1039   5.362   3.531   1.933
   47SOL    HW1 1040   5.280   3.475   1.923
   47SOL    HW2 1041   5.391   3.564   1.843
   48SOL     OW 1042   0.062   3.203   6.819
   48SOL    HW1 1043   0.087   3.283   6.874
   48SOL    HW2 1044   0.124   3.196   6.741
   49SOL     OW 1045   5.038   3.029   0.321
   49SOL    HW1 1046   5.059   3.038   0.224
   49SOL    HW2 1047   4.953   3.078   0.342
   50SOL     OW 1048   6.034   2.312   6.089
   50SOL    HW1 1049   6.108   2.321   6.022
   50SOL    HW2 1050   6.074   2.293   6.179
   51SOL     OW 1051   2.179   4.758   2.803
   51SOL    HW1 1052   2.140   4.849   2.785
   51SOL    HW2 1053   2.211   4.753   2.897
   52SOL     OW 1054   5.531   3.039   1.759
   52SOL    HW1 1055   5.450   2.980   1.769
   52SOL    HW2 1056   5.595   2.997   1.696
   53SOL     OW 1057   4.938   0.038   3.514
   53SOL    HW1 1058   4.928   6.973   3.472
   53SOL    HW2 1059   4.881   0.103   3.466
   54SOL     OW 1060   5.777   5.773   0.375
   54SOL    HW1 1061   5.723   5.847   0.335
   54SOL    HW2 1062   5.717   5.694   0.391
   55SOL     OW 1063   2.256   2.563   6.596
   55SOL    HW1 1064   2.299   2.650   6.622
   55SOL    HW2 1065   2.165   2.581   6.559
   56SOL     OW 1066   1.464   1.814   0.526
   56SOL    HW1 1067   1.410   1.732   0.547
   56SOL    HW2 1068   1.405   1.895   0.531
   57SOL     OW 1069   3.778   0.712   6.982
   57SOL    HW1 1070   3.761   0.641   6.913
   57SOL    HW2 1071   3.708   0.707   0.027
   58SOL     OW 1072   0.937   0.318   6.436
   58SOL    HW1 1073   0.962   0.408   6.471
   58SOL    HW2 1074   1.005   0.251   6.465
   59SOL     OW 1075   6.319   3.812   6.407
   59SOL    HW1 1076   6.220   3.818   6.420
   59SOL    HW2 1077   6.351   3.721   6.434
   60SOL     OW 1078   5.740   0.538   3.620
   60SOL    HW1 1079   5.785   0.451   3.601
   60SOL    HW2 1080   5.664   0.552   3.556
   61SOL     OW 1081   0.542   1.138   3.833
   61SOL    HW1 1082   0.636   1.106   3.846
   61SOL    HW2 1083   0.480   1.082   3.888
   62SOL     OW 1084   0.853   1.046   1.754
   62SOL    HW1 1085   0.765   1.089   1.734
   62SOL    HW2 1086   0.878   0.987   1.677
   63SOL     OW 1087   3.751   6.687   4.183
   63SOL    HW1 1088   3.819   6.727   4.122
   63SOL    HW2 1089   3.664   6.678   4.135
   64SOL     OW 1090   1.471   4.026   6.838
   64SOL    HW1 1091   1.489   4.111   6.789
   64SOL    HW2 1092   1.490   4.038   6.935
   65SOL     OW 1093   0.858   0.651   5.426
   65SOL    HW1 1094   0.776   0.599   5.449
   65SOL    HW2 1095   0.833   0.730   5.371
   66SOL     OW 1096   3.867   0.055   2.484
   66SOL    HW1 1097   3.925   7.011   2.526
   66SOL    HW2 1098   3.916   0.098   2.408
   67SOL     OW 1099   0.404   2.554   0.553
   67SOL    HW1 1100   0.361   2.641   0.528
   67SOL    HW2 1101   0.357   2.479   0.508
   68SOL     OW 1102   0.155   2.103   5.409
   68SOL    HW1 1103   0.147   2.055   5.497
   68SOL    HW2 1104   0.139   2.039   5.334
   69SOL     OW 1105   1.169   5.295   5.550
   69SOL    HW1 1106   1.209   5.368   5.606
   69SOL    HW2 1107   1.129   5.335   5.468
   70SOL     OW 1108   5.459   3.737   4.630
   70SOL    HW1 1109   5.501   3.781   4.710
   70SOL    HW2 1110   5.510   3.762   4.548
   71SOL     OW 1111   4.623   1.572   4.868
   71SOL    HW1 1112   4.624   1.482   4.912
   71SOL    HW2 1113   4.585   1.563   4.776
   72SOL     OW 1114   0.196   0.438   3.739
   72SOL    HW1 1115   0.241   0.393   3.662
   72SOL    HW2 1116   0.120   0.381   3.771
   73SOL     OW 1117   2.789   0.801   0.341
   73SOL    HW1 1118   2.886   0.800   0.363
   73SOL    HW2 1119   2.755   0.707   0.335
   74SOL     OW 1120   2.410   1.528   6.172
   74SOL    HW1 1121   2.459   1.507   6.087
   74SOL    HW2 1122   2.330   1.469   6.179
   75SOL     OW 1123   4.388   1.352   0.788
   75SOL    HW1 1124   4.307   1.312   0.830
   75SOL    HW2 1125   4.455   1.373   0.859
   76SOL     OW 1126   2.606   4.387   5.298
   76SOL    HW1 1127   2.690   4.377   5.350
   76SOL    HW2 1128   2.597   4.482   5.267
   77SOL     OW 1129   1.847   5.287   4.134
   77SOL    HW1 1130   1.892   5.370   4.165
   77SOL    HW2 1131   1.752   5.308   4.109
   78SOL     OW 1132   4.318   1.598   1.022
   78SOL    HW1 1133   4.370   1.683   1.017
   78SOL    HW2 1134   4.256   1.592   0.943
   79SOL     OW 1135   2.092   5.513   1.669
   79SOL    HW1 1136   2.027   5.583   1.699
   79SOL    HW2 1137   2.051   5.459   1.595
   80SOL     OW 1138   4.541   2.202   5.353
   80SOL    HW1 1139   4.570   2.288   5.310
   80SOL    HW2 1140   4.621   2.145   5.370
   81SOL     OW 1141   2.170   6.882   1.119
   81SOL    HW1 1142   2.114   6.816   1.069
   81SOL    HW2 1143   2.191   6.960   1.060
   82SOL     OW 1144   0.864   6.067   2.155
   82SOL    HW1 1145   0.783   6.026   2.112
   82SOL    HW2 1146   0.931   5.996   2.175
   83SOL     OW 1147   6.672   2.437   5.642
   83SOL    HW1 1148   6.741   2.374   5.605
   83SOL    HW2 1149   6.625   2.394   5.719
   84SOL     OW 1150   6.408   3.249   3.919
   84SOL    HW1 1151   6.489   3.191   3.924
   84SOL    HW2 1152   6.402   3.289   3.827
   85SOL     OW 1153   1.593   0.083   4.002
   85SOL    HW1 1154   1.557   0.068   4.095
   85SOL    HW2 1155   1.547   0.021   3.939
   86SOL     OW 1156   5.780   1.292   6.038
   86SOL    HW1 1157   5.731   1.345   6.106
   86SOL    HW2 1158   5.746   1.198   6.037
   87SOL     OW 1159   4.494   4.515   6.638
   87SOL    HW1 1160   4.461   4.595   6.688
   87SOL    HW2 1161   4.591   4.501   6.657
   88SOL     OW 1162   2.890   2.603   5.721
   88SOL    HW1 1163   2.837   2.645   5.795
   88SOL    HW2 1164   2.827   2.571   5.650
   89SOL     OW 1165   3.073   3.149   2.073
   89SOL    HW1 1166   3.087   3.099   2.158
   89SOL    HW2 1167   3.154   3.140   2.015
   90SOL     OW 1168   5.117   3.664   3.326
   90SOL    HW1 1169   5.165   3.721   3.392
   90SOL    HW2 1170   5.105   3.572   3.363
   91SOL     OW 1171   5.855   5.755   6.162
   91SOL    HW1 1172   5.875   5.777   6.257
   91SOL    HW2 1173   5.842   5.656   6.153
   92SOL     OW 1174   5.091   4.186   0.285
   92SOL    HW1 1175   5.043   4.191   0.197
   92SOL    HW2 1176   5.043   4.240   0.353
   93SOL     OW 1177   3.110   2.784   1.132
   93SOL    HW1 1178   3.132   2.782   1.230
   93SOL    HW2 1179   3.071   2.696   1.105
   94SOL     OW 1180   2.829   0.043   6.126
   94SOL    HW1 1181   2.846   0.055   6.028
   94SOL    HW2 1182   2.753   0.103   6.154
   95SOL     OW 1183   0.476   0.812   4.473
   95SOL    HW1 1184   0.568   0.838   4.501
   95SOL    HW2 1185   0.477   0.720   4.434
   96SOL     OW 1186   4.697   5.080   0.053
   96SOL    HW1 1187   4.715   5.077   0.151
   96SOL    HW2 1188   4.644   5.000   0.025
   97SOL     OW 1189   1.692   4.802   5.469
   97SOL    HW1 1190   1.654   4.725   5.418
   97SOL    HW2 1191   1.760   4.849   5.413
   98SOL     OW 1192   1.001   2.651   1.992
   98SOL    HW1 1193   0.987   2.750   2.006
   98SOL    HW2 1194   0.953   2.622   1.910
   99SOL     OW 1195   3.633   3.620   3.771
   99SOL    HW1 1196   3.668   3.526   3.772
   99SOL    HW2 1197   3.708   3.683   3.789
  100SOL     OW 1198   0.035   6.560   4.026
  100SOL    HW1 1199   0.056   6.465   4.000
  100SOL    HW2 1200   0.121   6.607   4.047
  101SOL     OW 1201   0.631   4.838   2.324
  101SOL    HW1 1202   0.615   4.888   2.239
  101SOL    HW2 1203   0.724   4.802   2.325
  102SOL     OW 1204   2.817   6.118   1.879
  102SOL    HW1 1205   2.810   6.202   1.825
  102SOL    HW2 1206   2.821   6.140   1.976
  103SOL     OW 1207   2.103   1.112   2.582
  103SOL    HW1 1208   2.197   1.090   2.609
  103SOL    HW2 1209   2.044   1.110   2.663
  104SOL     OW 1210   1.115   4.227   1.946
  104SOL    HW1 1211   1.121   4.211   2.045
  104SOL    HW2 1212   1.168   4.157   1.898
  105SOL     OW 1213   5.911   1.646   6.559
  105SOL    HW1 1214   5.835   1.698   6.598
  105SOL    HW2 1215   5.980   1.629   6.629
  106SOL     OW 1216   5.497   5.197   1.591
  106SOL    HW1 1217   5.577   5.256   1.579
  106SOL    HW2 1218   5.495   5.163   1.685
  107SOL     OW 1219   6.736   1.212   0.245
  107SOL    HW1 1220   6.767   1.250   0.158
  107SOL    HW2 1221   6.775   1.120   0.257
  108SOL     OW 1222   2.137   0.596   4.927
  108SOL    HW1 1223   2.088   0.515   4.961
  108SOL    HW2 1224   2.229   0.569   4.897
  109SOL     OW 1225   3.688   0.949   2.793
  109SOL    HW1 1226   3.761   0.963   2.859
  109SOL    HW2 1227   3.700   1.012   2.716
  110SOL     OW 1228   2.453   4.615   5.609
  110SOL    HW1 1229   2.392   4.694   5.607
  110SOL    HW2 1230   2.475   4.587   5.516
  111SOL     OW 1231   6.171   1.266   2.513
  111SOL    HW1 1232   6.089   1.299   2.559
  111SOL    HW2 1233   6.148   1.187   2.455
  112SOL     OW 1234   4.162   6.751   6.735
  112SOL    HW1 1235   4.103   6.792   6.665
  112SOL    HW2 1236   4.143   6.653   6.741
  113SOL     OW 1237   6.428   5.882   2.754
  113SOL    HW1 1238   6.361   5.857   2.684
  113SOL    HW2 1239   6.452   5.801   2.807
  114SOL     OW 1240   1.337   4.517   3.698
  114SOL    HW1 1241   1.395   4.545   3.622
  114SOL    HW2 1242   1.300   4.599   3.743
  115SOL     OW 1243   6.017   1.015   3.356
  115SOL    HW1 1244   5.998   1.111   3.333
  115SOL    HW2 1245   6.037   1.008   3.454
  116SOL     OW 1246   0.900   5.985   1.275
  116SOL    HW1 1247   0.919   6.082   1.294
  116SOL    HW2 1248   0.980   5.930   1.299
  117SOL     OW 1249   3.126   1.561   0.028
  117SOL    HW1 1250   3.092   1.581   0.120
  117SOL    HW2 1251   3.059   1.593   6.987
  118SOL     OW 1252   1.246   1.611   3.245
  118SOL    HW1 1253   1.171   1.677   3.251
  118SOL    HW2 1254   1.280   1.591   3.336
  119SOL     OW 1255   0.021   6.782   6.885
  119SOL    HW1 1256   0.058   6.689   6.878
  119SOL    HW2 1257   6.950   6.781   6.860
  120SOL     OW 1258   4.776   0.931   5.332
  120SOL    HW1 1259   4.680   0.942   5.357
  120SOL    HW2 1260   4.809   1.017   5.291
  121SOL     OW 1261   1.304   3.330   6.580
  121SOL    HW1 1262   1.245   3.407   6.552
  121SOL    HW2 1263   1.399   3.360   6.579
  122SOL     OW 1264   1.123   4.588   0.449
  122SOL    HW1 1265   1.100   4.548   0.361
  122SOL    HW2 1266   1.145   4.685   0.437
  123SOL     OW 1267   1.405   1.291   1.730
  123SOL    HW1 1268   1.487   1.242   1.759
  123SOL    HW2 1269   1.332   1.226   1.712
  124SOL     OW 1270   3.329   2.457   1.059
  124SOL    HW1 1271   3.403   2.500   1.111
  124SOL    HW2 1272   3.242   2.500   1.084
  125SOL     OW 1273   3.456   2.582   0.037
  125SOL    HW1 1274   3.393   2.578   6.986
  125SOL    HW2 1275   3.419   2.530   0.114
  126SOL     OW 1276   3.691   2.922   3.226
  126SOL    HW1 1277   3.597   2.949   3.206
  126SOL    HW2 1278   3.753   2.994   3.196
  127SOL     OW 1279   6.840   5.823   6.005
  127SOL    HW1 1280   6.897   5.904   6.008
  127SOL    HW2 1281   6.744   5.850   5.994
  128SOL     OW 1282   4.975   3.565   1.504
  128SOL    HW1 1283   4.900   3.560   1.570
  128SOL    HW2 1284   4.976   3.482   1.448
  129SOL     OW 1285   2.375   6.137   0.734
  129SOL    HW1 1286   2.422   6.183   0.659
  129SOL    HW2 1287   2.432   6.061   0.767
  130SOL     OW 1288   5.443   1.915   4.764
  130SOL    HW1 1289   5.375   1.971   4.717
  130SOL    HW2 1290   5.512   1.884   4.699
  131SOL     OW 1291   0.025   1.484   3.939
  131SOL    HW1 1292   0.065   1.567   3.979
  131SOL    HW2 1293   7.010   1.429   4.012
  132SOL     OW 1294   3.342   4.017   1.873
  132SOL    HW1 1295   3.429   4.050   1.912
  132SOL    HW2 1296   3.321   3.927   1.911
  133SOL     OW 1297   5.277   0.534   4.390
  133SOL    HW1 1298   5.253   0.624   4.426
  133SOL    HW2 1299   5.200   0.471   4.405
  134SOL     OW 1300   5.984   0.582   2.195
  134SOL    HW1 1301   6.076   0.590   2.157
  134SOL    HW2 1302   5.974   0.643   2.273
  135SOL     OW 1303   4.860   3.704   4.292
  135SOL    HW1 1304   4.828   3.794   4.320
  135SOL    HW2 1305   4.930   3.714   4.222
  136SOL     OW 1306   2.477   6.278   4.572
  136SOL    HW1 1307   2.514   6.307   4.484
  136SOL    HW2 1308   2.425   6.354   4.612
  137SOL     OW 1309   3.104   2.037   4.876
  137SOL    HW1 1310   3.085   2.125   4.919
  137SOL    HW2 1311   3.053   2.029   4.790
  138SOL     OW 1312   0.406   5.646   4.028
  138SOL    HW1 1313   0.395   5.647   4.127
  138SOL    HW2 1314   0.483   5.588   4.003
  139SOL     OW 1315   2.252   5.740   6.624
  139SOL    HW1 1316   2.291   5.658   6.665
  139SOL    HW2 1317   2.276   5.744   6.527
  140SOL     OW 1318   2.351   0.577   2.907
  140SOL    HW1 1319   2.318   0.549   2.817
  140SOL    HW2 1320   2.407   0.504   2.946
  141SOL     OW 1321   6.758   3.880   0.218
  141SOL    HW1 1322   6.729   3.826   0.140
  141SOL    HW2 1323   6.791   3.970   0.186
  142SOL     OW 1324   0.865   4.273   1.765
  142SOL    HW1 1325   0.947   4.282   1.822
  142SOL    HW2 1326   0.883   4.308   1.674
  143SOL     OW 1327   5.964   6.611   1.393
  143SOL    HW1 1328   6.060   6.638   1.399
  143SOL    HW2 1329   5.906   6.688   1.417
  144SOL     OW 1330   2.694   4.944   3.819
  144SOL    HW1 1331   2.660   4.901   3.902
  144SOL    HW2 1332   2.661   4.893   3.739
  145SOL     OW 1333   6.516   5.001   2.913
  145SOL    HW1 1334   6.520   5.086   2.861
  145SOL    HW2 1335   6.431   4.953   2.892
  146SOL     OW 1336   5.973   1.914   5.756
  146SOL    HW1 1337   5.947   2.008   5.778
  146SOL    HW2 1338   6.055   1.889   5.807
  147SOL     OW 1339   5.131   1.317   4.872
  147SOL    HW1 1340   5.173   1.327   4.962
  147SOL    HW2 1341   5.159   1.393   4.814
  148SOL     OW 1342   1.193   4.648   1.170
  148SOL    HW1 1343   1.193   4.580   1.096
  148SOL    HW2 1344   1.259   4.719   1.149
  149SOL     OW 1345   2.506   2.244   5.118
  149SOL    HW1 1346   2.562   2.202   5.190
  149SOL    HW2 1347   2.498   2.342   5.135
  150SOL     OW 1348   4.039   1.823   5.496
  150SOL    HW1 1349   3.977   1.757   5.537
  150SOL    HW2 1350   3.998   1.913   5.496
  151SOL     OW 1351   4.140   1.921   0.661
  151SOL    HW1 1352   4.059   1.958   0.615
  151SOL    HW2 1353   4.214   1.988   0.658
  152SOL     OW 1354   0.831   1.112   6.932
  152SOL    HW1 1355   0.794   1.204   6.943
  152SOL    HW2 1356   0.780   1.063   6.862
  153SOL     OW 1357   2.503   1.347   3.787
  153SOL    HW1 1358   2.522   1.394   3.873
  153SOL    HW2 1359   2.572   1.276   3.773
  154SOL     OW 1360   6.345   1.962   1.388
  154SOL    HW1 1361   6.369   1.974   1.485
  154SOL    HW2 1362   6.421   1.918   1.341
  155SOL     OW 1363   0.286   0.163   2.122
  155SOL    HW1 1364   0.258   0.202   2.209
  155SOL    HW2 1365   0.384   0.181   2.107
  156SOL     OW 1366   4.712   0.890   0.357
  156SOL    HW1 1367   4.777   0.935   0.417
  156SOL    HW2 1368   4.740   0.902   0.261
  157SOL     OW 1369   5.331   3.722   0.451
  157SOL    HW1 1370   5.377   3.707   0.539
  157SOL    HW2 1371   5.247   3.774   0.466
  158SOL     OW 1372   1.255   3.355   2.664
  158SOL    HW1 1373   1.313   3.429   2.697
  158SOL    HW2 1374   1.291   3.267   2.693
  159SOL     OW 1375   4.915   5.533   0.761
  159SOL    HW1 1376   4.855   5.514   0.838
  159SOL    HW2 1377   4.929   5.632   0.753
  160SOL     OW 1378   5.858   0.627   0.536
  160SOL    HW1 1379   5.938   0.569   0.545
  160SOL    HW2 1380   5.873   0.713   0.586
  161SOL     OW 1381   1.046   6.504   0.556
  161SOL    HW1 1382   1.099   6.494   0.472
  161SOL    HW2 1383   1.094   6.566   0.619
  162SOL     OW 1384   2.603   6.252   6.981
  162SOL    HW1 1385   2.551   6.335   7.005
  162SOL    HW2 1386   2.697   6.262   7.014
  163SOL     OW 1387   6.587   4.424   3.340
  163SOL    HW1 1388   6.508   4.423   3.401
  163SOL    HW2 1389   6.640   4.341   3.353
  164SOL     OW 1390   1.535   1.724   2.695
  164SOL    HW1 1391   1.580   1.682   2.774
  164SOL    HW2 1392   1.587   1.803   2.665
  165SOL     OW 1393   0.432   5.554   2.478
  165SOL    HW1 1394   0.472   5.539   2.569
  165SOL    HW2 1395   0.493   5.611   2.424
  166SOL     OW 1396   6.270   4.052   1.745
  166SOL    HW1 1397   6.204   4.126   1.746
  166SOL    HW2 1398   6.269   4.004   1.833
  167SOL     OW 1399   5.190   1.489   0.102
  167SOL    HW1 1400   5.169   1.491   0.200
  167SOL    HW2 1401   5.105   1.499   0.050
  168SOL     OW 1402   4.762   3.627   1.693
  168SOL    HW1 1403   4.735   3.689   1.620
  168SOL    HW2 1404   4.797   3.680   1.770
  169SOL     OW 1405   6.146   2.812   0.948
  169SOL    HW1 1406   6.169   2.806   0.851
  169SOL    HW2 1407   6.069   2.753   0.968
  170SOL     OW 1408   1.658   5.002   2.642
  170SOL    HW1 1409   1.630   4.913   2.677
  170SOL    HW2 1410   1.730   4.990   2.573
  171SOL     OW 1411   2.215   3.273   0.240
  171SOL    HW1 1412   2.162   3.306   0.318
  171SOL    HW2 1413   2.312   3.274   0.263
  172SOL     OW 1414   5.807   2.097   1.623
  172SOL    HW1 1415   5.820   2.189   1.659
  172SOL    HW2 1416   5.719   2.061   1.655
  173SOL     OW 1417   6.192   1.161   5.279
  173SOL    HW1 1418   6.174   1.188   5.184
  173SOL    HW2 1419   6.223   1.240   5.331
  174SOL     OW 1420   5.534   5.723   5.316
  174SOL    HW1 1421   5.536   5.629   5.349
  174SOL    HW2 1422   5.623   5.765   5.329
  175SOL     OW 1423   1.630   0.632   0.572
  175SOL    HW1 1424   1.675   0.554   0.615
  175SOL    HW2 1425   1.657   0.637   0.475
  176SOL     OW 1426   4.771   4.813   2.530
  176SOL    HW1 1427   4.720   4.849   2.608
  176SOL    HW2 1428   4.708   4.770   2.465
  177SOL     OW 1429   5.678   1.818   4.604
  177SOL    HW1 1430   5.671   1.722   4.578
  177SOL    HW2 1431   5.644   1.875   4.530
  178SOL     OW 1432   2.306   6.010   4.757
  178SOL    HW1 1433   2.381   6.007   4.691
  178SOL    HW2 1434   2.259   6.098   4.752
  179SOL     OW 1435   4.647   4.965   0.610
  179SOL    HW1 1436   4.640   4.871   0.643
  179SOL    HW2 1437   4.602   4.972   0.520
  180SOL     OW 1438   3.731   0.293   0.769
  180SOL    HW1 1439   3.814   0.336   0.734
  180SOL    HW2 1440   3.756   0.226   0.839
  181SOL     OW 1441   3.258   2.540   5.401
  181SOL    HW1 1442   3.182   2.570   5.459
  181SOL    HW2 1443   3.221   2.496   5.319
  182SOL     OW 1444   5.298   2.726   0.077
  182SOL    HW1 1445   5.348   2.655   0.027
  182SOL    HW2 1446   5.362   2.782   0.129
  183SOL     OW 1447   3.328   1.839   4.643
  183SOL    HW1 1448   3.330   1.934   4.671
  183SOL    HW2 1449   3.385   1.784   4.704
  184SOL     OW 1450   0.673   6.283   3.434
  184SOL    HW1 1451   0.667   6.254   3.530
  184SOL    HW2 1452   0.616   6.364   3.421
  185SOL     OW 1453   0.620   1.747   4.197
  185SOL    HW1 1454   0.556   1.672   4.186
  185SOL    HW2 1455   0.626   1.799   4.112
  186SOL     OW 1456   5.237   5.659   4.357
  186SOL    HW1 1457   5.331   5.642   4.325
  186SOL    HW2 1458   5.231   5.751   4.395
  187SOL     OW 1459   4.175   5.510   2.393
  187SOL    HW1 1460   4.240   5.446   2.354
  187SOL    HW2 1461   4.223   5.591   2.426
  188SOL     OW 1462   2.502   2.193   3.210
  188SOL    HW1 1463   2.522   2.291   3.213
  188SOL    HW2 1464   2.449   2.172   3.128
  189SOL     OW 1465   6.580   5.154   6.975
  189SOL    HW1 1466   6.511   5.086   7.000
  189SOL    HW2 1467   6.541   5.246   6.985
  190SOL     OW 1468   6.275   5.546   0.306
  190SOL    HW1 1469   6.190   5.596   0.288
  190SOL    HW2 1470   6.283   5.529   0.405
  191SOL     OW 1471   6.734   1.094   6.046
  191SOL    HW1 1472   6.752   1.056   6.137
  191SOL    HW2 1473   6.778   1.183   6.038
  192SOL     OW 1474   0.224   4.821   1.176
  192SOL    HW1 1475   0.317   4.825   1.212
  192SOL    HW2 1476   0.195   4.913   1.148
  193SOL     OW 1477   3.284   5.232   6.290
  193SOL    HW1 1478   3.186   5.247   6.272
  193SOL    HW2 1479   3.310   5.281   6.373
  194SOL     OW 1480   3.986   6.532   2.108
  194SOL    HW1 1481   4.065   6.588   2.134
  194SOL    HW2 1482   3.908   6.556   2.165
  195SOL     OW 1483   3.140   0.535   2.188
  195SOL    HW1 1484   3.095   0.572   2.106
  195SOL    HW2 1485   3.093   0.453   2.218
  196SOL     OW 1486   2.536   1.101   6.470
  196SOL    HW1 1487   2.605   1.170   6.445
  196SOL    HW2 1488   2.459   1.145   6.514
  197SOL     OW 1489   2.457   6.207   6.735
  197SOL    HW1 1490   2.513   6.245   6.809
  197SOL    HW2 1491   2.406   6.128   6.769
  198SOL     OW 1492   4.409   5.816   0.735
  198SOL    HW1 1493   4.443   5.814   0.641
  198SOL    HW2 1494   4.464   5.753   0.791
  199SOL     OW 1495   5.449   0.891   1.925
  199SOL    HW1 1496   5.528   0.886   1.865
  199SOL    HW2 1497   5.405   0.801   1.930
  200SOL     OW 1498   1.132   3.295   2.142
  200SOL    HW1 1499   1.177   3.259   2.223
  200SOL    HW2 1500   1.129   3.395   2.147
  201SOL     OW 1501   2.675   0.893   6.956
  201SOL    HW1 1502   2.586   0.848   6.955
  201SOL    HW2 1503   2.733   0.852   0.000
  202SOL     OW 1504   4.792   6.620   3.795
  202SOL    HW1 1505   4.751   6.629   3.705
  202SOL    HW2 1506   4.740   6.674   3.861
  203SOL     OW 1507   4.987   3.413   6.206
  203SOL    HW1 1508   4.935   3.343   6.157
  203SOL    HW2 1509   5.013   3.379   6.296
  204SOL     OW 1510   1.176   0.129   0.140
  204SOL    HW1 1511   1.234   0.166   0.067
  204SOL    HW2 1512   1.130   0.204   0.188
  205SOL     OW 1513   0.454   1.691   1.146
  205SOL    HW1 1514   0.380   1.640   1.191
  205SOL    HW2 1515   0.540   1.673   1.193
  206SOL     OW 1516   0.945   4.373   1.103
  206SOL    HW1 1517   0.882   4.442   1.069
  206SOL    HW2 1518   0.906   4.328   1.184
  207SOL     OW 1519   4.238   0.386   5.657
  207SOL    HW1 1520   4.211   0.460   5.719
  207SOL    HW2 1521   4.171   0.312   5.664
  208SOL     OW 1522   5.202   4.517   6.029
  208SOL    HW1 1523   5.280   4.511   6.092
  208SOL    HW2 1524   5.178   4.426   5.996
  209SOL     OW 1525   0.284   5.853   5.571
  209SOL    HW1 1526   0.321   5.928   5.626
  209SOL    HW2 1527   0.184   5.857   5.573
  210SOL     OW 1528   4.115   2.258   2.040
  210SOL    HW1 1529   4.111   2.350   2.001
  210SOL    HW2 1530   4.061   2.196   1.983
  211SOL     OW 1531   0.643   1.309   1.994
  211SOL    HW1 1532   0.610   1.220   2.027
  211SOL    HW2 1533   0.682   1.360   2.071
  212SOL     OW 1534   0.710   4.664   3.217
  212SOL    HW1 1535   0.796   4.672   3.167
  212SOL    HW2 1536   0.644   4.729   3.180
  213SOL     OW 1537   5.309   1.251   0.013
  213SOL    HW1 1538   5.406   1.250   0.038
  213SOL    HW2 1539   5.272   1.343   0.028
  214SOL     OW 1540   0.818   6.945   3.205
  214SOL    HW1 1541   0.809   6.877   3.132
  214SOL    HW2 1542   0.898   6.924   3.261
  215SOL     OW 1543   3.840   3.008   1.915
  215SOL    HW1 1544   3.883   2.933   1.864
  215SOL    HW2 1545   3.870   3.003   2.011
  216SOL     OW 1546   1.108   0.056   4.762
  216SOL    HW1 1547   1.050   0.019   4.834
  216SOL    HW2 1548   1.170   0.124   4.801
  217SOL     OW 1549   2.039   2.615   4.194
  217SOL    HW1 1550   1.963   2.568   4.149
  217SOL    HW2 1551   2.105   2.548   4.227
  218SOL     OW 1552   0.890   2.329   4.496
  218SOL    HW1 1553   0.973   2.325   4.551
  218SOL    HW2 1554   0.864   2.424   4.481
  219SOL     OW 1555   3.637   4.053   0.400
  219SOL    HW1 1556   3.585   4.123   0.450
  219SOL    HW2 1557   3.720   4.094   0.363
  220SOL     OW 1558   2.523   5.642   0.070
  220SOL    HW1 1559   2.605   5.595   0.038
  220SOL    HW2 1560   2.507   5.620   0.166
  221SOL     OW 1561   5.556   3.377   3.987
  221SOL    HW1 1562   5.625   3.331   3.932
  221SOL    HW2 1563   5.580   3.370   4.084
  222SOL     OW 1564   1.623   5.506   4.991
  222SOL    HW1 1565   1.524   5.508   4.975
  222SOL    HW2 1566   1.664   5.432   4.938
  223SOL     OW 1567   0.230   3.664   2.010
  223SOL    HW1 1568   0.227   3.692   1.915
  223SOL    HW2 1569   0.170   3.724   2.064
  224SOL     OW 1570   2.509   2.306   2.690
  224SOL    HW1 1571   2.540   2.394   2.726
  224SOL    HW2 1572   2.569   2.233   2.723
  225SOL     OW 1573   5.896   1.047   0.404
  225SOL    HW1 1574   5.921   1.067   0.499
  225SOL    HW2 1575   5.972   1.003   0.358
  226SOL     OW 1576   1.149   0.248   0.750
  226SOL    HW1 1577   1.114   0.294   0.668
  226SOL    HW2 1578   1.236   0.290   0.777
  227SOL     OW 1579   1.522   4.095   3.490
  227SOL    HW1 1580   1.528   3.998   3.515
  227SOL    HW2 1581   1.434   4.112   3.445
  228SOL     OW 1582   3.620   6.952   4.224
  228SOL    HW1 1583   3.631   0.012   4.274
  228SOL    HW2 1584   3.608   6.876   4.288
  229SOL     OW 1585   5.698   5.749   1.185
  229SOL    HW1 1586   5.679   5.796   1.099
  229SOL    HW2 1587   5.787   5.779   1.220
  230SOL     OW 1588   2.163   3.693   4.082
  230SOL    HW1 1589   2.091   3.697   4.013
  230SOL    HW2 1590   2.160   3.774   4.140
  231SOL     OW 1591   6.812   3.087   6.185
  231SOL    HW1 1592   6.867   3.152   6.133
  231SOL    HW2 1593   6.720   3.084   6.147
  232SOL     OW 1594   1.622   3.831   6.274
  232SOL    HW1 1595   1.712   3.861   6.307
  232SOL    HW2 1596   1.601   3.877   6.188
  233SOL     OW 1597   2.185   0.842   5.579
  233SOL    HW1 1598   2.150   0.851   5.672
  233SOL    HW2 1599   2.165   0.750   5.545
  234SOL     OW 1600   2.433   5.009   6.816
  234SOL    HW1 1601   2.433   4.909   6.818
  234SOL    HW2 1602   2.500   5.043   6.883
  235SOL     OW 1603   3.657   3.225   4.044
  235SOL    HW1 1604   3.701   3.160   3.982
  235SOL    HW2 1605   3.559   3.228   4.024
  236SOL     OW 1606   6.471   3.108   6.116
  236SOL    HW1 1607   6.404   3.126   6.044
  236SOL    HW2 1608   6.449   3.163   6.197
  237SOL     OW 1609   0.115   6.666   1.248
  237SOL    HW1 1610   0.174   6.747   1.251
  237SOL    HW2 1611   0.093   6.645   1.152
  238SOL     OW 1612   5.683   3.505   1.591
  238SOL    HW1 1613   5.764   3.553   1.558
  238SOL    HW2 1614   5.709   3.417   1.631
  239SOL     OW 1615   0.243   5.608   6.720
  239SOL    HW1 1616   0.172   5.670   6.755
  239SOL    HW2 1617   0.306   5.659   6.661
  240SOL     OW 1618   0.788   3.625   6.091
  240SOL    HW1 1619   0.709   3.666   6.044
  240SOL    HW2 1620   0.781   3.644   6.189
  241SOL     OW 1621   0.461   0.914   3.674
  241SOL    HW1 1622   0.362   0.899   3.677
  241SOL    HW2 1623   0.480   1.003   3.631
  242SOL     OW 1624   1.492   2.940   4.930
  242SOL    HW1 1625   1.559   2.982   4.869
  242SOL    HW2 1626   1.534   2.921   5.019
  243SOL     OW 1627   4.847   0.696   6.210
  243SOL    HW1 1628   4.902   0.773   6.177
  243SOL    HW2 1629   4.767   0.731   6.259
  244SOL     OW 1630   5.060   1.647   4.973
  244SOL    HW1 1631   5.042   1.576   5.042
  244SOL    HW2 1632   5.077   1.734   5.018
  245SOL     OW 1633   6.219   2.470   5.115
  245SOL    HW1 1634   6.280   2.392   5.103
  245SOL    HW2 1635   6.130   2.438   5.146
  246SOL     OW 1636   4.945   3.929   4.070
  246SOL    HW1 1637   4.912   4.004   4.127
  246SOL    HW2 1638   5.034   3.953   4.031
  247SOL     OW 1639   2.735   1.399   3.289
  247SOL    HW1 1640   2.702   1.479   3.240
  247SOL    HW2 1641   2.742   1.322   3.226
  248SOL     OW 1642   4.814   2.052   4.640
  248SOL    HW1 1643   4.795   2.049   4.542
  248SOL    HW2 1644   4.729   2.043   4.692
  249SOL     OW 1645   3.161   6.380   4.946
  249SOL    HW1 1646   3.066   6.390   4.916
  249SOL    HW2 1647   3.215   6.340   4.872
  250SOL     OW 1648   5.550   2.425   5.561
  250SOL    HW1 1649   5.618   2.493   5.532
  250SOL    HW2 1650   5.512   2.380   5.481
  251SOL     OW 1651   4.535   3.244   6.131
  251SOL    HW1 1652   4.543   3.328   6.185
  251SOL    HW2 1653   4.524   3.166   6.193
  252SOL     OW 1654   6.688   1.522   5.844
  252SOL    HW1 1655   6.673   1.620   5.852
  252SOL    HW2 1656   6.602   1.474   5.863
  253SOL     OW 1657   1.875   2.896   0.963
  253SOL    HW1 1658   1.819   2.903   1.046
  253SOL    HW2 1659   1.817   2.867   0.887
  254SOL     OW 1660   6.971   3.222   4.351
  254SOL    HW1 1661   0.032   3.213   4.302
  254SOL    HW2 1662   6.958   3.317   4.379
  255SOL     OW 1663   3.114   2.042   3.322
  255SOL    HW1 1664   3.205   2.010   3.348
  255SOL    HW2 1665   3.085   2.116   3.383
  256SOL     OW 1666   5.972   5.374   6.635
  256SOL    HW1 1667   5.898   5.417   6.686
  256SOL    HW2 1668   6.006   5.295   6.686
  257SOL     OW 1669   2.811   5.358   6.047
  257SOL    HW1 1670   2.761   5.320   5.969
  257SOL    HW2 1671   2.805   5.458   6.045
  258SOL     OW 1672   4.838   4.273   4.783
  258SOL    HW1 1673   4.840   4.176   4.762
  258SOL    HW2 1674   4.754   4.295   4.832
  259SOL     OW 1675   1.676   3.073   2.560
  259SOL    HW1 1676   1.763   3.074   2.511
  259SOL    HW2 1677   1.621   2.996   2.527
  260SOL     OW 1678   5.065   0.628   6.374
  260SOL    HW1 1679   5.074   0.691   6.451
  260SOL    HW2 1680   4.990   0.658   6.315
  261SOL     OW 1681   0.479   4.263   1.729
  261SOL    HW1 1682   0.576   4.255   1.754
  261SOL    HW2 1683   0.465   4.219   1.640
  262SOL     OW 1684   0.857   2.907   2.522
  262SOL    HW1 1685   0.879   2.841   2.451
  262SOL    HW2 1686   0.758   2.923   2.523
  263SOL     OW 1687   0.878   2.591   4.835
  263SOL    HW1 1688   0.840   2.506   4.872
  263SOL    HW2 1689   0.830   2.669   4.875
  264SOL     OW 1690   1.000   3.273   5.592
  264SOL    HW1 1691   0.921   3.230   5.635
  264SOL    HW2 1692   1.042   3.337   5.656
  265SOL     OW 1693   5.065   4.663   4.336
  265SOL    HW1 1694   4.993   4.727   4.308
  265SOL    HW2 1695   5.096   4.687   4.428
  266SOL     OW 1696   4.198   1.688   0.767
  266SOL    HW1 1697   4.287   1.715   0.803
  266SOL    HW2 1698   4.154   1.767   0.724
  267SOL     OW 1699   1.681   2.566   6.370
  267SOL    HW1 1700   1.633   2.653   6.384
  267SOL    HW2 1701   1.744   2.575   6.293
  268SOL     OW 1702   4.726   4.565   4.695
  268SOL    HW1 1703   4.632   4.536   4.680
  268SOL    HW2 1704   4.769   4.507   4.764
  269SOL     OW 1705   1.694   1.775   6.564
  269SOL    HW1 1706   1.713   1.824   6.650
  269SOL    HW2 1707   1.637   1.695   6.583
  270SOL     OW 1708   5.568   1.041   2.153
  270SOL    HW1 1709   5.519   1.128   2.160
  270SOL    HW2 1710   5.520   0.981   2.090
  271SOL     OW 1711   1.677   0.836   0.800
  271SOL    HW1 1712   1.647   0.789   0.717
  271SOL    HW2 1713   1.634   0.927   0.804
  272SOL     OW 1714   4.005   5.235   4.506
  272SOL    HW1 1715   4.065   5.238   4.426
  272SOL    HW2 1716   3.997   5.141   4.539
  273SOL     OW 1717   1.631   5.535   4.589
  273SOL    HW1 1718   1.583   5.538   4.501
  273SOL    HW2 1719   1.604   5.453   4.639
  274SOL     OW 1720   5.875   3.012   3.372
  274SOL    HW1 1721   5.875   3.008   3.472
  274SOL    HW2 1722   5.827   3.094   3.342
  275SOL     OW 1723   6.909   6.571   5.891
  275SOL    HW1 1724   6.838   6.541   5.954
  275SOL    HW2 1725   6.869   6.594   5.803
  276SOL     OW 1726   6.496   6.287   3.413
  276SOL    HW1 1727   6.523   6.191   3.419
  276SOL    HW2 1728   6.557   6.342   3.469
  277SOL     OW 1729   3.594   1.521   5.564
  277SOL    HW1 1730   3.564   1.535   5.469
  277SOL    HW2 1731   3.689   1.490   5.565
  278SOL     OW 1732   5.180   4.097   2.381
  278SOL    HW1 1733   5.144   4.153   2.455
  278SOL    HW2 1734   5.225   4.155   2.313
  279SOL     OW 1735   0.146   3.216   2.975
  279SOL    HW1 1736   0.191   3.158   3.044
  279SOL    HW2 1737   0.182   3.193   2.884
  280SOL     OW 1738   4.433   6.908   3.599
  280SOL    HW1 1739   4.489   6.990   3.586
  280SOL    HW2 1740   4.477   6.849   3.667
  281SOL     OW 1741   4.223   5.640   4.202
  281SOL    HW1 1742   4.197   5.609   4.293
  281SOL    HW2 1743   4.142   5.646   4.144
  282SOL     OW 1744   4.374   2.171   6.432
  282SOL    HW1 1745   4.315   2.216   6.498
  282SOL    HW2 1746   4.366   2.072   6.443
  283SOL     OW 1747   6.541   0.624   5.007
  283SOL    HW1 1748   6.587   0.673   4.933
  283SOL    HW2 1749   6.462   0.677   5.038
  284SOL     OW 1750   0.282   4.940   5.019
  284SOL    HW1 1751   0.213   4.883   5.062
  284SOL    HW2 1752   0.357   4.957   5.084
  285SOL     OW 1753   4.920   0.228   0.160
  285SOL    HW1 1754   5.002   0.173   0.144
  285SOL    HW2 1755   4.941   0.303   0.223
  286SOL     OW 1756   3.555   5.320   4.789
  286SOL    HW1 1757   3.578   5.415   4.770
  286SOL    HW2 1758   3.609   5.287   4.866
  287SOL     OW 1759   1.855   5.728   5.955
  287SOL    HW1 1760   1.872   5.690   5.864
  287SOL    HW2 1761   1.791   5.669   6.004
  288SOL     OW 1762   3.740   0.751   0.881
  288SOL    HW1 1763   3.785   0.802   0.953
  288SOL    HW2 1764   3.666   0.696   0.920
  289SOL     OW 1765   0.963   6.168   5.203
  289SOL    HW1 1766   0.968   6.242   5.271
  289SOL    HW2 1767   0.885   6.183   5.143
  290SOL     OW 1768   4.449   0.915   3.754
  290SOL    HW1 1769   4.366   0.971   3.760
  290SOL    HW2 1770   4.471   0.896   3.658
  291SOL     OW 1771   4.344   0.526   4.150
  291SOL    HW1 1772   4.426   0.576   4.121
  291SOL    HW2 1773   4.371   0.438   4.188
  292SOL     OW 1774   3.661   0.154   3.774
  292SOL    HW1 1775   3.708   0.147   3.861
  292SOL    HW2 1776   3.704   0.226   3.719
  293SOL     OW 1777   5.195   6.145   2.207
  293SOL    HW1 1778   5.257   6.223   2.198
  293SOL    HW2 1779   5.134   6.141   2.128
  294SOL     OW 1780   5.778   0.321   5.771
  294SOL    HW1 1781   5.874   0.338   5.792
  294SOL    HW2 1782   5.724   0.327   5.855
  295SOL     OW 1783   1.415   2.168   5.210
  295SOL    HW1 1784   1.499   2.116   5.192
  295SOL    HW2 1785   1.365   2.125   5.286
  296SOL     OW 1786   6.772   0.668   1.715
  296SOL    HW1 1787   6.816   0.736   1.774
  296SOL    HW2 1788   6.750   0.710   1.626
  297SOL     OW 1789   5.167   4.401   3.503
  297SOL    HW1 1790   5.145   4.409   3.406
  297SOL    HW2 1791   5.110   4.463   3.556
  298SOL     OW 1792   4.115   0.491   0.225
  298SOL    HW1 1793   4.069   0.575   0.194
  298SOL    HW2 1794   4.206   0.513   0.260
  299SOL     OW 1795   2.997   1.866   0.138
  299SOL    HW1 1796   3.044   1.833   0.220
  299SOL    HW2 1797   3.064   1.885   0.066
  300SOL     OW 1798   3.526   1.236   2.471
  300SOL    HW1 1799   3.516   1.329   2.506
  300SOL    HW2 1800   3.448   1.213   2.412
  301SOL     OW 1801   5.352   5.858   1.766
  301SOL    HW1 1802   5.324   5.762   1.754
  301SOL    HW2 1803   5.275   5.918   1.745
  302SOL     OW 1804   6.885   6.268   1.824
  302SOL    HW1 1805   6.835   6.254   1.910
  302SOL    HW2 1806   6.850   6.350   1.779
  303SOL     OW 1807   6.123   5.618   2.373
  303SOL    HW1 1808   6.168   5.538   2.333
  303SOL    HW2 1809   6.080   5.672   2.301
  304SOL     OW 1810   1.529   6.840   5.033
  304SOL    HW1 1811   1.507   6.750   4.995
  304SOL    HW2 1812   1.508   6.840   5.131
  305SOL     OW 1813   1.149   2.646   1.228
  305SOL    HW1 1814   1.210   2.637   1.150
  305SOL    HW2 1815   1.054   2.643   1.196
  306SOL     OW 1816   0.025   0.946   2.859
  306SOL    HW1 1817   0.080   0.889   2.920
  306SOL    HW2 1818   0.002   0.893   2.777
  307SOL     OW 1819   3.203   3.381   1.088
  307SOL    HW1 1820   3.265   3.309   1.055
  307SOL    HW2 1821   3.121   3.384   1.029
  308SOL     OW 1822   5.509   0.950   4.370
  308SOL    HW1 1823   5.528   0.859   4.407
  308SOL    HW2 1824   5.505   1.016   4.445
  309SOL     OW 1825   0.374   6.638   6.824
  309SOL    HW1 1826   0.419   6.561   6.779
  309SOL    HW2 1827   0.375   6.624   6.923
  310SOL     OW 1828   4.891   6.530   4.458
  310SOL    HW1 1829   4.822   6.459   4.472
  310SOL    HW2 1830   4.956   6.499   4.387
  311SOL     OW 1831   2.559   5.427   3.154
  311SOL    HW1 1832   2.538   5.358   3.223
  311SOL    HW2 1833   2.478   5.484   3.139
  312SOL     OW 1834   4.856   2.223   3.404
  312SOL    HW1 1835   4.937   2.164   3.400
  312SOL    HW2 1836   4.800   2.209   3.322
  313SOL     OW 1837   3.837   3.461   2.487
  313SOL    HW1 1838   3.784   3.378   2.506
  313SOL    HW2 1839   3.871   3.458   2.393
  314SOL     OW 1840   1.990   6.048   5.027
  314SOL    HW1 1841   1.973   6.007   4.937
  314SOL    HW2 1842   2.075   6.010   5.065
  315SOL     OW 1843   6.255   1.195   3.592
  315SOL    HW1 1844   6.233   1.289   3.566
  315SOL    HW2 1845   6.198   1.168   3.669
  316SOL     OW 1846   4.403   1.739   5.533
  316SOL    HW1 1847   4.335   1.666   5.544
  316SOL    HW2 1848   4.483   1.719   5.589
  317SOL     OW 1849   1.670   1.702   1.757
  317SOL    HW1 1850   1.684   1.796   1.786
  317SOL    HW2 1851   1.733   1.681   1.682
  318SOL     OW 1852   6.292   0.819   5.642
  318SOL    HW1 1853   6.257   0.901   5.687
  318SOL    HW2 1854   6.231   0.742   5.661
  319SOL     OW 1855   0.677   1.850   2.644
  319SOL    HW1 1856   0.647   1.853   2.549
  319SOL    HW2 1857   0.673   1.942   2.683
  320SOL     OW 1858   5.677   2.080   6.853
  320SOL    HW1 1859   5.718   2.058   6.764
  320SOL    HW2 1860   5.647   1.996   6.897
  321SOL     OW 1861   4.063   3.418   0.763
  321SOL    HW1 1862   4.114   3.340   0.798
  321SOL    HW2 1863   4.100   3.502   0.803
  322SOL     OW 1864   4.168   3.607   6.531
  322SOL    HW1 1865   4.104   3.587   6.605
  322SOL    HW2 1866   4.208   3.522   6.498
  323SOL     OW 1867   0.549   2.669   3.656
  323SOL    HW1 1868   0.561   2.688   3.558
  323SOL    HW2 1869   0.506   2.580   3.668
  324SOL     OW 1870   2.346   6.578   3.372
  324SOL    HW1 1871   2.273   6.641   3.395
  324SOL    HW2 1872   2.426   6.597   3.430
  325SOL     OW 1873   1.170   3.791   2.534
  325SOL    HW1 1874   1.168   3.787   2.634
  325SOL    HW2 1875   1.262   3.816   2.503
  326SOL     OW 1876   1.648   5.026   6.130
  326SOL    HW1 1877   1.622   4.941   6.176
  326SOL    HW2 1878   1.746   5.040   6.138
  327SOL     OW 1879   2.889   4.822   2.637
  327SOL    HW1 1880   2.970   4.878   2.649
  327SOL    HW2 1881   2.832   4.826   2.719
  328SOL     OW 1882   1.241   4.031   1.814
  328SOL    HW1 1883   1.172   3.964   1.843
  328SOL    HW2 1884   1.327   3.985   1.796
  329SOL     OW 1885   2.911   4.089   1.311
  329SOL    HW1 1886   2.817   4.063   1.292
  329SOL    HW2 1887   2.930   4.075   1.408
  330SOL     OW 1888   3.681   5.529   0.218
  330SOL    HW1 1889   3.653   5.611   0.269
  330SOL    HW2 1890   3.758   5.485   0.266
  331SOL     OW 1891   5.325   5.217   0.702
  331SOL    HW1 1892   5.286   5.181   0.786
  331SOL    HW2 1893   5.424   5.204   0.702
  332SOL     OW 1894   5.444   1.716   3.788
  332SOL    HW1 1895   5.459   1.789   3.721
  332SOL    HW2 1896   5.400   1.754   3.869
  333SOL     OW 1897   4.229   0.959   5.117
  333SOL    HW1 1898   4.276   0.875   5.092
  333SOL    HW2 1899   4.295   1.025   5.154
  334SOL     OW 1900   3.528   2.810   2.236
  334SOL    HW1 1901   3.515   2.716   2.205
  334SOL    HW2 1902   3.603   2.814   2.302
  335SOL     OW 1903   4.102   0.174   6.841
  335SOL    HW1 1904   4.112   0.213   6.933
  335SOL    HW2 1905   4.142   0.083   6.839
  336SOL     OW 1906   3.014   1.236   3.233
  336SOL    HW1 1907   2.920   1.221   3.203
  336SOL    HW2 1908   3.018   1.235   3.333
  337SOL     OW 1909   1.498   2.019   5.721
  337SOL    HW1 1910   1.508   2.116   5.699
  337SOL    HW2 1911   1.402   1.997   5.734
  338SOL     OW 1912   4.093   2.880   1.523
  338SOL    HW1 1913   4.014   2.862   1.464
  338SOL    HW2 1914   4.175   2.892   1.468
  339SOL     OW 1915   4.261   4.778   4.617
  339SOL    HW1 1916   4.325   4.855   4.608
  339SOL    HW2 1917   4.197   4.797   4.691
  340SOL     OW 1918   5.263   2.869   4.833
  340SOL    HW1 1919   5.174   2.859   4.787
  340SOL    HW2 1920   5.288   2.965   4.835
  341SOL     OW 1921   5.666   5.685   4.757
  341SOL    HW1 1922   5.618   5.616   4.811
  341SOL    HW2 1923   5.684   5.649   4.666
  342SOL     OW 1924   4.638   4.074   1.210
  342SOL    HW1 1925   4.616   4.025   1.126
  342SOL    HW2 1926   4.581   4.156   1.217
  343SOL     OW 1927   0.705   6.490   2.426
  343SOL    HW1 1928   0.642   6.423   2.462
  343SOL    HW2 1929   0.701   6.573   2.481
  344SOL     OW 1930   0.668   1.755   1.836
  344SOL    HW1 1931   0.627   1.823   1.897
  344SOL    HW2 1932   0.764   1.777   1.822
  345SOL     OW 1933   6.719   2.377   4.428
  345SOL    HW1 1934   6.732   2.391   4.526
  345SOL    HW2 1935   6.637   2.425   4.398
  346SOL     OW 1936   2.281   6.634   2.521
  346SOL    HW1 1937   2.238   6.615   2.433
  346SOL    HW2 1938   2.252   6.565   2.588
  347SOL     OW 1939   2.379   5.855   0.074
  347SOL    HW1 1940   2.434   5.928   0.112
  347SOL    HW2 1941   2.438   5.780   0.043
  348SOL     OW 1942   4.396   5.086   2.561
  348SOL    HW1 1943   4.317   5.124   2.609
  348SOL    HW2 1944   4.478   5.137   2.587
  349SOL     OW 1945   6.988   4.474   2.098
  349SOL    HW1 1946   7.025   4.566   2.094
  349SOL    HW2 1947   0.038   4.408   2.099
  350SOL     OW 1948   3.181   2.997   0.223
  350SOL    HW1 1949   3.266   3.025   0.267
  350SOL    HW2 1950   3.115   3.072   0.228
  351SOL     OW 1951   2.639   3.893   0.591
  351SOL    HW1 1952   2.726   3.940   0.606
  351SOL    HW2 1953   2.629   3.819   0.658
  352SOL     OW 1954   4.188   6.358   3.468
  352SOL    HW1 1955   4.153   6.386   3.379
  352SOL    HW2 1956   4.125   6.387   3.540
  353SOL     OW 1957   3.350   0.227   6.289
  353SOL    HW1 1958   3.365   0.188   6.380
  353SOL    HW2 1959   3.257   0.204   6.258
  354SOL     OW 1960   5.502   3.139   0.664
  354SOL    HW1 1961   5.444   3.170   0.739
  354SOL    HW2 1962   5.597   3.136   0.694
  355SOL     OW 1963   1.732   2.661   2.415
  355SOL    HW1 1964   1.806   2.705   2.466
  355SOL    HW2 1965   1.644   2.697   2.446
  356SOL     OW 1966   1.958   0.628   4.518
  356SOL    HW1 1967   1.976   0.534   4.490
  356SOL    HW2 1968   1.862   0.637   4.546
  357SOL     OW 1969   0.006   6.069   4.308
  357SOL    HW1 1970   7.002   6.048   4.215
  357SOL    HW2 1971   0.022   6.167   4.318
  358SOL     OW 1972   4.642   6.317   1.018
  358SOL    HW1 1973   4.586   6.400   1.028
  358SOL    HW2 1974   4.738   6.341   1.030
  359SOL     OW 1975   3.379   0.823   1.192
  359SOL    HW1 1976   3.391   0.898   1.126
  359SOL    HW2 1977   3.349   0.860   1.280
  360SOL     OW 1978   1.500   4.173   4.783
  360SOL    HW1 1979   1.510   4.130   4.873
  360SOL    HW2 1980   1.417   4.138   4.739
  361SOL     OW 1981   6.243   6.607   2.673
  361SOL    HW1 1982   6.150   6.609   2.637
  361SOL    HW2 1983   6.264   6.515   2.705
  362SOL     OW 1984   3.948   4.113   1.019
  362SOL    HW1 1985   3.896   4.184   1.067
  362SOL    HW2 1986   4.045   4.126   1.036
  363SOL     OW 1987   5.971   4.433   2.611
  363SOL    HW1 1988   5.909   4.451   2.534
  363SOL    HW2 1989   5.926   4.462   2.696
  364SOL     OW 1990   0.816   4.813   6.666
  364SOL    HW1 1991   0.771   4.774   6.586
  364SOL    HW2 1992   0.907   4.846   6.641
  365SOL     OW 1993   3.473   1.026   1.022
  365SOL    HW1 1994   3.559   0.978   1.004
  365SOL    HW2 1995   3.491   1.123   1.037
  366SOL     OW 1996   6.163   3.115   6.391
  366SOL    HW1 1997   6.167   3.031   6.446
  366SOL    HW2 1998   6.255   3.152   6.381
  367SOL     OW 1999   6.146   2.688   6.047
  367SOL    HW1 2000   6.125   2.786   6.056
  367SOL    HW2 2001   6.196   2.673   5.961
  368SOL     OW 2002   0.146   2.145   5.853
  368SOL    HW1 2003   0.103   2.199   5.781
  368SOL    HW2 2004   0.205   2.205   5.908
  369SOL     OW 2005   5.876   4.159   2.994
  369SOL    HW1 2006   5.943   4.208   3.050
  369SOL    HW2 2007   5.808   4.223   2.959
  370SOL     OW 2008   1.428   1.926   4.413
  370SOL    HW1 2009   1.371   1.896   4.336
  370SOL    HW2 2010   1.377   1.916   4.498
  371SOL     OW 2011   1.886   4.838   6.938
  371SOL    HW1 2012   1.897   4.937   6.952
  371SOL    HW2 2013   1.818   4.822   6.866
  372SOL     OW 2014   1.625   0.083   5.018
  372SOL    HW1 2015   1.590   7.015   5.013
  372SOL    HW2 2016   1.610   0.119   5.110
  373SOL     OW 2017   5.809   6.842   5.472
  373SOL    HW1 2018   5.822   6.940   5.485
  373SOL    HW2 2019   5.717   6.825   5.438
  374SOL     OW 2020   2.186   1.543   2.977
  374SOL    HW1 2021   2.102   1.585   2.942
  374SOL    HW2 2022   2.239   1.508   2.900
  375SOL     OW 2023   0.898   5.285   4.430
  375SOL    HW1 2024   0.893   5.290   4.330
  375SOL    HW2 2025   0.813   5.248   4.466
  376SOL     OW 2026   1.719   1.218   5.351
  376SOL    HW1 2027   1.765   1.301   5.319
  376SOL    HW2 2028   1.631   1.210   5.306
  377SOL     OW 2029   1.831   2.246   0.287
  377SOL    HW1 2030   1.837   2.307   0.208
  377SOL    HW2 2031   1.922   2.232   0.325
  378SOL     OW 2032   3.349   1.351   6.472
  378SOL    HW1 2033   3.312   1.388   6.386
  378SOL    HW2 2034   3.446   1.374   6.479
  379SOL     OW 2035   5.343   2.441   7.019
  379SOL    HW1 2036   5.375   2.366   6.961
  379SOL    HW2 2037   5.243   2.437   7.025
  380SOL     OW 2038   2.712   1.426   1.677
  380SOL    HW1 2039   2.765   1.393   1.599
  380SOL    HW2 2040   2.677   1.347   1.728
  381SOL     OW 2041   1.833   3.528   4.245
  381SOL    HW1 2042   1.873   3.520   4.154
  381SOL    HW2 2043   1.863   3.452   4.302
  382SOL     OW 2044   6.051   0.146   0.002
  382SOL    HW1 2045   6.053   0.046   0.002
  382SOL    HW2 2046   5.990   0.178   0.075
  383SOL     OW 2047   4.728   2.771   0.582
  383SOL    HW1 2048   4.810   2.721   0.610
  383SOL    HW2 2049   4.722   2.771   0.482
  384SOL     OW 2050   0.481   4.660   3.676
  384SOL    HW1 2051   0.564   4.606   3.693
  384SOL    HW2 2052   0.488   4.747   3.725
  385SOL     OW 2053   3.454   5.722   5.790
  385SOL    HW1 2054   3.525   5.789   5.815
  385SOL    HW2 2055   3.365   5.767   5.793
  386SOL     OW 2056   4.082   0.564   4.386
  386SOL    HW1 2057   4.116   0.647   4.341
  386SOL    HW2 2058   4.099   0.485   4.327
  387SOL     OW 2059   1.623   5.492   2.463
  387SOL    HW1 2060   1.567   5.559   2.414
  387SOL    HW2 2061   1.633   5.410   2.406
  388SOL     OW 2062   1.922   1.762   6.369
  388SOL    HW1 2063   1.850   1.749   6.436
  388SOL    HW2 2064   1.963   1.853   6.379
  389SOL     OW 2065   4.068   3.128   2.282
  389SOL    HW1 2066   4.100   3.126   2.377
  389SOL    HW2 2067   4.139   3.091   2.222
  390SOL     OW 2068   3.329   1.014   4.441
  390SOL    HW1 2069   3.272   0.998   4.360
  390SOL    HW2 2070   3.376   0.929   4.465
  391SOL     OW 2071   2.234   2.914   6.464
  391SOL    HW1 2072   2.290   2.861   6.529
  391SOL    HW2 2073   2.264   3.009   6.464
  392SOL     OW 2074   1.798   5.086   0.466
  392SOL    HW1 2075   1.721   5.030   0.436
  392SOL    HW2 2076   1.777   5.128   0.554
  393SOL     OW 2077   6.904   4.542   5.476
  393SOL    HW1 2078   6.870   4.621   5.425
  393SOL    HW2 2079   6.826   4.488   5.509
  394SOL     OW 2080   0.320   7.024   0.284
  394SOL    HW1 2081   0.264   0.068   0.239
  394SOL    HW2 2082   0.269   6.987   0.362
  395SOL     OW 2083   5.185   3.919   2.751
  395SOL    HW1 2084   5.190   3.983   2.674
  395SOL    HW2 2085   5.199   3.826   2.718
  396SOL     OW 2086   3.925   3.948   2.172
  396SOL    HW1 2087   3.930   4.036   2.125
  396SOL    HW2 2088   3.982   3.881   2.125
  397SOL     OW 2089   3.638   2.849   5.687
  397SOL    HW1 2090   3.691   2.919   5.735
  397SOL    HW2 2091   3.621   2.772   5.749
  398SOL     OW 2092   0.277   6.384   1.726
  398SOL    HW1 2093   0.274   6.436   1.641
  398SOL    HW2 2094   0.269   6.286   1.706
  399SOL     OW 2095   4.926   5.932   2.162
  399SOL    HW1 2096   4.843   5.980   2.191
  399SOL    HW2 2097   5.005   5.972   2.209
  400SOL     OW 2098   0.052   0.389   5.717
  400SOL    HW1 2099   0.042   0.385   5.618
  400SOL    HW2 2100   7.025   0.315   5.759
  401SOL     OW 2101   4.645   0.946   6.224
  401SOL    HW1 2102   4.605   1.033   6.194
  401SOL    HW2 2103   4.710   0.964   6.298
  402SOL     OW 2104   5.986   6.614   2.586
  402SOL    HW1 2105   5.900   6.591   2.539
  402SOL    HW2 2106   5.994   6.713   2.593
  403SOL     OW 2107   3.825   2.255   5.706
  403SOL    HW1 2108   3.741   2.272   5.655
  403SOL    HW2 2109   3.806   2.197   5.785
  404SOL     OW 2110   1.566   6.421   3.738
  404SOL    HW1 2111   1.528   6.457   3.823
  404SOL    HW2 2112   1.664   6.438   3.735
  405SOL     OW 2113   1.528   2.763   1.630
  405SOL    HW1 2114   1.438   2.777   1.669
  405SOL    HW2 2115   1.598   2.798   1.693
  406SOL     OW 2116   0.915   3.307   3.744
  406SOL    HW1 2117   0.894   3.280   3.838
  406SOL    HW2 2118   0.856   3.383   3.717
  407SOL     OW 2119   2.153   0.723   4.055
  407SOL    HW1 2120   2.116   0.808   4.016
  407SOL    HW2 2121   2.145   0.650   3.988
  408SOL     OW 2122   1.546   0.871   2.807
  408SOL    HW1 2123   1.504   0.839   2.722
  408SOL    HW2 2124   1.493   0.836   2.885
  409SOL     OW 2125   5.904   3.109   2.116
  409SOL    HW1 2126   5.893   3.146   2.208
  409SOL    HW2 2127   5.937   3.180   2.055
  410SOL     OW 2128   2.158   0.240   6.420
  410SOL    HW1 2129   2.227   0.178   6.383
  410SOL    HW2 2130   2.202   0.326   6.447
  411SOL     OW 2131   6.102   6.813   6.711
  411SOL    HW1 2132   6.049   6.735   6.744
  411SOL    HW2 2133   6.040   6.888   6.687
  412SOL     OW 2134   4.645   6.520   3.570
  412SOL    HW1 2135   4.568   6.497   3.511
  412SOL    HW2 2136   4.685   6.437   3.609
  413SOL     OW 2137   5.202   5.063   1.389
  413SOL    HW1 2138   5.295   5.038   1.363
  413SOL    HW2 2139   5.177   5.017   1.474
  414SOL     OW 2140   3.400   4.897   3.475
  414SOL    HW1 2141   3.388   4.862   3.382
  414SOL    HW2 2142   3.310   4.914   3.516
  415SOL     OW 2143   0.873   6.022   6.955
  415SOL    HW1 2144   0.829   6.022   6.866
  415SOL    HW2 2145   0.822   5.963   7.018
  416SOL     OW 2146   4.721   5.236   5.450
  416SOL    HW1 2147   4.709   5.191   5.362
  416SOL    HW2 2148   4.662   5.193   5.518
  417SOL     OW 2149   2.802   6.014   0.883
  417SOL    HW1 2150   2.757   6.097   0.916
  417SOL    HW2 2151   2.766   5.935   0.932
  418SOL     OW 2152   4.295   6.281   1.162
  418SOL    HW1 2153   4.340   6.227   1.233
  418SOL    HW2 2154   4.255   6.219   1.094
  419SOL     OW 2155   1.672   0.345   1.523
  419SOL    HW1 2156   1.736   0.352   1.599
  419SOL    HW2 2157   1.607   0.421   1.526
  420SOL     OW 2158   6.457   2.958   1.680
  420SOL    HW1 2159   6.503   2.977   1.593
  420SOL    HW2 2160   6.509   2.889   1.731
  421SOL     OW 2161   0.288   4.914   6.021
  421SOL    HW1 2162   0.360   4.944   5.959
  421SOL    HW2 2163   0.270   4.985   6.089
  422SOL     OW 2164   6.056   4.393   0.584
  422SOL    HW1 2165   6.124   4.449   0.538
  422SOL    HW2 2166   6.102   4.330   0.648
  423SOL     OW 2167   0.479   3.008   6.606
  423SOL    HW1 2168   0.427   2.930   6.573
  423SOL    HW2 2169   0.576   2.993   6.589
  424SOL     OW 2170   2.786   3.803   1.153
  424SOL    HW1 2171   2.876   3.821   1.112
  424SOL    HW2 2172   2.737   3.890   1.164
  425SOL     OW 2173   5.935   1.106   2.412
  425SOL    HW1 2174   5.875   1.160   2.354
  425SOL    HW2 2175   5.986   1.040   2.356
  426SOL     OW 2176   5.291   2.174   4.371
  426SOL    HW1 2177   5.373   2.207   4.419
  426SOL    HW2 2178   5.210   2.218   4.411
  427SOL     OW 2179   5.773   4.721   2.314
  427SOL    HW1 2180   5.683   4.754   2.343
  427SOL    HW2 2181   5.806   4.652   2.380
  428SOL     OW 2182   4.434   6.925   4.575
  428SOL    HW1 2183   4.470   6.883   4.492
  428SOL    HW2 2184   4.358   6.985   4.552
  429SOL     OW 2185   2.510   4.231   1.788
  429SOL    HW1 2186   2.582   4.279   1.737
  429SOL    HW2 2187   2.534   4.134   1.796
  430SOL     OW 2188   0.598   0.333   4.549
  430SOL    HW1 2189   0.537   0.254   4.558
  430SOL    HW2 2190   0.688   0.309   4.584
  431SOL     OW 2191   2.989   0.306   0.190
  431SOL    HW1 2192   2.926   0.357   0.248
  431SOL    HW2 2193   2.972   0.208   0.199
  432SOL     OW 2194   6.631   2.605   2.299
  432SOL    HW1 2195   6.658   2.552   2.380
  432SOL    HW2 2196   6.533   2.595   2.284
  433SOL     OW 2197   3.118   6.329   4.344
  433SOL    HW1 2198   3.111   6.234   4.312
  433SOL    HW2 2199   3.029   6.361   4.375
  434SOL     OW 2200   4.222   4.905   1.872
  434SOL    HW1 2201   4.246   4.968   1.946
  434SOL    HW2 2202   4.171   4.827   1.909
  435SOL     OW 2203   3.784   1.796   5.182
  435SOL    HW1 2204   3.727   1.819   5.103
  435SOL    HW2 2205   3.878   1.822   5.165
  436SOL     OW 2206   3.214   5.969   0.641
  436SOL    HW1 2207   3.290   6.002   0.696
  436SOL    HW2 2208   3.172   5.890   0.685
  437SOL     OW 2209   1.040   6.693   6.808
  437SOL    HW1 2210   1.099   6.614   6.825
  437SOL    HW2 2211   1.075   6.744   6.730
  438SOL     OW 2212   1.797   2.772   2.160
  438SOL    HW1 2213   1.775   2.735   2.250
  438SOL    HW2 2214   1.844   2.703   2.106
  439SOL     OW 2215   6.321   4.348   3.450
  439SOL    HW1 2216   6.283   4.417   3.388
  439SOL    HW2 2217   6.315   4.380   3.544
  440SOL     OW 2218   1.342   2.057   4.895
  440SOL    HW1 2219   1.261   2.045   4.952
  440SOL    HW2 2220   1.383   2.146   4.914
  441SOL     OW 2221   0.663   2.002   3.581
  441SOL    HW1 2222   0.591   1.938   3.608
  441SOL    HW2 2223   0.624   2.092   3.566
  442SOL     OW 2224   2.197   5.074   6.693
  442SOL    HW1 2225   2.170   5.024   6.611
  442SOL    HW2 2226   2.291   5.050   6.717
  443SOL     OW 2227   0.662   3.707   4.820
  443SOL    HW1 2228   0.582   3.659   4.783
  443SOL    HW2 2229   0.707   3.758   4.747
  444SOL     OW 2230   5.064   2.185   5.907
  444SOL    HW1 2231   5.064   2.279   5.873
  444SOL    HW2 2232   5.157   2.162   5.938
  445SOL     OW 2233   1.449   5.894   3.126
  445SOL    HW1 2234   1.422   5.844   3.208
  445SOL    HW2 2235   1.539   5.862   3.096
  446SOL     OW 2236   4.088   4.834   4.168
  446SOL    HW1 2237   4.093   4.810   4.265
  446SOL    HW2 2238   4.115   4.755   4.113
  447SOL     OW 2239   0.735   2.785   0.007
  447SOL    HW1 2240   0.800   2.810   0.079
  447SOL    HW2 2241   0.679   2.709   0.038
  448SOL     OW 2242   2.566   0.622   4.646
  448SOL    HW1 2243   2.619   0.694   4.600
  448SOL    HW2 2244   2.608   0.533   4.629
  449SOL     OW 2245   3.946   0.782   5.003
  449SOL    HW1 2246   4.041   0.785   5.033
  449SOL    HW2 2247   3.922   0.869   4.961
  450SOL     OW 2248   1.515   6.117   3.607
  450SOL    HW1 2249   1.525   6.215   3.625
  450SOL    HW2 2250   1.527   6.066   3.692
  451SOL     OW 2251   1.746   2.075   3.391
  451SOL    HW1 2252   1.740   2.073   3.291
  451SOL    HW2 2253   1.821   2.136   3.418
  452SOL     OW 2254   6.261   5.947   1.378
  452SOL    HW1 2255   6.306   6.034   1.399
  452SOL    HW2 2256   6.300   5.875   1.435
  453SOL     OW 2257   3.286   0.569   4.668
  453SOL    HW1 2258   3.233   0.516   4.601
  453SOL    HW2 2259   3.251   0.662   4.671
  454SOL     OW 2260   0.223   5.058   6.299
  454SOL    HW1 2261   0.182   4.967   6.298
  454SOL    HW2 2262   0.312   5.055   6.344
  455SOL     OW 2263   6.865   1.799   3.616
  455SOL    HW1 2264   6.959   1.827   3.639
  455SOL    HW2 2265   6.867   1.717   3.559
  456SOL     OW 2266   5.137   5.470   4.559
  456SOL    HW1 2267   5.203   5.514   4.497
  456SOL    HW2 2268   5.146   5.509   4.650
  457SOL     OW 2269   1.962   3.370   3.430
  457SOL    HW1 2270   1.875   3.319   3.430
  457SOL    HW2 2271   1.997   3.376   3.523
  458SOL     OW 2272   4.698   5.875   3.877
  458SOL    HW1 2273   4.782   5.927   3.863
  458SOL    HW2 2274   4.684   5.861   3.975
  459SOL     OW 2275   1.908   6.468   4.205
  459SOL    HW1 2276   1.962   6.468   4.121
  459SOL    HW2 2277   1.828   6.410   4.194
  460SOL     OW 2278   1.775   0.225   3.602
  460SOL    HW1 2279   1.860   0.174   3.586
  460SOL    HW2 2280   1.752   0.278   3.521
  461SOL     OW 2281   5.978   0.137   5.222
  461SOL    HW1 2282   5.928   0.196   5.285
  461SOL    HW2 2283   6.031   0.070   5.273
  462SOL     OW 2284   3.962   2.941   6.115
  462SOL    HW1 2285   3.947   2.895   6.027
  462SOL    HW2 2286   3.965   2.873   6.188
  463SOL     OW 2287   6.677   5.564   3.441
  463SOL    HW1 2288   6.586   5.592   3.412
  463SOL    HW2 2289   6.669   5.494   3.513
  464SOL     OW 2290   2.581   2.471   6.693
  464SOL    HW1 2291   2.576   2.415   6.776
  464SOL    HW2 2292   2.505   2.448   6.633
  465SOL     OW 2293   1.108   2.765   4.134
  465SOL    HW1 2294   1.015   2.729   4.125
  465SOL    HW2 2295   1.141   2.747   4.227
  466SOL     OW 2296   1.439   4.864   3.074
  466SOL    HW1 2297   1.379   4.835   3.149
  466SOL    HW2 2298   1.394   4.936   3.021
  467SOL     OW 2299   1.028   0.873   0.196
  467SOL    HW1 2300   0.930   0.853   0.186
  467SOL    HW2 2301   1.067   0.893   0.106
  468SOL     OW 2302   3.788   6.366   6.768
  468SOL    HW1 2303   3.715   6.428   6.798
  468SOL    HW2 2304   3.870   6.382   6.823
  469SOL     OW 2305   3.104   4.450   0.751
  469SOL    HW1 2306   3.082   4.389   0.827
  469SOL    HW2 2307   3.113   4.543   0.785
  470SOL     OW 2308   4.177   0.336   2.559
  470SOL    HW1 2309   4.150   0.295   2.472
  470SOL    HW2 2310   4.256   0.288   2.596
  471SOL     OW 2311   1.850   2.535   4.039
  471SOL    HW1 2312   1.809   2.444   4.051
  471SOL    HW2 2313   1.912   2.534   3.960
  472SOL     OW 2314   5.294   4.091   6.723
  472SOL    HW1 2315   5.215   4.034   6.743
  472SOL    HW2 2316   5.348   4.104   6.806
  473SOL     OW 2317   0.904   3.062   2.253
  473SOL    HW1 2318   0.850   3.131   2.302
  473SOL    HW2 2319   0.994   3.055   2.294
  474SOL     OW 2320   4.962   4.985   3.646
  474SOL    HW1 2321   4.882   4.926   3.641
  474SOL    HW2 2322   4.943   5.072   3.600
  475SOL     OW 2323   5.269   1.048   5.973
  475SOL    HW1 2324   5.363   1.061   5.941
  475SOL    HW2 2325   5.221   0.987   5.910
  476SOL     OW 2326   0.081   4.393   2.490
  476SOL    HW1 2327   0.157   4.328   2.489
  476SOL    HW2 2328   0.003   4.354   2.441
  477SOL     OW 2329   1.530   4.210   5.136
  477SOL    HW1 2330   1.584   4.287   5.102
  477SOL    HW2 2331   1.433   4.228   5.120
  478SOL     OW 2332   3.427   6.931   2.154
  478SOL    HW1 2333   3.334   6.957   2.180
  478SOL    HW2 2334   3.481   7.013   2.135
  479SOL     OW 2335   4.124   2.129   6.870
  479SOL    HW1 2336   4.086   2.041   6.842
  479SOL    HW2 2337   4.206   2.149   6.817
  480SOL     OW 2338   2.273   1.732   0.034
  480SOL    HW1 2339   2.185   1.770   0.063
  480SOL    HW2 2340   2.330   1.805   7.022
  481SOL     OW 2341   1.651   0.598   0.307
  481SOL    HW1 2342   1.701   0.683   0.289
  481SOL    HW2 2343   1.689   0.523   0.254
  482SOL     OW 2344   4.878   4.756   3.092
  482SOL    HW1 2345   4.865   4.662   3.061
  482SOL    HW2 2346   4.947   4.801   3.035
  483SOL     OW 2347   6.875   1.680   1.811
  483SOL    HW1 2348   6.836   1.614   1.874
  483SOL    HW2 2349   6.822   1.681   1.726
  484SOL     OW 2350   1.232   2.985   4.777
  484SOL    HW1 2351   1.184   2.897   4.782
  484SOL    HW2 2352   1.324   2.975   4.814
  485SOL     OW 2353   3.953   5.430   2.489
  485SOL    HW1 2354   3.986   5.378   2.568
  485SOL    HW2 2355   4.031   5.474   2.443
  486SOL     OW 2356   6.554   1.957   0.918
  486SOL    HW1 2357   6.525   2.030   0.856
  486SOL    HW2 2358   6.636   1.913   0.882
  487SOL     OW 2359   1.396   1.760   1.143
  487SOL    HW1 2360   1.399   1.832   1.074
  487SOL    HW2 2361   1.362   1.797   1.229
  488SOL     OW 2362   0.662   1.735   1.526
  488SOL    HW1 2363   0.624   1.741   1.619
  488SOL    HW2 2364   0.742   1.795   1.519
  489SOL     OW 2365   3.365   6.324   6.358
  489SOL    HW1 2366   3.400   6.330   6.264
  489SOL    HW2 2367   3.308   6.243   6.367
  490SOL     OW 2368   7.007   6.204   3.293
  490SOL    HW1 2369   0.022   6.175   3.380
  490SOL    HW2 2370   6.969   6.296   3.304
  491SOL     OW 2371   0.432   2.983   2.248
  491SOL    HW1 2372   0.478   2.952   2.164
  491SOL    HW2 2373   0.465   2.930   2.325
  492SOL     OW 2374   2.478   0.017   5.212
  492SOL    HW1 2375   2.408   6.973   5.222
  492SOL    HW2 2376   2.483   0.046   5.116
  493SOL     OW 2377   5.152   6.689   5.647
  493SOL    HW1 2378   5.102   6.766   5.608
  493SOL    HW2 2379   5.098   6.605   5.638
  494SOL     OW 2380   6.743   0.634   6.442
  494SOL    HW1 2381   6.744   0.612   6.540
  494SOL    HW2 2382   6.828   0.604   6.400
  495SOL     OW 2383   4.773   5.957   3.488
  495SOL    HW1 2384   4.684   5.987   3.521
  495SOL    HW2 2385   4.806   5.882   3.545
  496SOL     OW 2386   5.523   3.657   2.140
  496SOL    HW1 2387   5.470   3.613   2.068
  496SOL    HW2 2388   5.481   3.638   2.228
  497SOL     OW 2389   3.758   1.072   4.592
  497SOL    HW1 2390   3.764   0.973   4.608
  497SOL    HW2 2391   3.847   1.107   4.562
  498SOL     OW 2392   1.730   4.316   1.601
  498SOL    HW1 2393   1.676   4.311   1.685
  498SOL    HW2 2394   1.694   4.390   1.544
  499SOL     OW 2395   2.650   0.458   3.957
  499SOL    HW1 2396   2.684   0.541   3.913
  499SOL    HW2 2397   2.674   0.460   4.054
  500SOL     OW 2398   0.587   3.535   3.488
  500SOL    HW1 2399   0.642   3.614   3.516
  500SOL    HW2 2400   0.596   3.521   3.390
  501SOL     OW 2401   2.796   6.121   0.290
  501SOL    HW1 2402   2.885   6.091   0.254
  501SOL    HW2 2403   2.802   6.217   0.317
  502SOL     OW 2404   6.837   4.116   0.028
  502SOL    HW1 2405   6.901   4.047   7.022
  502SOL    HW2 2406   6.778   4.144   6.978
  503SOL     OW 2407   5.814   5.749   5.857
  503SOL    HW1 2408   5.908   5.777   5.875
  503SOL    HW2 2409   5.751   5.818   5.894
  504SOL     OW 2410   1.844   5.387   3.145
  504SOL    HW1 2411   1.895   5.471   3.126
  504SOL    HW2 2412   1.879   5.345   3.229
  505SOL     OW 2413   3.319   6.099   4.881
  505SOL    HW1 2414   3.362   6.134   4.964
  505SOL    HW2 2415   3.288   6.175   4.824
  506SOL     OW 2416   2.057   5.708   4.969
  506SOL    HW1 2417   1.958   5.710   4.978
  506SOL    HW2 2418   2.084   5.746   4.881
  507SOL     OW 2419   3.773   0.553   3.468
  507SOL    HW1 2420   3.815   0.619   3.530
  507SOL    HW2 2421   3.812   0.564   3.377
  508SOL     OW 2422   6.591   3.901   2.526
  508SOL    HW1 2423   6.589   3.999   2.508
  508SOL    HW2 2424   6.620   3.852   2.443
  509SOL     OW 2425   3.460   1.168   1.980
  509SOL    HW1 2426   3.366   1.134   1.989
  509SOL    HW2 2427   3.491   1.154   1.886
  510SOL     OW 2428   6.335   5.087   6.683
  510SOL    HW1 2429   6.402   5.018   6.709
  510SOL    HW2 2430   6.378   5.177   6.684
  511SOL     OW 2431   0.298   1.209   6.046
  511SOL    HW1 2432   0.256   1.290   6.005
  511SOL    HW2 2433   0.246   1.127   6.018
  512SOL     OW 2434   6.866   2.880   0.019
  512SOL    HW1 2435   6.830   2.796   0.058
  512SOL    HW2 2436   6.817   2.902   6.960
  513SOL     OW 2437   6.129   5.990   3.073
  513SOL    HW1 2438   6.053   5.996   3.008
  513SOL    HW2 2439   6.148   5.894   3.093
  514SOL     OW 2440   6.957   2.618   4.147
  514SOL    HW1 2441   0.007   2.673   4.179
  514SOL    HW2 2442   6.874   2.643   4.197
  515SOL     OW 2443   2.145   0.933   6.846
  515SOL    HW1 2444   2.055   0.921   6.887
  515SOL    HW2 2445   2.176   1.027   6.860
  516SOL     OW 2446   2.639   4.632   1.807
  516SOL    HW1 2447   2.619   4.539   1.774
  516SOL    HW2 2448   2.732   4.634   1.844
  517SOL     OW 2449   5.153   5.475   2.126
  517SOL    HW1 2450   5.142   5.417   2.045
  517SOL    HW2 2451   5.072   5.532   2.138
  518SOL     OW 2452   2.210   2.579   2.355
  518SOL    HW1 2453   2.272   2.537   2.421
  518SOL    HW2 2454   2.239   2.556   2.262
  519SOL     OW 2455   0.741   1.075   4.288
  519SOL    HW1 2456   0.832   1.117   4.291
  519SOL    HW2 2457   0.710   1.056   4.381
  520SOL     OW 2458   6.400   4.170   0.145
  520SOL    HW1 2459   6.450   4.257   0.142
  520SOL    HW2 2460   6.399   4.135   0.238
  521SOL     OW 2461   6.849   3.756   6.190
  521SOL    HW1 2462   6.876   3.689   6.259
  521SOL    HW2 2463   6.750   3.770   6.193
  522SOL     OW 2464   3.373   4.170   5.890
  522SOL    HW1 2465   3.363   4.204   5.983
  522SOL    HW2 2466   3.300   4.209   5.833
  523SOL     OW 2467   0.758   5.087   1.509
  523SOL    HW1 2468   0.796   5.019   1.572
  523SOL    HW2 2469   0.680   5.047   1.460
  524SOL     OW 2470   1.359   1.576   0.620
  524SOL    HW1 2471   1.305   1.576   0.536
  524SOL    HW2 2472   1.334   1.497   0.676
  525SOL     OW 2473   2.324   3.449   6.734
  525SOL    HW1 2474   2.384   3.373   6.758
  525SOL    HW2 2475   2.250   3.456   6.801
  526SOL     OW 2476   4.040   6.977   4.141
  526SOL    HW1 2477   4.131   6.963   4.102
  526SOL    HW2 2478   3.970   6.940   4.080
  527SOL     OW 2479   6.580   3.126   6.634
  527SOL    HW1 2480   6.669   3.172   6.634
  527SOL    HW2 2481   6.579   3.056   6.706
  528SOL     OW 2482   1.194   1.535   3.723
  528SOL    HW1 2483   1.171   1.443   3.692
  528SOL    HW2 2484   1.284   1.534   3.767
  529SOL     OW 2485   1.136   6.454   3.992
  529SOL    HW1 2486   1.228   6.448   4.032
  529SOL    HW2 2487   1.094   6.363   3.991
  530SOL     OW 2488   3.112   3.090   5.493
  530SOL    HW1 2489   3.090   3.020   5.424
  530SOL    HW2 2490   3.204   3.126   5.474
  531SOL     OW 2491   0.321   0.347   2.363
  531SOL    HW1 2492   0.244   0.377   2.418
  531SOL    HW2 2493   0.353   0.423   2.306
  532SOL     OW 2494   1.662   1.907   0.037
  532SOL    HW1 2495   1.745   1.942   0.081
  532SOL    HW2 2496   1.657   1.808   0.052
  533SOL     OW 2497   4.066   6.552   3.673
  533SOL    HW1 2498   4.089   6.649   3.680
  533SOL    HW2 2499   4.114   6.501   3.745
  534SOL     OW 2500   5.380   5.642   3.415
  534SOL    HW1 2501   5.304   5.579   3.432
  534SOL    HW2 2502   5.445   5.635   3.490
  535SOL     OW 2503   0.308   3.549   4.554
  535SOL    HW1 2504   0.338   3.594   4.638
  535SOL    HW2 2505   0.295   3.618   4.482
  536SOL     OW 2506   0.310   5.088   2.052
  536SOL    HW1 2507   0.346   5.147   2.125
  536SOL    HW2 2508   0.311   4.993   2.082
  537SOL     OW 2509   2.348   6.694   3.732
  537SOL    HW1 2510   2.298   6.615   3.698
  537SOL    HW2 2511   2.446   6.680   3.718
  538SOL     OW 2512   1.336   4.189   3.221
  538SOL    HW1 2513   1.319   4.139   3.305
  538SOL    HW2 2514   1.382   4.130   3.155
  539SOL     OW 2515   0.890   6.073   0.335
  539SOL    HW1 2516   0.867   6.142   0.404
  539SOL    HW2 2517   0.924   6.118   0.253
  540SOL     OW 2518   0.330   1.209   2.155
  540SOL    HW1 2519   0.365   1.218   2.248
  540SOL    HW2 2520   0.280   1.293   2.131
  541SOL     OW 2521   3.298   6.253   3.581
  541SOL    HW1 2522   3.324   6.345   3.611
  541SOL    HW2 2523   3.360   6.186   3.622
  542SOL     OW 2524   6.725   0.159   0.241
  542SOL    HW1 2525   6.627   0.142   0.253
  542SOL    HW2 2526   6.738   0.236   0.178
  543SOL     OW 2527   1.298   5.043   5.552
  543SOL    HW1 2528   1.394   5.043   5.525
  543SOL    HW2 2529   1.253   5.124   5.514
  544SOL     OW 2530   1.900   4.138   1.469
  544SOL    HW1 2531   1.832   4.186   1.524
  544SOL    HW2 2532   1.934   4.059   1.520
  545SOL     OW 2533   3.404   0.707   3.177
  545SOL    HW1 2534   3.494   0.747   3.197
  545SOL    HW2 2535   3.391   0.624   3.232
  546SOL     OW 2536   1.945   3.188   0.112
  546SOL    HW1 2537   2.032   3.236   0.097
  546SOL    HW2 2538   1.963   3.100   0.156
  547SOL     OW 2539   2.854   1.779   6.667
  547SOL    HW1 2540   2.910   1.862   6.663
  547SOL    HW2 2541   2.804   1.769   6.581
  548SOL     OW 2542   3.850   2.944   2.235
  548SOL    HW1 2543   3.921   2.995   2.284
  548SOL    HW2 2544   3.803   2.883   2.299
  549SOL     OW 2545   4.495   3.231   1.285
  549SOL    HW1 2546   4.561   3.303   1.266
  549SOL    HW2 2547   4.444   3.254   1.368
  550SOL     OW 2548   6.472   4.480   3.112
  550SOL    HW1 2549   6.508   4.472   3.205
  550SOL    HW2 2550   6.429   4.570   3.101
  551SOL     OW 2551   0.677   0.427   1.142
  551SOL    HW1 2552   0.741   0.422   1.218
  551SOL    HW2 2553   0.727   0.437   1.056
  552SOL     OW 2554   4.547   5.235   0.782
  552SOL    HW1 2555   4.467   5.267   0.732
  552SOL    HW2 2556   4.580   5.150   0.743
  553SOL     OW 2557   2.627   6.929   1.760
  553SOL    HW1 2558   2.703   6.865   1.773
  553SOL    HW2 2559   2.628   6.962   1.665
  554SOL     OW 2560   5.467   6.472   5.647
  554SOL    HW1 2561   5.377   6.430   5.640
  554SOL    HW2 2562   5.458   6.572   5.653
  555SOL     OW 2563   2.004   5.083   3.494
  555SOL    HW1 2564   1.984   4.991   3.528
  555SOL    HW2 2565   2.071   5.127   3.554
  556SOL     OW 2566   5.750   2.163   4.015
  556SOL    HW1 2567   5.817   2.238   4.015
  556SOL    HW2 2568   5.667   2.192   3.967
  557SOL     OW 2569   0.401   4.916   0.530
  557SOL    HW1 2570   0.429   4.861   0.451
  557SOL    HW2 2571   0.420   4.865   0.614
  558SOL     OW 2572   3.463   4.194   5.040
  558SOL    HW1 2573   3.466   4.232   5.133
  558SOL    HW2 2574   3.549   4.215   4.993
  559SOL     OW 2575   6.093   6.127   6.556
  559SOL    HW1 2576   6.056   6.106   6.465
  559SOL    HW2 2577   6.150   6.051   6.587
  560SOL     OW 2578   3.756   5.748   0.040
  560SOL    HW1 2579   3.816   5.704   6.999
  560SOL    HW2 2580   3.720   5.680   0.104
  561SOL     OW 2581   6.172   1.127   6.841
  561SOL    HW1 2582   6.232   1.206   6.844
  561SOL    HW2 2583   6.095   1.146   6.780
  562SOL     OW 2584   4.493   0.559   5.881
  562SOL    HW1 2585   4.467   0.621   5.807
  562SOL    HW2 2586   4.522   0.612   5.960
  563SOL     OW 2587   2.368   6.994   3.450
  563SOL    HW1 2588   2.290   6.932   3.438
  563SOL    HW2 2589   2.363   0.041   3.382
  564SOL     OW 2590   2.662   1.751   6.481
  564SOL    HW1 2591   2.637   1.665   6.437
  564SOL    HW2 2592   2.582   1.789   6.527
  565SOL     OW 2593   4.174   3.450   5.836
  565SOL    HW1 2594   4.228   3.477   5.915
  565SOL    HW2 2595   4.234   3.441   5.756
  566SOL     OW 2596   5.856   3.995   3.738
  566SOL    HW1 2597   5.791   4.071   3.734
  566SOL    HW2 2598   5.942   4.022   3.694
  567SOL     OW 2599   3.528   4.178   3.763
  567SOL    HW1 2600   3.523   4.156   3.860
  567SOL    HW2 2601   3.558   4.273   3.752
  568SOL     OW 2602   3.360   2.509   0.280
  568SOL    HW1 2603   3.266   2.539   0.298
  568SOL    HW2 2604   3.388   2.444   0.350
  569SOL     OW 2605   1.848   3.406   0.234
  569SOL    HW1 2606   1.868   3.324   0.181
  569SOL    HW2 2607   1.896   3.484   0.195
  570SOL     OW 2608   2.125   6.374   5.914
  570SOL    HW1 2609   2.185   6.420   5.979
  570SOL    HW2 2610   2.136   6.415   5.824
  571SOL     OW 2611   3.918   0.208   2.944
  571SOL    HW1 2612   3.914   0.308   2.945
  571SOL    HW2 2613   3.905   0.174   3.037
  572SOL     OW 2614   2.544   5.007   5.599
  572SOL    HW1 2615   2.453   4.966   5.589
  572SOL    HW2 2616   2.608   4.959   5.539
  573SOL     OW 2617   4.134   1.453   5.096
  573SOL    HW1 2618   4.138   1.542   5.140
  573SOL    HW2 2619   4.049   1.407   5.123
  574SOL     OW 2620   2.333   2.364   3.507
  574SOL    HW1 2621   2.256   2.419   3.473
  574SOL    HW2 2622   2.309   2.267   3.501
  575SOL     OW 2623   6.390   3.677   6.070
  575SOL    HW1 2624   6.370   3.696   5.974
  575SOL    HW2 2625   6.447   3.595   6.077
  576SOL     OW 2626   1.519   2.190   2.141
  576SOL    HW1 2627   1.510   2.106   2.088
  576SOL    HW2 2628   1.544   2.167   2.235
  577SOL     OW 2629   1.755   0.720   3.219
  577SOL    HW1 2630   1.657   0.711   3.236
  577SOL    HW2 2631   1.806   0.690   3.300
  578SOL     OW 2632   6.520   3.591   3.596
  578SOL    HW1 2633   6.486   3.666   3.539
  578SOL    HW2 2634   6.589   3.626   3.658
  579SOL     OW 2635   3.333   2.147   1.184
  579SOL    HW1 2636   3.313   2.206   1.263
  579SOL    HW2 2637   3.249   2.105   1.151
  580SOL     OW 2638   0.370   4.294   6.653
  580SOL    HW1 2639   0.450   4.354   6.667
  580SOL    HW2 2640   0.318   4.326   6.575
  581SOL     OW 2641   3.354   3.331   3.127
  581SOL    HW1 2642   3.294   3.404   3.096
  581SOL    HW2 2643   3.306   3.272   3.191
  582SOL     OW 2644   5.306   5.147   2.988
  582SOL    HW1 2645   5.394   5.181   2.954
  582SOL    HW2 2646   5.305   5.153   3.088
  583SOL     OW 2647   2.534   5.216   6.653
  583SOL    HW1 2648   2.475   5.287   6.614
  583SOL    HW2 2649   2.477   5.143   6.691
  584SOL     OW 2650   1.049   5.392   5.311
  584SOL    HW1 2651   1.062   5.418   5.216
  584SOL    HW2 2652   1.006   5.301   5.315
  585SOL     OW 2653   6.434   2.843   6.140
  585SOL    HW1 2654   6.442   2.943   6.145
  585SOL    HW2 2655   6.475   2.810   6.054
  586SOL     OW 2656   3.138   0.502   6.859
  586SOL    HW1 2657   3.060   0.441   6.849
  586SOL    HW2 2658   3.196   0.496   6.777
  587SOL     OW 2659   2.793   2.263   5.171
  587SOL    HW1 2660   2.803   2.349   5.221
  587SOL    HW2 2661   2.870   2.203   5.193
  588SOL     OW 2662   2.703   5.682   0.752
  588SOL    HW1 2663   2.785   5.630   0.776
  588SOL    HW2 2664   2.681   5.667   0.655
  589SOL     OW 2665   3.820   5.120   1.852
  589SOL    HW1 2666   3.846   5.144   1.759
  589SOL    HW2 2667   3.846   5.194   1.915
  590SOL     OW 2668   6.254   2.752   1.574
  590SOL    HW1 2669   6.274   2.850   1.580
  590SOL    HW2 2670   6.158   2.739   1.548
  591SOL     OW 2671   4.214   6.430   3.876
  591SOL    HW1 2672   4.311   6.431   3.852
  591SOL    HW2 2673   4.204   6.449   3.974
  592SOL     OW 2674   4.137   6.970   1.100
  592SOL    HW1 2675   4.155   6.879   1.138
  592SOL    HW2 2676   4.191   0.012   1.149
  593SOL     OW 2677   4.166   2.236   3.708
  593SOL    HW1 2678   4.265   2.227   3.694
  593SOL    HW2 2679   4.145   2.228   3.806
  594SOL     OW 2680   4.624   2.517   6.489
  594SOL    HW1 2681   4.662   2.427   6.467
  594SOL    HW2 2682   4.687   2.588   6.457
  595SOL     OW 2683   4.893   6.405   3.462
  595SOL    HW1 2684   4.817   6.462   3.431
  595SOL    HW2 2685   4.942   6.453   3.535
  596SOL     OW 2686   0.902   3.110   1.599
  596SOL    HW1 2687   0.943   3.033   1.550
  596SOL    HW2 2688   0.878   3.182   1.533
  597SOL     OW 2689   4.733   0.471   5.353
  597SOL    HW1 2690   4.782   0.557   5.360
  597SOL    HW2 2691   4.674   0.459   5.432
  598SOL     OW 2692   3.700   4.053   0.009
  598SOL    HW1 2693   3.795   4.031   0.033
  598SOL    HW2 2694   3.698   4.096   6.945
  599SOL     OW 2695   1.053   0.104   2.915
  599SOL    HW1 2696   1.133   0.113   2.856
  599SOL    HW2 2697   1.061   0.167   2.992
  600SOL     OW 2698   1.578   0.757   1.231
  600SOL    HW1 2699   1.612   0.719   1.145
  600SOL    HW2 2700   1.482   0.731   1.242
  601SOL     OW 2701   3.081   5.893   3.846
  601SOL    HW1 2702   3.179   5.909   3.844
  601SOL    HW2 2703   3.042   5.929   3.931
  602SOL     OW 2704   1.493   2.145   7.022
  602SOL    HW1 2705   1.545   2.060   0.003
  602SOL    HW2 2706   1.435   2.142   6.941
  603SOL     OW 2707   4.465   2.151   3.979
  603SOL    HW1 2708   4.378   2.102   3.967
  603SOL    HW2 2709   4.463   2.204   4.063
  604SOL     OW 2710   0.475   3.783   1.453
  604SOL    HW1 2711   0.437   3.695   1.482
  604SOL    HW2 2712   0.572   3.786   1.477
  605SOL     OW 2713   6.738   5.413   2.835
  605SOL    HW1 2714   6.772   5.484   2.897
  605SOL    HW2 2715   6.801   5.404   2.758
  606SOL     OW 2716   5.138   0.490   5.748
  606SOL    HW1 2717   5.070   0.550   5.707
  606SOL    HW2 2718   5.093   0.421   5.804
  607SOL     OW 2719   5.059   0.419   5.110
  607SOL    HW1 2720   5.098   0.402   5.200
  607SOL    HW2 2721   4.960   0.412   5.114
  608SOL     OW 2722   3.630   6.663   0.279
  608SOL    HW1 2723   3.624   6.676   0.378
  608SOL    HW2 2724   3.654   6.750   0.236
  609SOL     OW 2725   3.486   3.324   4.537
  609SOL    HW1 2726   3.490   3.269   4.620
  609SOL    HW2 2727   3.419   3.397   4.548
  610SOL     OW 2728   5.577   2.311   3.173
  610SOL    HW1 2729   5.656   2.296   3.233
  610SOL    HW2 2730   5.577   2.406   3.141
  611SOL     OW 2731   1.293   0.186   6.913
  611SOL    HW1 2732   1.322   0.243   6.836
  611SOL    HW2 2733   1.252   0.102   6.879
  612SOL     OW 2734   3.365   5.530   5.968
  612SOL    HW1 2735   3.400   5.604   5.910
  612SOL    HW2 2736   3.265   5.531   5.968
  613SOL     OW 2737   5.022   6.909   5.542
  613SOL    HW1 2738   4.925   6.911   5.569
  613SOL    HW2 2739   5.047   6.999   5.506
  614SOL     OW 2740   6.379   4.438   0.821
  614SOL    HW1 2741   6.304   4.372   0.812
  614SOL    HW2 2742   6.361   4.499   0.898
  615SOL     OW 2743   0.966   1.567   0.603
  615SOL    HW1 2744   0.937   1.512   0.524
  615SOL    HW2 2745   0.929   1.527   0.687
  616SOL     OW 2746   5.781   1.671   3.676
  616SOL    HW1 2747   5.805   1.760   3.715
  616SOL    HW2 2748   5.705   1.682   3.612
  617SOL     OW 2749   0.322   3.502   6.800
  617SOL    HW1 2750   0.340   3.601   6.803
  617SOL    HW2 2751   0.311   3.473   6.705
  618SOL     OW 2752   6.201   3.649   0.924
  618SOL    HW1 2753   6.153   3.588   0.861
  618SOL    HW2 2754   6.299   3.645   0.906
  619SOL     OW 2755   3.817   6.856   6.747
  619SOL    HW1 2756   3.842   6.822   6.656
  619SOL    HW2 2757   3.836   6.954   6.752
  620SOL     OW 2758   5.958   2.611   0.915
  620SOL    HW1 2759   5.896   2.671   0.864
  620SOL    HW2 2760   5.910   2.572   0.994
  621SOL     OW 2761   1.981   0.189   5.208
  621SOL    HW1 2762   2.044   0.194   5.131
  621SOL    HW2 2763   1.918   0.267   5.205
  622SOL     OW 2764   0.674   2.186   5.215
  622SOL    HW1 2765   0.581   2.178   5.250
  622SOL    HW2 2766   0.710   2.277   5.236
  623SOL     OW 2767   0.218   0.375   5.009
  623SOL    HW1 2768   0.191   0.468   4.982
  623SOL    HW2 2769   0.145   0.333   5.062
  624SOL     OW 2770   6.338   1.340   6.819
  624SOL    HW1 2771   6.266   1.405   6.798
  624SOL    HW2 2772   6.427   1.385   6.811
  625SOL     OW 2773   1.206   1.716   0.841
  625SOL    HW1 2774   1.239   1.659   0.766
  625SOL    HW2 2775   1.202   1.663   0.925
  626SOL     OW 2776   0.942   5.551   2.716
  626SOL    HW1 2777   0.933   5.649   2.696
  626SOL    HW2 2778   1.031   5.519   2.683
  627SOL     OW 2779   6.404   6.459   0.040
  627SOL    HW1 2780   6.430   6.551   0.068
  627SOL    HW2 2781   6.305   6.450   0.041
  628SOL     OW 2782   5.821   3.944   5.059
  628SOL    HW1 2783   5.780   4.028   5.093
  628SOL    HW2 2784   5.911   3.964   5.021
  629SOL     OW 2785   0.488   0.684   0.146
  629SOL    HW1 2786   0.559   0.752   0.161
  629SOL    HW2 2787   0.515   0.597   0.185
  630SOL     OW 2788   6.916   1.857   0.398
  630SOL    HW1 2789   6.940   1.783   0.461
  630SOL    HW2 2790   6.969   1.939   0.421
  631SOL     OW 2791   3.640   1.828   4.200
  631SOL    HW1 2792   3.659   1.926   4.189
  631SOL    HW2 2793   3.726   1.779   4.215
  632SOL     OW 2794   4.017   2.947   0.986
  632SOL    HW1 2795   4.085   3.006   1.030
  632SOL    HW2 2796   3.937   3.002   0.961
  633SOL     OW 2797   2.595   4.224   0.102
  633SOL    HW1 2798   2.524   4.175   0.051
  633SOL    HW2 2799   2.566   4.318   0.118
  634SOL     OW 2800   4.025   3.601   3.455
  634SOL    HW1 2801   3.929   3.628   3.447
  634SOL    HW2 2802   4.067   3.600   3.364
  635SOL     OW 2803   5.144   6.905   6.868
  635SOL    HW1 2804   5.215   6.841   6.839
  635SOL    HW2 2805   5.069   6.855   6.911
  636SOL     OW 2806   3.081   0.234   5.980
  636SOL    HW1 2807   3.013   0.226   5.907
  636SOL    HW2 2808   3.131   0.148   5.990
  637SOL     OW 2809   5.811   2.086   2.635
  637SOL    HW1 2810   5.834   2.182   2.647
  637SOL    HW2 2811   5.719   2.069   2.671
  638SOL     OW 2812   5.661   3.644   3.979
  638SOL    HW1 2813   5.631   3.559   3.936
  638SOL    HW2 2814   5.604   3.720   3.947
  639SOL     OW 2815   5.578   4.366   3.947
  639SOL    HW1 2816   5.481   4.378   3.967
  639SOL    HW2 2817   5.627   4.451   3.964
  640SOL     OW 2818   6.898   4.597   3.631
  640SOL    HW1 2819   6.827   4.526   3.625
  640SOL    HW2 2820   6.980   4.566   3.584
  641SOL     OW 2821   0.984   4.682   4.831
  641SOL    HW1 2822   0.974   4.697   4.732
  641SOL    HW2 2823   1.073   4.719   4.860
  642SOL     OW 2824   1.192   2.614   4.398
  642SOL    HW1 2825   1.264   2.682   4.415
  642SOL    HW2 2826   1.226   2.523   4.421
  643SOL     OW 2827   6.120   0.458   6.684
  643SOL    HW1 2828   6.190   0.388   6.670
  643SOL    HW2 2829   6.041   0.440   6.625
  644SOL     OW 2830   1.575   0.414   4.603
  644SOL    HW1 2831   1.477   0.419   4.619
  644SOL    HW2 2832   1.617   0.503   4.620
  645SOL     OW 2833   3.476   5.323   4.000
  645SOL    HW1 2834   3.416   5.309   3.922
  645SOL    HW2 2835   3.423   5.356   4.078
  646SOL     OW 2836   3.684   0.736   4.435
  646SOL    HW1 2837   3.696   0.761   4.530
  646SOL    HW2 2838   3.712   0.641   4.422
  647SOL     OW 2839   5.713   1.544   5.109
  647SOL    HW1 2840   5.697   1.626   5.163
  647SOL    HW2 2841   5.772   1.566   5.031
  648SOL     OW 2842   6.814   3.245   3.251
  648SOL    HW1 2843   6.790   3.321   3.311
  648SOL    HW2 2844   6.815   3.276   3.156
  649SOL     OW 2845   1.988   4.102   0.771
  649SOL    HW1 2846   1.929   4.058   0.703
  649SOL    HW2 2847   2.063   4.041   0.794
  650SOL     OW 2848   0.062   5.241   0.707
  650SOL    HW1 2849   0.023   5.152   0.729
  650SOL    HW2 2850   0.003   5.289   0.642
  651SOL     OW 2851   1.605   0.373   5.818
  651SOL    HW1 2852   1.699   0.379   5.785
  651SOL    HW2 2853   1.599   0.306   5.892
  652SOL     OW 2854   4.470   6.818   2.018
  652SOL    HW1 2855   4.540   6.879   2.053
  652SOL    HW2 2856   4.472   6.820   1.918
  653SOL     OW 2857   0.584   6.363   0.556
  653SOL    HW1 2858   0.562   6.453   0.518
  653SOL    HW2 2859   0.530   6.348   0.639
  654SOL     OW 2860   6.501   6.523   5.959
  654SOL    HW1 2861   6.580   6.513   6.020
  654SOL    HW2 2862   6.422   6.555   6.012
  655SOL     OW 2863   6.964   5.302   1.871
  655SOL    HW1 2864   6.962   5.206   1.898
  655SOL    HW2 2865   6.882   5.323   1.817
  656SOL     OW 2866   2.452   6.513   0.305
  656SOL    HW1 2867   2.419   6.594   0.353
  656SOL    HW2 2868   2.533   6.536   0.252
  657SOL     OW 2869   3.500   3.694   0.572
  657SOL    HW1 2870   3.405   3.696   0.541
  657SOL    HW2 2871   3.549   3.772   0.533
  658SOL     OW 2872   1.455   4.208   5.853
  658SOL    HW1 2873   1.361   4.174   5.857
  658SOL    HW2 2874   1.455   4.307   5.867
  659SOL     OW 2875   2.795   5.707   4.173
  659SOL    HW1 2876   2.890   5.687   4.147
  659SOL    HW2 2877   2.735   5.693   4.094
  660SOL     OW 2878   4.409   4.804   2.551
  660SOL    HW1 2879   4.412   4.904   2.553
  660SOL    HW2 2880   4.457   4.770   2.469
  661SOL     OW 2881   4.893   4.016   4.726
  661SOL    HW1 2882   4.868   3.965   4.809
  661SOL    HW2 2883   4.913   3.952   4.652
  662SOL     OW 2884   4.563   1.301   6.653
  662SOL    HW1 2885   4.485   1.248   6.619
  662SOL    HW2 2886   4.594   1.364   6.582
  663SOL     OW 2887   0.446   4.772   6.927
  663SOL    HW1 2888   0.388   4.690   6.923
  663SOL    HW2 2889   0.519   4.757   6.994
  664SOL     OW 2890   1.415   5.415   6.649
  664SOL    HW1 2891   1.342   5.419   6.582
  664SOL    HW2 2892   1.503   5.403   6.603
  665SOL     OW 2893   4.052   5.394   0.680
  665SOL    HW1 2894   4.008   5.358   0.763
  665SOL    HW2 2895   4.079   5.489   0.695
  666SOL     OW 2896   4.044   2.291   0.854
  666SOL    HW1 2897   4.036   2.231   0.933
  666SOL    HW2 2898   4.139   2.321   0.845
  667SOL     OW 2899   0.775   3.592   3.974
  667SOL    HW1 2900   0.872   3.619   3.977
  667SOL    HW2 2901   0.758   3.536   3.893
  668SOL     OW 2902   4.753   5.588   0.165
  668SOL    HW1 2903   4.682   5.598   0.095
  668SOL    HW2 2904   4.735   5.651   0.240
  669SOL     OW 2905   2.313   5.992   2.946
  669SOL    HW1 2906   2.299   6.076   2.894
  669SOL    HW2 2907   2.232   5.935   2.940
  670SOL     OW 2908   3.454   3.718   2.574
  670SOL    HW1 2909   3.399   3.716   2.658
  670SOL    HW2 2910   3.399   3.687   2.497
  671SOL     OW 2911   2.385   6.006   6.166
  671SOL    HW1 2912   2.483   6.023   6.176
  671SOL    HW2 2913   2.358   5.927   6.222
  672SOL     OW 2914   0.668   3.651   2.583
  672SOL    HW1 2915   0.668   3.632   2.681
  672SOL    HW2 2916   0.725   3.731   2.565
  673SOL     OW 2917   4.490   0.337   1.035
  673SOL    HW1 2918   4.463   0.429   1.064
  673SOL    HW2 2919   4.584   0.319   1.066
  674SOL     OW 2920   0.177   3.151   4.225
  674SOL    HW1 2921   0.248   3.218   4.248
  674SOL    HW2 2922   0.219   3.060   4.217
  675SOL     OW 2923   0.665   1.369   5.171
  675SOL    HW1 2924   0.683   1.271   5.184
  675SOL    HW2 2925   0.597   1.381   5.099
  676SOL     OW 2926   3.087   5.075   3.343
  676SOL    HW1 2927   2.987   5.077   3.353
  676SOL    HW2 2928   3.121   5.169   3.333
  677SOL     OW 2929   5.693   1.448   6.459
  677SOL    HW1 2930   5.653   1.382   6.395
  677SOL    HW2 2931   5.747   1.514   6.408
  678SOL     OW 2932   2.158   1.610   5.285
  678SOL    HW1 2933   2.152   1.533   5.222
  678SOL    HW2 2934   2.239   1.600   5.342
  679SOL     OW 2935   4.092   0.923   4.646
  679SOL    HW1 2936   4.145   0.844   4.677
  679SOL    HW2 2937   4.108   1.001   4.707
  680SOL     OW 2938   5.945   4.736   5.913
  680SOL    HW1 2939   5.854   4.736   5.955
  680SOL    HW2 2940   6.003   4.803   5.958
  681SOL     OW 2941   6.322   0.361   1.014
  681SOL    HW1 2942   6.339   0.321   1.104
  681SOL    HW2 2943   6.275   0.295   0.956
  682SOL     OW 2944   2.180   6.470   6.755
  682SOL    HW1 2945   2.241   6.532   6.806
  682SOL    HW2 2946   2.235   6.415   6.692
  683SOL     OW 2947   3.074   0.414   6.199
  683SOL    HW1 2948   3.098   0.369   6.113
  683SOL    HW2 2949   3.027   0.348   6.259
  684SOL     OW 2950   6.126   1.814   6.276
  684SOL    HW1 2951   6.095   1.748   6.208
  684SOL    HW2 2952   6.186   1.769   6.342
  685SOL     OW 2953   4.880   0.208   5.462
  685SOL    HW1 2954   4.815   0.283   5.452
  685SOL    HW2 2955   4.878   0.149   5.381
  686SOL     OW 2956   5.604   2.898   3.258
  686SOL    HW1 2957   5.598   2.923   3.161
  686SOL    HW2 2958   5.595   2.980   3.314
  687SOL     OW 2959   6.811   2.859   5.561
  687SOL    HW1 2960   6.847   2.766   5.555
  687SOL    HW2 2961   6.717   2.861   5.528
  688SOL     OW 2962   1.796   4.012   6.958
  688SOL    HW1 2963   1.721   3.948   6.941
  688SOL    HW2 2964   1.845   4.030   6.873
  689SOL     OW 2965   0.590   4.537   5.245
  689SOL    HW1 2966   0.502   4.567   5.210
  689SOL    HW2 2967   0.660   4.549   5.175
  690SOL     OW 2968   0.369   3.757   3.186
  690SOL    HW1 2969   0.293   3.764   3.251
  690SOL    HW2 2970   0.333   3.761   3.093
  691SOL     OW 2971   2.380   1.534   6.582
  691SOL    HW1 2972   2.391   1.554   6.679
  691SOL    HW2 2973   2.306   1.589   6.544
  692SOL     OW 2974   3.351   6.828   3.969
  692SOL    HW1 2975   3.371   6.912   3.919
  692SOL    HW2 2976   3.309   6.762   3.906
  693SOL     OW 2977   6.603   1.474   3.459
  693SOL    HW1 2978   6.595   1.398   3.523
  693SOL    HW2 2979   6.535   1.544   3.482
  694SOL     OW 2980   3.358   5.695   2.219
  694SOL    HW1 2981   3.292   5.710   2.146
  694SOL    HW2 2982   3.310   5.689   2.306
  695SOL     OW 2983   5.531   4.721   5.625
  695SOL    HW1 2984   5.600   4.794   5.620
  695SOL    HW2 2985   5.445   4.760   5.656
  696SOL     OW 2986   3.352   5.097   1.874
  696SOL    HW1 2987   3.349   5.169   1.944
  696SOL    HW2 2988   3.342   5.008   1.918
  697SOL     OW 2989   1.267   2.739   5.539
  697SOL    HW1 2990   1.254   2.825   5.589
  697SOL    HW2 2991   1.348   2.747   5.481
  698SOL     OW 2992   5.745   0.072   5.083
  698SOL    HW1 2993   5.729   0.134   5.007
  698SOL    HW2 2994   5.836   0.089   5.122
  699SOL     OW 2995   1.013   4.087   0.174
  699SOL    HW1 2996   1.094   4.063   0.120
  699SOL    HW2 2997   1.041   4.138   0.256
  700SOL     OW 2998   3.264   1.804   3.406
  700SOL    HW1 2999   3.274   1.757   3.493
  700SOL    HW2 3000   3.344   1.861   3.389
  701SOL     OW 3001   0.843   4.754   6.350
  701SOL    HW1 3002   0.855   4.684   6.280
  701SOL    HW2 3003   0.857   4.845   6.309
  702SOL     OW 3004   5.770   6.089   6.562
  702SOL    HW1 3005   5.727   6.068   6.650
  702SOL    HW2 3006   5.772   6.189   6.549
  703SOL     OW 3007   4.414   3.409   6.728
  703SOL    HW1 3008   4.328   3.396   6.778
  703SOL    HW2 3009   4.399   3.386   6.631
  704SOL     OW 3010   1.799   1.739   6.096
  704SOL    HW1 3011   1.727   1.669   6.105
  704SOL    HW2 3012   1.840   1.756   6.185
  705SOL     OW 3013   5.171   6.813   3.827
  705SOL    HW1 3014   5.254   6.846   3.870
  705SOL    HW2 3015   5.185   6.805   3.728
  706SOL     OW 3016   4.009   2.104   3.508
  706SOL    HW1 3017   4.079   2.145   3.566
  706SOL    HW2 3018   3.919   2.120   3.549
  707SOL     OW 3019   4.662   0.266   2.596
  707SOL    HW1 3020   4.681   0.211   2.515
  707SOL    HW2 3021   4.742   0.322   2.618
  708SOL     OW 3022   4.119   0.274   0.895
  708SOL    HW1 3023   4.123   0.363   0.941
  708SOL    HW2 3024   4.203   0.223   0.914
  709SOL     OW 3025   1.140   5.537   0.623
  709SOL    HW1 3026   1.170   5.597   0.549
  709SOL    HW2 3027   1.202   5.549   0.702
  710SOL     OW 3028   4.079   3.505   2.665
  710SOL    HW1 3029   4.099   3.551   2.752
  710SOL    HW2 3030   3.997   3.546   2.624
  711SOL     OW 3031   0.778   1.921   5.940
  711SOL    HW1 3032   0.747   1.897   5.848
  711SOL    HW2 3033   0.739   2.008   5.968
  712SOL     OW 3034   2.033   4.330   1.277
  712SOL    HW1 3035   2.003   4.285   1.361
  712SOL    HW2 3036   2.034   4.429   1.291
  713SOL     OW 3037   3.130   3.892   0.646
  713SOL    HW1 3038   3.077   3.870   0.727
  713SOL    HW2 3039   3.183   3.976   0.662
  714SOL     OW 3040   5.999   4.529   5.183
  714SOL    HW1 3041   6.048   4.604   5.138
  714SOL    HW2 3042   5.901   4.544   5.176
  715SOL     OW 3043   4.666   6.086   0.310
  715SOL    HW1 3044   4.607   6.005   0.316
  715SOL    HW2 3045   4.618   6.165   0.348
  716SOL     OW 3046   1.116   6.024   0.925
  716SOL    HW1 3047   1.023   6.050   0.899
  716SOL    HW2 3048   1.113   5.975   1.013
  717SOL     OW 3049   5.946   5.167   6.335
  717SOL    HW1 3050   5.897   5.252   6.353
  717SOL    HW2 3051   5.949   5.112   6.418
  718SOL     OW 3052   4.006   2.057   5.992
  718SOL    HW1 3053   4.032   2.066   5.897
  718SOL    HW2 3054   4.083   2.082   6.051
  719SOL     OW 3055   5.962   2.564   1.775
  719SOL    HW1 3056   6.059   2.570   1.798
  719SOL    HW2 3057   5.946   2.483   1.719
  720SOL     OW 3058   3.040   1.095   6.056
  720SOL    HW1 3059   3.020   1.188   6.027
  720SOL    HW2 3060   3.039   1.035   5.976
  721SOL     OW 3061   1.609   0.047   4.731
  721SOL    HW1 3062   1.673   0.111   4.689
  721SOL    HW2 3063   1.614   0.055   4.831
  722SOL     OW 3064   3.613   6.807   5.229
  722SOL    HW1 3065   3.608   6.907   5.223
  722SOL    HW2 3066   3.709   6.778   5.227
  723SOL     OW 3067   2.170   2.967   2.082
  723SOL    HW1 3068   2.121   3.050   2.108
  723SOL    HW2 3069   2.187   2.912   2.164
  724SOL     OW 3070   0.982   1.352   4.600
  724SOL    HW1 3071   0.946   1.445   4.593
  724SOL    HW2 3072   1.082   1.355   4.588
  725SOL     OW 3073   2.834   5.021   1.495
  725SOL    HW1 3074   2.833   5.054   1.590
  725SOL    HW2 3075   2.772   4.943   1.486
  726SOL     OW 3076   4.289   4.659   0.845
  726SOL    HW1 3077   4.348   4.680   0.923
  726SOL    HW2 3078   4.251   4.567   0.855
  727SOL     OW 3079   4.382   5.795   4.994
  727SOL    HW1 3080   4.391   5.788   4.895
  727SOL    HW2 3081   4.437   5.872   5.027
  728SOL     OW 3082   0.502   4.138   5.268
  728SOL    HW1 3083   0.589   4.165   5.229
  728SOL    HW2 3084   0.455   4.218   5.305
  729SOL     OW 3085   2.299   0.630   0.397
  729SOL    HW1 3086   2.358   0.710   0.405
  729SOL    HW2 3087   2.352   0.553   0.359
  730SOL     OW 3088   5.601   0.128   3.769
  730SOL    HW1 3089   5.568   0.179   3.689
  730SOL    HW2 3090   5.548   0.155   3.850
  731SOL     OW 3091   5.577   3.576   5.965
  731SOL    HW1 3092   5.673   3.547   5.964
  731SOL    HW2 3093   5.549   3.596   6.058
  732SOL     OW 3094   0.426   3.632   0.659
  732SOL    HW1 3095   0.387   3.587   0.740
  732SOL    HW2 3096   0.465   3.563   0.599
  733SOL     OW 3097   5.636   4.526   4.615
  733SOL    HW1 3098   5.585   4.440   4.626
  733SOL    HW2 3099   5.732   4.511   4.638
  734SOL     OW 3100   6.265   4.680   2.755
  734SOL    HW1 3101   6.343   4.705   2.698
  734SOL    HW2 3102   6.248   4.582   2.747
  735SOL     OW 3103   3.524   2.126   1.002
  735SOL    HW1 3104   3.479   2.178   0.929
  735SOL    HW2 3105   3.462   2.118   1.080
  736SOL     OW 3106   6.512   6.320   2.413
  736SOL    HW1 3107   6.528   6.382   2.490
  736SOL    HW2 3108   6.474   6.371   2.337
  737SOL     OW 3109   4.696   3.072   0.580
  737SOL    HW1 3110   4.738   2.997   0.631
  737SOL    HW2 3111   4.624   3.113   0.634
  738SOL     OW 3112   1.757   4.800   3.519
  738SOL    HW1 3113   1.755   4.890   3.476
  738SOL    HW2 3114   1.831   4.746   3.478
  739SOL     OW 3115   4.919   6.219   5.282
  739SOL    HW1 3116   4.970   6.135   5.300
  739SOL    HW2 3117   4.901   6.227   5.184
  740SOL     OW 3118   5.434   0.635   0.608
  740SOL    HW1 3119   5.379   0.554   0.627
  740SOL    HW2 3120   5.418   0.704   0.678
  741SOL     OW 3121   2.324   6.472   3.126
  741SOL    HW1 3122   2.339   6.500   3.221
  741SOL    HW2 3123   2.284   6.380   3.125
  742SOL     OW 3124   2.515   6.640   1.545
  742SOL    HW1 3125   2.440   6.622   1.481
  742SOL    HW2 3126   2.477   6.664   1.634
  743SOL     OW 3127   1.863   3.816   4.703
  743SOL    HW1 3128   1.891   3.904   4.742
  743SOL    HW2 3129   1.813   3.764   4.772
  744SOL     OW 3130   6.171   6.892   6.978
  744SOL    HW1 3131   6.265   6.865   6.958
  744SOL    HW2 3132   6.113   6.874   6.899
  745SOL     OW 3133   0.949   5.340   4.132
  745SOL    HW1 3134   0.899   5.425   4.113
  745SOL    HW2 3135   1.046   5.354   4.115
  746SOL     OW 3136   0.721   6.176   5.082
  746SOL    HW1 3137   0.638   6.216   5.042
  746SOL    HW2 3138   0.706   6.079   5.097
  747SOL     OW 3139   4.671   4.796   4.555
  747SOL    HW1 3140   4.679   4.703   4.590
  747SOL    HW2 3141   4.755   4.822   4.508
  748SOL     OW 3142   3.744   5.286   2.679
  748SOL    HW1 3143   3.772   5.191   2.666
  748SOL    HW2 3144   3.755   5.311   2.775
  749SOL     OW 3145   6.246   3.648   4.715
  749SOL    HW1 3146   6.304   3.673   4.792
  749SOL    HW2 3147   6.298   3.594   4.649
  750SOL     OW 3148   1.802   3.147   0.441
  750SOL    HW1 3149   1.742   3.164   0.362
  750SOL    HW2 3150   1.747   3.113   0.517
  751SOL     OW 3151   3.974   1.561   6.408
  751SOL    HW1 3152   4.055   1.590   6.357
  751SOL    HW2 3153   3.969   1.461   6.409
  752SOL     OW 3154   4.355   2.550   1.423
  752SOL    HW1 3155   4.398   2.463   1.399
  752SOL    HW2 3156   4.353   2.560   1.522
  753SOL     OW 3157   1.841   2.833   3.947
  753SOL    HW1 3158   1.856   2.839   4.046
  753SOL    HW2 3159   1.912   2.774   3.907
  754SOL     OW 3160   5.948   3.252   6.523
  754SOL    HW1 3161   5.980   3.331   6.574
  754SOL    HW2 3162   6.025   3.211   6.473
  755SOL     OW 3163   1.486   5.990   6.740
  755SOL    HW1 3164   1.464   5.968   6.835
  755SOL    HW2 3165   1.502   5.906   6.689
  756SOL     OW 3166   4.525   6.501   1.441
  756SOL    HW1 3167   4.603   6.525   1.383
  756SOL    HW2 3168   4.505   6.576   1.503
  757SOL     OW 3169   0.307   6.384   2.864
  757SOL    HW1 3170   0.383   6.448   2.847
  757SOL    HW2 3171   0.262   6.410   2.950
  758SOL     OW 3172   3.789   0.828   1.461
  758SOL    HW1 3173   3.784   0.928   1.456
  758SOL    HW2 3174   3.708   0.789   1.417
  759SOL     OW 3175   0.672   0.999   0.565
  759SOL    HW1 3176   0.585   1.044   0.583
  759SOL    HW2 3177   0.704   0.953   0.647
  760SOL     OW 3178   4.218   0.794   6.277
  760SOL    HW1 3179   4.211   0.718   6.342
  760SOL    HW2 3180   4.145   0.787   6.210
  761SOL     OW 3181   5.972   3.672   5.660
  761SOL    HW1 3182   5.946   3.768   5.667
  761SOL    HW2 3183   5.899   3.615   5.698
  762SOL     OW 3184   2.508   6.946   3.886
  762SOL    HW1 3185   2.574   6.920   3.957
  762SOL    HW2 3186   2.513   6.881   3.810
  763SOL     OW 3187   4.244   5.322   6.221
  763SOL    HW1 3188   4.149   5.353   6.219
  763SOL    HW2 3189   4.267   5.287   6.312
  764SOL     OW 3190   4.485   0.722   3.970
  764SOL    HW1 3191   4.553   0.766   4.028
  764SOL    HW2 3192   4.417   0.790   3.941
  765SOL     OW 3193   1.454   6.429   1.216
  765SOL    HW1 3194   1.487   6.476   1.134
  765SOL    HW2 3195   1.450   6.493   1.292
  766SOL     OW 3196   0.721   1.968   0.513
  766SOL    HW1 3197   0.815   2.001   0.507
  766SOL    HW2 3198   0.718   1.889   0.574
  767SOL     OW 3199   0.077   5.902   2.527
  767SOL    HW1 3200   0.159   5.852   2.555
  767SOL    HW2 3201   0.003   5.837   2.508
  768SOL     OW 3202   2.653   6.991   2.059
  768SOL    HW1 3203   2.617   6.953   1.974
  768SOL    HW2 3204   2.746   7.024   2.044
  769SOL     OW 3205   2.857   0.387   3.773
  769SOL    HW1 3206   2.869   0.481   3.804
  769SOL    HW2 3207   2.861   0.325   3.851
  770SOL     OW 3208   1.573   4.471   2.767
  770SOL    HW1 3209   1.523   4.384   2.760
  770SOL    HW2 3210   1.644   4.463   2.837
  771SOL     OW 3211   2.111   5.284   2.822
  771SOL    HW1 3212   2.031   5.339   2.797
  771SOL    HW2 3213   2.092   5.234   2.907
  772SOL     OW 3214   6.538   5.249   0.925
  772SOL    HW1 3215   6.610   5.299   0.877
  772SOL    HW2 3216   6.466   5.225   0.860
  773SOL     OW 3217   0.405   4.184   3.718
  773SOL    HW1 3218   0.311   4.174   3.686
  773SOL    HW2 3219   0.468   4.151   3.647
  774SOL     OW 3220   0.993   1.419   2.329
  774SOL    HW1 3221   0.983   1.517   2.313
  774SOL    HW2 3222   1.008   1.372   2.242
  775SOL     OW 3223   0.908   1.709   3.263
  775SOL    HW1 3224   0.860   1.659   3.335
  775SOL    HW2 3225   0.896   1.661   3.176
  776SOL     OW 3226   6.961   1.141   5.769
  776SOL    HW1 3227   6.953   1.063   5.831
  776SOL    HW2 3228   0.031   1.157   5.749
  777SOL     OW 3229   2.994   6.379   0.870
  777SOL    HW1 3230   3.027   6.424   0.787
  777SOL    HW2 3231   3.012   6.280   0.863
  778SOL     OW 3232   3.614   1.232   3.873
  778SOL    HW1 3233   3.643   1.263   3.964
  778SOL    HW2 3234   3.644   1.298   3.804
  779SOL     OW 3235   0.662   1.565   2.626
  779SOL    HW1 3236   0.663   1.662   2.651
  779SOL    HW2 3237   0.755   1.536   2.604
  780SOL     OW 3238   6.747   3.878   4.257
  780SOL    HW1 3239   6.664   3.918   4.218
  780SOL    HW2 3240   6.798   3.948   4.306
  781SOL     OW 3241   5.733   1.215   6.632
  781SOL    HW1 3242   5.676   1.136   6.609
  781SOL    HW2 3243   5.698   1.296   6.584
  782SOL     OW 3244   0.883   3.830   0.083
  782SOL    HW1 3245   0.888   3.821   7.009
  782SOL    HW2 3246   0.938   3.908   0.112
  783SOL     OW 3247   3.812   5.013   0.713
  783SOL    HW1 3248   3.910   5.011   0.734
  783SOL    HW2 3249   3.784   4.925   0.673
  784SOL     OW 3250   5.008   6.775   6.115
  784SOL    HW1 3251   4.933   6.831   6.079
  784SOL    HW2 3252   5.094   6.805   6.075
  785SOL     OW 3253   0.065   1.917   3.678
  785SOL    HW1 3254   0.078   1.970   3.762
  785SOL    HW2 3255   0.131   1.946   3.609
  786SOL     OW 3256   1.597   1.089   0.731
  786SOL    HW1 3257   1.561   1.137   0.651
  786SOL    HW2 3258   1.697   1.087   0.725
  787SOL     OW 3259   3.078   1.904   6.317
  787SOL    HW1 3260   3.109   1.812   6.340
  787SOL    HW2 3261   3.136   1.972   6.364
  788SOL     OW 3262   2.248   2.433   4.708
  788SOL    HW1 3263   2.317   2.480   4.764
  788SOL    HW2 3264   2.193   2.374   4.767
  789SOL     OW 3265   5.568   4.124   1.217
  789SOL    HW1 3266   5.541   4.167   1.131
  789SOL    HW2 3267   5.499   4.142   1.287
  790SOL     OW 3268   2.734   1.406   4.391
  790SOL    HW1 3269   2.821   1.357   4.392
  790SOL    HW2 3270   2.723   1.458   4.476
  791SOL     OW 3271   3.841   0.141   3.192
  791SOL    HW1 3272   3.764   0.140   3.256
  791SOL    HW2 3273   3.922   0.104   3.237
  792SOL     OW 3274   0.272   0.334   1.833
  792SOL    HW1 3275   0.223   0.292   1.757
  792SOL    HW2 3276   0.371   0.327   1.816
  793SOL     OW 3277   4.273   6.399   2.270
  793SOL    HW1 3278   4.255   6.491   2.237
  793SOL    HW2 3279   4.299   6.340   2.193
  794SOL     OW 3280   2.809   3.315   5.398
  794SOL    HW1 3281   2.847   3.342   5.310
  794SOL    HW2 3282   2.756   3.231   5.388
  795SOL     OW 3283   3.339   5.435   5.152
  795SOL    HW1 3284   3.307   5.378   5.077
  795SOL    HW2 3285   3.437   5.450   5.143
  796SOL     OW 3286   1.190   2.083   6.484
  796SOL    HW1 3287   1.262   2.017   6.459
  796SOL    HW2 3288   1.225   2.176   6.475
  797SOL     OW 3289   5.151   2.619   2.387
  797SOL    HW1 3290   5.105   2.692   2.338
  797SOL    HW2 3291   5.138   2.631   2.486
  798SOL     OW 3292   5.364   0.399   1.277
  798SOL    HW1 3293   5.385   0.496   1.285
  798SOL    HW2 3294   5.285   0.377   1.334
  799SOL     OW 3295   6.230   1.358   4.288
  799SOL    HW1 3296   6.161   1.319   4.228
  799SOL    HW2 3297   6.189   1.429   4.345
  800SOL     OW 3298   5.603   1.105   2.502
  800SOL    HW1 3299   5.520   1.158   2.516
  800SOL    HW2 3300   5.661   1.150   2.433
  801SOL     OW 3301   1.664   3.503   3.170
  801SOL    HW1 3302   1.679   3.585   3.226
  801SOL    HW2 3303   1.693   3.522   3.076
  802SOL     OW 3304   4.081   0.319   0.433
  802SOL    HW1 3305   4.088   0.386   0.358
  802SOL    HW2 3306   4.133   0.237   0.409
  803SOL     OW 3307   0.341   5.313   5.091
  803SOL    HW1 3308   0.311   5.281   5.001
  803SOL    HW2 3309   0.372   5.408   5.084
  804SOL     OW 3310   5.850   6.163   0.105
  804SOL    HW1 3311   5.877   6.178   0.010
  804SOL    HW2 3312   5.932   6.148   0.161
  805SOL     OW 3313   3.305   2.290   5.544
  805SOL    HW1 3314   3.279   2.368   5.486
  805SOL    HW2 3315   3.247   2.212   5.523
  806SOL     OW 3316   4.479   1.163   4.761
  806SOL    HW1 3317   4.491   1.071   4.723
  806SOL    HW2 3318   4.397   1.205   4.721
  807SOL     OW 3319   0.837   1.637   3.838
  807SOL    HW1 3320   0.820   1.728   3.877
  807SOL    HW2 3321   0.910   1.643   3.770
  808SOL     OW 3322   4.830   3.675   6.429
  808SOL    HW1 3323   4.793   3.662   6.337
  808SOL    HW2 3324   4.900   3.745   6.428
  809SOL     OW 3325   1.103   4.438   1.439
  809SOL    HW1 3326   1.009   4.426   1.471
  809SOL    HW2 3327   1.119   4.381   1.358
  810SOL     OW 3328   3.839   2.837   1.417
  810SOL    HW1 3329   3.826   2.862   1.321
  810SOL    HW2 3330   3.766   2.774   1.445
  811SOL     OW 3331   4.657   5.565   4.087
  811SOL    HW1 3332   4.601   5.540   4.007
  811SOL    HW2 3333   4.661   5.487   4.150
  812SOL     OW 3334   0.455   1.745   2.097
  812SOL    HW1 3335   0.363   1.750   2.137
  812SOL    HW2 3336   0.462   1.662   2.042
  813SOL     OW 3337   3.746   4.987   4.342
  813SOL    HW1 3338   3.757   4.946   4.251
  813SOL    HW2 3339   3.737   5.086   4.333
  814SOL     OW 3340   5.466   6.277   3.385
  814SOL    HW1 3341   5.382   6.235   3.351
  814SOL    HW2 3342   5.463   6.283   3.484
  815SOL     OW 3343   0.170   3.079   2.654
  815SOL    HW1 3344   0.191   3.167   2.612
  815SOL    HW2 3345   0.220   3.007   2.605
  816SOL     OW 3346   6.814   6.933   0.107
  816SOL    HW1 3347   6.765   7.020   0.098
  816SOL    HW2 3348   6.775   6.866   0.044
  817SOL     OW 3349   2.155   3.816   2.287
  817SOL    HW1 3350   2.203   3.896   2.250
  817SOL    HW2 3351   2.144   3.748   2.214
  818SOL     OW 3352   6.589   3.358   1.766
  818SOL    HW1 3353   6.602   3.314   1.677
  818SOL    HW2 3354   6.546   3.448   1.752
  819SOL     OW 3355   5.517   3.185   3.703
  819SOL    HW1 3356   5.604   3.144   3.733
  819SOL    HW2 3357   5.528   3.284   3.694
  820SOL     OW 3358   1.686   2.961   6.549
  820SOL    HW1 3359   1.782   2.976   6.525
  820SOL    HW2 3360   1.634   3.044   6.530
  821SOL     OW 3361   1.911   4.927   1.097
  821SOL    HW1 3362   1.956   5.010   1.065
  821SOL    HW2 3363   1.917   4.921   1.197
  822SOL     OW 3364   0.887   4.878   4.351
  822SOL    HW1 3365   0.960   4.946   4.362
  822SOL    HW2 3366   0.877   4.856   4.254
  823SOL     OW 3367   5.002   4.101   7.000
  823SOL    HW1 3368   5.066   4.027   6.981
  823SOL    HW2 3369   5.027   4.181   6.945
  824SOL     OW 3370   5.383   1.067   5.487
  824SOL    HW1 3371   5.388   0.974   5.452
  824SOL    HW2 3372   5.465   1.088   5.540
  825SOL     OW 3373   1.430   3.954   1.626
  825SOL    HW1 3374   1.446   4.049   1.600
  825SOL    HW2 3375   1.513   3.901   1.613
  826SOL     OW 3376   6.086   3.430   0.787
  826SOL    HW1 3377   6.161   3.399   0.729
  826SOL    HW2 3378   6.012   3.465   0.729
  827SOL     OW 3379   3.339   5.794   6.067
  827SOL    HW1 3380   3.363   5.806   6.164
  827SOL    HW2 3381   3.350   5.698   6.042
  828SOL     OW 3382   6.094   6.913   5.543
  828SOL    HW1 3383   6.014   6.856   5.521
  828SOL    HW2 3384   6.136   6.944   5.458
  829SOL     OW 3385   2.920   3.678   4.484
  829SOL    HW1 3386   2.943   3.675   4.582
  829SOL    HW2 3387   2.937   3.588   4.443
  830SOL     OW 3388   4.955   4.895   6.237
  830SOL    HW1 3389   4.894   4.848   6.300
  830SOL    HW2 3390   4.919   4.889   6.144
  831SOL     OW 3391   6.793   0.328   5.562
  831SOL    HW1 3392   6.695   0.316   5.546
  831SOL    HW2 3393   6.831   0.388   5.492
  832SOL     OW 3394   1.732   1.056   0.439
  832SOL    HW1 3395   1.795   1.040   0.515
  832SOL    HW2 3396   1.747   1.149   0.403
  833SOL     OW 3397   0.362   5.305   6.003
  833SOL    HW1 3398   0.266   5.325   6.019
  833SOL    HW2 3399   0.375   5.276   5.908
  834SOL     OW 3400   3.551   4.002   1.149
  834SOL    HW1 3401   3.533   4.054   1.232
  834SOL    HW2 3402   3.595   3.915   1.174
  835SOL     OW 3403   3.186   6.957   4.198
  835SOL    HW1 3404   3.232   6.931   4.113
  835SOL    HW2 3405   3.191   0.030   4.210
  836SOL     OW 3406   3.604   6.560   6.881
  836SOL    HW1 3407   3.686   6.582   6.934
  836SOL    HW2 3408   3.605   6.612   6.795
  837SOL     OW 3409   5.033   6.588   6.616
  837SOL    HW1 3410   5.007   6.666   6.559
  837SOL    HW2 3411   4.978   6.508   6.592
  838SOL     OW 3412   1.011   0.671   5.094
  838SOL    HW1 3413   1.013   0.640   5.190
  838SOL    HW2 3414   0.917   0.681   5.064
  839SOL     OW 3415   2.695   2.276   2.209
  839SOL    HW1 3416   2.742   2.254   2.294
  839SOL    HW2 3417   2.762   2.285   2.135
  840SOL     OW 3418   6.205   0.480   6.004
  840SOL    HW1 3419   6.130   0.494   6.068
  840SOL    HW2 3420   6.254   0.567   5.992
  841SOL     OW 3421   6.029   4.530   0.846
  841SOL    HW1 3422   6.090   4.609   0.850
  841SOL    HW2 3423   6.030   4.491   0.754
  842SOL     OW 3424   4.335   5.223   4.549
  842SOL    HW1 3425   4.368   5.274   4.469
  842SOL    HW2 3426   4.395   5.146   4.567
  843SOL     OW 3427   4.236   2.563   0.003
  843SOL    HW1 3428   4.216   2.613   0.087
  843SOL    HW2 3429   4.286   2.623   6.966
  844SOL     OW 3430   4.405   6.855   0.850
  844SOL    HW1 3431   4.452   6.901   0.774
  844SOL    HW2 3432   4.449   6.767   0.868
  845SOL     OW 3433   6.176   3.551   4.115
  845SOL    HW1 3434   6.140   3.645   4.117
  845SOL    HW2 3435   6.215   3.529   4.204
  846SOL     OW 3436   5.252   1.806   6.770
  846SOL    HW1 3437   5.303   1.750   6.834
  846SOL    HW2 3438   5.273   1.778   6.677
  847SOL     OW 3439   6.763   3.422   0.133
  847SOL    HW1 3440   6.763   3.369   0.048
  847SOL    HW2 3441   6.668   3.439   0.162
  848SOL     OW 3442   6.517   1.807   6.327
  848SOL    HW1 3443   6.481   1.774   6.414
  848SOL    HW2 3444   6.463   1.885   6.296
  849SOL     OW 3445   0.896   5.262   5.686
  849SOL    HW1 3446   0.995   5.261   5.673
  849SOL    HW2 3447   0.850   5.248   5.599
  850SOL     OW 3448   5.317   0.427   3.131
  850SOL    HW1 3449   5.277   0.341   3.100
  850SOL    HW2 3450   5.340   0.421   3.228
  851SOL     OW 3451   0.343   1.723   1.514
  851SOL    HW1 3452   0.323   1.674   1.429
  851SOL    HW2 3453   0.261   1.726   1.571
  852SOL     OW 3454   3.089   2.525   0.267
  852SOL    HW1 3455   3.008   2.573   0.231
  852SOL    HW2 3456   3.083   2.520   0.367
  853SOL     OW 3457   0.983   4.020   2.651
  853SOL    HW1 3458   0.991   3.929   2.608
  853SOL    HW2 3459   1.030   4.087   2.595
  854SOL     OW 3460   4.636   5.877   1.828
  854SOL    HW1 3461   4.682   5.808   1.885
  854SOL    HW2 3462   4.654   5.857   1.731
  855SOL     OW 3463   6.122   6.745   1.109
  855SOL    HW1 3464   6.056   6.799   1.161
  855SOL    HW2 3465   6.214   6.767   1.140
  856SOL     OW 3466   1.903   1.597   4.956
  856SOL    HW1 3467   1.877   1.667   5.023
  856SOL    HW2 3468   1.892   1.507   4.996
  857SOL     OW 3469   5.909   5.537   0.932
  857SOL    HW1 3470   5.926   5.538   1.031
  857SOL    HW2 3471   5.922   5.444   0.898
  858SOL     OW 3472   2.139   4.420   1.886
  858SOL    HW1 3473   2.081   4.421   1.804
  858SOL    HW2 3474   2.091   4.375   1.961
  859SOL     OW 3475   5.253   5.284   6.682
  859SOL    HW1 3476   5.170   5.230   6.669
  859SOL    HW2 3477   5.286   5.274   6.776
  860SOL     OW 3478   4.417   4.281   0.942
  860SOL    HW1 3479   4.423   4.333   1.027
  860SOL    HW2 3480   4.500   4.227   0.929
  861SOL     OW 3481   1.918   0.040   4.934
  861SOL    HW1 3482   1.855   0.047   4.856
  861SOL    HW2 3483   1.878   0.087   5.013
  862SOL     OW 3484   6.211   4.580   5.464
  862SOL    HW1 3485   6.234   4.604   5.558
  862SOL    HW2 3486   6.174   4.487   5.462
  863SOL     OW 3487   1.053   0.348   0.510
  863SOL    HW1 3488   1.051   0.313   0.417
  863SOL    HW2 3489   1.080   0.445   0.509
  864SOL     OW 3490   5.042   4.625   3.668
  864SOL    HW1 3491   4.993   4.684   3.604
  864SOL    HW2 3492   5.104   4.679   3.723
  865SOL     OW 3493   1.371   6.472   5.493
  865SOL    HW1 3494   1.402   6.377   5.504
  865SOL    HW2 3495   1.300   6.492   5.561
  866SOL     OW 3496   1.932   2.363   1.497
  866SOL    HW1 3497   1.999   2.299   1.538
  866SOL    HW2 3498   1.962   2.388   1.405
  867SOL     OW 3499   3.606   2.820   0.834
  867SOL    HW1 3500   3.560   2.876   0.903
  867SOL    HW2 3501   3.612   2.872   0.749
  868SOL     OW 3502   6.375   6.609   0.899
  868SOL    HW1 3503   6.443   6.628   0.970
  868SOL    HW2 3504   6.355   6.693   0.849
  869SOL     OW 3505   6.556   5.226   2.737
  869SOL    HW1 3506   6.511   5.289   2.672
  869SOL    HW2 3507   6.637   5.271   2.775
  870SOL     OW 3508   6.167   3.900   0.589
  870SOL    HW1 3509   6.210   3.810   0.575
  870SOL    HW2 3510   6.108   3.895   0.669
  871SOL     OW 3511   6.476   2.845   2.378
  871SOL    HW1 3512   6.527   2.763   2.351
  871SOL    HW2 3513   6.421   2.877   2.301
  872SOL     OW 3514   6.285   4.018   4.009
  872SOL    HW1 3515   6.257   4.108   4.045
  872SOL    HW2 3516   6.246   3.946   4.066
  873SOL     OW 3517   4.215   0.336   3.143
  873SOL    HW1 3518   4.290   0.290   3.096
  873SOL    HW2 3519   4.251   0.408   3.202
  874SOL     OW 3520   1.811   3.799   5.691
  874SOL    HW1 3521   1.800   3.853   5.608
  874SOL    HW2 3522   1.898   3.750   5.687
  875SOL     OW 3523   5.314   4.060   1.124
  875SOL    HW1 3524   5.264   3.988   1.078
  875SOL    HW2 3525   5.260   4.144   1.125
  876SOL     OW 3526   0.090   4.884   3.319
  876SOL    HW1 3527   0.049   4.842   3.238
  876SOL    HW2 3528   0.047   4.972   3.337
  877SOL     OW 3529   4.468   4.313   6.854
  877SOL    HW1 3530   4.540   4.378   6.875
  877SOL    HW2 3531   4.498   4.252   6.780
  878SOL     OW 3532   4.163   5.909   6.353
  878SOL    HW1 3533   4.085   5.968   6.335
  878SOL    HW2 3534   4.206   5.882   6.267
  879SOL     OW 3535   3.794   2.064   2.237
  879SOL    HW1 3536   3.761   2.111   2.155
  879SOL    HW2 3537   3.725   2.069   2.308
  880SOL     OW 3538   2.882   4.641   6.962
  880SOL    HW1 3539   2.817   4.569   6.939
  880SOL    HW2 3540   2.930   4.617   0.021
  881SOL     OW 3541   4.146   4.678   5.241
  881SOL    HW1 3542   4.196   4.596   5.212
  881SOL    HW2 3543   4.144   4.744   5.165
  882SOL     OW 3544   2.009   1.575   4.095
  882SOL    HW1 3545   2.079   1.542   4.159
  882SOL    HW2 3546   1.939   1.504   4.084
  883SOL     OW 3547   4.342   5.310   5.246
  883SOL    HW1 3548   4.386   5.357   5.169
  883SOL    HW2 3549   4.250   5.347   5.259
  884SOL     OW 3550   6.867   3.919   2.015
  884SOL    HW1 3551   6.800   3.980   2.058
  884SOL    HW2 3552   6.947   3.910   2.075
  885SOL     OW 3553   5.510   5.908   6.813
  885SOL    HW1 3554   5.469   5.975   6.751
  885SOL    HW2 3555   5.610   5.918   6.813
  886SOL     OW 3556   4.469   0.527   0.208
  886SOL    HW1 3557   4.564   0.547   0.233
  886SOL    HW2 3558   4.408   0.557   0.281
  887SOL     OW 3559   4.252   6.220   5.656
  887SOL    HW1 3560   4.317   6.201   5.729
  887SOL    HW2 3561   4.296   6.275   5.585
  888SOL     OW 3562   6.855   6.503   2.813
  888SOL    HW1 3563   6.765   6.461   2.818
  888SOL    HW2 3564   6.919   6.440   2.769
  889SOL     OW 3565   0.122   6.654   5.903
  889SOL    HW1 3566   0.028   6.622   5.893
  889SOL    HW2 3567   0.121   6.746   5.942
  890SOL     OW 3568   2.719   4.685   2.215
  890SOL    HW1 3569   2.632   4.640   2.196
  890SOL    HW2 3570   2.779   4.677   2.135
  891SOL     OW 3571   5.900   3.669   1.545
  891SOL    HW1 3572   5.834   3.744   1.551
  891SOL    HW2 3573   5.946   3.658   1.633
  892SOL     OW 3574   4.347   3.979   0.824
  892SOL    HW1 3575   4.372   4.051   0.759
  892SOL    HW2 3576   4.249   3.984   0.844
  893SOL     OW 3577   1.875   0.588   1.211
  893SOL    HW1 3578   1.899   0.491   1.198
  893SOL    HW2 3579   1.807   0.595   1.284
  894SOL     OW 3580   2.142   3.964   3.857
  894SOL    HW1 3581   2.081   3.900   3.902
  894SOL    HW2 3582   2.169   4.036   3.921
  895SOL     OW 3583   2.163   6.443   4.457
  895SOL    HW1 3584   2.113   6.377   4.513
  895SOL    HW2 3585   2.098   6.496   4.402
  896SOL     OW 3586   5.834   5.521   3.887
  896SOL    HW1 3587   5.927   5.529   3.924
  896SOL    HW2 3588   5.829   5.573   3.801
  897SOL     OW 3589   4.898   1.125   0.148
  897SOL    HW1 3590   4.842   1.042   0.143
  897SOL    HW2 3591   4.845   1.204   0.120
  898SOL     OW 3592   3.997   5.906   3.915
  898SOL    HW1 3593   4.015   5.808   3.928
  898SOL    HW2 3594   4.016   5.954   4.001
  899SOL     OW 3595   0.281   5.182   0.307
  899SOL    HW1 3596   0.360   5.187   0.368
  899SOL    HW2 3597   0.296   5.110   0.239
  900SOL     OW 3598   5.781   5.983   1.680
  900SOL    HW1 3599   5.731   5.914   1.732
  900SOL    HW2 3600   5.786   6.068   1.732
  901SOL     OW 3601   0.270   1.649   4.695
  901SOL    HW1 3602   0.179   1.656   4.735
  901SOL    HW2 3603   0.264   1.598   4.609
  902SOL     OW 3604   7.007   1.090   6.528
  902SOL    HW1 3605   7.025   1.152   6.452
  902SOL    HW2 3606   0.013   0.998   6.505
  903SOL     OW 3607   6.566   4.396   0.024
  903SOL    HW1 3608   6.629   4.357   0.091
  903SOL    HW2 3609   6.616   4.427   6.970
  904SOL     OW 3610   1.522   1.890   4.009
  904SOL    HW1 3611   1.562   1.949   4.079
  904SOL    HW2 3612   1.444   1.936   3.967
  905SOL     OW 3613   5.322   2.599   6.621
  905SOL    HW1 3614   5.265   2.519   6.636
  905SOL    HW2 3615   5.264   2.678   6.602
  906SOL     OW 3616   0.366   3.767   6.811
  906SOL    HW1 3617   0.450   3.761   6.864
  906SOL    HW2 3618   0.380   3.828   6.732
  907SOL     OW 3619   6.010   2.841   3.097
  907SOL    HW1 3620   5.974   2.767   3.041
  907SOL    HW2 3621   5.941   2.868   3.164
  908SOL     OW 3622   1.112   0.332   4.272
  908SOL    HW1 3623   1.167   0.306   4.193
  908SOL    HW2 3624   1.045   0.402   4.245
  909SOL     OW 3625   2.477   0.948   1.050
  909SOL    HW1 3626   2.418   0.876   1.087
  909SOL    HW2 3627   2.542   0.976   1.121
  910SOL     OW 3628   1.915   0.436   0.897
  910SOL    HW1 3629   1.877   0.386   0.819
  910SOL    HW2 3630   1.942   0.528   0.867
  911SOL     OW 3631   0.485   4.762   1.282
  911SOL    HW1 3632   0.581   4.735   1.298
  911SOL    HW2 3633   0.443   4.697   1.219
  912SOL     OW 3634   0.483   1.555   5.699
  912SOL    HW1 3635   0.445   1.464   5.714
  912SOL    HW2 3636   0.566   1.566   5.754
  913SOL     OW 3637   2.241   0.613   3.340
  913SOL    HW1 3638   2.198   0.586   3.426
  913SOL    HW2 3639   2.192   0.691   3.302
  914SOL     OW 3640   2.418   5.494   5.049
  914SOL    HW1 3641   2.453   5.422   5.109
  914SOL    HW2 3642   2.326   5.520   5.077
  915SOL     OW 3643   0.290   3.147   0.942
  915SOL    HW1 3644   0.199   3.160   0.980
  915SOL    HW2 3645   0.304   3.050   0.922
  916SOL     OW 3646   1.742   1.959   1.892
  916SOL    HW1 3647   1.713   1.923   1.980
  916SOL    HW2 3648   1.841   1.977   1.895
  917SOL     OW 3649   3.796   1.099   1.450
  917SOL    HW1 3650   3.717   1.161   1.447
  917SOL    HW2 3651   3.869   1.135   1.392
  918SOL     OW 3652   3.329   5.917   6.787
  918SOL    HW1 3653   3.277   5.834   6.767
  918SOL    HW2 3654   3.288   5.995   6.740
  919SOL     OW 3655   1.769   6.622   1.776
  919SOL    HW1 3656   1.785   6.524   1.767
  919SOL    HW2 3657   1.856   6.669   1.791
  920SOL     OW 3658   2.194   0.336   3.134
  920SOL    HW1 3659   2.188   0.435   3.143
  920SOL    HW2 3660   2.227   0.313   3.042
  921SOL     OW 3661   5.188   4.744   3.871
  921SOL    HW1 3662   5.230   4.833   3.886
  921SOL    HW2 3663   5.198   4.688   3.954
  922SOL     OW 3664   3.329   2.961   6.701
  922SOL    HW1 3665   3.324   2.959   6.800
  922SOL    HW2 3666   3.351   3.054   6.670
  923SOL     OW 3667   3.051   6.037   0.229
  923SOL    HW1 3668   3.126   6.098   0.255
  923SOL    HW2 3669   3.074   5.943   0.255
  924SOL     OW 3670   5.321   3.388   2.628
  924SOL    HW1 3671   5.355   3.353   2.541
  924SOL    HW2 3672   5.294   3.312   2.687
  925SOL     OW 3673   6.760   2.260   5.431
  925SOL    HW1 3674   6.822   2.206   5.376
  925SOL    HW2 3675   6.665   2.236   5.408
  926SOL     OW 3676   5.761   0.685   0.274
  926SOL    HW1 3677   5.749   0.780   0.248
  926SOL    HW2 3678   5.787   0.679   0.370
  927SOL     OW 3679   4.953   4.434   4.068
  927SOL    HW1 3680   4.916   4.477   3.986
  927SOL    HW2 3681   4.992   4.504   4.128
  928SOL     OW 3682   1.824   0.318   0.676
  928SOL    HW1 3683   1.882   0.281   0.604
  928SOL    HW2 3684   1.763   0.247   0.710
  929SOL     OW 3685   6.623   2.317   2.237
  929SOL    HW1 3686   6.662   2.392   2.183
  929SOL    HW2 3687   6.620   2.343   2.333
  930SOL     OW 3688   6.541   5.011   4.425
  930SOL    HW1 3689   6.558   4.913   4.413
  930SOL    HW2 3690   6.460   5.024   4.482
  931SOL     OW 3691   0.168   3.768   3.371
  931SOL    HW1 3692   0.155   3.849   3.313
  931SOL    HW2 3693   0.084   3.713   3.370
  932SOL     OW 3694   3.619   6.240   1.703
  932SOL    HW1 3695   3.656   6.315   1.649
  932SOL    HW2 3696   3.538   6.202   1.657
  933SOL     OW 3697   1.178   4.751   2.492
  933SOL    HW1 3698   1.270   4.713   2.500
  933SOL    HW2 3699   1.143   4.774   2.583
  934SOL     OW 3700   2.806   1.549   4.616
  934SOL    HW1 3701   2.820   1.644   4.644
  934SOL    HW2 3702   2.881   1.492   4.650
  935SOL     OW 3703   4.621   3.745   5.824
  935SOL    HW1 3704   4.592   3.797   5.904
  935SOL    HW2 3705   4.721   3.745   5.818
  936SOL     OW 3706   0.689   6.745   0.259
  936SOL    HW1 3707   0.613   6.787   0.211
  936SOL    HW2 3708   0.765   6.730   0.195
  937SOL     OW 3709   4.314   1.884   4.877
  937SOL    HW1 3710   4.294   1.811   4.812
  937SOL    HW2 3711   4.312   1.973   4.831
  938SOL     OW 3712   0.043   4.174   6.183
  938SOL    HW1 3713   0.122   4.135   6.232
  938SOL    HW2 3714   0.071   4.256   6.134
  939SOL     OW 3715   5.240   1.463   5.897
  939SOL    HW1 3716   5.229   1.367   5.923
  939SOL    HW2 3717   5.164   1.490   5.837
  940SOL     OW 3718   6.676   1.728   3.127
  940SOL    HW1 3719   6.663   1.679   3.041
  940SOL    HW2 3720   6.600   1.790   3.142
  941SOL     OW 3721   6.187   0.873   4.105
  941SOL    HW1 3722   6.163   0.845   4.198
  941SOL    HW2 3723   6.141   0.813   4.040
  942SOL     OW 3724   4.771   0.170   4.913
  942SOL    HW1 3725   4.680   0.139   4.885
  942SOL    HW2 3726   4.837   0.148   4.842
  943SOL     OW 3727   0.139   3.460   2.788
  943SOL    HW1 3728   0.219   3.518   2.777
  943SOL    HW2 3729   0.151   3.403   2.870
  944SOL     OW 3730   6.230   3.305   5.436
  944SOL    HW1 3731   6.206   3.379   5.500
  944SOL    HW2 3732   6.280   3.343   5.358
  945SOL     OW 3733   5.245   4.743   4.776
  945SOL    HW1 3734   5.291   4.656   4.796
  945SOL    HW2 3735   5.207   4.780   4.860
  946SOL     OW 3736   5.778   2.703   6.476
  946SOL    HW1 3737   5.859   2.651   6.448
  946SOL    HW2 3738   5.772   2.786   6.422
  947SOL     OW 3739   3.062   3.255   5.744
  947SOL    HW1 3740   3.014   3.321   5.686
  947SOL    HW2 3741   3.054   3.164   5.704
  948SOL     OW 3742   4.077   0.950   0.938
  948SOL    HW1 3743   4.151   1.017   0.951
  948SOL    HW2 3744   4.016   0.953   1.017
  949SOL     OW 3745   6.790   6.143   5.797
  949SOL    HW1 3746   6.757   6.118   5.888
  949SOL    HW2 3747   6.750   6.230   5.770
  950SOL     OW 3748   4.035   4.791   2.768
  950SOL    HW1 3749   4.061   4.781   2.672
  950SOL    HW2 3750   3.961   4.858   2.776
  951SOL     OW 3751   1.568   0.208   2.154
  951SOL    HW1 3752   1.574   0.266   2.235
  951SOL    HW2 3753   1.479   0.163   2.151
  952SOL     OW 3754   5.929   1.939   2.464
  952SOL    HW1 3755   5.859   1.917   2.396
  952SOL    HW2 3756   5.885   1.969   2.548
  953SOL     OW 3757   4.552   5.746   5.786
  953SOL    HW1 3758   4.625   5.807   5.755
  953SOL    HW2 3759   4.590   5.657   5.811
  954SOL     OW 3760   5.576   0.186   0.510
  954SOL    HW1 3761   5.636   0.164   0.432
  954SOL    HW2 3762   5.583   0.284   0.530
  955SOL     OW 3763   0.949   5.028   3.868
  955SOL    HW1 3764   0.930   4.940   3.911
  955SOL    HW2 3765   1.044   5.054   3.888
  956SOL     OW 3766   0.876   1.901   1.459
  956SOL    HW1 3767   0.881   1.983   1.516
  956SOL    HW2 3768   0.942   1.908   1.385
  957SOL     OW 3769   1.172   4.827   4.939
  957SOL    HW1 3770   1.263   4.855   4.910
  957SOL    HW2 3771   1.168   4.825   5.039
  958SOL     OW 3772   4.804   1.971   1.149
  958SOL    HW1 3773   4.871   1.928   1.210
  958SOL    HW2 3774   4.852   2.030   1.083
  959SOL     OW 3775   2.967   4.821   3.074
  959SOL    HW1 3776   2.891   4.779   3.025
  959SOL    HW2 3777   2.970   4.786   3.168
  960SOL     OW 3778   0.952   5.838   3.686
  960SOL    HW1 3779   0.956   5.937   3.678
  960SOL    HW2 3780   1.040   5.803   3.720
  961SOL     OW 3781   4.498   6.834   2.685
  961SOL    HW1 3782   4.582   6.806   2.639
  961SOL    HW2 3783   4.503   6.811   2.782
  962SOL     OW 3784   1.463   1.404   3.790
  962SOL    HW1 3785   1.433   1.396   3.886
  962SOL    HW2 3786   1.552   1.448   3.786
  963SOL     OW 3787   5.766   0.111   0.318
  963SOL    HW1 3788   5.866   0.110   0.327
  963SOL    HW2 3789   5.739   0.183   0.254
  964SOL     OW 3790   5.942   3.147   1.203
  964SOL    HW1 3791   5.928   3.245   1.220
  964SOL    HW2 3792   5.991   3.135   1.117
  965SOL     OW 3793   6.164   1.959   1.052
  965SOL    HW1 3794   6.150   1.862   1.033
  965SOL    HW2 3795   6.098   2.013   1.000
  966SOL     OW 3796   5.778   1.534   2.471
  966SOL    HW1 3797   5.826   1.489   2.547
  966SOL    HW2 3798   5.682   1.547   2.495
  967SOL     OW 3799   1.411   5.238   0.385
  967SOL    HW1 3800   1.413   5.139   0.397
  967SOL    HW2 3801   1.434   5.261   0.290
  968SOL     OW 3802   4.453   2.441   2.277
  968SOL    HW1 3803   4.428   2.521   2.221
  968SOL    HW2 3804   4.468   2.470   2.371
  969SOL     OW 3805   3.426   6.023   5.369
  969SOL    HW1 3806   3.516   6.037   5.411
  969SOL    HW2 3807   3.357   6.018   5.441
  970SOL     OW 3808   4.729   1.575   5.344
  970SOL    HW1 3809   4.660   1.503   5.336
  970SOL    HW2 3810   4.799   1.547   5.410
  971SOL     OW 3811   0.388   1.131   2.766
  971SOL    HW1 3812   0.442   1.214   2.748
  971SOL    HW2 3813   0.443   1.067   2.820
  972SOL     OW 3814   5.908   4.138   0.896
  972SOL    HW1 3815   5.897   4.210   0.964
  972SOL    HW2 3816   5.929   4.051   0.941
  973SOL     OW 3817   0.506   5.021   6.383
  973SOL    HW1 3818   0.527   5.050   6.289
  973SOL    HW2 3819   0.529   5.095   6.446
  974SOL     OW 3820   4.009   0.550   2.036
  974SOL    HW1 3821   4.027   0.613   1.961
  974SOL    HW2 3822   4.025   0.456   2.005
  975SOL     OW 3823   2.610   6.281   6.503
  975SOL    HW1 3824   2.562   6.270   6.590
  975SOL    HW2 3825   2.559   6.235   6.430
  976SOL     OW 3826   6.491   2.999   2.825
  976SOL    HW1 3827   6.407   2.963   2.865
  976SOL    HW2 3828   6.478   3.015   2.728
  977SOL     OW 3829   2.142   1.544   4.489
  977SOL    HW1 3830   2.128   1.555   4.587
  977SOL    HW2 3831   2.065   1.586   4.440
  978SOL     OW 3832   5.252   3.959   4.758
  978SOL    HW1 3833   5.199   4.029   4.711
  978SOL    HW2 3834   5.345   3.991   4.774
  979SOL     OW 3835   6.078   1.440   2.868
  979SOL    HW1 3836   6.130   1.509   2.818
  979SOL    HW2 3837   6.053   1.476   2.958
  980SOL     OW 3838   5.439   1.939   3.600
  980SOL    HW1 3839   5.504   2.003   3.640
  980SOL    HW2 3840   5.450   1.939   3.501
  981SOL     OW 3841   1.255   1.916   4.639
  981SOL    HW1 3842   1.282   1.956   4.726
  981SOL    HW2 3843   1.165   1.952   4.612
  982SOL     OW 3844   1.804   2.687   2.756
  982SOL    HW1 3845   1.852   2.675   2.669
  982SOL    HW2 3846   1.806   2.601   2.807
  983SOL     OW 3847   5.844   2.886   3.612
  983SOL    HW1 3848   5.761   2.845   3.575
  983SOL    HW2 3849   5.834   2.898   3.711
  984SOL     OW 3850   3.237   0.627   4.950
  984SOL    HW1 3851   3.272   0.543   4.908
  984SOL    HW2 3852   3.270   0.706   4.899
  985SOL     OW 3853   4.810   4.676   6.743
  985SOL    HW1 3854   4.895   4.688   6.794
  985SOL    HW2 3855   4.766   4.765   6.731
  986SOL     OW 3856   5.326   5.314   0.190
  986SOL    HW1 3857   5.398   5.295   0.257
  986SOL    HW2 3858   5.333   5.410   0.161
  987SOL     OW 3859   3.979   6.586   1.091
  987SOL    HW1 3860   4.014   6.659   1.150
  987SOL    HW2 3861   4.049   6.560   1.025
  988SOL     OW 3862   4.101   2.553   1.170
  988SOL    HW1 3863   4.144   2.601   1.246
  988SOL    HW2 3864   4.170   2.532   1.100
  989SOL     OW 3865   0.248   0.806   6.036
  989SOL    HW1 3866   0.244   0.790   5.937
  989SOL    HW2 3867   0.277   0.721   6.082
  990SOL     OW 3868   5.022   0.138   3.769
  990SOL    HW1 3869   5.006   0.096   3.680
  990SOL    HW2 3870   4.961   0.098   3.837
  991SOL     OW 3871   1.548   1.586   4.901
  991SOL    HW1 3872   1.539   1.685   4.917
  991SOL    HW2 3873   1.470   1.554   4.847
  992SOL     OW 3874   0.771   3.032   0.413
  992SOL    HW1 3875   0.682   3.055   0.374
  992SOL    HW2 3876   0.820   3.116   0.436
  993SOL     OW 3877   2.189   5.365   2.478
  993SOL    HW1 3878   2.097   5.327   2.482
  993SOL    HW2 3879   2.196   5.442   2.541
  994SOL     OW 3880   3.855   3.390   2.852
  994SOL    HW1 3881   3.895   3.403   2.762
  994SOL    HW2 3882   3.928   3.371   2.919
  995SOL     OW 3883   2.388   2.327   6.536
  995SOL    HW1 3884   2.321   2.393   6.571
  995SOL    HW2 3885   2.357   2.291   6.448
  996SOL     OW 3886   1.934   3.816   3.972
  996SOL    HW1 3887   1.884   3.737   3.935
  996SOL    HW2 3888   1.886   3.850   4.053
  997SOL     OW 3889   6.899   6.902   1.197
  997SOL    HW1 3890   6.845   6.885   1.114
  997SOL    HW2 3891   6.995   6.881   1.178
  998SOL     OW 3892   4.578   0.179   3.418
  998SOL    HW1 3893   4.558   0.193   3.515
  998SOL    HW2 3894   4.670   0.211   3.397
  999SOL     OW 3895   5.312   5.359   1.443
  999SOL    HW1 3896   5.317   5.341   1.344
  999SOL    HW2 3897   5.382   5.306   1.490
 1000SOL     OW 3898   0.765   0.838   2.368
 1000SOL    HW1 3899   0.727   0.906   2.431
 1000SOL    HW2 3900   0.847   0.874   2.324
 1001SOL     OW 3901   4.451   6.832   6.653
 1001SOL    HW1 3902   4.372   6.773   6.671
 1001SOL    HW2 3903   4.424   6.903   6.588
 1002SOL     OW 3904   5.345   1.872   6.306
 1002SOL    HW1 3905   5.266   1.919   6.266
 1002SOL    HW2 3906   5.313   1.802   6.370
 1003SOL     OW 3907   2.961   6.972   1.725
 1003SOL    HW1 3908   3.043   7.007   1.680
 1003SOL    HW2 3909   2.911   6.911   1.663
 1004SOL     OW 3910   6.801   0.546   0.398
 1004SOL    HW1 3911   6.749   0.477   0.449
 1004SOL    HW2 3912   6.844   0.609   0.463
 1005SOL     OW 3913   6.873   1.025   3.083
 1005SOL    HW1 3914   6.797   1.089   3.067
 1005SOL    HW2 3915   6.913   0.998   2.996
 1006SOL     OW 3916   2.513   6.200   1.634
 1006SOL    HW1 3917   2.547   6.111   1.662
 1006SOL    HW2 3918   2.512   6.262   1.712
 1007SOL     OW 3919   6.132   6.840   3.679
 1007SOL    HW1 3920   6.071   6.780   3.731
 1007SOL    HW2 3921   6.078   6.901   3.621
 1008SOL     OW 3922   1.884   2.977   4.466
 1008SOL    HW1 3923   1.942   3.046   4.509
 1008SOL    HW2 3924   1.920   2.955   4.376
 1009SOL     OW 3925   0.074   5.760   4.011
 1009SOL    HW1 3926   0.059   5.771   3.912
 1009SOL    HW2 3927   7.014   5.732   4.055
 1010SOL     OW 3928   4.000   2.706   0.158
 1010SOL    HW1 3929   4.027   2.774   0.089
 1010SOL    HW2 3930   3.917   2.660   0.128
 1011SOL     OW 3931   2.923   5.436   2.772
 1011SOL    HW1 3932   2.949   5.473   2.861
 1011SOL    HW2 3933   2.825   5.416   2.771
 1012SOL     OW 3934   6.562   5.386   0.378
 1012SOL    HW1 3935   6.534   5.472   0.335
 1012SOL    HW2 3936   6.643   5.350   0.330
 1013SOL     OW 3937   0.505   1.145   6.436
 1013SOL    HW1 3938   0.476   1.050   6.424
 1013SOL    HW2 3939   0.448   1.204   6.378
 1014SOL     OW 3940   5.177   5.836   0.121
 1014SOL    HW1 3941   5.169   5.928   0.157
 1014SOL    HW2 3942   5.211   5.839   0.027
 1015SOL     OW 3943   2.681   6.977   5.361
 1015SOL    HW1 3944   2.601   7.009   5.311
 1015SOL    HW2 3945   2.718   6.895   5.317
 1016SOL     OW 3946   2.113   2.747   0.890
 1016SOL    HW1 3947   2.023   2.780   0.919
 1016SOL    HW2 3948   2.124   2.760   0.792
 1017SOL     OW 3949   4.399   2.694   0.634
 1017SOL    HW1 3950   4.442   2.762   0.575
 1017SOL    HW2 3951   4.344   2.741   0.703
 1018SOL     OW 3952   1.917   3.511   3.988
 1018SOL    HW1 3953   2.012   3.497   3.959
 1018SOL    HW2 3954   1.856   3.465   3.923
 1019SOL     OW 3955   0.715   0.626   0.401
 1019SOL    HW1 3956   0.721   0.570   0.318
 1019SOL    HW2 3957   0.677   0.715   0.378
 1020SOL     OW 3958   1.857   6.687   1.186
 1020SOL    HW1 3959   1.944   6.707   1.141
 1020SOL    HW2 3960   1.787   6.752   1.155
 1021SOL     OW 3961   6.549   0.902   0.470
 1021SOL    HW1 3962   6.483   0.946   0.409
 1021SOL    HW2 3963   6.519   0.912   0.565
 1022SOL     OW 3964   4.103   4.958   5.964
 1022SOL    HW1 3965   4.172   5.023   5.932
 1022SOL    HW2 3966   4.125   4.866   5.931
 1023SOL     OW 3967   6.146   0.384   2.857
 1023SOL    HW1 3968   6.175   0.455   2.922
 1023SOL    HW2 3969   6.138   0.296   2.905
 1024SOL     OW 3970   6.518   2.911   4.234
 1024SOL    HW1 3971   6.443   2.882   4.292
 1024SOL    HW2 3972   6.554   2.999   4.266
 1025SOL     OW 3973   3.490   4.240   0.536
 1025SOL    HW1 3974   3.435   4.323   0.551
 1025SOL    HW2 3975   3.533   4.213   0.622
 1026SOL     OW 3976   1.134   1.958   0.690
 1026SOL    HW1 3977   1.142   2.027   0.761
 1026SOL    HW2 3978   1.151   1.868   0.729
 1027SOL     OW 3979   2.980   6.101   1.223
 1027SOL    HW1 3980   2.918   6.176   1.249
 1027SOL    HW2 3981   2.951   6.018   1.270
 1028SOL     OW 3982   3.199   5.694   6.724
 1028SOL    HW1 3983   3.126   5.684   6.656
 1028SOL    HW2 3984   3.219   5.605   6.764
 1029SOL     OW 3985   2.078   0.764   0.076
 1029SOL    HW1 3986   2.135   0.842   0.050
 1029SOL    HW2 3987   2.069   0.760   0.175
 1030SOL     OW 3988   3.472   3.109   3.006
 1030SOL    HW1 3989   3.564   3.123   2.970
 1030SOL    HW2 3990   3.441   3.193   3.050
 1031SOL     OW 3991   4.783   4.812   0.906
 1031SOL    HW1 3992   4.780   4.912   0.907
 1031SOL    HW2 3993   4.743   4.779   0.821
 1032SOL     OW 3994   1.297   1.608   4.717
 1032SOL    HW1 3995   1.254   1.577   4.801
 1032SOL    HW2 3996   1.274   1.704   4.700
 1033SOL     OW 3997   1.214   7.026   1.232
 1033SOL    HW1 3998   1.208   6.927   1.214
 1033SOL    HW2 3999   1.207   0.016   1.331
 1034SOL     OW 4000   1.708   6.446   4.530
 1034SOL    HW1 4001   1.629   6.499   4.560
 1034SOL    HW2 4002   1.755   6.495   4.457
 1035SOL     OW 4003   2.993   1.673   3.365
 1035SOL    HW1 4004   3.055   1.751   3.375
 1035SOL    HW2 4005   2.986   1.648   3.269
 1036SOL     OW 4006   3.188   0.470   0.914
 1036SOL    HW1 4007   3.247   0.497   0.990
 1036SOL    HW2 4008   3.095   0.455   0.947
 1037SOL     OW 4009   1.366   1.345   1.344
 1037SOL    HW1 4010   1.284   1.384   1.387
 1037SOL    HW2 4011   1.424   1.419   1.312
 1038SOL     OW 4012   1.235   0.905   5.863
 1038SOL    HW1 4013   1.311   0.891   5.801
 1038SOL    HW2 4014   1.172   0.973   5.824
 1039SOL     OW 4015   4.455   2.418   5.858
 1039SOL    HW1 4016   4.403   2.432   5.774
 1039SOL    HW2 4017   4.548   2.390   5.834
 1040SOL     OW 4018   5.583   3.268   3.015
 1040SOL    HW1 4019   5.555   3.298   3.106
 1040SOL    HW2 4020   5.668   3.313   2.989
 1041SOL     OW 4021   6.737   0.075   4.311
 1041SOL    HW1 4022   6.743   0.096   4.213
 1041SOL    HW2 4023   6.826   0.047   4.344
 1042SOL     OW 4024   3.184   4.857   2.412
 1042SOL    HW1 4025   3.091   4.838   2.380
 1042SOL    HW2 4026   3.185   4.859   2.512
 1043SOL     OW 4027   4.262   1.068   5.799
 1043SOL    HW1 4028   4.362   1.064   5.805
 1043SOL    HW2 4029   4.234   1.162   5.778
 1044SOL     OW 4030   4.402   2.546   1.708
 1044SOL    HW1 4031   4.305   2.550   1.733
 1044SOL    HW2 4032   4.451   2.620   1.753
 1045SOL     OW 4033   2.985   7.026   1.351
 1045SOL    HW1 4034   3.046   0.014   1.274
 1045SOL    HW2 4035   3.034   0.019   1.436
 1046SOL     OW 4036   2.249   6.780   6.548
 1046SOL    HW1 4037   2.246   6.720   6.629
 1046SOL    HW2 4038   2.247   6.724   6.465
 1047SOL     OW 4039   1.641   5.219   2.847
 1047SOL    HW1 4040   1.543   5.228   2.829
 1047SOL    HW2 4041   1.689   5.197   2.762
 1048SOL     OW 4042   4.454   5.541   5.585
 1048SOL    HW1 4043   4.463   5.564   5.488
 1048SOL    HW2 4044   4.450   5.624   5.639
 1049SOL     OW 4045   0.149   4.165   4.807
 1049SOL    HW1 4046   0.243   4.168   4.775
 1049SOL    HW2 4047   0.142   4.215   4.894
 1050SOL     OW 4048   2.794   5.321   1.197
 1050SOL    HW1 4049   2.795   5.302   1.099
 1050SOL    HW2 4050   2.752   5.411   1.214
 1051SOL     OW 4051   3.668   4.461   0.375
 1051SOL    HW1 4052   3.714   4.443   0.462
 1051SOL    HW2 4053   3.580   4.413   0.373
 1052SOL     OW 4054   4.563   0.441   3.899
 1052SOL    HW1 4055   4.659   0.413   3.895
 1052SOL    HW2 4056   4.556   0.533   3.937
 1053SOL     OW 4057   5.662   5.989   3.394
 1053SOL    HW1 4058   5.736   5.993   3.462
 1053SOL    HW2 4059   5.599   6.065   3.410
 1054SOL     OW 4060   2.385   4.772   5.280
 1054SOL    HW1 4061   2.360   4.854   5.229
 1054SOL    HW2 4062   2.448   4.716   5.225
 1055SOL     OW 4063   5.236   6.677   4.334
 1055SOL    HW1 4064   5.236   6.612   4.410
 1055SOL    HW2 4065   5.268   6.766   4.366
 1056SOL     OW 4066   1.603   5.996   5.277
 1056SOL    HW1 4067   1.586   5.983   5.180
 1056SOL    HW2 4068   1.693   6.037   5.291
 1057SOL     OW 4069   3.150   4.072   3.527
 1057SOL    HW1 4070   3.183   4.136   3.596
 1057SOL    HW2 4071   3.173   4.107   3.436
 1058SOL     OW 4072   4.857   1.569   2.599
 1058SOL    HW1 4073   4.872   1.495   2.533
 1058SOL    HW2 4074   4.773   1.618   2.576
 1059SOL     OW 4075   3.079   0.289   1.832
 1059SOL    HW1 4076   3.100   0.378   1.872
 1059SOL    HW2 4077   3.121   0.217   1.887
 1060SOL     OW 4078   6.851   3.786   5.294
 1060SOL    HW1 4079   6.896   3.798   5.383
 1060SOL    HW2 4080   6.752   3.791   5.306
 1061SOL     OW 4081   4.726   4.398   1.679
 1061SOL    HW1 4082   4.644   4.365   1.632
 1061SOL    HW2 4083   4.748   4.337   1.755
 1062SOL     OW 4084   6.582   5.942   6.070
 1062SOL    HW1 4085   6.554   6.037   6.086
 1062SOL    HW2 4086   6.512   5.881   6.107
 1063SOL     OW 4087   1.156   4.099   1.351
 1063SOL    HW1 4088   1.115   4.052   1.429
 1063SOL    HW2 4089   1.243   4.140   1.379
 1064SOL     OW 4090   1.216   4.153   2.539
 1064SOL    HW1 4091   1.307   4.154   2.582
 1064SOL    HW2 4092   1.218   4.092   2.459
 1065SOL     OW 4093   4.830   0.931   4.951
 1065SOL    HW1 4094   4.836   1.007   5.016
 1065SOL    HW2 4095   4.819   0.845   5.001
 1066SOL     OW 4096   5.367   0.590   4.097
 1066SOL    HW1 4097   5.285   0.605   4.043
 1066SOL    HW2 4098   5.343   0.545   4.183
 1067SOL     OW 4099   1.634   2.905   0.369
 1067SOL    HW1 4100   1.589   2.816   0.364
 1067SOL    HW2 4101   1.654   2.938   0.277
 1068SOL     OW 4102   5.691   3.848   1.850
 1068SOL    HW1 4103   5.700   3.751   1.869
 1068SOL    HW2 4104   5.641   3.893   1.923
 1069SOL     OW 4105   4.815   5.035   1.385
 1069SOL    HW1 4106   4.876   5.052   1.308
 1069SOL    HW2 4107   4.804   4.937   1.398
 1070SOL     OW 4108   0.807   0.964   6.682
 1070SOL    HW1 4109   0.860   0.891   6.724
 1070SOL    HW2 4110   0.862   1.008   6.611
 1071SOL     OW 4111   4.129   0.824   3.295
 1071SOL    HW1 4112   4.165   0.814   3.387
 1071SOL    HW2 4113   4.200   0.800   3.228
 1072SOL     OW 4114   1.998   6.188   2.281
 1072SOL    HW1 4115   2.020   6.256   2.210
 1072SOL    HW2 4116   1.911   6.144   2.258
 1073SOL     OW 4117   3.774   5.795   2.398
 1073SOL    HW1 4118   3.767   5.725   2.469
 1073SOL    HW2 4119   3.720   5.768   2.319
 1074SOL     OW 4120   1.879   5.923   1.701
 1074SOL    HW1 4121   1.933   5.886   1.625
 1074SOL    HW2 4122   1.793   5.961   1.666
 1075SOL     OW 4123   4.550   5.037   3.294
 1075SOL    HW1 4124   4.522   4.953   3.248
 1075SOL    HW2 4125   4.549   5.024   3.393
 1076SOL     OW 4126   0.701   4.367   4.943
 1076SOL    HW1 4127   0.702   4.348   4.845
 1076SOL    HW2 4128   0.728   4.462   4.958
 1077SOL     OW 4129   5.786   6.860   0.278
 1077SOL    HW1 4130   5.876   6.828   0.308
 1077SOL    HW2 4131   5.770   6.952   0.314
 1078SOL     OW 4132   1.685   1.130   2.035
 1078SOL    HW1 4133   1.778   1.098   2.055
 1078SOL    HW2 4134   1.654   1.190   2.109
 1079SOL     OW 4135   1.760   4.981   3.320
 1079SOL    HW1 4136   1.724   5.030   3.241
 1079SOL    HW2 4137   1.777   4.886   3.295
 1080SOL     OW 4138   1.957   4.420   3.617
 1080SOL    HW1 4139   1.980   4.470   3.534
 1080SOL    HW2 4140   1.859   4.396   3.616
 1081SOL     OW 4141   0.233   1.428   5.572
 1081SOL    HW1 4142   0.304   1.387   5.514
 1081SOL    HW2 4143   0.168   1.476   5.514
 1082SOL     OW 4144   1.515   0.188   5.989
 1082SOL    HW1 4145   1.442   0.250   6.018
 1082SOL    HW2 4146   1.551   0.140   6.069
 1083SOL     OW 4147   3.520   4.179   2.145
 1083SOL    HW1 4148   3.526   4.273   2.177
 1083SOL    HW2 4149   3.570   4.168   2.060
 1084SOL     OW 4150   6.326   5.560   0.923
 1084SOL    HW1 4151   6.388   5.539   0.848
 1084SOL    HW2 4152   6.346   5.499   1.000
 1085SOL     OW 4153   1.962   3.703   3.390
 1085SOL    HW1 4154   1.955   3.606   3.366
 1085SOL    HW2 4155   2.041   3.743   3.345
 1086SOL     OW 4156   6.130   5.707   3.107
 1086SOL    HW1 4157   6.108   5.673   3.016
 1086SOL    HW2 4158   6.076   5.657   3.175
 1087SOL     OW 4159   5.633   2.971   5.746
 1087SOL    HW1 4160   5.600   2.876   5.752
 1087SOL    HW2 4161   5.556   3.033   5.757
 1088SOL     OW 4162   6.121   4.821   3.273
 1088SOL    HW1 4163   6.032   4.866   3.280
 1088SOL    HW2 4164   6.193   4.889   3.277
 1089SOL     OW 4165   0.933   0.662   4.568
 1089SOL    HW1 4166   0.976   0.744   4.530
 1089SOL    HW2 4167   0.853   0.688   4.622
 1090SOL     OW 4168   2.864   1.510   4.020
 1090SOL    HW1 4169   2.957   1.527   3.987
 1090SOL    HW2 4170   2.855   1.542   4.114
 1091SOL     OW 4171   1.816   2.013   4.049
 1091SOL    HW1 4172   1.884   1.950   4.013
 1091SOL    HW2 4173   1.750   1.962   4.105
 1092SOL     OW 4174   2.175   3.604   1.499
 1092SOL    HW1 4175   2.080   3.580   1.518
 1092SOL    HW2 4176   2.192   3.699   1.526
 1093SOL     OW 4177   2.124   1.174   3.016
 1093SOL    HW1 4178   2.047   1.172   2.952
 1093SOL    HW2 4179   2.200   1.225   2.974
 1094SOL     OW 4180   6.874   6.467   2.300
 1094SOL    HW1 4181   6.945   6.477   2.371
 1094SOL    HW2 4182   6.838   6.374   2.302
 1095SOL     OW 4183   6.579   2.288   5.844
 1095SOL    HW1 4184   6.639   2.252   5.916
 1095SOL    HW2 4185   6.499   2.227   5.834
 1096SOL     OW 4186   3.511   4.752   1.482
 1096SOL    HW1 4187   3.459   4.824   1.435
 1096SOL    HW2 4188   3.458   4.668   1.483
 1097SOL     OW 4189   1.066   4.429   4.551
 1097SOL    HW1 4190   1.110   4.414   4.462
 1097SOL    HW2 4191   0.996   4.500   4.542
 1098SOL     OW 4192   5.522   2.843   0.900
 1098SOL    HW1 4193   5.430   2.812   0.877
 1098SOL    HW2 4194   5.521   2.942   0.916
 1099SOL     OW 4195   4.242   1.269   4.631
 1099SOL    HW1 4196   4.217   1.359   4.668
 1099SOL    HW2 4197   4.277   1.280   4.538
 1100SOL     OW 4198   1.556   1.584   6.123
 1100SOL    HW1 4199   1.484   1.518   6.103
 1100SOL    HW2 4200   1.541   1.667   6.069
 1101SOL     OW 4201   5.256   2.757   1.284
 1101SOL    HW1 4202   5.330   2.695   1.310
 1101SOL    HW2 4203   5.289   2.851   1.283
 1102SOL     OW 4204   1.584   4.610   3.584
 1102SOL    HW1 4205   1.615   4.563   3.666
 1102SOL    HW2 4206   1.627   4.700   3.578
 1103SOL     OW 4207   2.239   0.455   1.249
 1103SOL    HW1 4208   2.330   0.414   1.245
 1103SOL    HW2 4209   2.229   0.523   1.176
 1104SOL     OW 4210   1.865   4.107   6.085
 1104SOL    HW1 4211   1.862   4.013   6.052
 1104SOL    HW2 4212   1.942   4.117   6.149
 1105SOL     OW 4213   4.992   4.039   6.111
 1105SOL    HW1 4214   4.935   3.959   6.129
 1105SOL    HW2 4215   5.089   4.013   6.119
 1106SOL     OW 4216   1.286   1.714   0.267
 1106SOL    HW1 4217   1.259   1.741   0.359
 1106SOL    HW2 4218   1.212   1.663   0.224
 1107SOL     OW 4219   0.840   0.093   6.741
 1107SOL    HW1 4220   0.833   7.019   6.743
 1107SOL    HW2 4221   0.894   0.124   6.819
 1108SOL     OW 4222   2.427   0.439   5.787
 1108SOL    HW1 4223   2.339   0.427   5.834
 1108SOL    HW2 4224   2.460   0.349   5.757
 1109SOL     OW 4225   4.461   5.473   5.067
 1109SOL    HW1 4226   4.524   5.431   5.002
 1109SOL    HW2 4227   4.406   5.542   5.021
 1110SOL     OW 4228   3.486   1.814   2.112
 1110SOL    HW1 4229   3.420   1.806   2.038
 1110SOL    HW2 4230   3.483   1.907   2.150
 1111SOL     OW 4231   5.332   6.329   0.321
 1111SOL    HW1 4232   5.324   6.267   0.399
 1111SOL    HW2 4233   5.371   6.416   0.352
 1112SOL     OW 4234   6.142   1.015   2.753
 1112SOL    HW1 4235   6.163   1.038   2.659
 1112SOL    HW2 4236   6.130   0.916   2.761
 1113SOL     OW 4237   6.213   3.025   2.447
 1113SOL    HW1 4238   6.210   3.019   2.347
 1113SOL    HW2 4239   6.307   3.045   2.476
 1114SOL     OW 4240   4.852   0.930   6.409
 1114SOL    HW1 4241   4.791   0.959   6.482
 1114SOL    HW2 4242   4.947   0.928   6.442
 1115SOL     OW 4243   4.746   3.146   0.300
 1115SOL    HW1 4244   4.787   3.236   0.317
 1115SOL    HW2 4245   4.699   3.115   0.383
 1116SOL     OW 4246   5.135   5.419   4.213
 1116SOL    HW1 4247   5.071   5.483   4.170
 1116SOL    HW2 4248   5.198   5.469   4.272
 1117SOL     OW 4249   2.798   2.617   1.409
 1117SOL    HW1 4250   2.827   2.587   1.500
 1117SOL    HW2 4251   2.802   2.540   1.346
 1118SOL     OW 4252   1.233   5.104   2.258
 1118SOL    HW1 4253   1.200   5.027   2.312
 1118SOL    HW2 4254   1.213   5.189   2.305
 1119SOL     OW 4255   3.539   4.025   0.855
 1119SOL    HW1 4256   3.553   4.033   0.954
 1119SOL    HW2 4257   3.512   3.932   0.832
 1120SOL     OW 4258   5.256   6.545   5.870
 1120SOL    HW1 4259   5.240   6.459   5.821
 1120SOL    HW2 4260   5.232   6.622   5.811
 1121SOL     OW 4261   5.149   3.212   2.800
 1121SOL    HW1 4262   5.086   3.261   2.740
 1121SOL    HW2 4263   5.102   3.184   2.883
 1122SOL     OW 4264   4.955   2.754   5.959
 1122SOL    HW1 4265   4.960   2.682   6.028
 1122SOL    HW2 4266   4.921   2.715   5.873
 1123SOL     OW 4267   4.768   1.665   2.156
 1123SOL    HW1 4268   4.693   1.692   2.217
 1123SOL    HW2 4269   4.828   1.743   2.141
 1124SOL     OW 4270   7.004   4.125   5.091
 1124SOL    HW1 4271   7.008   4.031   5.123
 1124SOL    HW2 4272   0.061   4.174   5.119
 1125SOL     OW 4273   2.681   2.040   4.960
 1125SOL    HW1 4274   2.666   2.119   5.020
 1125SOL    HW2 4275   2.598   2.022   4.908
 1126SOL     OW 4276   4.984   0.035   6.726
 1126SOL    HW1 4277   5.044   7.009   6.787
 1126SOL    HW2 4278   4.937   0.106   6.779
 1127SOL     OW 4279   3.310   5.095   5.506
 1127SOL    HW1 4280   3.249   5.144   5.443
 1127SOL    HW2 4281   3.292   5.124   5.600
 1128SOL     OW 4282   4.432   2.432   4.684
 1128SOL    HW1 4283   4.430   2.518   4.634
 1128SOL    HW2 4284   4.461   2.448   4.778
 1129SOL     OW 4285   3.778   0.076   0.069
 1129SOL    HW1 4286   3.874   0.088   0.044
 1129SOL    HW2 4287   3.766   0.100   0.166
 1130SOL     OW 4288   1.384   4.151   0.351
 1130SOL    HW1 4289   1.454   4.205   0.398
 1130SOL    HW2 4290   1.391   4.164   0.252
 1131SOL     OW 4291   0.374   6.081   5.715
 1131SOL    HW1 4292   0.309   6.071   5.791
 1131SOL    HW2 4293   0.399   6.178   5.705
 1132SOL     OW 4294   4.572   0.367   6.909
 1132SOL    HW1 4295   4.552   0.335   6.816
 1132SOL    HW2 4296   4.540   0.299   6.975
 1133SOL     OW 4297   6.908   2.425   1.062
 1133SOL    HW1 4298   6.822   2.374   1.068
 1133SOL    HW2 4299   6.908   2.480   0.979
 1134SOL     OW 4300   5.614   2.026   0.163
 1134SOL    HW1 4301   5.538   2.088   0.140
 1134SOL    HW2 4302   5.593   1.934   0.129
 1135SOL     OW 4303   3.134   1.866   2.711
 1135SOL    HW1 4304   3.221   1.915   2.722
 1135SOL    HW2 4305   3.076   1.884   2.791
 1136SOL     OW 4306   3.117   4.880   4.634
 1136SOL    HW1 4307   3.205   4.922   4.658
 1136SOL    HW2 4308   3.079   4.835   4.714
 1137SOL     OW 4309   1.070   3.074   0.121
 1137SOL    HW1 4310   1.096   3.113   0.033
 1137SOL    HW2 4311   1.049   2.977   0.110
 1138SOL     OW 4312   1.956   2.019   6.017
 1138SOL    HW1 4313   2.025   1.948   6.032
 1138SOL    HW2 4314   1.870   1.976   5.988
 1139SOL     OW 4315   2.684   6.581   2.622
 1139SOL    HW1 4316   2.690   6.681   2.627
 1139SOL    HW2 4317   2.773   6.541   2.645
 1140SOL     OW 4318   4.024   2.126   2.394
 1140SOL    HW1 4319   4.092   2.198   2.382
 1140SOL    HW2 4320   3.947   2.142   2.333
 1141SOL     OW 4321   6.055   5.872   5.813
 1141SOL    HW1 4322   6.120   5.797   5.826
 1141SOL    HW2 4323   6.098   5.958   5.838
 1142SOL     OW 4324   4.843   0.474   4.928
 1142SOL    HW1 4325   4.758   0.426   4.904
 1142SOL    HW2 4326   4.909   0.464   4.854
 1143SOL     OW 4327   3.650   2.060   2.694
 1143SOL    HW1 4328   3.743   2.090   2.671
 1143SOL    HW2 4329   3.592   2.067   2.613
 1144SOL     OW 4330   6.744   4.084   4.620
 1144SOL    HW1 4331   6.722   4.161   4.561
 1144SOL    HW2 4332   6.780   4.117   4.707
 1145SOL     OW 4333   0.166   5.275   3.459
 1145SOL    HW1 4334   0.231   5.203   3.434
 1145SOL    HW2 4335   0.184   5.357   3.404
 1146SOL     OW 4336   5.478   1.136   1.076
 1146SOL    HW1 4337   5.485   1.052   1.130
 1146SOL    HW2 4338   5.388   1.178   1.091
 1147SOL     OW 4339   1.144   4.063   1.067
 1147SOL    HW1 4340   1.157   4.049   1.165
 1147SOL    HW2 4341   1.221   4.114   1.030
 1148SOL     OW 4342   2.914   6.289   0.036
 1148SOL    HW1 4343   2.916   6.196   0.000
 1148SOL    HW2 4344   3.005   6.330   0.028
 1149SOL     OW 4345   5.480   3.573   2.994
 1149SOL    HW1 4346   5.540   3.652   2.986
 1149SOL    HW2 4347   5.388   3.603   3.020
 1150SOL     OW 4348   2.274   4.281   1.623
 1150SOL    HW1 4349   2.349   4.296   1.687
 1150SOL    HW2 4350   2.225   4.367   1.608
 1151SOL     OW 4351   5.118   5.997   6.531
 1151SOL    HW1 4352   5.029   6.042   6.534
 1151SOL    HW2 4353   5.178   6.038   6.600
 1152SOL     OW 4354   0.990   0.033   5.005
 1152SOL    HW1 4355   0.940   0.093   5.067
 1152SOL    HW2 4356   1.029   6.982   5.057
 1153SOL     OW 4357   3.048   6.740   2.514
 1153SOL    HW1 4358   3.117   6.671   2.537
 1153SOL    HW2 4359   2.995   6.763   2.596
 1154SOL     OW 4360   0.460   3.400   1.721
 1154SOL    HW1 4361   0.463   3.335   1.645
 1154SOL    HW2 4362   0.419   3.356   1.801
 1155SOL     OW 4363   3.617   5.334   6.695
 1155SOL    HW1 4364   3.681   5.270   6.737
 1155SOL    HW2 4365   3.659   5.376   6.615
 1156SOL     OW 4366   2.387   0.565   4.042
 1156SOL    HW1 4367   2.459   0.582   3.974
 1156SOL    HW2 4368   2.333   0.648   4.054
 1157SOL     OW 4369   6.420   2.160   4.480
 1157SOL    HW1 4370   6.499   2.174   4.420
 1157SOL    HW2 4371   6.358   2.093   4.438
 1158SOL     OW 4372   6.312   5.321   5.671
 1158SOL    HW1 4373   6.225   5.371   5.676
 1158SOL    HW2 4374   6.294   5.224   5.653
 1159SOL     OW 4375   4.733   0.816   2.693
 1159SOL    HW1 4376   4.774   0.876   2.762
 1159SOL    HW2 4377   4.786   0.731   2.687
 1160SOL     OW 4378   3.426   3.759   1.566
 1160SOL    HW1 4379   3.466   3.680   1.613
 1160SOL    HW2 4380   3.394   3.731   1.476
 1161SOL     OW 4381   4.870   0.055   5.237
 1161SOL    HW1 4382   4.966   0.026   5.233
 1161SOL    HW2 4383   4.818   0.005   5.168
 1162SOL     OW 4384   3.796   3.107   0.955
 1162SOL    HW1 4385   3.791   3.206   0.951
 1162SOL    HW2 4386   3.718   3.068   0.905
 1163SOL     OW 4387   5.248   2.746   1.984
 1163SOL    HW1 4388   5.286   2.806   2.055
 1163SOL    HW2 4389   5.288   2.655   1.992
 1164SOL     OW 4390   5.712   2.603   3.976
 1164SOL    HW1 4391   5.668   2.664   4.042
 1164SOL    HW2 4392   5.754   2.526   4.024
 1165SOL     OW 4393   2.073   4.044   3.607
 1165SOL    HW1 4394   2.059   3.995   3.693
 1165SOL    HW2 4395   2.153   4.104   3.616
 1166SOL     OW 4396   3.640   0.991   6.977
 1166SOL    HW1 4397   3.596   1.066   6.928
 1166SOL    HW2 4398   3.686   0.931   6.912
 1167SOL     OW 4399   2.862   0.351   5.831
 1167SOL    HW1 4400   2.775   0.362   5.878
 1167SOL    HW2 4401   2.897   0.441   5.804
 1168SOL     OW 4402   5.938   0.018   2.455
 1168SOL    HW1 4403   6.028   0.057   2.475
 1168SOL    HW2 4404   5.919   0.028   2.357
 1169SOL     OW 4405   0.291   3.126   0.599
 1169SOL    HW1 4406   0.365   3.169   0.651
 1169SOL    HW2 4407   0.298   3.153   0.503
 1170SOL     OW 4408   4.054   0.711   1.832
 1170SOL    HW1 4409   4.030   0.760   1.916
 1170SOL    HW2 4410   3.999   0.747   1.757
 1171SOL     OW 4411   2.802   5.870   0.399
 1171SOL    HW1 4412   2.789   5.963   0.367
 1171SOL    HW2 4413   2.857   5.871   0.482
 1172SOL     OW 4414   3.070   3.896   3.920
 1172SOL    HW1 4415   2.987   3.949   3.905
 1172SOL    HW2 4416   3.105   3.863   3.833
 1173SOL     OW 4417   3.709   6.951   5.803
 1173SOL    HW1 4418   3.623   6.986   5.767
 1173SOL    HW2 4419   3.779   6.952   5.731
 1174SOL     OW 4420   3.069   5.623   1.214
 1174SOL    HW1 4421   2.987   5.669   1.249
 1174SOL    HW2 4422   3.124   5.589   1.290
 1175SOL     OW 4423   5.209   3.903   6.913
 1175SOL    HW1 4424   5.263   3.945   6.986
 1175SOL    HW2 4425   5.203   3.804   6.929
 1176SOL     OW 4426   6.253   4.469   0.331
 1176SOL    HW1 4427   6.258   4.560   0.372
 1176SOL    HW2 4428   6.340   4.422   0.343
 1177SOL     OW 4429   0.399   2.217   5.337
 1177SOL    HW1 4430   0.351   2.153   5.398
 1177SOL    HW2 4431   0.373   2.198   5.242
 1178SOL     OW 4432   4.628   3.947   1.721
 1178SOL    HW1 4433   4.671   3.946   1.811
 1178SOL    HW2 4434   4.607   4.041   1.695
 1179SOL     OW 4435   2.317   4.746   0.493
 1179SOL    HW1 4436   2.272   4.706   0.573
 1179SOL    HW2 4437   2.317   4.846   0.503
 1180SOL     OW 4438   2.799   0.847   4.036
 1180SOL    HW1 4439   2.770   0.814   4.126
 1180SOL    HW2 4440   2.720   0.880   3.985
 1181SOL     OW 4441   1.196   3.201   4.220
 1181SOL    HW1 4442   1.291   3.187   4.250
 1181SOL    HW2 4443   1.166   3.292   4.247
 1182SOL     OW 4444   2.083   4.628   3.177
 1182SOL    HW1 4445   2.118   4.543   3.215
 1182SOL    HW2 4446   2.143   4.659   3.103
 1183SOL     OW 4447   4.301   5.227   2.340
 1183SOL    HW1 4448   4.346   5.214   2.428
 1183SOL    HW2 4449   4.252   5.144   2.314
 1184SOL     OW 4450   3.602   2.324   5.550
 1184SOL    HW1 4451   3.610   2.422   5.532
 1184SOL    HW2 4452   3.506   2.297   5.547
 1185SOL     OW 4453   2.215   0.400   0.563
 1185SOL    HW1 4454   2.291   0.344   0.529
 1185SOL    HW2 4455   2.223   0.493   0.528
 1186SOL     OW 4456   6.266   0.238   6.095
 1186SOL    HW1 4457   6.266   0.335   6.070
 1186SOL    HW2 4458   6.174   0.201   6.083
 1187SOL     OW 4459   5.402   6.183   5.257
 1187SOL    HW1 4460   5.447   6.198   5.346
 1187SOL    HW2 4461   5.343   6.261   5.236
 1188SOL     OW 4462   3.325   6.716   6.544
 1188SOL    HW1 4463   3.236   6.683   6.576
 1188SOL    HW2 4464   3.338   6.687   6.449
 1189SOL     OW 4465   5.003   1.360   1.981
 1189SOL    HW1 4466   5.061   1.378   2.060
 1189SOL    HW2 4467   5.000   1.261   1.963
 1190SOL     OW 4468   4.066   4.805   4.434
 1190SOL    HW1 4469   4.024   4.883   4.481
 1190SOL    HW2 4470   4.132   4.761   4.494
 1191SOL     OW 4471   3.340   5.176   5.776
 1191SOL    HW1 4472   3.261   5.220   5.819
 1191SOL    HW2 4473   3.394   5.129   5.846
 1192SOL     OW 4474   5.526   4.642   3.133
 1192SOL    HW1 4475   5.431   4.651   3.102
 1192SOL    HW2 4476   5.533   4.565   3.196
 1193SOL     OW 4477   6.498   0.269   4.340
 1193SOL    HW1 4478   6.576   0.207   4.345
 1193SOL    HW2 4479   6.484   0.311   4.430
 1194SOL     OW 4480   0.340   1.340   0.650
 1194SOL    HW1 4481   0.347   1.291   0.563
 1194SOL    HW2 4482   0.414   1.407   0.657
 1195SOL     OW 4483   6.225   1.776   0.648
 1195SOL    HW1 4484   6.132   1.739   0.649
 1195SOL    HW2 4485   6.227   1.860   0.594
 1196SOL     OW 4486   7.006   5.010   1.882
 1196SOL    HW1 4487   7.011   4.965   1.793
 1196SOL    HW2 4488   6.912   5.038   1.901
 1197SOL     OW 4489   3.875   5.857   5.700
 1197SOL    HW1 4490   3.939   5.923   5.662
 1197SOL    HW2 4491   3.835   5.893   5.784
 1198SOL     OW 4492   2.290   2.848   2.294
 1198SOL    HW1 4493   2.259   2.762   2.335
 1198SOL    HW2 4494   2.389   2.853   2.298
 1199SOL     OW 4495   4.175   3.583   3.114
 1199SOL    HW1 4496   4.127   3.670   3.120
 1199SOL    HW2 4497   4.142   3.521   3.185
 1200SOL     OW 4498   4.372   3.592   5.265
 1200SOL    HW1 4499   4.459   3.611   5.219
 1200SOL    HW2 4500   4.379   3.506   5.316
 1201SOL     OW 4501   0.528   1.255   4.338
 1201SOL    HW1 4502   0.600   1.197   4.300
 1201SOL    HW2 4503   0.567   1.316   4.406
 1202SOL     OW 4504   5.942   0.945   5.945
 1202SOL    HW1 4505   6.023   0.970   5.998
 1202SOL    HW2 4506   5.966   0.875   5.877
 1203SOL     OW 4507   5.669   6.737   1.001
 1203SOL    HW1 4508   5.571   6.731   1.023
 1203SOL    HW2 4509   5.686   6.690   0.914
 1204SOL     OW 4510   4.065   1.436   0.123
 1204SOL    HW1 4511   4.044   1.339   0.113
 1204SOL    HW2 4512   3.981   1.486   0.144
 1205SOL     OW 4513   5.402   3.253   6.706
 1205SOL    HW1 4514   5.410   3.240   6.607
 1205SOL    HW2 4515   5.388   3.165   6.750
 1206SOL     OW 4516   1.681   1.382   5.028
 1206SOL    HW1 4517   1.700   1.323   4.950
 1206SOL    HW2 4518   1.628   1.462   4.998
 1207SOL     OW 4519   6.603   6.646   1.115
 1207SOL    HW1 4520   6.664   6.662   1.193
 1207SOL    HW2 4521   6.656   6.614   1.037
 1208SOL     OW 4522   3.452   4.078   2.816
 1208SOL    HW1 4523   3.424   3.983   2.825
 1208SOL    HW2 4524   3.457   4.103   2.719
 1209SOL     OW 4525   5.816   6.548   4.922
 1209SOL    HW1 4526   5.760   6.581   4.998
 1209SOL    HW2 4527   5.880   6.620   4.894
 1210SOL     OW 4528   4.354   0.004   2.793
 1210SOL    HW1 4529   4.393   6.958   2.736
 1210SOL    HW2 4530   4.360   7.003   2.889
 1211SOL     OW 4531   1.577   3.383   3.736
 1211SOL    HW1 4532   1.507   3.320   3.770
 1211SOL    HW2 4533   1.565   3.473   3.778
 1212SOL     OW 4534   0.537   2.915   5.365
 1212SOL    HW1 4535   0.619   2.868   5.399
 1212SOL    HW2 4536   0.551   2.940   5.269
 1213SOL     OW 4537   6.264   2.447   4.838
 1213SOL    HW1 4538   6.220   2.361   4.811
 1213SOL    HW2 4539   6.234   2.471   4.931
 1214SOL     OW 4540   1.423   3.184   3.877
 1214SOL    HW1 4541   1.472   3.194   3.964
 1214SOL    HW2 4542   1.402   3.088   3.862
 1215SOL     OW 4543   1.906   4.438   2.260
 1215SOL    HW1 4544   1.870   4.440   2.166
 1215SOL    HW2 4545   1.998   4.401   2.260
 1216SOL     OW 4546   0.165   6.999   1.470
 1216SOL    HW1 4547   0.227   6.929   1.503
 1216SOL    HW2 4548   0.163   6.997   1.370
 1217SOL     OW 4549   1.268   6.697   1.002
 1217SOL    HW1 4550   1.240   6.608   0.966
 1217SOL    HW2 4551   1.262   6.696   1.102
 1218SOL     OW 4552   1.107   2.743   4.891
 1218SOL    HW1 4553   1.041   2.684   4.846
 1218SOL    HW2 4554   1.123   2.711   4.985
 1219SOL     OW 4555   4.375   5.006   1.120
 1219SOL    HW1 4556   4.340   4.993   1.213
 1219SOL    HW2 4557   4.299   5.034   1.061
 1220SOL     OW 4558   5.166   3.805   2.346
 1220SOL    HW1 4559   5.166   3.905   2.347
 1220SOL    HW2 4560   5.182   3.773   2.252
 1221SOL     OW 4561   6.254   3.434   6.784
 1221SOL    HW1 4562   6.335   3.384   6.814
 1221SOL    HW2 4563   6.281   3.527   6.756
 1222SOL     OW 4564   6.888   0.370   0.734
 1222SOL    HW1 4565   6.959   0.321   0.786
 1222SOL    HW2 4566   6.910   0.468   0.731
 1223SOL     OW 4567   5.377   0.912   0.742
 1223SOL    HW1 4568   5.390   0.974   0.664
 1223SOL    HW2 4569   5.466   0.883   0.777
 1224SOL     OW 4570   3.459   6.083   6.969
 1224SOL    HW1 4571   3.555   6.057   6.965
 1224SOL    HW2 4572   3.405   6.018   6.916
 1225SOL     OW 4573   3.849   2.065   1.017
 1225SOL    HW1 4574   3.818   2.134   1.083
 1225SOL    HW2 4575   3.945   2.044   1.034
 1226SOL     OW 4576   5.718   6.617   0.769
 1226SOL    HW1 4577   5.686   6.584   0.681
 1226SOL    HW2 4578   5.802   6.570   0.795
 1227SOL     OW 4579   6.137   5.037   5.599
 1227SOL    HW1 4580   6.069   4.964   5.608
 1227SOL    HW2 4581   6.218   5.014   5.652
 1228SOL     OW 4582   3.750   2.973   1.203
 1228SOL    HW1 4583   3.790   3.002   1.115
 1228SOL    HW2 4584   3.653   2.996   1.205
 1229SOL     OW 4585   1.715   7.024   2.124
 1229SOL    HW1 4586   1.700   6.959   2.050
 1229SOL    HW2 4587   1.651   0.074   2.115
 1230SOL     OW 4588   5.201   5.615   3.010
 1230SOL    HW1 4589   5.105   5.628   2.982
 1230SOL    HW2 4590   5.222   5.518   3.014
 1231SOL     OW 4591   1.543   2.870   6.101
 1231SOL    HW1 4592   1.552   2.818   6.017
 1231SOL    HW2 4593   1.479   2.946   6.087
 1232SOL     OW 4594   4.631   1.192   5.323
 1232SOL    HW1 4595   4.565   1.120   5.299
 1232SOL    HW2 4596   4.585   1.264   5.375
 1233SOL     OW 4597   0.657   5.292   3.465
 1233SOL    HW1 4598   0.725   5.238   3.513
 1233SOL    HW2 4599   0.702   5.354   3.402
 1234SOL     OW 4600   0.132   2.896   6.871
 1234SOL    HW1 4601   0.220   2.935   6.897
 1234SOL    HW2 4602   0.068   2.970   6.850
 1235SOL     OW 4603   6.217   5.541   6.818
 1235SOL    HW1 4604   6.222   5.612   6.888
 1235SOL    HW2 4605   6.178   5.458   6.858
 1236SOL     OW 4606   3.165   1.755   0.352
 1236SOL    HW1 4607   3.212   1.669   0.331
 1236SOL    HW2 4608   3.228   1.817   0.399
 1237SOL     OW 4609   1.501   6.570   4.926
 1237SOL    HW1 4610   1.442   6.535   4.853
 1237SOL    HW2 4611   1.587   6.518   4.927
 1238SOL     OW 4612   0.351   6.650   3.351
 1238SOL    HW1 4613   0.389   6.571   3.302
 1238SOL    HW2 4614   0.419   6.685   3.416
 1239SOL     OW 4615   6.928   5.174   4.785
 1239SOL    HW1 4616   6.985   5.233   4.843
 1239SOL    HW2 4617   6.973   5.161   4.697
 1240SOL     OW 4618   5.768   5.636   2.333
 1240SOL    HW1 4619   5.708   5.609   2.408
 1240SOL    HW2 4620   5.831   5.562   2.313
 1241SOL     OW 4621   6.734   4.908   4.739
 1241SOL    HW1 4622   6.698   4.948   4.823
 1241SOL    HW2 4623   6.658   4.891   4.676
 1242SOL     OW 4624   1.904   4.092   0.171
 1242SOL    HW1 4625   1.972   4.163   0.191
 1242SOL    HW2 4626   1.897   4.080   0.072
 1243SOL     OW 4627   0.336   2.145   5.077
 1243SOL    HW1 4628   0.401   2.073   5.052
 1243SOL    HW2 4629   0.335   2.215   5.006
 1244SOL     OW 4630   5.126   6.830   5.269
 1244SOL    HW1 4631   5.219   6.795   5.261
 1244SOL    HW2 4632   5.090   6.809   5.360
 1245SOL     OW 4633   5.209   5.661   1.063
 1245SOL    HW1 4634   5.262   5.713   1.131
 1245SOL    HW2 4635   5.114   5.692   1.064
 1246SOL     OW 4636   4.198   1.297   1.868
 1246SOL    HW1 4637   4.192   1.391   1.900
 1246SOL    HW2 4638   4.222   1.237   1.944
 1247SOL     OW 4639   6.288   6.736   4.603
 1247SOL    HW1 4640   6.212   6.801   4.606
 1247SOL    HW2 4641   6.354   6.765   4.533
 1248SOL     OW 4642   0.879   6.262   4.056
 1248SOL    HW1 4643   0.886   6.335   3.987
 1248SOL    HW2 4644   0.788   6.221   4.052
 1249SOL     OW 4645   6.798   4.194   1.437
 1249SOL    HW1 4646   6.698   4.206   1.438
 1249SOL    HW2 4647   6.823   4.125   1.505
 1250SOL     OW 4648   6.310   3.648   5.581
 1250SOL    HW1 4649   6.336   3.727   5.526
 1250SOL    HW2 4650   6.391   3.593   5.601
 1251SOL     OW 4651   1.843   0.920   2.721
 1251SOL    HW1 4652   1.915   0.858   2.688
 1251SOL    HW2 4653   1.809   0.888   2.809
 1252SOL     OW 4654   3.395   5.312   6.556
 1252SOL    HW1 4655   3.320   5.289   6.618
 1252SOL    HW2 4656   3.481   5.315   6.608
 1253SOL     OW 4657   3.043   1.014   1.541
 1253SOL    HW1 4658   3.043   1.060   1.452
 1253SOL    HW2 4659   3.077   1.077   1.611
 1254SOL     OW 4660   6.476   1.486   3.207
 1254SOL    HW1 4661   6.534   1.540   3.146
 1254SOL    HW2 4662   6.522   1.475   3.295
 1255SOL     OW 4663   5.618   2.844   5.272
 1255SOL    HW1 4664   5.548   2.795   5.220
 1255SOL    HW2 4665   5.690   2.877   5.210
 1256SOL     OW 4666   6.671   6.316   3.192
 1256SOL    HW1 4667   6.744   6.373   3.230
 1256SOL    HW2 4668   6.614   6.280   3.265
 1257SOL     OW 4669   7.001   4.478   4.428
 1257SOL    HW1 4670   7.010   4.432   4.517
 1257SOL    HW2 4671   6.922   4.441   4.380
 1258SOL     OW 4672   2.181   6.245   3.155
 1258SOL    HW1 4673   2.134   6.194   3.083
 1258SOL    HW2 4674   2.122   6.249   3.236
 1259SOL     OW 4675   3.669   6.855   4.926
 1259SOL    HW1 4676   3.722   6.770   4.932
 1259SOL    HW2 4677   3.572   6.834   4.939
 1260SOL     OW 4678   3.034   0.938   2.086
 1260SOL    HW1 4679   3.071   0.886   2.164
 1260SOL    HW2 4680   2.934   0.940   2.092
 1261SOL     OW 4681   6.904   3.468   0.355
 1261SOL    HW1 4682   6.926   3.563   0.379
 1261SOL    HW2 4683   6.828   3.467   0.290
 1262SOL     OW 4684   4.511   4.346   1.209
 1262SOL    HW1 4685   4.510   4.377   1.304
 1262SOL    HW2 4686   4.527   4.424   1.148
 1263SOL     OW 4687   6.146   2.166   1.566
 1263SOL    HW1 4688   6.238   2.185   1.531
 1263SOL    HW2 4689   6.084   2.147   1.490
 1264SOL     OW 4690   0.110   4.383   3.041
 1264SOL    HW1 4691   0.019   4.366   3.079
 1264SOL    HW2 4692   0.169   4.305   3.060
 1265SOL     OW 4693   6.642   4.489   4.015
 1265SOL    HW1 4694   6.737   4.499   3.984
 1265SOL    HW2 4695   6.581   4.498   3.936
 1266SOL     OW 4696   2.482   1.364   4.296
 1266SOL    HW1 4697   2.582   1.372   4.300
 1266SOL    HW2 4698   2.441   1.456   4.299
 1267SOL     OW 4699   5.979   5.651   1.548
 1267SOL    HW1 4700   6.014   5.723   1.488
 1267SOL    HW2 4701   5.880   5.658   1.555
 1268SOL     OW 4702   5.027   2.418   0.517
 1268SOL    HW1 4703   5.116   2.373   0.524
 1268SOL    HW2 4704   5.025   2.475   0.435
 1269SOL     OW 4705   6.171   6.501   5.065
 1269SOL    HW1 4706   6.127   6.573   5.118
 1269SOL    HW2 4707   6.165   6.414   5.115
 1270SOL     OW 4708   2.108   3.944   4.225
 1270SOL    HW1 4709   2.016   3.980   4.239
 1270SOL    HW2 4710   2.161   3.954   4.309
 1271SOL     OW 4711   3.548   1.696   2.815
 1271SOL    HW1 4712   3.520   1.749   2.895
 1271SOL    HW2 4713   3.569   1.602   2.843
 1272SOL     OW 4714   0.065   6.067   1.238
 1272SOL    HW1 4715   0.123   6.049   1.317
 1272SOL    HW2 4716   0.093   6.008   1.162
 1273SOL     OW 4717   2.074   3.858   6.970
 1273SOL    HW1 4718   2.012   3.904   6.905
 1273SOL    HW2 4719   2.146   3.811   6.919
 1274SOL     OW 4720   6.990   2.952   1.543
 1274SOL    HW1 4721   0.025   3.019   1.586
 1274SOL    HW2 4722   0.017   2.870   1.519
 1275SOL     OW 4723   4.748   0.597   3.530
 1275SOL    HW1 4724   4.838   0.553   3.533
 1275SOL    HW2 4725   4.683   0.542   3.582
 1276SOL     OW 4726   6.990   0.293   3.781
 1276SOL    HW1 4727   6.933   0.261   3.857
 1276SOL    HW2 4728   6.942   0.276   3.695
 1277SOL     OW 4729   1.052   0.871   4.451
 1277SOL    HW1 4730   1.135   0.844   4.501
 1277SOL    HW2 4731   1.064   0.964   4.415
 1278SOL     OW 4732   1.833   1.756   5.185
 1278SOL    HW1 4733   1.862   1.843   5.144
 1278SOL    HW2 4734   1.816   1.769   5.282
 1279SOL     OW 4735   2.016   6.958   0.810
 1279SOL    HW1 4736   1.993   6.955   0.713
 1279SOL    HW2 4737   2.017   6.866   0.847
 1280SOL     OW 4738   2.590   6.579   3.497
 1280SOL    HW1 4739   2.660   6.616   3.437
 1280SOL    HW2 4740   2.558   6.491   3.461
 1281SOL     OW 4741   1.197   5.584   2.962
 1281SOL    HW1 4742   1.205   5.492   3.002
 1281SOL    HW2 4743   1.130   5.582   2.887
 1282SOL     OW 4744   0.937   1.175   0.666
 1282SOL    HW1 4745   0.856   1.185   0.607
 1282SOL    HW2 4746   0.908   1.159   0.760
 1283SOL     OW 4747   5.444   3.177   5.354
 1283SOL    HW1 4748   5.535   3.140   5.374
 1283SOL    HW2 4749   5.374   3.112   5.385
 1284SOL     OW 4750   3.166   2.938   1.853
 1284SOL    HW1 4751   3.082   2.897   1.816
 1284SOL    HW2 4752   3.175   2.915   1.950
 1285SOL     OW 4753   5.515   3.599   6.224
 1285SOL    HW1 4754   5.456   3.519   6.210
 1285SOL    HW2 4755   5.528   3.615   6.322
 1286SOL     OW 4756   4.517   4.609   2.755
 1286SOL    HW1 4757   4.480   4.660   2.678
 1286SOL    HW2 4758   4.550   4.520   2.723
 1287SOL     OW 4759   5.371   4.515   6.261
 1287SOL    HW1 4760   5.461   4.518   6.305
 1287SOL    HW2 4761   5.303   4.552   6.323
 1288SOL     OW 4762   6.815   3.274   1.435
 1288SOL    HW1 4763   6.790   3.184   1.470
 1288SOL    HW2 4764   6.743   3.308   1.375
 1289SOL     OW 4765   0.715   6.210   1.689
 1289SOL    HW1 4766   0.623   6.171   1.687
 1289SOL    HW2 4767   0.710   6.307   1.714
 1290SOL     OW 4768   0.624   0.877   0.330
 1290SOL    HW1 4769   0.594   0.935   0.254
 1290SOL    HW2 4770   0.647   0.936   0.408
 1291SOL     OW 4771   1.607   4.529   6.124
 1291SOL    HW1 4772   1.683   4.468   6.105
 1291SOL    HW2 4773   1.562   4.555   6.038
 1292SOL     OW 4774   6.659   4.974   2.379
 1292SOL    HW1 4775   6.689   5.065   2.353
 1292SOL    HW2 4776   6.563   4.978   2.409
 1293SOL     OW 4777   2.913   1.614   6.198
 1293SOL    HW1 4778   2.838   1.556   6.165
 1293SOL    HW2 4779   2.976   1.633   6.123
 1294SOL     OW 4780   0.620   2.842   0.687
 1294SOL    HW1 4781   0.680   2.910   0.730
 1294SOL    HW2 4782   0.665   2.802   0.607
 1295SOL     OW 4783   6.507   3.592   2.594
 1295SOL    HW1 4784   6.510   3.683   2.553
 1295SOL    HW2 4785   6.596   3.548   2.583
 1296SOL     OW 4786   4.111   1.158   6.056
 1296SOL    HW1 4787   4.166   1.187   6.134
 1296SOL    HW2 4788   4.165   1.098   5.997
 1297SOL     OW 4789   5.891   0.813   6.499
 1297SOL    HW1 4790   5.934   0.877   6.564
 1297SOL    HW2 4791   5.792   0.821   6.506
 1298SOL     OW 4792   6.246   3.266   3.497
 1298SOL    HW1 4793   6.189   3.348   3.504
 1298SOL    HW2 4794   6.199   3.190   3.543
 1299SOL     OW 4795   1.420   4.030   2.988
 1299SOL    HW1 4796   1.409   3.934   2.960
 1299SOL    HW2 4797   1.514   4.044   3.020
 1300SOL     OW 4798   3.863   3.438   2.149
 1300SOL    HW1 4799   3.792   3.369   2.161
 1300SOL    HW2 4800   3.932   3.405   2.085
 1301SOL     OW 4801   1.153   5.558   2.455
 1301SOL    HW1 4802   1.213   5.635   2.434
 1301SOL    HW2 4803   1.058   5.585   2.442
 1302SOL     OW 4804   2.889   6.895   4.882
 1302SOL    HW1 4805   2.918   6.923   4.791
 1302SOL    HW2 4806   2.952   6.826   4.918
 1303SOL     OW 4807   4.385   1.739   0.421
 1303SOL    HW1 4808   4.306   1.795   0.449
 1303SOL    HW2 4809   4.369   1.703   0.329
 1304SOL     OW 4810   2.134   1.641   6.480
 1304SOL    HW1 4811   2.117   1.684   6.568
 1304SOL    HW2 4812   2.076   1.684   6.410
 1305SOL     OW 4813   6.036   5.744   6.744
 1305SOL    HW1 4814   6.040   5.697   6.832
 1305SOL    HW2 4815   6.114   5.716   6.688
 1306SOL     OW 4816   0.357   4.741   5.686
 1306SOL    HW1 4817   0.405   4.795   5.617
 1306SOL    HW2 4818   0.417   4.669   5.720
 1307SOL     OW 4819   1.850   3.093   3.827
 1307SOL    HW1 4820   1.884   3.135   3.912
 1307SOL    HW2 4821   1.847   2.994   3.839
 1308SOL     OW 4822   3.690   5.906   4.656
 1308SOL    HW1 4823   3.681   5.812   4.623
 1308SOL    HW2 4824   3.762   5.910   4.726
 1309SOL     OW 4825   5.136   3.095   5.425
 1309SOL    HW1 4826   5.140   3.155   5.345
 1309SOL    HW2 4827   5.134   3.151   5.508
 1310SOL     OW 4828   5.835   3.620   5.080
 1310SOL    HW1 4829   5.747   3.637   5.124
 1310SOL    HW2 4830   5.826   3.631   4.981
 1311SOL     OW 4831   6.415   6.438   4.057
 1311SOL    HW1 4832   6.476   6.516   4.072
 1311SOL    HW2 4833   6.327   6.471   4.022
 1312SOL     OW 4834   0.754   0.374   6.796
 1312SOL    HW1 4835   0.657   0.396   6.800
 1312SOL    HW2 4836   0.769   0.283   6.835
 1313SOL     OW 4837   2.031   5.658   5.391
 1313SOL    HW1 4838   2.082   5.703   5.464
 1313SOL    HW2 4839   2.026   5.559   5.409
 1314SOL     OW 4840   1.837   1.708   5.659
 1314SOL    HW1 4841   1.834   1.647   5.739
 1314SOL    HW2 4842   1.932   1.718   5.629
 1315SOL     OW 4843   0.856   1.189   0.184
 1315SOL    HW1 4844   0.887   1.118   0.121
 1315SOL    HW2 4845   0.762   1.170   0.213
 1316SOL     OW 4846   2.396   0.297   3.361
 1316SOL    HW1 4847   2.319   0.313   3.300
 1316SOL    HW2 4848   2.473   0.356   3.336
 1317SOL     OW 4849   0.918   4.150   4.877
 1317SOL    HW1 4850   0.831   4.115   4.912
 1317SOL    HW2 4851   0.920   4.138   4.777
 1318SOL     OW 4852   0.111   0.948   0.517
 1318SOL    HW1 4853   0.014   0.974   0.508
 1318SOL    HW2 4854   0.134   0.944   0.614
 1319SOL     OW 4855   6.756   1.723   0.097
 1319SOL    HW1 4856   6.776   1.687   0.006
 1319SOL    HW2 4857   6.837   1.712   0.156
 1320SOL     OW 4858   5.784   4.086   0.048
 1320SOL    HW1 4859   5.736   4.143   0.115
 1320SOL    HW2 4860   5.758   3.990   0.063
 1321SOL     OW 4861   4.154   2.695   6.643
 1321SOL    HW1 4862   4.129   2.676   6.548
 1321SOL    HW2 4863   4.253   2.705   6.650
 1322SOL     OW 4864   5.504   0.966   3.380
 1322SOL    HW1 4865   5.528   0.944   3.286
 1322SOL    HW2 4866   5.414   1.009   3.383
 1323SOL     OW 4867   5.080   2.228   5.252
 1323SOL    HW1 4868   5.060   2.303   5.315
 1323SOL    HW2 4869   5.115   2.150   5.303
 1324SOL     OW 4870   1.275   2.452   1.643
 1324SOL    HW1 4871   1.273   2.410   1.734
 1324SOL    HW2 4872   1.225   2.395   1.579
 1325SOL     OW 4873   3.186   0.114   2.027
 1325SOL    HW1 4874   3.263   0.134   2.086
 1325SOL    HW2 4875   3.214   0.052   1.954
 1326SOL     OW 4876   5.018   2.800   4.715
 1326SOL    HW1 4877   5.013   2.783   4.616
 1326SOL    HW2 4878   4.948   2.746   4.761
 1327SOL     OW 4879   3.064   5.740   2.833
 1327SOL    HW1 4880   2.975   5.728   2.879
 1327SOL    HW2 4881   3.128   5.673   2.868
 1328SOL     OW 4882   0.945   3.256   0.313
 1328SOL    HW1 4883   0.993   3.182   0.267
 1328SOL    HW2 4884   1.011   3.318   0.356
 1329SOL     OW 4885   6.917   1.569   0.414
 1329SOL    HW1 4886   6.950   1.492   0.468
 1329SOL    HW2 4887   6.956   1.565   0.322
 1330SOL     OW 4888   6.883   6.935   0.891
 1330SOL    HW1 4889   6.824   6.998   0.842
 1330SOL    HW2 4890   6.977   6.945   0.859
 1331SOL     OW 4891   4.387   2.045   3.023
 1331SOL    HW1 4892   4.458   1.994   3.071
 1331SOL    HW2 4893   4.325   1.981   2.978
 1332SOL     OW 4894   3.211   0.394   0.101
 1332SOL    HW1 4895   3.200   0.410   0.003
 1332SOL    HW2 4896   3.122   0.373   0.142
 1333SOL     OW 4897   4.225   4.034   6.436
 1333SOL    HW1 4898   4.216   4.128   6.402
 1333SOL    HW2 4899   4.144   4.011   6.491
 1334SOL     OW 4900   0.619   2.934   4.321
 1334SOL    HW1 4901   0.627   2.864   4.392
 1334SOL    HW2 4902   0.681   3.010   4.343
 1335SOL     OW 4903   3.092   6.393   3.067
 1335SOL    HW1 4904   3.164   6.437   3.119
 1335SOL    HW2 4905   3.130   6.355   2.983
 1336SOL     OW 4906   1.909   1.088   6.310
 1336SOL    HW1 4907   1.971   1.057   6.383
 1336SOL    HW2 4908   1.879   1.010   6.256
 1337SOL     OW 4909   0.998   2.167   4.830
 1337SOL    HW1 4910   1.057   2.132   4.903
 1337SOL    HW2 4911   0.914   2.203   4.870
 1338SOL     OW 4912   4.499   3.876   6.073
 1338SOL    HW1 4913   4.526   3.953   6.016
 1338SOL    HW2 4914   4.407   3.891   6.109
 1339SOL     OW 4915   0.425   6.601   0.068
 1339SOL    HW1 4916   0.460   6.694   0.079
 1339SOL    HW2 4917   0.500   6.536   0.073
 1340SOL     OW 4918   0.996   1.293   1.824
 1340SOL    HW1 4919   0.917   1.352   1.812
 1340SOL    HW2 4920   0.979   1.205   1.780
 1341SOL     OW 4921   3.802   0.263   5.554
 1341SOL    HW1 4922   3.773   0.182   5.503
 1341SOL    HW2 4923   3.801   0.342   5.494
 1342SOL     OW 4924   1.140   5.372   6.172
 1342SOL    HW1 4925   1.060   5.399   6.119
 1342SOL    HW2 4926   1.161   5.443   6.239
 1343SOL     OW 4927   4.172   6.833   2.665
 1343SOL    HW1 4928   4.179   6.740   2.701
 1343SOL    HW2 4929   4.244   6.889   2.706
 1344SOL     OW 4930   7.023   3.561   3.352
 1344SOL    HW1 4931   6.950   3.505   3.393
 1344SOL    HW2 4932   0.085   3.515   3.365
 1345SOL     OW 4933   0.719   1.536   3.428
 1345SOL    HW1 4934   0.710   1.437   3.420
 1345SOL    HW2 4935   0.677   1.567   3.513
 1346SOL     OW 4936   1.727   0.112   2.720
 1346SOL    HW1 4937   1.758   0.087   2.811
 1346SOL    HW2 4938   1.789   0.075   2.651
 1347SOL     OW 4939   6.401   6.114   3.836
 1347SOL    HW1 4940   6.382   6.207   3.804
 1347SOL    HW2 4941   6.393   6.110   3.935
 1348SOL     OW 4942   5.853   5.226   3.089
 1348SOL    HW1 4943   5.859   5.211   2.991
 1348SOL    HW2 4944   5.772   5.282   3.110
 1349SOL     OW 4945   5.076   2.785   6.592
 1349SOL    HW1 4946   5.104   2.873   6.552
 1349SOL    HW2 4947   5.051   2.799   6.688
 1350SOL     OW 4948   4.076   4.889   7.017
 1350SOL    HW1 4949   4.121   4.815   6.967
 1350SOL    HW2 4950   4.142   4.961   0.011
 1351SOL     OW 4951   0.710   1.210   3.111
 1351SOL    HW1 4952   0.735   1.259   3.027
 1351SOL    HW2 4953   0.621   1.165   3.097
 1352SOL     OW 4954   0.191   0.606   3.333
 1352SOL    HW1 4955   0.264   0.646   3.390
 1352SOL    HW2 4956   0.232   0.558   3.256
 1353SOL     OW 4957   7.025   4.195   5.700
 1353SOL    HW1 4958   6.975   4.187   5.614
 1353SOL    HW2 4959   6.979   4.262   5.759
 1354SOL     OW 4960   6.777   1.769   0.734
 1354SOL    HW1 4961   6.698   1.714   0.707
 1354SOL    HW2 4962   6.861   1.718   0.715
 1355SOL     OW 4963   5.189   3.087   6.202
 1355SOL    HW1 4964   5.191   3.115   6.298
 1355SOL    HW2 4965   5.283   3.082   6.167
 1356SOL     OW 4966   3.543   3.615   4.585
 1356SOL    HW1 4967   3.470   3.591   4.648
 1356SOL    HW2 4968   3.547   3.714   4.574
 1357SOL     OW 4969   2.922   2.968   5.838
 1357SOL    HW1 4970   2.901   3.030   5.913
 1357SOL    HW2 4971   2.838   2.938   5.794
 1358SOL     OW 4972   2.945   2.167   6.239
 1358SOL    HW1 4973   2.888   2.087   6.259
 1358SOL    HW2 4974   3.042   2.143   6.253
 1359SOL     OW 4975   6.790   4.473   1.110
 1359SOL    HW1 4976   6.820   4.428   1.025
 1359SOL    HW2 4977   6.870   4.496   1.166
 1360SOL     OW 4978   4.101   3.702   2.870
 1360SOL    HW1 4979   4.109   3.649   2.954
 1360SOL    HW2 4980   4.172   3.772   2.867
 1361SOL     OW 4981   6.695   6.852   6.457
 1361SOL    HW1 4982   6.738   6.936   6.427
 1361SOL    HW2 4983   6.651   6.807   6.379
 1362SOL     OW 4984   3.021   3.824   5.163
 1362SOL    HW1 4985   3.022   3.732   5.124
 1362SOL    HW2 4986   3.115   3.858   5.171
 1363SOL     OW 4987   6.810   6.426   4.274
 1363SOL    HW1 4988   6.756   6.414   4.357
 1363SOL    HW2 4989   6.759   6.392   4.196
 1364SOL     OW 4990   6.900   2.407   6.912
 1364SOL    HW1 4991   6.935   2.491   6.953
 1364SOL    HW2 4992   6.848   2.429   6.830
 1365SOL     OW 4993   1.479   3.415   5.243
 1365SOL    HW1 4994   1.391   3.372   5.223
 1365SOL    HW2 4995   1.467   3.486   5.313
 1366SOL     OW 4996   0.449   3.793   1.164
 1366SOL    HW1 4997   0.470   3.791   1.262
 1366SOL    HW2 4998   0.354   3.766   1.150
 1367SOL     OW 4999   1.274   5.045   2.923
 1367SOL    HW1 5000   1.334   5.111   2.876
 1367SOL    HW2 5001   1.186   5.040   2.875
 1368SOL     OW 5002   6.685   0.530   3.991
 1368SOL    HW1 5003   6.591   0.514   3.961
 1368SOL    HW2 5004   6.692   0.623   4.028
 1369SOL     OW 5005   2.309   6.438   2.063
 1369SOL    HW1 5006   2.284   6.532   2.037
 1369SOL    HW2 5007   2.299   6.378   1.983
 1370SOL     OW 5008   6.589   2.161   4.238
 1370SOL    HW1 5009   6.677   2.145   4.192
 1370SOL    HW2 5010   6.529   2.214   4.178
 1371SOL     OW 5011   5.051   0.964   4.666
 1371SOL    HW1 5012   5.117   0.998   4.734
 1371SOL    HW2 5013   5.013   1.041   4.616
 1372SOL     OW 5014   6.710   2.262   1.030
 1372SOL    HW1 5015   6.740   2.258   0.935
 1372SOL    HW2 5016   6.678   2.172   1.059
 1373SOL     OW 5017   5.080   1.792   0.637
 1373SOL    HW1 5018   5.149   1.784   0.709
 1373SOL    HW2 5019   5.011   1.860   0.663
 1374SOL     OW 5020   5.340   4.353   0.009
 1374SOL    HW1 5021   5.343   4.297   6.952
 1374SOL    HW2 5022   5.361   4.296   0.088
 1375SOL     OW 5023   6.886   6.665   6.247
 1375SOL    HW1 5024   6.937   6.649   6.331
 1375SOL    HW2 5025   6.892   6.762   6.222
 1376SOL     OW 5026   3.196   4.867   6.205
 1376SOL    HW1 5027   3.269   4.907   6.151
 1376SOL    HW2 5028   3.230   4.843   6.296
 1377SOL     OW 5029   1.049   2.757   3.793
 1377SOL    HW1 5030   0.992   2.791   3.717
 1377SOL    HW2 5031   0.993   2.701   3.854
 1378SOL     OW 5032   5.169   2.466   4.885
 1378SOL    HW1 5033   5.111   2.505   4.957
 1378SOL    HW2 5034   5.231   2.536   4.850
 1379SOL     OW 5035   4.307   5.400   2.839
 1379SOL    HW1 5036   4.265   5.408   2.930
 1379SOL    HW2 5037   4.403   5.375   2.849
 1380SOL     OW 5038   6.981   6.122   2.768
 1380SOL    HW1 5039   6.982   6.087   2.674
 1380SOL    HW2 5040   6.896   6.172   2.784
 1381SOL     OW 5041   5.763   1.618   6.859
 1381SOL    HW1 5042   5.717   1.680   6.795
 1381SOL    HW2 5043   5.812   1.548   6.807
 1382SOL     OW 5044   4.886   2.858   1.221
 1382SOL    HW1 5045   4.812   2.924   1.232
 1382SOL    HW2 5046   4.947   2.862   1.300
 1383SOL     OW 5047   1.018   0.238   1.239
 1383SOL    HW1 5048   1.102   0.277   1.202
 1383SOL    HW2 5049   0.994   0.155   1.189
 1384SOL     OW 5050   4.577   0.008   1.475
 1384SOL    HW1 5051   4.550   0.076   1.543
 1384SOL    HW2 5052   4.663   6.991   1.504
 1385SOL     OW 5053   2.355   4.716   3.481
 1385SOL    HW1 5054   2.369   4.810   3.449
 1385SOL    HW2 5055   2.301   4.717   3.565
 1386SOL     OW 5056   3.323   0.369   3.527
 1386SOL    HW1 5057   3.348   0.327   3.614
 1386SOL    HW2 5058   3.280   0.458   3.544
 1387SOL     OW 5059   2.993   5.671   2.225
 1387SOL    HW1 5060   2.945   5.674   2.313
 1387SOL    HW2 5061   2.960   5.593   2.172
 1388SOL     OW 5062   6.461   6.885   2.211
 1388SOL    HW1 5063   6.402   6.917   2.286
 1388SOL    HW2 5064   6.543   6.842   2.249
 1389SOL     OW 5065   5.946   2.113   4.250
 1389SOL    HW1 5066   5.927   2.157   4.162
 1389SOL    HW2 5067   5.993   2.177   4.310
 1390SOL     OW 5068   0.379   3.802   6.420
 1390SOL    HW1 5069   0.379   3.844   6.329
 1390SOL    HW2 5070   0.373   3.874   6.490
 1391SOL     OW 5071   5.960   6.743   4.784
 1391SOL    HW1 5072   6.009   6.830   4.775
 1391SOL    HW2 5073   6.026   6.668   4.784
 1392SOL     OW 5074   5.973   6.016   6.072
 1392SOL    HW1 5075   5.932   6.073   6.001
 1392SOL    HW2 5076   5.940   5.922   6.062
 1393SOL     OW 5077   6.334   4.867   5.402
 1393SOL    HW1 5078   6.295   4.782   5.436
 1393SOL    HW2 5079   6.381   4.850   5.315
 1394SOL     OW 5080   2.969   5.269   4.976
 1394SOL    HW1 5081   2.956   5.352   5.031
 1394SOL    HW2 5082   2.927   5.282   4.886
 1395SOL     OW 5083   2.506   4.166   5.525
 1395SOL    HW1 5084   2.436   4.151   5.456
 1395SOL    HW2 5085   2.596   4.154   5.485
 1396SOL     OW 5086   1.141   1.073   5.139
 1396SOL    HW1 5087   1.102   1.165   5.143
 1396SOL    HW2 5088   1.241   1.080   5.129
 1397SOL     OW 5089   0.546   0.137   3.815
 1397SOL    HW1 5090   0.542   0.204   3.741
 1397SOL    HW2 5091   0.600   0.058   3.787
 1398SOL     OW 5092   2.859   0.557   6.064
 1398SOL    HW1 5093   2.893   0.649   6.045
 1398SOL    HW2 5094   2.937   0.494   6.074
 1399SOL     OW 5095   3.494   5.353   0.486
 1399SOL    HW1 5096   3.544   5.294   0.549
 1399SOL    HW2 5097   3.501   5.448   0.517
 1400SOL     OW 5098   0.092   1.194   2.837
 1400SOL    HW1 5099   0.063   1.102   2.862
 1400SOL    HW2 5100   0.171   1.188   2.776
 1401SOL     OW 5101   6.434   1.561   4.624
 1401SOL    HW1 5102   6.422   1.659   4.638
 1401SOL    HW2 5103   6.345   1.518   4.612
 1402SOL     OW 5104   0.227   3.644   0.134
 1402SOL    HW1 5105   0.300   3.597   0.084
 1402SOL    HW2 5106   0.138   3.606   0.106
 1403SOL     OW 5107   2.188   2.305   1.784
 1403SOL    HW1 5108   2.282   2.302   1.819
 1403SOL    HW2 5109   2.143   2.389   1.816
 1404SOL     OW 5110   5.581   6.584   7.003
 1404SOL    HW1 5111   5.640   6.664   6.988
 1404SOL    HW2 5112   5.616   6.532   0.055
 1405SOL     OW 5113   1.912   4.015   1.212
 1405SOL    HW1 5114   1.993   4.024   1.154
 1405SOL    HW2 5115   1.906   4.093   1.274
 1406SOL     OW 5116   1.080   5.348   0.986
 1406SOL    HW1 5117   1.021   5.365   0.907
 1406SOL    HW2 5118   1.170   5.390   0.969
 1407SOL     OW 5119   0.443   2.110   2.506
 1407SOL    HW1 5120   0.413   2.133   2.598
 1407SOL    HW2 5121   0.543   2.115   2.501
 1408SOL     OW 5122   5.588   1.228   5.566
 1408SOL    HW1 5123   5.653   1.183   5.627
 1408SOL    HW2 5124   5.554   1.312   5.609
 1409SOL     OW 5125   0.792   0.834   5.215
 1409SOL    HW1 5126   0.825   0.919   5.172
 1409SOL    HW2 5127   0.775   0.766   5.145
 1410SOL     OW 5128   1.647   3.278   6.268
 1410SOL    HW1 5129   1.638   3.261   6.366
 1410SOL    HW2 5130   1.570   3.335   6.238
 1411SOL     OW 5131   3.066   6.471   1.297
 1411SOL    HW1 5132   3.104   6.535   1.364
 1411SOL    HW2 5133   3.137   6.407   1.268
 1412SOL     OW 5134   0.289   2.165   0.846
 1412SOL    HW1 5135   0.386   2.182   0.863
 1412SOL    HW2 5136   0.234   2.217   0.911
 1413SOL     OW 5137   1.748   1.868   5.421
 1413SOL    HW1 5138   1.808   1.947   5.420
 1413SOL    HW2 5139   1.767   1.812   5.502
 1414SOL     OW 5140   2.368   1.567   2.158
 1414SOL    HW1 5141   2.379   1.616   2.071
 1414SOL    HW2 5142   2.317   1.625   2.222
 1415SOL     OW 5143   2.304   0.519   4.686
 1415SOL    HW1 5144   2.404   0.519   4.690
 1415SOL    HW2 5145   2.271   0.614   4.684
 1416SOL     OW 5146   4.859   5.090   4.552
 1416SOL    HW1 5147   4.924   5.138   4.493
 1416SOL    HW2 5148   4.866   5.126   4.645
 1417SOL     OW 5149   2.675   2.291   0.259
 1417SOL    HW1 5150   2.757   2.239   0.234
 1417SOL    HW2 5151   2.594   2.233   0.248
 1418SOL     OW 5152   2.935   3.522   3.791
 1418SOL    HW1 5153   3.017   3.570   3.758
 1418SOL    HW2 5154   2.922   3.542   3.888
 1419SOL     OW 5155   2.401   5.574   4.688
 1419SOL    HW1 5156   2.303   5.582   4.709
 1419SOL    HW2 5157   2.413   5.525   4.602
 1420SOL     OW 5158   2.602   0.189   1.146
 1420SOL    HW1 5159   2.523   0.183   1.207
 1420SOL    HW2 5160   2.657   0.106   1.156
 1421SOL     OW 5161   1.994   4.152   3.351
 1421SOL    HW1 5162   1.901   4.190   3.356
 1421SOL    HW2 5163   2.015   4.105   3.437
 1422SOL     OW 5164   1.197   3.656   1.626
 1422SOL    HW1 5165   1.188   3.557   1.634
 1422SOL    HW2 5166   1.271   3.678   1.562
 1423SOL     OW 5167   5.526   6.310   2.942
 1423SOL    HW1 5168   5.561   6.393   2.898
 1423SOL    HW2 5169   5.563   6.302   3.034
 1424SOL     OW 5170   6.521   5.606   6.385
 1424SOL    HW1 5171   6.607   5.643   6.420
 1424SOL    HW2 5172   6.523   5.506   6.390
 1425SOL     OW 5173   1.121   6.375   4.839
 1425SOL    HW1 5174   1.148   6.360   4.934
 1425SOL    HW2 5175   1.123   6.288   4.790
 1426SOL     OW 5176   1.838   3.495   6.382
 1426SOL    HW1 5177   1.838   3.408   6.431
 1426SOL    HW2 5178   1.867   3.480   6.287
 1427SOL     OW 5179   0.204   6.805   3.764
 1427SOL    HW1 5180   0.284   6.828   3.708
 1427SOL    HW2 5181   0.230   6.734   3.830
 1428SOL     OW 5182   6.554   3.398   0.706
 1428SOL    HW1 5183   6.646   3.386   0.670
 1428SOL    HW2 5184   6.551   3.369   0.802
 1429SOL     OW 5185   4.825   2.278   0.110
 1429SOL    HW1 5186   4.730   2.255   0.091
 1429SOL    HW2 5187   4.843   2.270   0.208
 1430SOL     OW 5188   1.614   4.012   3.882
 1430SOL    HW1 5189   1.675   4.068   3.938
 1430SOL    HW2 5190   1.529   4.062   3.866
 1431SOL     OW 5191   2.533   2.256   1.148
 1431SOL    HW1 5192   2.433   2.246   1.143
 1431SOL    HW2 5193   2.556   2.348   1.179
 1432SOL     OW 5194   2.809   1.148   2.382
 1432SOL    HW1 5195   2.745   1.122   2.310
 1432SOL    HW2 5196   2.861   1.068   2.412
 1433SOL     OW 5197   3.877   0.665   5.500
 1433SOL    HW1 5198   3.970   0.696   5.482
 1433SOL    HW2 5199   3.818   0.743   5.519
 1434SOL     OW 5200   0.183   0.086   5.801
 1434SOL    HW1 5201   0.185   0.074   5.702
 1434SOL    HW2 5202   0.273   0.114   5.833
 1435SOL     OW 5203   5.958   0.380   3.213
 1435SOL    HW1 5204   6.007   0.293   3.209
 1435SOL    HW2 5205   5.860   0.363   3.218
 1436SOL     OW 5206   5.607   3.884   0.213
 1436SOL    HW1 5207   5.624   3.851   0.305
 1436SOL    HW2 5208   5.517   3.853   0.182
 1437SOL     OW 5209   3.014   2.213   3.511
 1437SOL    HW1 5210   2.916   2.212   3.529
 1437SOL    HW2 5211   3.063   2.191   3.595
 1438SOL     OW 5212   3.183   5.869   1.426
 1438SOL    HW1 5213   3.254   5.843   1.360
 1438SOL    HW2 5214   3.224   5.874   1.517
 1439SOL     OW 5215   7.007   5.641   1.292
 1439SOL    HW1 5216   0.026   5.555   1.312
 1439SOL    HW2 5217   6.942   5.663   1.365
 1440SOL     OW 5218   3.270   2.939   6.961
 1440SOL    HW1 5219   3.249   2.989   0.019
 1440SOL    HW2 5220   3.190   2.885   6.933
 1441SOL     OW 5221   6.286   0.504   4.103
 1441SOL    HW1 5222   6.281   0.496   4.203
 1441SOL    HW2 5223   6.221   0.573   4.072
 1442SOL     OW 5224   0.475   5.966   0.225
 1442SOL    HW1 5225   0.414   5.933   0.297
 1442SOL    HW2 5226   0.435   5.946   0.136
 1443SOL     OW 5227   0.516   3.063   3.612
 1443SOL    HW1 5228   0.505   3.087   3.709
 1443SOL    HW2 5229   0.613   3.060   3.589
 1444SOL     OW 5230   4.908   6.042   0.823
 1444SOL    HW1 5231   5.004   6.070   0.831
 1444SOL    HW2 5232   4.904   5.943   0.807
 1445SOL     OW 5233   0.934   2.795   3.294
 1445SOL    HW1 5234   0.997   2.834   3.227
 1445SOL    HW2 5235   0.981   2.722   3.344
 1446SOL     OW 5236   6.294   1.462   0.081
 1446SOL    HW1 5237   6.385   1.495   0.057
 1446SOL    HW2 5238   6.257   1.408   0.005
 1447SOL     OW 5239   5.766   6.069   4.290
 1447SOL    HW1 5240   5.854   6.030   4.262
 1447SOL    HW2 5241   5.781   6.156   4.335
 1448SOL     OW 5242   6.610   3.244   5.255
 1448SOL    HW1 5243   6.696   3.194   5.256
 1448SOL    HW2 5244   6.621   3.331   5.303
 1449SOL     OW 5245   1.685   3.322   5.724
 1449SOL    HW1 5246   1.749   3.292   5.795
 1449SOL    HW2 5247   1.701   3.418   5.703
 1450SOL     OW 5248   1.146   2.070   0.302
 1450SOL    HW1 5249   1.167   2.168   0.296
 1450SOL    HW2 5250   1.214   2.018   0.251
 1451SOL     OW 5251   0.895   5.655   2.427
 1451SOL    HW1 5252   0.837   5.654   2.346
 1451SOL    HW2 5253   0.853   5.713   2.498
 1452SOL     OW 5254   4.276   2.115   5.380
 1452SOL    HW1 5255   4.264   2.018   5.399
 1452SOL    HW2 5256   4.373   2.135   5.365
 1453SOL     OW 5257   0.610   4.216   6.036
 1453SOL    HW1 5258   0.550   4.294   6.055
 1453SOL    HW2 5259   0.700   4.249   6.010
 1454SOL     OW 5260   0.403   2.615   2.262
 1454SOL    HW1 5261   0.419   2.518   2.240
 1454SOL    HW2 5262   0.392   2.666   2.177
 1455SOL     OW 5263   1.561   6.723   1.908
 1455SOL    HW1 5264   1.605   6.668   1.837
 1455SOL    HW2 5265   1.572   6.820   1.886
 1456SOL     OW 5266   6.529   0.337   6.465
 1456SOL    HW1 5267   6.566   0.266   6.405
 1456SOL    HW2 5268   6.521   0.423   6.414
 1457SOL     OW 5269   0.851   6.247   1.029
 1457SOL    HW1 5270   0.850   6.173   0.962
 1457SOL    HW2 5271   0.944   6.263   1.061
 1458SOL     OW 5272   5.817   5.273   4.546
 1458SOL    HW1 5273   5.873   5.227   4.477
 1458SOL    HW2 5274   5.731   5.303   4.504
 1459SOL     OW 5275   3.956   6.606   5.770
 1459SOL    HW1 5276   3.941   6.636   5.675
 1459SOL    HW2 5277   3.897   6.659   5.831
 1460SOL     OW 5278   0.916   0.438   4.890
 1460SOL    HW1 5279   0.818   0.423   4.881
 1460SOL    HW2 5280   0.947   0.410   4.981
 1461SOL     OW 5281   6.820   4.201   2.629
 1461SOL    HW1 5282   6.733   4.197   2.581
 1461SOL    HW2 5283   6.876   4.121   2.605
 1462SOL     OW 5284   1.763   1.235   6.591
 1462SOL    HW1 5285   1.698   1.236   6.667
 1462SOL    HW2 5286   1.719   1.270   6.509
 1463SOL     OW 5287   0.285   5.616   5.891
 1463SOL    HW1 5288   0.273   5.557   5.812
 1463SOL    HW2 5289   0.382   5.621   5.915
 1464SOL     OW 5290   0.435   6.210   1.924
 1464SOL    HW1 5291   0.352   6.182   1.973
 1464SOL    HW2 5292   0.438   6.163   1.836
 1465SOL     OW 5293   1.573   1.121   4.146
 1465SOL    HW1 5294   1.524   1.062   4.082
 1465SOL    HW2 5295   1.663   1.145   4.108
 1466SOL     OW 5296   2.734   1.741   2.553
 1466SOL    HW1 5297   2.642   1.730   2.518
 1466SOL    HW2 5298   2.797   1.684   2.501
 1467SOL     OW 5299   2.085   1.272   3.728
 1467SOL    HW1 5300   2.068   1.237   3.636
 1467SOL    HW2 5301   2.160   1.221   3.770
 1468SOL     OW 5302   2.191   5.460   2.202
 1468SOL    HW1 5303   2.207   5.555   2.227
 1468SOL    HW2 5304   2.192   5.403   2.285
 1469SOL     OW 5305   6.801   0.390   2.687
 1469SOL    HW1 5306   6.737   0.329   2.734
 1469SOL    HW2 5307   6.851   0.444   2.756
 1470SOL     OW 5308   0.999   1.828   2.043
 1470SOL    HW1 5309   1.093   1.863   2.043
 1470SOL    HW2 5310   0.965   1.824   1.949
 1471SOL     OW 5311   0.750   0.180   0.751
 1471SOL    HW1 5312   0.824   0.225   0.799
 1471SOL    HW2 5313   0.717   0.239   0.677
 1472SOL     OW 5314   2.282   5.708   5.885
 1472SOL    HW1 5315   2.368   5.753   5.906
 1472SOL    HW2 5316   2.244   5.745   5.800
 1473SOL     OW 5317   3.577   5.337   5.713
 1473SOL    HW1 5318   3.497   5.279   5.697
 1473SOL    HW2 5319   3.575   5.414   5.649
 1474SOL     OW 5320   4.976   5.017   1.635
 1474SOL    HW1 5321   4.919   5.000   1.554
 1474SOL    HW2 5322   4.919   5.020   1.716
 1475SOL     OW 5323   5.218   0.710   1.142
 1475SOL    HW1 5324   5.161   0.642   1.187
 1475SOL    HW2 5325   5.167   0.752   1.066
 1476SOL     OW 5326   2.633   0.867   1.563
 1476SOL    HW1 5327   2.639   0.966   1.556
 1476SOL    HW2 5328   2.583   0.843   1.647
 1477SOL     OW 5329   3.549   6.641   5.973
 1477SOL    HW1 5330   3.599   6.714   6.019
 1477SOL    HW2 5331   3.484   6.599   6.037
 1478SOL     OW 5332   6.194   5.996   5.351
 1478SOL    HW1 5333   6.156   6.041   5.270
 1478SOL    HW2 5334   6.223   5.903   5.327
 1479SOL     OW 5335   2.443   3.002   1.248
 1479SOL    HW1 5336   2.383   2.950   1.187
 1479SOL    HW2 5337   2.503   3.060   1.193
 1480SOL     OW 5338   3.022   0.153   4.611
 1480SOL    HW1 5339   3.110   0.159   4.658
 1480SOL    HW2 5340   2.955   0.211   4.658
 1481SOL     OW 5341   5.947   3.073   6.250
 1481SOL    HW1 5342   5.987   3.062   6.160
 1481SOL    HW2 5343   6.019   3.070   6.320
 1482SOL     OW 5344   4.581   0.988   1.625
 1482SOL    HW1 5345   4.557   0.926   1.700
 1482SOL    HW2 5346   4.563   1.082   1.653
 1483SOL     OW 5347   5.203   2.265   5.575
 1483SOL    HW1 5348   5.139   2.325   5.528
 1483SOL    HW2 5349   5.213   2.180   5.523
 1484SOL     OW 5350   4.577   5.080   4.006
 1484SOL    HW1 5351   4.538   5.095   4.096
 1484SOL    HW2 5352   4.627   5.161   3.976
 1485SOL     OW 5353   4.583   0.625   4.645
 1485SOL    HW1 5354   4.594   0.528   4.625
 1485SOL    HW2 5355   4.668   0.661   4.683
 1486SOL     OW 5356   5.590   0.610   3.387
 1486SOL    HW1 5357   5.603   0.586   3.291
 1486SOL    HW2 5358   5.608   0.708   3.400
 1487SOL     OW 5359   0.339   2.318   0.159
 1487SOL    HW1 5360   0.248   2.282   0.181
 1487SOL    HW2 5361   0.401   2.242   0.139
 1488SOL     OW 5362   5.393   6.962   3.859
 1488SOL    HW1 5363   5.493   6.964   3.860
 1488SOL    HW2 5364   5.358   0.012   3.804
 1489SOL     OW 5365   4.150   5.104   6.407
 1489SOL    HW1 5366   4.068   5.161   6.406
 1489SOL    HW2 5367   4.168   5.075   6.501
 1490SOL     OW 5368   0.241   3.370   0.815
 1490SOL    HW1 5369   0.262   3.276   0.843
 1490SOL    HW2 5370   0.291   3.434   0.875
 1491SOL     OW 5371   6.513   4.713   2.341
 1491SOL    HW1 5372   6.535   4.794   2.288
 1491SOL    HW2 5373   6.570   4.636   2.312
 1492SOL     OW 5374   6.147   0.183   2.485
 1492SOL    HW1 5375   6.225   0.240   2.460
 1492SOL    HW2 5376   6.085   0.236   2.542
 1493SOL     OW 5377   3.811   6.930   6.300
 1493SOL    HW1 5378   3.834   0.001   6.293
 1493SOL    HW2 5379   3.728   6.919   6.355
 1494SOL     OW 5380   5.087   2.392   6.359
 1494SOL    HW1 5381   5.134   2.481   6.365
 1494SOL    HW2 5382   5.089   2.347   6.448
 1495SOL     OW 5383   0.515   3.879   5.234
 1495SOL    HW1 5384   0.576   3.854   5.308
 1495SOL    HW2 5385   0.494   3.977   5.240
 1496SOL     OW 5386   1.345   1.370   0.806
 1496SOL    HW1 5387   1.356   1.297   0.738
 1496SOL    HW2 5388   1.311   1.330   0.892
 1497SOL     OW 5389   5.113   2.736   2.666
 1497SOL    HW1 5390   5.144   2.830   2.652
 1497SOL    HW2 5391   5.031   2.736   2.723
 1498SOL     OW 5392   2.567   4.440   6.556
 1498SOL    HW1 5393   2.554   4.399   6.646
 1498SOL    HW2 5394   2.521   4.383   6.487
 1499SOL     OW 5395   0.565   2.484   5.585
 1499SOL    HW1 5396   0.570   2.471   5.486
 1499SOL    HW2 5397   0.521   2.571   5.605
 1500SOL     OW 5398   0.565   6.875   6.884
 1500SOL    HW1 5399   0.595   6.892   6.790
 1500SOL    HW2 5400   0.603   6.788   6.916
 1501SOL     OW 5401   5.461   2.221   6.559
 1501SOL    HW1 5402   5.384   2.241   6.499
 1501SOL    HW2 5403   5.547   2.246   6.514
 1502SOL     OW 5404   4.471   0.728   6.735
 1502SOL    HW1 5405   4.441   0.688   6.822
 1502SOL    HW2 5406   4.561   0.691   6.711
 1503SOL     OW 5407   1.301   2.873   2.285
 1503SOL    HW1 5408   1.217   2.923   2.307
 1503SOL    HW2 5409   1.278   2.790   2.235
 1504SOL     OW 5410   0.547   0.628   3.903
 1504SOL    HW1 5411   0.619   0.691   3.873
 1504SOL    HW2 5412   0.587   0.538   3.919
 1505SOL     OW 5413   4.408   0.385   5.274
 1505SOL    HW1 5414   4.478   0.389   5.202
 1505SOL    HW2 5415   4.335   0.450   5.253
 1506SOL     OW 5416   0.865   6.273   0.550
 1506SOL    HW1 5417   0.921   6.355   0.549
 1506SOL    HW2 5418   0.772   6.297   0.576
 1507SOL     OW 5419   0.120   1.948   5.653
 1507SOL    HW1 5420   0.169   1.878   5.704
 1507SOL    HW2 5421   0.110   2.030   5.710
 1508SOL     OW 5422   6.198   1.084   0.892
 1508SOL    HW1 5423   6.115   1.132   0.920
 1508SOL    HW2 5424   6.197   0.991   0.929
 1509SOL     OW 5425   4.593   1.980   4.798
 1509SOL    HW1 5426   4.598   1.980   4.898
 1509SOL    HW2 5427   4.607   1.887   4.764
 1510SOL     OW 5428   5.109   0.431   4.829
 1510SOL    HW1 5429   5.111   0.449   4.927
 1510SOL    HW2 5430   5.202   0.435   4.793
 1511SOL     OW 5431   4.100   3.450   3.869
 1511SOL    HW1 5432   4.006   3.422   3.886
 1511SOL    HW2 5433   4.163   3.384   3.909
 1512SOL     OW 5434   6.407   6.031   0.901
 1512SOL    HW1 5435   6.388   5.933   0.910
 1512SOL    HW2 5436   6.461   6.062   0.979
 1513SOL     OW 5437   3.772   0.810   4.695
 1513SOL    HW1 5438   3.794   0.882   4.761
 1513SOL    HW2 5439   3.850   0.748   4.686
 1514SOL     OW 5440   3.931   2.834   5.358
 1514SOL    HW1 5441   3.942   2.734   5.364
 1514SOL    HW2 5442   3.992   2.878   5.424
 1515SOL     OW 5443   5.343   2.462   2.030
 1515SOL    HW1 5444   5.407   2.405   1.980
 1515SOL    HW2 5445   5.351   2.443   2.128
 1516SOL     OW 5446   6.194   5.468   6.015
 1516SOL    HW1 5447   6.272   5.410   6.038
 1516SOL    HW2 5448   6.225   5.546   5.962
 1517SOL     OW 5449   4.116   5.891   2.528
 1517SOL    HW1 5450   4.120   5.890   2.428
 1517SOL    HW2 5451   4.028   5.931   2.557
 1518SOL     OW 5452   0.358   2.001   0.150
 1518SOL    HW1 5453   0.312   1.993   0.239
 1518SOL    HW2 5454   0.449   2.039   0.163
 1519SOL     OW 5455   6.602   4.568   1.460
 1519SOL    HW1 5456   6.526   4.595   1.519
 1519SOL    HW2 5457   6.686   4.561   1.515
 1520SOL     OW 5458   0.298   4.452   1.823
 1520SOL    HW1 5459   0.373   4.402   1.778
 1520SOL    HW2 5460   0.327   4.478   1.915
 1521SOL     OW 5461   2.156   4.198   6.111
 1521SOL    HW1 5462   2.182   4.218   6.205
 1521SOL    HW2 5463   2.219   4.129   6.073
 1522SOL     OW 5464   5.664   6.226   4.927
 1522SOL    HW1 5465   5.659   6.127   4.938
 1522SOL    HW2 5466   5.755   6.258   4.955
 1523SOL     OW 5467   4.067   6.583   0.095
 1523SOL    HW1 5468   3.991   6.551   0.151
 1523SOL    HW2 5469   4.152   6.573   0.147
 1524SOL     OW 5470   2.174   1.778   2.513
 1524SOL    HW1 5471   2.192   1.859   2.570
 1524SOL    HW2 5472   2.235   1.704   2.541
 1525SOL     OW 5473   6.449   3.631   0.838
 1525SOL    HW1 5474   6.489   3.723   0.838
 1525SOL    HW2 5475   6.498   3.574   0.771
 1526SOL     OW 5476   6.901   0.910   6.712
 1526SOL    HW1 5477   6.923   0.888   6.807
 1526SOL    HW2 5478   6.952   0.990   6.683
 1527SOL     OW 5479   4.085   1.707   4.561
 1527SOL    HW1 5480   4.163   1.768   4.555
 1527SOL    HW2 5481   4.100   1.640   4.634
 1528SOL     OW 5482   3.804   4.855   2.903
 1528SOL    HW1 5483   3.857   4.775   2.930
 1528SOL    HW2 5484   3.737   4.875   2.974
 1529SOL     OW 5485   4.068   0.244   0.085
 1529SOL    HW1 5486   4.072   0.322   0.147
 1529SOL    HW2 5487   4.114   0.166   0.128
 1530SOL     OW 5488   3.995   1.783   2.368
 1530SOL    HW1 5489   4.059   1.838   2.422
 1530SOL    HW2 5490   3.997   1.814   2.273
 1531SOL     OW 5491   4.535   6.924   5.456
 1531SOL    HW1 5492   4.509   7.016   5.426
 1531SOL    HW2 5493   4.529   6.861   5.378
 1532SOL     OW 5494   3.382   4.301   6.113
 1532SOL    HW1 5495   3.323   4.381   6.101
 1532SOL    HW2 5496   3.417   4.299   6.207
 1533SOL     OW 5497   6.147   5.314   7.012
 1533SOL    HW1 5498   6.082   5.378   0.027
 1533SOL    HW2 5499   6.098   5.238   6.970
 1534SOL     OW 5500   2.893   6.040   7.020
 1534SOL    HW1 5501   2.958   6.038   0.070
 1534SOL    HW2 5502   2.864   5.947   6.999
 1535SOL     OW 5503   4.783   6.205   4.308
 1535SOL    HW1 5504   4.850   6.274   4.277
 1535SOL    HW2 5505   4.831   6.128   4.348
 1536SOL     OW 5506   3.717   4.487   6.175
 1536SOL    HW1 5507   3.653   4.553   6.134
 1536SOL    HW2 5508   3.668   4.403   6.197
 1537SOL     OW 5509   4.199   5.941   3.735
 1537SOL    HW1 5510   4.121   5.971   3.790
 1537SOL    HW2 5511   4.281   5.940   3.792
 1538SOL     OW 5512   3.034   0.021   6.551
 1538SOL    HW1 5513   3.102   7.003   6.491
 1538SOL    HW2 5514   3.070   0.107   6.585
 1539SOL     OW 5515   4.980   3.562   2.173
 1539SOL    HW1 5516   5.074   3.561   2.141
 1539SOL    HW2 5517   4.930   3.484   2.134
 1540SOL     OW 5518   0.332   6.714   5.307
 1540SOL    HW1 5519   0.393   6.639   5.280
 1540SOL    HW2 5520   0.287   6.691   5.394
 1541SOL     OW 5521   3.325   2.930   4.498
 1541SOL    HW1 5522   3.404   2.913   4.439
 1541SOL    HW2 5523   3.344   2.899   4.591
 1542SOL     OW 5524   6.509   0.240   2.402
 1542SOL    HW1 5525   6.583   0.307   2.408
 1542SOL    HW2 5526   6.466   0.230   2.491
 1543SOL     OW 5527   3.547   4.884   5.159
 1543SOL    HW1 5528   3.540   4.932   5.247
 1543SOL    HW2 5529   3.635   4.905   5.117
 1544SOL     OW 5530   3.025   3.249   2.855
 1544SOL    HW1 5531   3.053   3.339   2.888
 1544SOL    HW2 5532   3.038   3.181   2.927
 1545SOL     OW 5533   5.121   0.554   2.795
 1545SOL    HW1 5534   5.057   0.519   2.864
 1545SOL    HW2 5535   5.193   0.606   2.841
 1546SOL     OW 5536   4.192   6.857   5.323
 1546SOL    HW1 5537   4.227   6.780   5.269
 1546SOL    HW2 5538   4.127   6.909   5.268
 1547SOL     OW 5539   2.065   3.926   1.571
 1547SOL    HW1 5540   2.022   3.838   1.589
 1547SOL    HW2 5541   2.164   3.918   1.577
 1548SOL     OW 5542   5.545   4.081   6.389
 1548SOL    HW1 5543   5.505   4.127   6.310
 1548SOL    HW2 5544   5.475   4.025   6.434
 1549SOL     OW 5545   4.477   2.282   1.623
 1549SOL    HW1 5546   4.496   2.273   1.525
 1549SOL    HW2 5547   4.439   2.372   1.641
 1550SOL     OW 5548   2.539   3.621   0.456
 1550SOL    HW1 5549   2.453   3.584   0.492
 1550SOL    HW2 5550   2.533   3.721   0.452
 1551SOL     OW 5551   1.930   4.213   6.433
 1551SOL    HW1 5552   1.941   4.306   6.397
 1551SOL    HW2 5553   2.017   4.164   6.427
 1552SOL     OW 5554   1.951   5.353   0.625
 1552SOL    HW1 5555   2.016   5.290   0.666
 1552SOL    HW2 5556   1.859   5.331   0.655
 1553SOL     OW 5557   6.707   1.632   6.844
 1553SOL    HW1 5558   6.776   1.594   6.783
 1553SOL    HW2 5559   6.690   1.728   6.819
 1554SOL     OW 5560   3.887   2.202   2.998
 1554SOL    HW1 5561   3.944   2.120   3.004
 1554SOL    HW2 5562   3.916   2.258   2.920
 1555SOL     OW 5563   5.552   2.988   0.220
 1555SOL    HW1 5564   5.463   3.022   0.248
 1555SOL    HW2 5565   5.585   3.042   0.142
 1556SOL     OW 5566   2.918   2.172   0.165
 1556SOL    HW1 5567   2.889   2.148   0.073
 1556SOL    HW2 5568   3.016   2.193   0.164
 1557SOL     OW 5569   1.840   2.203   5.240
 1557SOL    HW1 5570   1.794   2.283   5.279
 1557SOL    HW2 5571   1.886   2.153   5.313
 1558SOL     OW 5572   5.802   0.605   4.653
 1558SOL    HW1 5573   5.771   0.662   4.729
 1558SOL    HW2 5574   5.875   0.544   4.685
 1559SOL     OW 5575   1.765   3.118   6.926
 1559SOL    HW1 5576   1.809   3.172   6.998
 1559SOL    HW2 5577   1.773   3.167   6.839
 1560SOL     OW 5578   6.763   0.993   5.579
 1560SOL    HW1 5579   6.833   1.029   5.640
 1560SOL    HW2 5580   6.798   0.911   5.534
 1561SOL     OW 5581   6.026   6.256   3.911
 1561SOL    HW1 5582   6.058   6.247   3.817
 1561SOL    HW2 5583   6.056   6.177   3.965
 1562SOL     OW 5584   4.824   5.510   2.237
 1562SOL    HW1 5585   4.858   5.584   2.295
 1562SOL    HW2 5586   4.732   5.533   2.205
 1563SOL     OW 5587   2.074   6.689   5.396
 1563SOL    HW1 5588   2.062   6.787   5.382
 1563SOL    HW2 5589   2.014   6.639   5.334
 1564SOL     OW 5590   1.114   2.132   3.406
 1564SOL    HW1 5591   1.063   2.053   3.371
 1564SOL    HW2 5592   1.081   2.214   3.360
 1565SOL     OW 5593   4.524   4.622   3.735
 1565SOL    HW1 5594   4.546   4.558   3.808
 1565SOL    HW2 5595   4.450   4.682   3.764
 1566SOL     OW 5596   6.054   5.048   2.848
 1566SOL    HW1 5597   6.014   4.967   2.803
 1566SOL    HW2 5598   5.988   5.123   2.845
 1567SOL     OW 5599   6.332   6.011   0.626
 1567SOL    HW1 5600   6.311   5.913   0.627
 1567SOL    HW2 5601   6.369   6.038   0.715
 1568SOL     OW 5602   1.405   6.583   6.966
 1568SOL    HW1 5603   1.408   6.665   6.908
 1568SOL    HW2 5604   1.313   6.573   7.004
 1569SOL     OW 5605   4.761   6.047   3.205
 1569SOL    HW1 5606   4.790   6.016   3.296
 1569SOL    HW2 5607   4.841   6.059   3.147
 1570SOL     OW 5608   2.075   0.555   1.532
 1570SOL    HW1 5609   2.063   0.497   1.452
 1570SOL    HW2 5610   2.140   0.628   1.512
 1571SOL     OW 5611   5.360   2.508   0.864
 1571SOL    HW1 5612   5.386   2.473   0.774
 1571SOL    HW2 5613   5.361   2.608   0.862
 1572SOL     OW 5614   0.351   6.543   0.861
 1572SOL    HW1 5615   0.437   6.551   0.810
 1572SOL    HW2 5616   0.370   6.521   0.956
 1573SOL     OW 5617   5.550   2.581   2.616
 1573SOL    HW1 5618   5.626   2.521   2.589
 1573SOL    HW2 5619   5.491   2.597   2.537
 1574SOL     OW 5620   6.384   0.706   1.906
 1574SOL    HW1 5621   6.381   0.687   1.808
 1574SOL    HW2 5622   6.470   0.674   1.944
 1575SOL     OW 5623   3.263   1.406   0.885
 1575SOL    HW1 5624   3.216   1.321   0.860
 1575SOL    HW2 5625   3.321   1.436   0.809
 1576SOL     OW 5626   0.557   6.557   3.518
 1576SOL    HW1 5627   0.655   6.548   3.504
 1576SOL    HW2 5628   0.537   6.552   3.616
 1577SOL     OW 5629   3.197   2.180   4.554
 1577SOL    HW1 5630   3.283   2.150   4.595
 1577SOL    HW2 5631   3.174   2.271   4.587
 1578SOL     OW 5632   6.336   3.187   5.844
 1578SOL    HW1 5633   6.261   3.227   5.898
 1578SOL    HW2 5634   6.387   3.260   5.799
 1579SOL     OW 5635   6.944   1.643   2.734
 1579SOL    HW1 5636   6.882   1.719   2.712
 1579SOL    HW2 5637   7.025   1.678   2.781
 1580SOL     OW 5638   2.655   3.687   5.436
 1580SOL    HW1 5639   2.671   3.632   5.518
 1580SOL    HW2 5640   2.741   3.731   5.409
 1581SOL     OW 5641   0.431   4.362   4.938
 1581SOL    HW1 5642   0.395   4.268   4.935
 1581SOL    HW2 5643   0.528   4.359   4.961
 1582SOL     OW 5644   1.271   6.706   4.273
 1582SOL    HW1 5645   1.238   6.789   4.318
 1582SOL    HW2 5646   1.370   6.711   4.262
 1583SOL     OW 5647   0.979   4.455   3.767
 1583SOL    HW1 5648   1.071   4.447   3.805
 1583SOL    HW2 5649   0.936   4.366   3.766
 1584SOL     OW 5650   1.513   6.676   4.581
 1584SOL    HW1 5651   1.588   6.708   4.640
 1584SOL    HW2 5652   1.430   6.729   4.602
 1585SOL     OW 5653   5.812   1.214   3.574
 1585SOL    HW1 5654   5.889   1.259   3.528
 1585SOL    HW2 5655   5.729   1.267   3.561
 1586SOL     OW 5656   3.307   4.106   0.714
 1586SOL    HW1 5657   3.375   4.072   0.779
 1586SOL    HW2 5658   3.344   4.184   0.664
 1587SOL     OW 5659   2.790   5.688   6.943
 1587SOL    HW1 5660   2.789   5.778   6.900
 1587SOL    HW2 5661   2.822   5.697   0.011
 1588SOL     OW 5662   5.259   1.524   2.787
 1588SOL    HW1 5663   5.261   1.578   2.703
 1588SOL    HW2 5664   5.170   1.480   2.797
 1589SOL     OW 5665   6.266   4.140   2.574
 1589SOL    HW1 5666   6.263   4.043   2.601
 1589SOL    HW2 5667   6.185   4.162   2.520
 1590SOL     OW 5668   2.553   6.545   6.460
 1590SOL    HW1 5669   2.606   6.460   6.461
 1590SOL    HW2 5670   2.616   6.623   6.457
 1591SOL     OW 5671   0.881   4.839   2.797
 1591SOL    HW1 5672   0.798   4.894   2.808
 1591SOL    HW2 5673   0.856   4.750   2.760
 1592SOL     OW 5674   2.482   4.483   1.371
 1592SOL    HW1 5675   2.442   4.522   1.454
 1592SOL    HW2 5676   2.445   4.531   1.291
 1593SOL     OW 5677   0.664   6.247   3.723
 1593SOL    HW1 5678   0.742   6.281   3.776
 1593SOL    HW2 5679   0.580   6.259   3.776
 1594SOL     OW 5680   6.935   5.829   2.796
 1594SOL    HW1 5681   7.007   5.766   2.768
 1594SOL    HW2 5682   6.976   5.911   2.835
 1595SOL     OW 5683   0.989   5.186   6.948
 1595SOL    HW1 5684   1.031   5.210   6.861
 1595SOL    HW2 5685   0.946   5.267   6.988
 1596SOL     OW 5686   0.638   3.131   4.587
 1596SOL    HW1 5687   0.724   3.157   4.543
 1596SOL    HW2 5688   0.625   3.186   4.670
 1597SOL     OW 5689   2.603   6.030   0.127
 1597SOL    HW1 5690   2.613   6.095   0.052
 1597SOL    HW2 5691   2.676   6.046   0.194
 1598SOL     OW 5692   0.930   3.715   0.324
 1598SOL    HW1 5693   0.902   3.620   0.339
 1598SOL    HW2 5694   0.899   3.744   0.234
 1599SOL     OW 5695   5.102   4.170   5.731
 1599SOL    HW1 5696   5.154   4.238   5.679
 1599SOL    HW2 5697   5.078   4.094   5.671
 1600SOL     OW 5698   5.078   1.891   5.070
 1600SOL    HW1 5699   5.046   1.920   4.980
 1600SOL    HW2 5700   5.002   1.896   5.135
 1601SOL     OW 5701   0.218   4.604   4.204
 1601SOL    HW1 5702   0.228   4.599   4.105
 1601SOL    HW2 5703   0.214   4.512   4.243
 1602SOL     OW 5704   2.069   5.173   3.961
 1602SOL    HW1 5705   2.003   5.232   4.007
 1602SOL    HW2 5706   2.116   5.117   4.029
 1603SOL     OW 5707   0.369   5.909   2.365
 1603SOL    HW1 5708   0.429   5.953   2.298
 1603SOL    HW2 5709   0.311   5.842   2.319
 1604SOL     OW 5710   6.103   4.656   6.893
 1604SOL    HW1 5711   6.166   4.591   6.937
 1604SOL    HW2 5712   6.033   4.605   6.843
 1605SOL     OW 5713   6.231   6.295   2.307
 1605SOL    HW1 5714   6.238   6.241   2.223
 1605SOL    HW2 5715   6.269   6.242   2.383
 1606SOL     OW 5716   3.161   0.207   4.971
 1606SOL    HW1 5717   3.244   0.212   5.026
 1606SOL    HW2 5718   3.186   0.201   4.874
 1607SOL     OW 5719   4.262   2.524   0.451
 1607SOL    HW1 5720   4.312   2.566   0.527
 1607SOL    HW2 5721   4.173   2.569   0.441
 1608SOL     OW 5722   1.512   0.903   5.211
 1608SOL    HW1 5723   1.462   0.961   5.146
 1608SOL    HW2 5724   1.459   0.820   5.229
 1609SOL     OW 5725   4.442   0.590   6.970
 1609SOL    HW1 5726   4.482   0.505   6.934
 1609SOL    HW2 5727   4.440   0.585   0.044
 1610SOL     OW 5728   6.151   4.113   5.392
 1610SOL    HW1 5729   6.237   4.113   5.443
 1610SOL    HW2 5730   6.079   4.070   5.447
 1611SOL     OW 5731   3.050   3.519   1.849
 1611SOL    HW1 5732   2.967   3.465   1.862
 1611SOL    HW2 5733   3.130   3.461   1.865
 1612SOL     OW 5734   2.920   1.064   5.377
 1612SOL    HW1 5735   2.918   1.162   5.355
 1612SOL    HW2 5736   2.833   1.022   5.349
 1613SOL     OW 5737   1.935   6.256   2.002
 1613SOL    HW1 5738   1.853   6.206   2.029
 1613SOL    HW2 5739   2.008   6.192   1.979
 1614SOL     OW 5740   6.509   3.727   0.414
 1614SOL    HW1 5741   6.562   3.796   0.463
 1614SOL    HW2 5742   6.437   3.691   0.473
 1615SOL     OW 5743   6.229   4.715   0.843
 1615SOL    HW1 5744   6.301   4.719   0.773
 1615SOL    HW2 5745   6.267   4.681   0.929
 1616SOL     OW 5746   3.936   2.101   5.496
 1616SOL    HW1 5747   3.884   2.151   5.565
 1616SOL    HW2 5748   3.947   2.158   5.415
 1617SOL     OW 5749   6.223   6.656   1.428
 1617SOL    HW1 5750   6.263   6.622   1.514
 1617SOL    HW2 5751   6.296   6.668   1.361
 1618SOL     OW 5752   1.010   3.482   1.070
 1618SOL    HW1 5753   0.933   3.419   1.081
 1618SOL    HW2 5754   0.985   3.553   1.004
 1619SOL     OW 5755   1.027   1.732   3.675
 1619SOL    HW1 5756   1.115   1.685   3.670
 1619SOL    HW2 5757   1.005   1.771   3.585
 1620SOL     OW 5758   2.165   5.792   0.870
 1620SOL    HW1 5759   2.091   5.801   0.937
 1620SOL    HW2 5760   2.253   5.800   0.916
 1621SOL     OW 5761   1.094   1.586   0.098
 1621SOL    HW1 5762   0.998   1.592   0.073
 1621SOL    HW2 5763   1.120   1.490   0.110
 1622SOL     OW 5764   0.712   2.765   4.508
 1622SOL    HW1 5765   0.634   2.717   4.549
 1622SOL    HW2 5766   0.796   2.717   4.531
 1623SOL     OW 5767   2.612   3.274   5.806
 1623SOL    HW1 5768   2.571   3.347   5.751
 1623SOL    HW2 5769   2.567   3.270   5.895
 1624SOL     OW 5770   3.339   0.974   5.662
 1624SOL    HW1 5771   3.369   0.922   5.582
 1624SOL    HW2 5772   3.246   1.007   5.647
 1625SOL     OW 5773   1.513   5.920   1.979
 1625SOL    HW1 5774   1.502   5.857   1.902
 1625SOL    HW2 5775   1.431   5.976   1.989
 1626SOL     OW 5776   2.937   2.351   6.656
 1626SOL    HW1 5777   2.867   2.317   6.593
 1626SOL    HW2 5778   2.896   2.369   6.745
 1627SOL     OW 5779   6.469   2.333   4.075
 1627SOL    HW1 5780   6.492   2.313   3.980
 1627SOL    HW2 5781   6.421   2.420   4.080
 1628SOL     OW 5782   4.300   4.806   0.257
 1628SOL    HW1 5783   4.267   4.858   0.179
 1628SOL    HW2 5784   4.268   4.711   0.251
 1629SOL     OW 5785   2.693   1.932   4.480
 1629SOL    HW1 5786   2.733   1.886   4.559
 1629SOL    HW2 5787   2.682   1.867   4.405
 1630SOL     OW 5788   1.324   6.223   5.722
 1630SOL    HW1 5789   1.333   6.311   5.769
 1630SOL    HW2 5790   1.271   6.160   5.779
 1631SOL     OW 5791   0.364   1.316   6.285
 1631SOL    HW1 5792   0.372   1.278   6.193
 1631SOL    HW2 5793   0.271   1.347   6.301
 1632SOL     OW 5794   0.030   1.664   6.902
 1632SOL    HW1 5795   0.018   1.683   6.999
 1632SOL    HW2 5796   0.036   1.749   6.851
 1633SOL     OW 5797   5.173   2.033   3.943
 1633SOL    HW1 5798   5.174   2.070   3.851
 1633SOL    HW2 5799   5.078   2.018   3.972
 1634SOL     OW 5800   4.413   4.976   5.865
 1634SOL    HW1 5801   4.466   4.900   5.902
 1634SOL    HW2 5802   4.451   5.062   5.896
 1635SOL     OW 5803   6.346   5.506   5.225
 1635SOL    HW1 5804   6.388   5.458   5.147
 1635SOL    HW2 5805   6.402   5.493   5.306
 1636SOL     OW 5806   2.654   3.695   1.612
 1636SOL    HW1 5807   2.698   3.669   1.526
 1636SOL    HW2 5808   2.597   3.619   1.645
 1637SOL     OW 5809   6.980   0.491   3.118
 1637SOL    HW1 5810   0.013   0.411   3.110
 1637SOL    HW2 5811   6.975   0.518   3.214
 1638SOL     OW 5812   0.635   4.092   4.481
 1638SOL    HW1 5813   0.565   4.061   4.417
 1638SOL    HW2 5814   0.697   4.155   4.435
 1639SOL     OW 5815   4.448   0.304   2.960
 1639SOL    HW1 5816   4.497   0.220   2.937
 1639SOL    HW2 5817   4.472   0.376   2.895
 1640SOL     OW 5818   5.827   1.673   1.108
 1640SOL    HW1 5819   5.918   1.716   1.106
 1640SOL    HW2 5820   5.757   1.741   1.090
 1641SOL     OW 5821   5.115   2.981   4.144
 1641SOL    HW1 5822   5.168   2.953   4.064
 1641SOL    HW2 5823   5.052   3.054   4.119
 1642SOL     OW 5824   6.484   3.326   6.887
 1642SOL    HW1 5825   6.531   3.253   6.838
 1642SOL    HW2 5826   6.455   3.293   6.977
 1643SOL     OW 5827   2.474   5.317   4.055
 1643SOL    HW1 5828   2.488   5.218   4.057
 1643SOL    HW2 5829   2.484   5.349   3.961
 1644SOL     OW 5830   1.506   2.420   1.255
 1644SOL    HW1 5831   1.574   2.471   1.307
 1644SOL    HW2 5832   1.483   2.335   1.303
 1645SOL     OW 5833   2.920   6.337   5.422
 1645SOL    HW1 5834   3.004   6.320   5.370
 1645SOL    HW2 5835   2.844   6.352   5.360
 1646SOL     OW 5836   2.644   6.396   1.501
 1646SOL    HW1 5837   2.599   6.309   1.519
 1646SOL    HW2 5838   2.587   6.471   1.535
 1647SOL     OW 5839   5.610   2.620   4.480
 1647SOL    HW1 5840   5.561   2.533   4.483
 1647SOL    HW2 5841   5.561   2.683   4.419
 1648SOL     OW 5842   5.853   6.071   1.054
 1648SOL    HW1 5843   5.811   5.988   1.017
 1648SOL    HW2 5844   5.936   6.093   1.003
 1649SOL     OW 5845   3.759   0.438   3.714
 1649SOL    HW1 5846   3.711   0.493   3.783
 1649SOL    HW2 5847   3.739   0.475   3.623
 1650SOL     OW 5848   2.370   6.613   4.390
 1650SOL    HW1 5849   2.312   6.542   4.431
 1650SOL    HW2 5850   2.324   6.701   4.397
 1651SOL     OW 5851   1.179   1.144   1.637
 1651SOL    HW1 5852   1.107   1.213   1.635
 1651SOL    HW2 5853   1.156   1.074   1.705
 1652SOL     OW 5854   1.608   3.081   1.909
 1652SOL    HW1 5855   1.679   3.139   1.869
 1652SOL    HW2 5856   1.576   3.016   1.840
 1653SOL     OW 5857   0.321   6.607   1.528
 1653SOL    HW1 5858   0.225   6.629   1.509
 1653SOL    HW2 5859   0.362   6.681   1.582
 1654SOL     OW 5860   6.657   2.785   1.766
 1654SOL    HW1 5861   6.665   2.751   1.672
 1654SOL    HW2 5862   6.748   2.793   1.806
 1655SOL     OW 5863   5.904   3.280   5.386
 1655SOL    HW1 5864   5.959   3.324   5.456
 1655SOL    HW2 5865   5.937   3.187   5.371
 1656SOL     OW 5866   1.742   4.470   3.002
 1656SOL    HW1 5867   1.729   4.568   2.993
 1656SOL    HW2 5868   1.707   4.439   3.091
 1657SOL     OW 5869   6.910   0.713   4.334
 1657SOL    HW1 5870   7.003   0.720   4.300
 1657SOL    HW2 5871   6.903   0.762   4.421
 1658SOL     OW 5872   0.585   0.549   2.827
 1658SOL    HW1 5873   0.633   0.505   2.903
 1658SOL    HW2 5874   0.620   0.514   2.741
 1659SOL     OW 5875   3.491   1.404   5.891
 1659SOL    HW1 5876   3.556   1.394   5.966
 1659SOL    HW2 5877   3.441   1.318   5.879
 1660SOL     OW 5878   1.548   4.590   4.183
 1660SOL    HW1 5879   1.648   4.592   4.172
 1660SOL    HW2 5880   1.525   4.618   4.276
 1661SOL     OW 5881   3.147   1.550   1.581
 1661SOL    HW1 5882   3.139   1.649   1.573
 1661SOL    HW2 5883   3.105   1.519   1.667
 1662SOL     OW 5884   6.642   1.172   3.977
 1662SOL    HW1 5885   6.573   1.182   4.049
 1662SOL    HW2 5886   6.639   1.079   3.941
 1663SOL     OW 5887   3.211   1.322   3.062
 1663SOL    HW1 5888   3.143   1.377   3.014
 1663SOL    HW2 5889   3.164   1.256   3.122
 1664SOL     OW 5890   1.542   0.460   3.952
 1664SOL    HW1 5891   1.627   0.416   3.922
 1664SOL    HW2 5892   1.509   0.521   3.880
 1665SOL     OW 5893   6.560   1.539   2.653
 1665SOL    HW1 5894   6.468   1.540   2.614
 1665SOL    HW2 5895   6.624   1.505   2.584
 1666SOL     OW 5896   5.994   3.726   0.394
 1666SOL    HW1 5897   6.030   3.819   0.403
 1666SOL    HW2 5898   6.040   3.680   0.317
 1667SOL     OW 5899   5.418   6.658   1.123
 1667SOL    HW1 5900   5.452   6.692   1.211
 1667SOL    HW2 5901   5.431   6.559   1.118
 1668SOL     OW 5902   5.372   5.755   5.871
 1668SOL    HW1 5903   5.304   5.682   5.870
 1668SOL    HW2 5904   5.342   5.828   5.933
 1669SOL     OW 5905   6.043   6.739   0.421
 1669SOL    HW1 5906   6.142   6.723   0.415
 1669SOL    HW2 5907   6.023   6.788   0.506
 1670SOL     OW 5908   6.663   5.401   6.833
 1670SOL    HW1 5909   6.709   5.454   6.905
 1670SOL    HW2 5910   6.719   5.321   6.809
 1671SOL     OW 5911   4.303   2.387   0.848
 1671SOL    HW1 5912   4.392   2.385   0.801
 1671SOL    HW2 5913   4.303   2.462   0.914
 1672SOL     OW 5914   2.032   4.103   2.377
 1672SOL    HW1 5915   2.047   4.010   2.410
 1672SOL    HW2 5916   1.952   4.103   2.316
 1673SOL     OW 5917   0.579   2.533   4.587
 1673SOL    HW1 5918   0.497   2.548   4.531
 1673SOL    HW2 5919   0.596   2.434   4.594
 1674SOL     OW 5920   0.695   3.925   2.052
 1674SOL    HW1 5921   0.703   3.951   1.956
 1674SOL    HW2 5922   0.771   3.965   2.103
 1675SOL     OW 5923   4.153   0.161   6.163
 1675SOL    HW1 5924   4.210   0.244   6.163
 1675SOL    HW2 5925   4.211   0.081   6.181
 1676SOL     OW 5926   3.258   1.147   2.333
 1676SOL    HW1 5927   3.306   1.061   2.318
 1676SOL    HW2 5928   3.235   1.156   2.430
 1677SOL     OW 5929   4.226   2.724   5.407
 1677SOL    HW1 5930   4.167   2.678   5.342
 1677SOL    HW2 5931   4.173   2.750   5.488
 1678SOL     OW 5932   5.003   4.635   4.634
 1678SOL    HW1 5933   4.904   4.631   4.620
 1678SOL    HW2 5934   5.024   4.706   4.701
 1679SOL     OW 5935   2.063   3.260   4.895
 1679SOL    HW1 5936   2.129   3.318   4.943
 1679SOL    HW2 5937   2.098   3.239   4.804
 1680SOL     OW 5938   0.949   1.986   4.117
 1680SOL    HW1 5939   0.904   2.050   4.178
 1680SOL    HW2 5940   0.987   2.035   4.039
 1681SOL     OW 5941   6.556   6.106   1.131
 1681SOL    HW1 5942   6.599   6.029   1.178
 1681SOL    HW2 5943   6.544   6.182   1.195
 1682SOL     OW 5944   6.566   2.537   4.805
 1682SOL    HW1 5945   6.478   2.495   4.826
 1682SOL    HW2 5946   6.556   2.601   4.730
 1683SOL     OW 5947   3.494   5.756   0.996
 1683SOL    HW1 5948   3.509   5.664   1.031
 1683SOL    HW2 5949   3.582   5.798   0.974
 1684SOL     OW 5950   1.794   6.236   2.632
 1684SOL    HW1 5951   1.739   6.265   2.554
 1684SOL    HW2 5952   1.793   6.306   2.702
 1685SOL     OW 5953   2.736   1.234   6.322
 1685SOL    HW1 5954   2.833   1.247   6.342
 1685SOL    HW2 5955   2.699   1.316   6.278
 1686SOL     OW 5956   1.834   4.922   5.264
 1686SOL    HW1 5957   1.886   4.959   5.188
 1686SOL    HW2 5958   1.781   4.843   5.232
 1687SOL     OW 5959   2.054   3.328   1.311
 1687SOL    HW1 5960   1.981   3.269   1.274
 1687SOL    HW2 5961   2.132   3.271   1.337
 1688SOL     OW 5962   1.226   2.485   3.867
 1688SOL    HW1 5963   1.295   2.549   3.900
 1688SOL    HW2 5964   1.135   2.524   3.879
 1689SOL     OW 5965   3.997   1.096   1.790
 1689SOL    HW1 5966   4.086   1.059   1.818
 1689SOL    HW2 5967   4.008   1.149   1.706
 1690SOL     OW 5968   1.194   2.802   3.565
 1690SOL    HW1 5969   1.159   2.805   3.658
 1690SOL    HW2 5970   1.291   2.779   3.566
 1691SOL     OW 5971   4.839   3.895   3.535
 1691SOL    HW1 5972   4.795   3.928   3.618
 1691SOL    HW2 5973   4.863   3.799   3.546
 1692SOL     OW 5974   6.508   0.079   1.165
 1692SOL    HW1 5975   6.565   0.137   1.107
 1692SOL    HW2 5976   6.419   0.065   1.121
 1693SOL     OW 5977   0.358   2.276   2.112
 1693SOL    HW1 5978   0.457   2.269   2.111
 1693SOL    HW2 5979   0.324   2.257   2.204
 1694SOL     OW 5980   4.832   0.081   4.153
 1694SOL    HW1 5981   4.900   0.045   4.217
 1694SOL    HW2 5982   4.816   0.178   4.174
 1695SOL     OW 5983   2.414   1.204   5.907
 1695SOL    HW1 5984   2.385   1.166   5.995
 1695SOL    HW2 5985   2.368   1.156   5.832
 1696SOL     OW 5986   5.569   5.047   0.250
 1696SOL    HW1 5987   5.617   5.090   0.327
 1696SOL    HW2 5988   5.617   5.068   0.165
 1697SOL     OW 5989   6.071   6.519   2.266
 1697SOL    HW1 5990   5.990   6.511   2.325
 1697SOL    HW2 5991   6.142   6.457   2.299
 1698SOL     OW 5992   4.694   0.994   0.799
 1698SOL    HW1 5993   4.649   0.908   0.777
 1698SOL    HW2 5994   4.675   1.061   0.726
 1699SOL     OW 5995   2.769   0.878   2.174
 1699SOL    HW1 5996   2.699   0.942   2.207
 1699SOL    HW2 5997   2.753   0.788   2.214
 1700SOL     OW 5998   6.388   1.960   3.610
 1700SOL    HW1 5999   6.363   2.012   3.692
 1700SOL    HW2 6000   6.383   2.020   3.530
 1701SOL     OW 6001   4.932   2.876   5.399
 1701SOL    HW1 6002   4.907   2.880   5.303
 1701SOL    HW2 6003   5.006   2.941   5.417
 1702SOL     OW 6004   7.021   3.174   0.678
 1702SOL    HW1 6005   0.004   3.175   0.777
 1702SOL    HW2 6006   0.085   3.168   0.636
 1703SOL     OW 6007   3.581   3.995   3.577
 1703SOL    HW1 6008   3.545   4.048   3.653
 1703SOL    HW2 6009   3.591   4.053   3.496
 1704SOL     OW 6010   0.532   1.485   1.441
 1704SOL    HW1 6011   0.462   1.454   1.506
 1704SOL    HW2 6012   0.563   1.577   1.466
 1705SOL     OW 6013   3.496   2.081   2.154
 1705SOL    HW1 6014   3.399   2.104   2.143
 1705SOL    HW2 6015   3.549   2.125   2.082
 1706SOL     OW 6016   4.319   6.966   1.456
 1706SOL    HW1 6017   4.289   7.022   1.379
 1706SOL    HW2 6018   4.419   6.961   1.457
 1707SOL     OW 6019   4.444   1.598   3.071
 1707SOL    HW1 6020   4.479   1.579   2.979
 1707SOL    HW2 6021   4.402   1.515   3.108
 1708SOL     OW 6022   5.037   5.702   2.235
 1708SOL    HW1 6023   4.993   5.788   2.212
 1708SOL    HW2 6024   5.108   5.719   2.303
 1709SOL     OW 6025   2.671   5.951   1.735
 1709SOL    HW1 6026   2.740   6.000   1.788
 1709SOL    HW2 6027   2.690   5.853   1.738
 1710SOL     OW 6028   5.891   4.522   3.834
 1710SOL    HW1 6029   5.939   4.474   3.908
 1710SOL    HW2 6030   5.802   4.553   3.866
 1711SOL     OW 6031   1.246   4.248   5.031
 1711SOL    HW1 6032   1.266   4.160   4.987
 1711SOL    HW2 6033   1.183   4.300   4.973
 1712SOL     OW 6034   1.404   3.034   6.485
 1712SOL    HW1 6035   1.425   2.959   6.422
 1712SOL    HW2 6036   1.341   3.098   6.440
 1713SOL     OW 6037   3.301   1.840   0.971
 1713SOL    HW1 6038   3.255   1.784   0.902
 1713SOL    HW2 6039   3.382   1.883   0.931
 1714SOL     OW 6040   4.423   1.501   6.045
 1714SOL    HW1 6041   4.348   1.452   6.088
 1714SOL    HW2 6042   4.400   1.598   6.039
 1715SOL     OW 6043   6.765   3.879   2.758
 1715SOL    HW1 6044   6.854   3.853   2.722
 1715SOL    HW2 6045   6.708   3.914   2.684
 1716SOL     OW 6046   4.966   6.963   1.296
 1716SOL    HW1 6047   5.060   6.974   1.329
 1716SOL    HW2 6048   4.964   6.899   1.220
 1717SOL     OW 6049   1.924   6.390   6.665
 1717SOL    HW1 6050   1.881   6.300   6.675
 1717SOL    HW2 6051   2.024   6.380   6.665
 1718SOL     OW 6052   1.915   1.946   1.002
 1718SOL    HW1 6053   1.890   1.892   1.082
 1718SOL    HW2 6054   1.954   1.887   0.932
 1719SOL     OW 6055   2.351   4.013   1.536
 1719SOL    HW1 6056   2.300   4.093   1.568
 1719SOL    HW2 6057   2.351   3.943   1.607
 1720SOL     OW 6058   6.739   0.895   1.500
 1720SOL    HW1 6059   6.648   0.936   1.507
 1720SOL    HW2 6060   6.801   0.959   1.454
 1721SOL     OW 6061   1.066   6.278   2.603
 1721SOL    HW1 6062   1.007   6.205   2.570
 1721SOL    HW2 6063   1.043   6.363   2.556
 1722SOL     OW 6064   5.096   1.371   3.623
 1722SOL    HW1 6065   5.181   1.325   3.651
 1722SOL    HW2 6066   5.118   1.457   3.579
 1723SOL     OW 6067   6.822   2.905   3.167
 1723SOL    HW1 6068   6.827   2.814   3.126
 1723SOL    HW2 6069   6.800   2.972   3.096
 1724SOL     OW 6070   5.603   1.845   1.084
 1724SOL    HW1 6071   5.633   1.884   0.997
 1724SOL    HW2 6072   5.523   1.895   1.117
 1725SOL     OW 6073   2.624   5.033   0.597
 1725SOL    HW1 6074   2.701   4.969   0.596
 1725SOL    HW2 6075   2.547   4.992   0.645
 1726SOL     OW 6076   6.440   4.305   5.186
 1726SOL    HW1 6077   6.342   4.320   5.198
 1726SOL    HW2 6078   6.455   4.234   5.117
 1727SOL     OW 6079   3.688   2.882   4.696
 1727SOL    HW1 6080   3.688   2.784   4.717
 1727SOL    HW2 6081   3.656   2.933   4.775
 1728SOL     OW 6082   5.553   5.466   4.872
 1728SOL    HW1 6083   5.592   5.422   4.952
 1728SOL    HW2 6084   5.506   5.397   4.816
 1729SOL     OW 6085   2.149   3.723   3.682
 1729SOL    HW1 6086   2.188   3.797   3.737
 1729SOL    HW2 6087   2.153   3.748   3.585
 1730SOL     OW 6088   6.676   0.560   4.590
 1730SOL    HW1 6089   6.585   0.519   4.593
 1730SOL    HW2 6090   6.713   0.550   4.497
 1731SOL     OW 6091   0.896   5.368   2.043
 1731SOL    HW1 6092   0.993   5.343   2.045
 1731SOL    HW2 6093   0.841   5.296   2.086
 1732SOL     OW 6094   2.151   4.511   5.755
 1732SOL    HW1 6095   2.095   4.461   5.822
 1732SOL    HW2 6096   2.245   4.480   5.761
 1733SOL     OW 6097   1.099   3.797   2.799
 1733SOL    HW1 6098   1.061   3.878   2.843
 1733SOL    HW2 6099   1.070   3.715   2.848
 1734SOL     OW 6100   5.003   3.002   1.948
 1734SOL    HW1 6101   5.024   2.918   1.999
 1734SOL    HW2 6102   4.907   3.025   1.960
 1735SOL     OW 6103   5.686   5.649   0.840
 1735SOL    HW1 6104   5.773   5.618   0.879
 1735SOL    HW2 6105   5.669   5.599   0.755
 1736SOL     OW 6106   4.649   2.079   0.593
 1736SOL    HW1 6107   4.637   2.107   0.688
 1736SOL    HW2 6108   4.612   2.149   0.532
 1737SOL     OW 6109   2.823   1.155   4.632
 1737SOL    HW1 6110   2.848   1.243   4.671
 1737SOL    HW2 6111   2.840   1.156   4.534
 1738SOL     OW 6112   1.883   2.072   3.739
 1738SOL    HW1 6113   1.893   1.980   3.700
 1738SOL    HW2 6114   1.815   2.070   3.812
 1739SOL     OW 6115   4.851   2.791   5.145
 1739SOL    HW1 6116   4.755   2.807   5.121
 1739SOL    HW2 6117   4.909   2.858   5.098
 1740SOL     OW 6118   0.209   1.540   6.481
 1740SOL    HW1 6119   0.192   1.555   6.384
 1740SOL    HW2 6120   0.300   1.501   6.494
 1741SOL     OW 6121   2.635   0.881   3.801
 1741SOL    HW1 6122   2.540   0.860   3.821
 1741SOL    HW2 6123   2.673   0.812   3.739
 1742SOL     OW 6124   4.419   6.128   5.975
 1742SOL    HW1 6125   4.492   6.077   6.021
 1742SOL    HW2 6126   4.381   6.073   5.901
 1743SOL     OW 6127   1.992   1.597   2.070
 1743SOL    HW1 6128   1.996   1.623   2.166
 1743SOL    HW2 6129   1.909   1.544   2.053
 1744SOL     OW 6130   0.811   0.413   1.370
 1744SOL    HW1 6131   0.805   0.405   1.470
 1744SOL    HW2 6132   0.879   0.348   1.336
 1745SOL     OW 6133   6.635   0.735   4.183
 1745SOL    HW1 6134   6.558   0.775   4.232
 1745SOL    HW2 6135   6.715   0.733   4.243
 1746SOL     OW 6136   1.947   5.064   5.034
 1746SOL    HW1 6137   1.942   5.063   4.935
 1746SOL    HW2 6138   2.005   5.140   5.065
 1747SOL     OW 6139   5.316   0.225   2.461
 1747SOL    HW1 6140   5.307   0.303   2.523
 1747SOL    HW2 6141   5.347   0.257   2.372
 1748SOL     OW 6142   0.190   0.903   3.614
 1748SOL    HW1 6143   0.133   0.979   3.645
 1748SOL    HW2 6144   0.167   0.821   3.666
 1749SOL     OW 6145   2.765   6.463   5.213
 1749SOL    HW1 6146   2.853   6.507   5.193
 1749SOL    HW2 6147   2.692   6.511   5.164
 1750SOL     OW 6148   6.513   0.259   3.302
 1750SOL    HW1 6149   6.471   0.348   3.318
 1750SOL    HW2 6150   6.595   0.250   3.359
 1751SOL     OW 6151   3.687   5.628   4.562
 1751SOL    HW1 6152   3.675   5.604   4.466
 1751SOL    HW2 6153   3.754   5.567   4.604
 1752SOL     OW 6154   6.934   2.292   2.516
 1752SOL    HW1 6155   6.943   2.198   2.485
 1752SOL    HW2 6156   7.001   2.311   2.587
 1753SOL     OW 6157   0.280   1.958   0.402
 1753SOL    HW1 6158   0.257   1.994   0.493
 1753SOL    HW2 6159   0.346   1.884   0.412
 1754SOL     OW 6160   3.367   3.318   1.628
 1754SOL    HW1 6161   3.307   3.265   1.688
 1754SOL    HW2 6162   3.437   3.258   1.588
 1755SOL     OW 6163   5.777   5.372   2.240
 1755SOL    HW1 6164   5.713   5.394   2.166
 1755SOL    HW2 6165   5.858   5.327   2.203
 1756SOL     OW 6166   4.396   4.271   6.472
 1756SOL    HW1 6167   4.446   4.340   6.524
 1756SOL    HW2 6168   4.354   4.313   6.391
 1757SOL     OW 6169   2.397   5.260   4.860
 1757SOL    HW1 6170   2.431   5.317   4.934
 1757SOL    HW2 6171   2.325   5.309   4.811
 1758SOL     OW 6172   2.313   0.601   3.753
 1758SOL    HW1 6173   2.233   0.563   3.798
 1758SOL    HW2 6174   2.376   0.527   3.729
 1759SOL     OW 6175   0.804   4.734   5.628
 1759SOL    HW1 6176   0.780   4.677   5.706
 1759SOL    HW2 6177   0.865   4.684   5.566
 1760SOL     OW 6178   6.747   1.177   1.372
 1760SOL    HW1 6179   6.676   1.121   1.415
 1760SOL    HW2 6180   6.761   1.260   1.425
 1761SOL     OW 6181   0.137   0.325   0.377
 1761SOL    HW1 6182   0.094   0.409   0.343
 1761SOL    HW2 6183   0.067   0.266   0.417
 1762SOL     OW 6184   6.303   1.697   5.074
 1762SOL    HW1 6185   6.282   1.601   5.097
 1762SOL    HW2 6186   6.389   1.723   5.117
 1763SOL     OW 6187   2.142   3.507   4.290
 1763SOL    HW1 6188   2.153   3.571   4.214
 1763SOL    HW2 6189   2.107   3.555   4.370
 1764SOL     OW 6190   1.466   4.173   2.741
 1764SOL    HW1 6191   1.556   4.129   2.739
 1764SOL    HW2 6192   1.407   4.125   2.806
 1765SOL     OW 6193   3.607   1.939   6.754
 1765SOL    HW1 6194   3.535   1.978   6.810
 1765SOL    HW2 6195   3.649   1.861   6.802
 1766SOL     OW 6196   4.881   3.177   3.725
 1766SOL    HW1 6197   4.831   3.124   3.793
 1766SOL    HW2 6198   4.976   3.147   3.723
 1767SOL     OW 6199   6.111   3.476   2.945
 1767SOL    HW1 6200   6.177   3.469   2.870
 1767SOL    HW2 6201   6.123   3.564   2.992
 1768SOL     OW 6202   3.645   1.605   4.559
 1768SOL    HW1 6203   3.686   1.525   4.604
 1768SOL    HW2 6204   3.611   1.578   4.469
 1769SOL     OW 6205   4.163   2.214   4.847
 1769SOL    HW1 6206   4.254   2.186   4.816
 1769SOL    HW2 6207   4.171   2.292   4.908
 1770SOL     OW 6208   0.660   5.185   4.513
 1770SOL    HW1 6209   0.655   5.090   4.481
 1770SOL    HW2 6210   0.607   5.194   4.598
 1771SOL     OW 6211   2.561   5.221   0.399
 1771SOL    HW1 6212   2.579   5.145   0.461
 1771SOL    HW2 6213   2.483   5.273   0.433
 1772SOL     OW 6214   2.836   6.861   3.622
 1772SOL    HW1 6215   2.860   6.907   3.708
 1772SOL    HW2 6216   2.905   6.882   3.553
 1773SOL     OW 6217   2.671   4.480   6.099
 1773SOL    HW1 6218   2.635   4.552   6.040
 1773SOL    HW2 6219   2.642   4.496   6.194
 1774SOL     OW 6220   4.201   6.869   1.734
 1774SOL    HW1 6221   4.231   6.890   1.642
 1774SOL    HW2 6222   4.133   6.796   1.731
 1775SOL     OW 6223   0.860   4.445   4.248
 1775SOL    HW1 6224   0.828   4.364   4.298
 1775SOL    HW2 6225   0.928   4.417   4.181
 1776SOL     OW 6226   3.234   0.161   4.028
 1776SOL    HW1 6227   3.214   0.163   3.930
 1776SOL    HW2 6228   3.331   0.183   4.043
 1777SOL     OW 6229   3.103   5.504   5.894
 1777SOL    HW1 6230   3.057   5.529   5.808
 1777SOL    HW2 6231   3.099   5.405   5.905
 1778SOL     OW 6232   4.572   2.875   6.080
 1778SOL    HW1 6233   4.661   2.898   6.042
 1778SOL    HW2 6234   4.558   2.777   6.076
 1779SOL     OW 6235   4.116   1.100   4.884
 1779SOL    HW1 6236   4.163   1.059   4.961
 1779SOL    HW2 6237   4.156   1.189   4.863
 1780SOL     OW 6238   2.899   3.095   6.068
 1780SOL    HW1 6239   2.980   3.151   6.051
 1780SOL    HW2 6240   2.859   3.121   6.155
 1781SOL     OW 6241   4.434   5.925   3.874
 1781SOL    HW1 6242   4.405   5.934   3.969
 1781SOL    HW2 6243   4.534   5.918   3.871
 1782SOL     OW 6244   3.588   1.768   2.537
 1782SOL    HW1 6245   3.552   1.853   2.497
 1782SOL    HW2 6246   3.549   1.755   2.628
 1783SOL     OW 6247   1.475   4.444   6.381
 1783SOL    HW1 6248   1.554   4.436   6.442
 1783SOL    HW2 6249   1.507   4.464   6.288
 1784SOL     OW 6250   3.908   1.405   5.550
 1784SOL    HW1 6251   3.914   1.306   5.562
 1784SOL    HW2 6252   3.932   1.451   5.635
 1785SOL     OW 6253   6.480   5.215   3.510
 1785SOL    HW1 6254   6.419   5.246   3.437
 1785SOL    HW2 6255   6.461   5.265   3.594
 1786SOL     OW 6256   1.217   2.361   1.042
 1786SOL    HW1 6257   1.262   2.445   1.011
 1786SOL    HW2 6258   1.285   2.302   1.086
 1787SOL     OW 6259   2.180   0.836   5.062
 1787SOL    HW1 6260   2.176   0.901   4.987
 1787SOL    HW2 6261   2.167   0.743   5.027
 1788SOL     OW 6262   3.508   2.849   0.018
 1788SOL    HW1 6263   3.420   2.873   7.001
 1788SOL    HW2 6264   3.505   2.754   0.049
 1789SOL     OW 6265   5.983   2.461   3.308
 1789SOL    HW1 6266   5.981   2.560   3.299
 1789SOL    HW2 6267   6.055   2.434   3.372
 1790SOL     OW 6268   3.798   6.312   4.276
 1790SOL    HW1 6269   3.757   6.308   4.185
 1790SOL    HW2 6270   3.787   6.224   4.322
 1791SOL     OW 6271   6.607   0.981   3.627
 1791SOL    HW1 6272   6.604   1.079   3.608
 1791SOL    HW2 6273   6.689   0.942   3.586
 1792SOL     OW 6274   6.843   3.059   4.138
 1792SOL    HW1 6275   6.937   3.031   4.118
 1792SOL    HW2 6276   6.837   3.088   4.234
 1793SOL     OW 6277   6.418   6.675   3.226
 1793SOL    HW1 6278   6.422   6.587   3.275
 1793SOL    HW2 6279   6.510   6.700   3.195
 1794SOL     OW 6280   5.935   6.270   5.940
 1794SOL    HW1 6281   5.954   6.341   5.871
 1794SOL    HW2 6282   5.919   6.313   6.028
 1795SOL     OW 6283   0.620   3.105   1.216
 1795SOL    HW1 6284   0.586   3.155   1.136
 1795SOL    HW2 6285   0.546   3.051   1.256
 1796SOL     OW 6286   2.436   0.458   4.298
 1796SOL    HW1 6287   2.401   0.528   4.236
 1796SOL    HW2 6288   2.366   0.434   4.365
 1797SOL     OW 6289   1.612   0.116   6.975
 1797SOL    HW1 6290   1.562   0.147   0.030
 1797SOL    HW2 6291   1.705   0.090   7.002
 1798SOL     OW 6292   5.008   1.924   4.371
 1798SOL    HW1 6293   5.036   1.892   4.461
 1798SOL    HW2 6294   4.967   1.848   4.320
 1799SOL     OW 6295   6.377   2.105   5.778
 1799SOL    HW1 6296   6.400   2.019   5.824
 1799SOL    HW2 6297   6.325   2.085   5.695
 1800SOL     OW 6298   3.844   4.814   2.445
 1800SOL    HW1 6299   3.920   4.755   2.418
 1800SOL    HW2 6300   3.872   4.867   2.525
 1801SOL     OW 6301   0.550   0.849   2.204
 1801SOL    HW1 6302   0.633   0.852   2.259
 1801SOL    HW2 6303   0.520   0.754   2.194
 1802SOL     OW 6304   5.442   5.520   2.714
 1802SOL    HW1 6305   5.365   5.465   2.747
 1802SOL    HW2 6306   5.459   5.595   2.778
 1803SOL     OW 6307   0.235   6.148   6.795
 1803SOL    HW1 6308   0.245   6.195   6.883
 1803SOL    HW2 6309   0.140   6.119   6.784
 1804SOL     OW 6310   2.270   3.817   5.567
 1804SOL    HW1 6311   2.342   3.811   5.498
 1804SOL    HW2 6312   2.306   3.793   5.656
 1805SOL     OW 6313   6.155   4.239   5.976
 1805SOL    HW1 6314   6.066   4.225   6.020
 1805SOL    HW2 6315   6.142   4.285   5.888
 1806SOL     OW 6316   1.247   1.380   0.392
 1806SOL    HW1 6317   1.260   1.376   0.293
 1806SOL    HW2 6318   1.150   1.367   0.413
 1807SOL     OW 6319   4.985   2.394   5.432
 1807SOL    HW1 6320   4.921   2.356   5.499
 1807SOL    HW2 6321   4.933   2.434   5.356
 1808SOL     OW 6322   0.422   3.495   5.897
 1808SOL    HW1 6323   0.504   3.446   5.925
 1808SOL    HW2 6324   0.437   3.594   5.907
 1809SOL     OW 6325   2.102   2.607   4.540
 1809SOL    HW1 6326   2.150   2.550   4.607
 1809SOL    HW2 6327   2.169   2.652   4.481
 1810SOL     OW 6328   2.969   0.235   3.523
 1810SOL    HW1 6329   3.033   0.299   3.480
 1810SOL    HW2 6330   2.919   0.281   3.596
 1811SOL     OW 6331   4.770   4.797   3.580
 1811SOL    HW1 6332   4.761   4.765   3.486
 1811SOL    HW2 6333   4.723   4.734   3.642
 1812SOL     OW 6334   4.271   6.685   5.113
 1812SOL    HW1 6335   4.371   6.684   5.106
 1812SOL    HW2 6336   4.235   6.761   5.060
 1813SOL     OW 6337   6.119   5.163   0.727
 1813SOL    HW1 6338   6.140   5.224   0.650
 1813SOL    HW2 6339   6.034   5.191   0.770
 1814SOL     OW 6340   6.657   1.675   0.455
 1814SOL    HW1 6341   6.688   1.744   0.389
 1814SOL    HW2 6342   6.733   1.614   0.477
 1815SOL     OW 6343   5.873   2.194   1.958
 1815SOL    HW1 6344   5.859   2.293   1.960
 1815SOL    HW2 6345   5.959   2.173   1.912
 1816SOL     OW 6346   2.376   3.704   1.154
 1816SOL    HW1 6347   2.313   3.626   1.153
 1816SOL    HW2 6348   2.340   3.774   1.216
 1817SOL     OW 6349   3.481   0.255   3.118
 1817SOL    HW1 6350   3.522   0.331   3.067
 1817SOL    HW2 6351   3.485   0.172   3.062
 1818SOL     OW 6352   1.924   6.528   2.521
 1818SOL    HW1 6353   1.939   6.440   2.566
 1818SOL    HW2 6354   2.008   6.557   2.475
 1819SOL     OW 6355   0.526   5.193   1.651
 1819SOL    HW1 6356   0.586   5.205   1.572
 1819SOL    HW2 6357   0.449   5.256   1.645
 1820SOL     OW 6358   5.040   1.081   1.962
 1820SOL    HW1 6359   5.138   1.100   1.953
 1820SOL    HW2 6360   5.013   1.007   1.901
 1821SOL     OW 6361   2.140   0.852   1.709
 1821SOL    HW1 6362   2.214   0.896   1.760
 1821SOL    HW2 6363   2.095   0.784   1.767
 1822SOL     OW 6364   2.019   2.714   1.530
 1822SOL    HW1 6365   2.109   2.676   1.548
 1822SOL    HW2 6366   2.028   2.811   1.507
 1823SOL     OW 6367   2.846   5.747   3.018
 1823SOL    HW1 6368   2.890   5.765   3.106
 1823SOL    HW2 6369   2.823   5.835   2.974
 1824SOL     OW 6370   3.039   2.695   1.774
 1824SOL    HW1 6371   3.138   2.686   1.768
 1824SOL    HW2 6372   3.000   2.617   1.823
 1825SOL     OW 6373   1.364   1.508   3.468
 1825SOL    HW1 6374   1.327   1.492   3.560
 1825SOL    HW2 6375   1.434   1.580   3.473
 1826SOL     OW 6376   2.964   0.093   0.954
 1826SOL    HW1 6377   2.904   0.053   1.023
 1826SOL    HW2 6378   3.056   0.056   0.965
 1827SOL     OW 6379   6.840   6.031   1.655
 1827SOL    HW1 6380   6.847   6.116   1.708
 1827SOL    HW2 6381   6.929   6.009   1.616
 1828SOL     OW 6382   1.542   2.657   0.339
 1828SOL    HW1 6383   1.492   2.615   0.264
 1828SOL    HW2 6384   1.529   2.604   0.423
 1829SOL     OW 6385   3.498   0.186   3.388
 1829SOL    HW1 6386   3.486   0.217   3.293
 1829SOL    HW2 6387   3.427   0.227   3.445
 1830SOL     OW 6388   6.072   5.865   3.909
 1830SOL    HW1 6389   6.090   5.922   3.989
 1830SOL    HW2 6390   6.158   5.833   3.871
 1831SOL     OW 6391   6.202   0.105   1.988
 1831SOL    HW1 6392   6.198   0.202   1.965
 1831SOL    HW2 6393   6.256   0.092   2.072
 1832SOL     OW 6394   5.187   1.236   1.087
 1832SOL    HW1 6395   5.199   1.193   0.998
 1832SOL    HW2 6396   5.159   1.331   1.075
 1833SOL     OW 6397   5.289   0.209   5.827
 1833SOL    HW1 6398   5.197   0.231   5.795
 1833SOL    HW2 6399   5.302   0.109   5.825
 1834SOL     OW 6400   2.466   4.137   0.536
 1834SOL    HW1 6401   2.512   4.103   0.454
 1834SOL    HW2 6402   2.521   4.114   0.616
 1835SOL     OW 6403   0.927   3.472   1.905
 1835SOL    HW1 6404   0.915   3.373   1.899
 1835SOL    HW2 6405   0.845   3.513   1.945
 1836SOL     OW 6406   5.239   1.738   0.845
 1836SOL    HW1 6407   5.258   1.789   0.928
 1836SOL    HW2 6408   5.304   1.662   0.837
 1837SOL     OW 6409   0.831   2.146   4.308
 1837SOL    HW1 6410   0.759   2.078   4.323
 1837SOL    HW2 6411   0.842   2.202   4.389
 1838SOL     OW 6412   0.077   1.223   4.200
 1838SOL    HW1 6413   0.168   1.260   4.180
 1838SOL    HW2 6414   0.084   1.127   4.224
 1839SOL     OW 6415   5.358   2.630   4.743
 1839SOL    HW1 6416   5.362   2.727   4.767
 1839SOL    HW2 6417   5.450   2.592   4.742
 1840SOL     OW 6418   3.702   5.818   1.618
 1840SOL    HW1 6419   3.691   5.903   1.566
 1840SOL    HW2 6420   3.702   5.740   1.555
 1841SOL     OW 6421   2.451   1.739   4.028
 1841SOL    HW1 6422   2.395   1.796   4.088
 1841SOL    HW2 6423   2.394   1.701   3.955
 1842SOL     OW 6424   1.101   5.137   0.143
 1842SOL    HW1 6425   1.182   5.195   0.154
 1842SOL    HW2 6426   1.064   5.150   0.051
 1843SOL     OW 6427   6.818   2.081   4.115
 1843SOL    HW1 6428   6.847   1.986   4.118
 1843SOL    HW2 6429   6.814   2.112   4.020
 1844SOL     OW 6430   3.673   0.087   5.351
 1844SOL    HW1 6431   3.663   0.015   5.420
 1844SOL    HW2 6432   3.725   0.051   5.273
 1845SOL     OW 6433   1.962   6.709   4.819
 1845SOL    HW1 6434   1.889   6.764   4.779
 1845SOL    HW2 6435   1.936   6.613   4.819
 1846SOL     OW 6436   4.200   2.125   0.279
 1846SOL    HW1 6437   4.129   2.057   0.258
 1846SOL    HW2 6438   4.227   2.171   0.195
 1847SOL     OW 6439   1.182   0.734   6.077
 1847SOL    HW1 6440   1.111   0.679   6.032
 1847SOL    HW2 6441   1.228   0.791   6.009
 1848SOL     OW 6442   0.981   7.025   2.489
 1848SOL    HW1 6443   0.912   0.047   2.435
 1848SOL    HW2 6444   0.942   6.998   2.577
 1849SOL     OW 6445   3.488   1.918   0.796
 1849SOL    HW1 6446   3.458   2.011   0.774
 1849SOL    HW2 6447   3.526   1.875   0.714
 1850SOL     OW 6448   0.370   3.259   2.473
 1850SOL    HW1 6449   0.379   3.170   2.427
 1850SOL    HW2 6450   0.301   3.313   2.426
 1851SOL     OW 6451   0.199   2.522   1.507
 1851SOL    HW1 6452   0.209   2.430   1.468
 1851SOL    HW2 6453   0.142   2.517   1.589
 1852SOL     OW 6454   6.064   3.753   2.208
 1852SOL    HW1 6455   5.998   3.680   2.231
 1852SOL    HW2 6456   6.016   3.841   2.203
 1853SOL     OW 6457   0.182   3.504   3.091
 1853SOL    HW1 6458   0.219   3.597   3.102
 1853SOL    HW2 6459   0.194   3.453   3.176
 1854SOL     OW 6460   2.520   6.308   3.442
 1854SOL    HW1 6461   2.420   6.314   3.449
 1854SOL    HW2 6462   2.544   6.245   3.369
 1855SOL     OW 6463   5.369   3.895   6.469
 1855SOL    HW1 6464   5.388   3.807   6.512
 1855SOL    HW2 6465   5.275   3.923   6.490
 1856SOL     OW 6466   6.312   3.745   5.817
 1856SOL    HW1 6467   6.320   3.844   5.815
 1856SOL    HW2 6468   6.301   3.710   5.724
 1857SOL     OW 6469   4.093   0.978   5.616
 1857SOL    HW1 6470   4.149   1.008   5.694
 1857SOL    HW2 6471   4.011   1.034   5.610
 1858SOL     OW 6472   6.067   3.476   3.463
 1858SOL    HW1 6473   5.983   3.516   3.500
 1858SOL    HW2 6474   6.076   3.503   3.367
 1859SOL     OW 6475   4.376   1.931   3.370
 1859SOL    HW1 6476   4.338   1.986   3.444
 1859SOL    HW2 6477   4.322   1.848   3.359
 1860SOL     OW 6478   6.801   0.478   4.296
 1860SOL    HW1 6479   6.753   0.467   4.209
 1860SOL    HW2 6480   6.829   0.574   4.306
 1861SOL     OW 6481   5.619   0.413   1.997
 1861SOL    HW1 6482   5.598   0.324   2.035
 1861SOL    HW2 6483   5.718   0.423   1.989
 1862SOL     OW 6484   2.437   0.592   6.328
 1862SOL    HW1 6485   2.475   0.570   6.238
 1862SOL    HW2 6486   2.489   0.666   6.369
 1863SOL     OW 6487   1.867   1.517   1.214
 1863SOL    HW1 6488   1.768   1.524   1.219
 1863SOL    HW2 6489   1.898   1.438   1.267
 1864SOL     OW 6490   0.889   6.962   5.870
 1864SOL    HW1 6491   0.822   6.896   5.904
 1864SOL    HW2 6492   0.934   7.006   5.947
 1865SOL     OW 6493   3.426   6.660   6.291
 1865SOL    HW1 6494   3.417   6.571   6.248
 1865SOL    HW2 6495   3.522   6.681   6.306
 1866SOL     OW 6496   4.100   4.797   3.538
 1866SOL    HW1 6497   4.006   4.781   3.506
 1866SOL    HW2 6498   4.164   4.760   3.472
 1867SOL     OW 6499   0.577   3.723   6.976
 1867SOL    HW1 6500   0.568   3.795   0.019
 1867SOL    HW2 6501   0.591   3.635   7.022
 1868SOL     OW 6502   4.520   4.595   0.112
 1868SOL    HW1 6503   4.424   4.568   0.120
 1868SOL    HW2 6504   4.565   4.585   0.200
 1869SOL     OW 6505   6.232   2.679   5.789
 1869SOL    HW1 6506   6.300   2.629   5.736
 1869SOL    HW2 6507   6.246   2.777   5.778
 1870SOL     OW 6508   2.126   2.595   5.859
 1870SOL    HW1 6509   2.158   2.504   5.832
 1870SOL    HW2 6510   2.079   2.638   5.782
 1871SOL     OW 6511   0.409   0.407   0.309
 1871SOL    HW1 6512   0.322   0.364   0.331
 1871SOL    HW2 6513   0.455   0.355   0.237
 1872SOL     OW 6514   3.474   2.043   6.404
 1872SOL    HW1 6515   3.422   2.123   6.374
 1872SOL    HW2 6516   3.546   2.023   6.338
 1873SOL     OW 6517   4.667   1.644   5.653
 1873SOL    HW1 6518   4.728   1.670   5.578
 1873SOL    HW2 6519   4.698   1.687   5.738
 1874SOL     OW 6520   3.323   1.126   1.292
 1874SOL    HW1 6521   3.237   1.149   1.338
 1874SOL    HW2 6522   3.317   1.152   1.195
 1875SOL     OW 6523   0.574   1.098   0.161
 1875SOL    HW1 6524   0.489   1.149   0.178
 1875SOL    HW2 6525   0.586   1.086   0.063
 1876SOL     OW 6526   4.203   6.780   6.022
 1876SOL    HW1 6527   4.106   6.771   6.045
 1876SOL    HW2 6528   4.220   6.738   5.933
 1877SOL     OW 6529   0.502   6.984   2.434
 1877SOL    HW1 6530   0.531   0.022   2.363
 1877SOL    HW2 6531   0.407   7.004   2.460
 1878SOL     OW 6532   6.882   2.350   3.610
 1878SOL    HW1 6533   6.807   2.375   3.550
 1878SOL    HW2 6534   6.897   2.251   3.605
 1879SOL     OW 6535   1.442   4.284   4.385
 1879SOL    HW1 6536   1.515   4.216   4.380
 1879SOL    HW2 6537   1.476   4.365   4.433
 1880SOL     OW 6538   6.755   1.591   4.561
 1880SOL    HW1 6539   6.778   1.503   4.602
 1880SOL    HW2 6540   6.716   1.577   4.470
 1881SOL     OW 6541   6.169   2.409   3.475
 1881SOL    HW1 6542   6.261   2.420   3.437
 1881SOL    HW2 6543   6.150   2.484   3.538
 1882SOL     OW 6544   1.203   4.148   6.151
 1882SOL    HW1 6545   1.206   4.049   6.167
 1882SOL    HW2 6546   1.238   4.168   6.060
 1883SOL     OW 6547   0.012   1.909   3.251
 1883SOL    HW1 6548   0.054   1.921   3.340
 1883SOL    HW2 6549   6.972   1.834   3.255
 1884SOL     OW 6550   0.123   2.628   0.983
 1884SOL    HW1 6551   0.177   2.625   1.067
 1884SOL    HW2 6552   0.049   2.694   0.992
 1885SOL     OW 6553   1.763   2.133   6.598
 1885SOL    HW1 6554   1.752   2.048   6.650
 1885SOL    HW2 6555   1.837   2.187   6.638
 1886SOL     OW 6556   1.874   1.008   1.752
 1886SOL    HW1 6557   1.956   0.959   1.724
 1886SOL    HW2 6558   1.891   1.058   1.837
 1887SOL     OW 6559   1.067   6.163   4.639
 1887SOL    HW1 6560   1.095   6.199   4.549
 1887SOL    HW2 6561   0.968   6.162   4.644
 1888SOL     OW 6562   2.965   2.036   0.416
 1888SOL    HW1 6563   2.914   2.063   0.334
 1888SOL    HW2 6564   2.949   1.939   0.435
 1889SOL     OW 6565   0.229   3.108   5.792
 1889SOL    HW1 6566   0.295   3.098   5.717
 1889SOL    HW2 6567   0.211   3.205   5.809
 1890SOL     OW 6568   1.886   6.112   4.304
 1890SOL    HW1 6569   1.854   6.131   4.397
 1890SOL    HW2 6570   1.944   6.187   4.272
 1891SOL     OW 6571   5.583   2.927   2.023
 1891SOL    HW1 6572   5.577   2.983   1.940
 1891SOL    HW2 6573   5.494   2.926   2.069
 1892SOL     OW 6574   2.164   0.186   2.677
 1892SOL    HW1 6575   2.221   0.135   2.613
 1892SOL    HW2 6576   2.221   0.224   2.750
 1893SOL     OW 6577   3.052   3.600   0.846
 1893SOL    HW1 6578   3.151   3.594   0.831
 1893SOL    HW2 6579   3.013   3.508   0.850
 1894SOL     OW 6580   3.549   4.167   4.307
 1894SOL    HW1 6581   3.461   4.122   4.325
 1894SOL    HW2 6582   3.564   4.238   4.377
 1895SOL     OW 6583   4.630   0.688   1.675
 1895SOL    HW1 6584   4.535   0.657   1.679
 1895SOL    HW2 6585   4.655   0.708   1.580
 1896SOL     OW 6586   5.047   0.555   1.290
 1896SOL    HW1 6587   5.094   0.516   1.369
 1896SOL    HW2 6588   4.951   0.571   1.313
 1897SOL     OW 6589   2.569   5.677   1.476
 1897SOL    HW1 6590   2.561   5.773   1.451
 1897SOL    HW2 6591   2.481   5.632   1.465
 1898SOL     OW 6592   2.307   5.623   3.391
 1898SOL    HW1 6593   2.361   5.706   3.375
 1898SOL    HW2 6594   2.251   5.604   3.311
 1899SOL     OW 6595   0.658   1.239   1.634
 1899SOL    HW1 6596   0.573   1.201   1.597
 1899SOL    HW2 6597   0.639   1.287   1.719
 1900SOL     OW 6598   1.927   0.426   6.664
 1900SOL    HW1 6599   1.969   0.336   6.656
 1900SOL    HW2 6600   1.985   0.486   6.720
 1901SOL     OW 6601   1.499   2.173   0.813
 1901SOL    HW1 6602   1.590   2.151   0.848
 1901SOL    HW2 6603   1.441   2.204   0.889
 1902SOL     OW 6604   1.979   0.960   5.212
 1902SOL    HW1 6605   2.050   0.897   5.180
 1902SOL    HW2 6606   1.940   0.926   5.297
 1903SOL     OW 6607   0.338   3.649   2.747
 1903SOL    HW1 6608   0.322   3.654   2.649
 1903SOL    HW2 6609   0.435   3.633   2.764
 1904SOL     OW 6610   5.482   5.768   3.742
 1904SOL    HW1 6611   5.393   5.728   3.763
 1904SOL    HW2 6612   5.518   5.727   3.658
 1905SOL     OW 6613   1.065   6.801   3.279
 1905SOL    HW1 6614   1.114   6.743   3.346
 1905SOL    HW2 6615   1.132   6.846   3.220
 1906SOL     OW 6616   1.921   0.048   4.572
 1906SOL    HW1 6617   1.897   0.121   4.635
 1906SOL    HW2 6618   2.020   0.048   4.558
 1907SOL     OW 6619   3.690   1.488   1.883
 1907SOL    HW1 6620   3.719   1.523   1.972
 1907SOL    HW2 6621   3.591   1.480   1.881
 1908SOL     OW 6622   3.496   6.663   5.692
 1908SOL    HW1 6623   3.424   6.594   5.678
 1908SOL    HW2 6624   3.534   6.652   5.784
 1909SOL     OW 6625   0.787   3.763   3.098
 1909SOL    HW1 6626   0.719   3.807   3.041
 1909SOL    HW2 6627   0.834   3.832   3.153
 1910SOL     OW 6628   6.837   5.046   6.054
 1910SOL    HW1 6629   6.756   5.031   6.110
 1910SOL    HW2 6630   6.839   4.978   5.980
 1911SOL     OW 6631   7.025   3.836   5.091
 1911SOL    HW1 6632   0.008   3.772   5.015
 1911SOL    HW2 6633   6.947   3.810   5.148
 1912SOL     OW 6634   3.106   5.730   0.731
 1912SOL    HW1 6635   3.021   5.759   0.688
 1912SOL    HW2 6636   3.101   5.745   0.830
 1913SOL     OW 6637   2.314   0.251   4.755
 1913SOL    HW1 6638   2.414   0.259   4.761
 1913SOL    HW2 6639   2.278   0.329   4.705
 1914SOL     OW 6640   3.974   2.946   6.494
 1914SOL    HW1 6641   4.005   2.875   6.430
 1914SOL    HW2 6642   3.875   2.947   6.498
 1915SOL     OW 6643   3.690   2.339   5.288
 1915SOL    HW1 6644   3.610   2.319   5.231
 1915SOL    HW2 6645   3.668   2.319   5.383
 1916SOL     OW 6646   4.111   5.710   1.286
 1916SOL    HW1 6647   4.054   5.790   1.272
 1916SOL    HW2 6648   4.196   5.720   1.235
 1917SOL     OW 6649   2.389   2.794   6.674
 1917SOL    HW1 6650   2.459   2.776   6.743
 1917SOL    HW2 6651   2.384   2.893   6.657
 1918SOL     OW 6652   1.401   1.343   4.773
 1918SOL    HW1 6653   1.360   1.390   4.694
 1918SOL    HW2 6654   1.493   1.312   4.748
 1919SOL     OW 6655   1.253   1.945   2.094
 1919SOL    HW1 6656   1.349   1.919   2.079
 1919SOL    HW2 6657   1.234   1.946   2.192
 1920SOL     OW 6658   0.307   4.139   3.032
 1920SOL    HW1 6659   0.373   4.203   3.073
 1920SOL    HW2 6660   0.342   4.106   2.945
 1921SOL     OW 6661   1.521   3.596   6.340
 1921SOL    HW1 6662   1.558   3.683   6.307
 1921SOL    HW2 6663   1.582   3.559   6.410
 1922SOL     OW 6664   2.997   3.113   1.552
 1922SOL    HW1 6665   2.935   3.045   1.593
 1922SOL    HW2 6666   2.953   3.152   1.471
 1923SOL     OW 6667   3.686   1.350   6.100
 1923SOL    HW1 6668   3.745   1.427   6.075
 1923SOL    HW2 6669   3.706   1.272   6.041
 1924SOL     OW 6670   4.600   6.692   0.077
 1924SOL    HW1 6671   4.659   6.649   0.008
 1924SOL    HW2 6672   4.595   6.634   0.158
 1925SOL     OW 6673   1.585   4.782   0.636
 1925SOL    HW1 6674   1.669   4.760   0.685
 1925SOL    HW2 6675   1.530   4.699   0.625
 1926SOL     OW 6676   3.081   7.009   2.796
 1926SOL    HW1 6677   3.146   6.986   2.723
 1926SOL    HW2 6678   3.050   6.924   2.840
 1927SOL     OW 6679   2.430   4.881   0.255
 1927SOL    HW1 6680   2.371   4.959   0.237
 1927SOL    HW2 6681   2.461   4.883   0.350
 1928SOL     OW 6682   5.995   4.040   4.686
 1928SOL    HW1 6683   6.011   3.971   4.758
 1928SOL    HW2 6684   6.083   4.072   4.651
 1929SOL     OW 6685   2.513   0.496   1.432
 1929SOL    HW1 6686   2.453   0.566   1.470
 1929SOL    HW2 6687   2.573   0.538   1.364
 1930SOL     OW 6688   5.383   3.665   6.679
 1930SOL    HW1 6689   5.326   3.596   6.723
 1930SOL    HW2 6690   5.437   3.713   6.749
 1931SOL     OW 6691   0.871   2.222   1.302
 1931SOL    HW1 6692   0.781   2.233   1.342
 1931SOL    HW2 6693   0.900   2.309   1.261
 1932SOL     OW 6694   4.926   2.720   3.196
 1932SOL    HW1 6695   4.951   2.677   3.283
 1932SOL    HW2 6696   4.957   2.663   3.120
 1933SOL     OW 6697   1.439   3.048   0.554
 1933SOL    HW1 6698   1.484   3.117   0.497
 1933SOL    HW2 6699   1.344   3.038   0.526
 1934SOL     OW 6700   6.792   1.079   4.933
 1934SOL    HW1 6701   6.733   1.079   5.014
 1934SOL    HW2 6702   6.887   1.067   4.962
 1935SOL     OW 6703   4.556   4.989   3.552
 1935SOL    HW1 6704   4.645   4.943   3.545
 1935SOL    HW2 6705   4.512   4.963   3.637
 1936SOL     OW 6706   5.081   4.212   3.943
 1936SOL    HW1 6707   5.023   4.279   3.990
 1936SOL    HW2 6708   5.068   4.220   3.845
 1937SOL     OW 6709   3.952   6.119   7.023
 1937SOL    HW1 6710   4.000   6.161   0.074
 1937SOL    HW2 6711   4.017   6.064   6.970
 1938SOL     OW 6712   1.509   1.717   1.458
 1938SOL    HW1 6713   1.516   1.812   1.487
 1938SOL    HW2 6714   1.439   1.671   1.512
 1939SOL     OW 6715   6.820   6.650   4.630
 1939SOL    HW1 6716   6.917   6.637   4.607
 1939SOL    HW2 6717   6.812   6.704   4.713
 1940SOL     OW 6718   6.600   4.657   1.212
 1940SOL    HW1 6719   6.663   4.608   1.152
 1940SOL    HW2 6720   6.595   4.612   1.301
 1941SOL     OW 6721   1.619   2.652   4.126
 1941SOL    HW1 6722   1.707   2.622   4.090
 1941SOL    HW2 6723   1.621   2.649   4.226
 1942SOL     OW 6724   5.504   2.922   2.405
 1942SOL    HW1 6725   5.502   2.939   2.504
 1942SOL    HW2 6726   5.593   2.948   2.368
 1943SOL     OW 6727   1.700   6.835   3.181
 1943SOL    HW1 6728   1.793   6.798   3.177
 1943SOL    HW2 6729   1.677   6.877   3.093
 1944SOL     OW 6730   5.812   3.795   0.037
 1944SOL    HW1 6731   5.894   3.824   0.087
 1944SOL    HW2 6732   5.731   3.811   0.093
 1945SOL     OW 6733   3.894   5.622   6.864
 1945SOL    HW1 6734   3.871   5.528   6.891
 1945SOL    HW2 6735   3.868   5.636   6.768
 1946SOL     OW 6736   5.636   0.144   1.138
 1946SOL    HW1 6737   5.601   0.237   1.145
 1946SOL    HW2 6738   5.655   0.122   1.043
 1947SOL     OW 6739   5.220   5.905   4.542
 1947SOL    HW1 6740   5.231   5.950   4.453
 1947SOL    HW2 6741   5.253   5.966   4.614
 1948SOL     OW 6742   5.850   5.202   2.815
 1948SOL    HW1 6743   5.764   5.198   2.765
 1948SOL    HW2 6744   5.883   5.296   2.818
 1949SOL     OW 6745   3.979   3.452   0.155
 1949SOL    HW1 6746   3.934   3.499   0.231
 1949SOL    HW2 6747   3.988   3.515   0.078
 1950SOL     OW 6748   3.359   2.975   2.437
 1950SOL    HW1 6749   3.403   3.058   2.471
 1950SOL    HW2 6750   3.429   2.909   2.409
 1951SOL     OW 6751   6.676   4.535   6.461
 1951SOL    HW1 6752   6.606   4.487   6.408
 1951SOL    HW2 6753   6.761   4.482   6.460
 1952SOL     OW 6754   5.662   4.500   1.307
 1952SOL    HW1 6755   5.718   4.478   1.388
 1952SOL    HW2 6756   5.705   4.460   1.226
 1953SOL     OW 6757   6.749   1.959   5.748
 1953SOL    HW1 6758   6.830   1.950   5.806
 1953SOL    HW2 6759   6.721   2.055   5.744
 1954SOL     OW 6760   6.031   0.014   1.148
 1954SOL    HW1 6761   5.947   6.995   1.176
 1954SOL    HW2 6762   6.036   0.015   1.048
 1955SOL     OW 6763   0.548   0.260   2.511
 1955SOL    HW1 6764   0.514   0.211   2.591
 1955SOL    HW2 6765   0.472   0.285   2.452
 1956SOL     OW 6766   4.853   0.383   1.565
 1956SOL    HW1 6767   4.916   0.374   1.488
 1956SOL    HW2 6768   4.806   0.471   1.560
 1957SOL     OW 6769   4.838   4.554   3.857
 1957SOL    HW1 6770   4.902   4.588   3.789
 1957SOL    HW2 6771   4.776   4.627   3.884
 1958SOL     OW 6772   4.942   1.709   1.607
 1958SOL    HW1 6773   4.956   1.648   1.685
 1958SOL    HW2 6774   4.872   1.776   1.629
 1959SOL     OW 6775   0.460   6.841   3.875
 1959SOL    HW1 6776   0.526   6.889   3.934
 1959SOL    HW2 6777   0.432   6.902   3.801
 1960SOL     OW 6778   0.316   3.941   2.602
 1960SOL    HW1 6779   0.387   3.959   2.670
 1960SOL    HW2 6780   0.349   3.872   2.538
 1961SOL     OW 6781   6.052   4.284   4.455
 1961SOL    HW1 6782   5.985   4.336   4.508
 1961SOL    HW2 6783   6.132   4.265   4.512
 1962SOL     OW 6784   1.366   6.657   2.512
 1962SOL    HW1 6785   1.440   6.722   2.500
 1962SOL    HW2 6786   1.402   6.572   2.552
 1963SOL     OW 6787   1.373   1.531   1.619
 1963SOL    HW1 6788   1.289   1.535   1.565
 1963SOL    HW2 6789   1.396   1.435   1.637
 1964SOL     OW 6790   3.636   5.129   1.382
 1964SOL    HW1 6791   3.713   5.105   1.323
 1964SOL    HW2 6792   3.555   5.078   1.354
 1965SOL     OW 6793   1.853   2.170   4.329
 1965SOL    HW1 6794   1.849   2.073   4.307
 1965SOL    HW2 6795   1.908   2.183   4.412
 1966SOL     OW 6796   1.230   5.934   1.449
 1966SOL    HW1 6797   1.256   5.982   1.365
 1966SOL    HW2 6798   1.169   5.858   1.426
 1967SOL     OW 6799   6.228   2.775   4.250
 1967SOL    HW1 6800   6.239   2.852   4.187
 1967SOL    HW2 6801   6.241   2.806   4.344
 1968SOL     OW 6802   2.118   0.605   5.425
 1968SOL    HW1 6803   2.186   0.535   5.450
 1968SOL    HW2 6804   2.029   0.561   5.410
 1969SOL     OW 6805   2.903   1.347   1.503
 1969SOL    HW1 6806   2.973   1.279   1.525
 1969SOL    HW2 6807   2.944   1.421   1.451
 1970SOL     OW 6808   0.641   0.396   4.938
 1970SOL    HW1 6809   0.576   0.372   5.011
 1970SOL    HW2 6810   0.590   0.429   4.859
 1971SOL     OW 6811   0.447   1.032   5.716
 1971SOL    HW1 6812   0.381   0.966   5.751
 1971SOL    HW2 6813   0.516   1.050   5.786
 1972SOL     OW 6814   5.925   2.177   1.118
 1972SOL    HW1 6815   5.828   2.162   1.100
 1972SOL    HW2 6816   5.943   2.164   1.216
 1973SOL     OW 6817   2.708   4.348   1.661
 1973SOL    HW1 6818   2.792   4.403   1.656
 1973SOL    HW2 6819   2.688   4.311   1.571
 1974SOL     OW 6820   4.815   6.951   4.677
 1974SOL    HW1 6821   4.885   7.020   4.698
 1974SOL    HW2 6822   4.729   6.976   4.721
 1975SOL     OW 6823   2.400   1.956   4.313
 1975SOL    HW1 6824   2.313   1.982   4.271
 1975SOL    HW2 6825   2.440   2.036   4.360
 1976SOL     OW 6826   5.287   5.683   0.787
 1976SOL    HW1 6827   5.248   5.600   0.746
 1976SOL    HW2 6828   5.274   5.681   0.886
 1977SOL     OW 6829   1.960   3.232   5.347
 1977SOL    HW1 6830   1.886   3.269   5.291
 1977SOL    HW2 6831   2.038   3.210   5.290
 1978SOL     OW 6832   1.937   5.631   2.992
 1978SOL    HW1 6833   1.902   5.559   2.932
 1978SOL    HW2 6834   1.877   5.711   2.987
 1979SOL     OW 6835   5.270   5.234   6.945
 1979SOL    HW1 6836   5.174   5.261   6.950
 1979SOL    HW2 6837   5.316   5.256   0.006
 1980SOL     OW 6838   4.245   0.567   3.579
 1980SOL    HW1 6839   4.193   0.541   3.661
 1980SOL    HW2 6840   4.211   0.654   3.544
 1981SOL     OW 6841   5.750   2.807   2.588
 1981SOL    HW1 6842   5.768   2.823   2.491
 1981SOL    HW2 6843   5.657   2.772   2.599
 1982SOL     OW 6844   6.922   3.630   3.669
 1982SOL    HW1 6845   6.829   3.664   3.683
 1982SOL    HW2 6846   6.923   3.563   3.595
 1983SOL     OW 6847   1.791   0.620   1.527
 1983SOL    HW1 6848   1.770   0.717   1.515
 1983SOL    HW2 6849   1.890   0.608   1.536
 1984SOL     OW 6850   4.440   2.482   4.976
 1984SOL    HW1 6851   4.455   2.577   5.002
 1984SOL    HW2 6852   4.349   2.453   5.006
 1985SOL     OW 6853   0.067   5.954   1.852
 1985SOL    HW1 6854   0.074   5.991   1.760
 1985SOL    HW2 6855   0.055   6.028   1.918
 1986SOL     OW 6856   3.045   0.737   6.004
 1986SOL    HW1 6857   3.118   0.777   5.948
 1986SOL    HW2 6858   3.051   0.774   6.097
 1987SOL     OW 6859   2.583   1.448   4.005
 1987SOL    HW1 6860   2.677   1.478   3.990
 1987SOL    HW2 6861   2.529   1.524   4.041
 1988SOL     OW 6862   0.809   2.216   0.820
 1988SOL    HW1 6863   0.842   2.130   0.781
 1988SOL    HW2 6864   0.825   2.291   0.755
 1989SOL     OW 6865   2.033   5.829   4.313
 1989SOL    HW1 6866   2.109   5.838   4.378
 1989SOL    HW2 6867   1.963   5.897   4.335
 1990SOL     OW 6868   3.423   5.501   0.111
 1990SOL    HW1 6869   3.390   5.595   0.098
 1990SOL    HW2 6870   3.509   5.502   0.162
 1991SOL     OW 6871   1.641   6.013   0.210
 1991SOL    HW1 6872   1.734   6.045   0.194
 1991SOL    HW2 6873   1.626   5.928   0.159
 1992SOL     OW 6874   0.028   0.580   0.275
 1992SOL    HW1 6875   0.063   0.624   0.358
 1992SOL    HW2 6876   6.955   0.565   0.286
 1993SOL     OW 6877   3.589   1.572   5.236
 1993SOL    HW1 6878   3.510   1.613   5.190
 1993SOL    HW2 6879   3.670   1.628   5.218
 1994SOL     OW 6880   5.921   2.349   1.622
 1994SOL    HW1 6881   5.878   2.399   1.546
 1994SOL    HW2 6882   6.003   2.304   1.589
 1995SOL     OW 6883   5.474   2.853   3.756
 1995SOL    HW1 6884   5.502   2.820   3.666
 1995SOL    HW2 6885   5.542   2.919   3.789
 1996SOL     OW 6886   2.623   1.874   1.342
 1996SOL    HW1 6887   2.698   1.922   1.388
 1996SOL    HW2 6888   2.651   1.781   1.321
 1997SOL     OW 6889   3.333   1.522   4.048
 1997SOL    HW1 6890   3.334   1.461   4.128
 1997SOL    HW2 6891   3.426   1.532   4.013
 1998SOL     OW 6892   1.422   4.131   1.055
 1998SOL    HW1 6893   1.435   4.229   1.070
 1998SOL    HW2 6894   1.482   4.100   0.981
 1999SOL     OW 6895   0.924   0.275   5.488
 1999SOL    HW1 6896   0.888   0.317   5.405
 1999SOL    HW2 6897   0.862   0.204   5.519
 2000SOL     OW 6898   3.765   3.057   5.847
 2000SOL    HW1 6899   3.712   3.051   5.932
 2000SOL    HW2 6900   3.726   3.127   5.788
 2001SOL     OW 6901   2.342   1.317   0.632
 2001SOL    HW1 6902   2.328   1.241   0.695
 2001SOL    HW2 6903   2.402   1.385   0.674
 2002SOL     OW 6904   0.505   5.011   0.875
 2002SOL    HW1 6905   0.465   5.068   0.803
 2002SOL    HW2 6906   0.462   4.921   0.874
 2003SOL     OW 6907   6.757   4.894   2.039
 2003SOL    HW1 6908   6.694   4.817   2.047
 2003SOL    HW2 6909   6.766   4.939   2.127
 2004SOL     OW 6910   4.509   0.343   4.880
 2004SOL    HW1 6911   4.413   0.317   4.890
 2004SOL    HW2 6912   4.539   0.390   4.963
 2005SOL     OW 6913   0.058   4.835   0.157
 2005SOL    HW1 6914   0.095   4.895   0.086
 2005SOL    HW2 6915   0.036   4.746   0.116
 2006SOL     OW 6916   5.340   6.473   4.184
 2006SOL    HW1 6917   5.332   6.553   4.244
 2006SOL    HW2 6918   5.282   6.486   4.103
 2007SOL     OW 6919   5.392   4.216   1.448
 2007SOL    HW1 6920   5.365   4.312   1.451
 2007SOL    HW2 6921   5.311   4.158   1.457
 2008SOL     OW 6922   2.069   3.401   3.149
 2008SOL    HW1 6923   2.030   3.402   3.241
 2008SOL    HW2 6924   2.076   3.495   3.115
 2009SOL     OW 6925   5.072   6.165   2.438
 2009SOL    HW1 6926   5.115   6.248   2.474
 2009SOL    HW2 6927   5.124   6.133   2.359
 2010SOL     OW 6928   2.158   1.478   1.896
 2010SOL    HW1 6929   2.256   1.499   1.906
 2010SOL    HW2 6930   2.108   1.517   1.973
 2011SOL     OW 6931   0.418   1.106   4.900
 2011SOL    HW1 6932   0.356   1.185   4.892
 2011SOL    HW2 6933   0.484   1.108   4.825
 2012SOL     OW 6934   1.624   3.703   2.300
 2012SOL    HW1 6935   1.574   3.739   2.221
 2012SOL    HW2 6936   1.708   3.659   2.269
 2013SOL     OW 6937   6.689   3.549   3.942
 2013SOL    HW1 6938   6.726   3.476   3.883
 2013SOL    HW2 6939   6.599   3.576   3.909
 2014SOL     OW 6940   3.140   0.181   3.012
 2014SOL    HW1 6941   3.209   0.240   2.970
 2014SOL    HW2 6942   3.102   0.120   2.943
 2015SOL     OW 6943   3.167   6.429   0.363
 2015SOL    HW1 6944   3.208   6.339   0.353
 2015SOL    HW2 6945   3.231   6.499   0.330
 2016SOL     OW 6946   1.376   5.617   4.883
 2016SOL    HW1 6947   1.456   5.655   4.837
 2016SOL    HW2 6948   1.364   5.663   4.971
 2017SOL     OW 6949   4.614   0.419   3.160
 2017SOL    HW1 6950   4.549   0.394   3.088
 2017SOL    HW2 6951   4.585   0.378   3.247
 2018SOL     OW 6952   6.416   2.949   3.804
 2018SOL    HW1 6953   6.334   2.957   3.748
 2018SOL    HW2 6954   6.491   3.000   3.761
 2019SOL     OW 6955   5.917   4.251   6.570
 2019SOL    HW1 6956   5.940   4.348   6.571
 2019SOL    HW2 6957   5.880   4.225   6.659
 2020SOL     OW 6958   1.728   6.242   5.686
 2020SOL    HW1 6959   1.667   6.173   5.726
 2020SOL    HW2 6960   1.683   6.283   5.607
 2021SOL     OW 6961   6.178   6.282   4.306
 2021SOL    HW1 6962   6.149   6.347   4.377
 2021SOL    HW2 6963   6.232   6.330   4.237
 2022SOL     OW 6964   1.924   4.618   4.370
 2022SOL    HW1 6965   1.886   4.612   4.277
 2022SOL    HW2 6966   2.024   4.622   4.364
 2023SOL     OW 6967   0.924   0.150   6.986
 2023SOL    HW1 6968   0.919   0.132   0.058
 2023SOL    HW2 6969   1.017   0.180   6.962
 2024SOL     OW 6970   6.954   5.869   3.770
 2024SOL    HW1 6971   6.946   5.937   3.843
 2024SOL    HW2 6972   6.868   5.819   3.763
 2025SOL     OW 6973   3.470   0.785   4.249
 2025SOL    HW1 6974   3.551   0.765   4.305
 2025SOL    HW2 6975   3.482   0.875   4.206
 2026SOL     OW 6976   6.807   2.068   6.645
 2026SOL    HW1 6977   6.883   2.089   6.707
 2026SOL    HW2 6978   6.782   2.150   6.595
 2027SOL     OW 6979   0.445   6.904   1.462
 2027SOL    HW1 6980   0.465   6.847   1.542
 2027SOL    HW2 6981   0.497   6.872   1.383
 2028SOL     OW 6982   3.511   5.423   3.655
 2028SOL    HW1 6983   3.512   5.522   3.639
 2028SOL    HW2 6984   3.599   5.394   3.691
 2029SOL     OW 6985   6.375   2.222   6.791
 2029SOL    HW1 6986   6.464   2.245   6.829
 2029SOL    HW2 6987   6.309   2.294   6.814
 2030SOL     OW 6988   3.712   0.425   2.536
 2030SOL    HW1 6989   3.781   0.495   2.519
 2030SOL    HW2 6990   3.752   0.353   2.594
 2031SOL     OW 6991   6.969   6.142   2.487
 2031SOL    HW1 6992   6.920   6.175   2.407
 2031SOL    HW2 6993   0.003   6.066   2.461
 2032SOL     OW 6994   3.567   1.504   1.335
 2032SOL    HW1 6995   3.554   1.414   1.376
 2032SOL    HW2 6996   3.622   1.561   1.396
 2033SOL     OW 6997   2.439   0.721   0.813
 2033SOL    HW1 6998   2.419   0.724   0.911
 2033SOL    HW2 6999   2.401   0.802   0.769
 2034SOL     OW 7000   1.569   5.113   5.499
 2034SOL    HW1 7001   1.613   5.024   5.483
 2034SOL    HW2 7002   1.586   5.173   5.422
 2035SOL     OW 7003   6.431   6.732   2.510
 2035SOL    HW1 7004   6.366   6.686   2.571
 2035SOL    HW2 7005   6.395   6.821   2.483
 2036SOL     OW 7006   1.535   3.830   3.570
 2036SOL    HW1 7007   1.438   3.807   3.566
 2036SOL    HW2 7008   1.568   3.824   3.665
 2037SOL     OW 7009   6.284   2.638   6.414
 2037SOL    HW1 7010   6.321   2.650   6.321
 2037SOL    HW2 7011   6.346   2.580   6.467
 2038SOL     OW 7012   2.498   1.103   0.483
 2038SOL    HW1 7013   2.516   1.124   0.386
 2038SOL    HW2 7014   2.518   1.184   0.538
 2039SOL     OW 7015   7.006   6.888   2.838
 2039SOL    HW1 7016   6.979   6.980   2.864
 2039SOL    HW2 7017   0.032   6.846   2.912
 2040SOL     OW 7018   2.305   1.843   0.448
 2040SOL    HW1 7019   2.388   1.810   0.494
 2040SOL    HW2 7020   2.248   1.765   0.422
 2041SOL     OW 7021   1.199   0.216   5.499
 2041SOL    HW1 7022   1.243   0.238   5.586
 2041SOL    HW2 7023   1.100   0.232   5.508
 2042SOL     OW 7024   4.932   0.337   5.860
 2042SOL    HW1 7025   4.930   0.379   5.951
 2042SOL    HW2 7026   4.869   0.260   5.857
 2043SOL     OW 7027   6.193   2.523   2.847
 2043SOL    HW1 7028   6.177   2.515   2.748
 2043SOL    HW2 7029   6.204   2.619   2.872
 2044SOL     OW 7030   6.243   0.597   0.585
 2044SOL    HW1 7031   6.165   0.541   0.611
 2044SOL    HW2 7032   6.213   0.692   0.572
 2045SOL     OW 7033   1.079   5.049   4.380
 2045SOL    HW1 7034   1.038   5.139   4.365
 2045SOL    HW2 7035   1.114   5.044   4.474
 2046SOL     OW 7036   6.247   2.359   5.532
 2046SOL    HW1 7037   6.185   2.290   5.568
 2046SOL    HW2 7038   6.196   2.440   5.506
 2047SOL     OW 7039   6.629   2.725   1.050
 2047SOL    HW1 7040   6.676   2.695   0.967
 2047SOL    HW2 7041   6.531   2.711   1.039
 2048SOL     OW 7042   0.379   0.738   4.736
 2048SOL    HW1 7043   0.279   0.748   4.735
 2048SOL    HW2 7044   0.414   0.741   4.643
 2049SOL     OW 7045   5.255   1.459   3.930
 2049SOL    HW1 7046   5.309   1.529   3.976
 2049SOL    HW2 7047   5.169   1.499   3.897
 2050SOL     OW 7048   6.919   2.582   4.448
 2050SOL    HW1 7049   6.878   2.495   4.420
 2050SOL    HW2 7050   6.868   2.658   4.406
 2051SOL     OW 7051   1.956   5.819   6.889
 2051SOL    HW1 7052   2.022   5.833   6.815
 2051SOL    HW2 7053   2.004   5.820   6.977
 2052SOL     OW 7054   1.426   2.771   0.659
 2052SOL    HW1 7055   1.347   2.724   0.619
 2052SOL    HW2 7056   1.439   2.858   0.613
 2053SOL     OW 7057   1.057   5.366   4.820
 2053SOL    HW1 7058   1.142   5.316   4.802
 2053SOL    HW2 7059   0.990   5.304   4.860
 2054SOL     OW 7060   3.051   3.656   3.432
 2054SOL    HW1 7061   3.061   3.682   3.528
 2054SOL    HW2 7062   3.051   3.557   3.423
 2055SOL     OW 7063   6.324   2.930   4.961
 2055SOL    HW1 7064   6.331   2.878   5.046
 2055SOL    HW2 7065   6.402   2.992   4.954
 2056SOL     OW 7066   4.089   4.969   1.619
 2056SOL    HW1 7067   4.026   5.046   1.627
 2056SOL    HW2 7068   4.130   4.951   1.709
 2057SOL     OW 7069   4.871   3.307   5.035
 2057SOL    HW1 7070   4.842   3.402   5.021
 2057SOL    HW2 7071   4.829   3.248   4.966
 2058SOL     OW 7072   0.711   6.780   2.413
 2058SOL    HW1 7073   0.674   6.743   2.328
 2058SOL    HW2 7074   0.654   6.857   2.443
 2059SOL     OW 7075   2.709   7.009   5.643
 2059SOL    HW1 7076   2.657   0.068   5.634
 2059SOL    HW2 7077   2.719   6.967   5.553
 2060SOL     OW 7078   0.002   3.307   1.955
 2060SOL    HW1 7079   7.000   3.212   1.953
 2060SOL    HW2 7080   6.968   3.361   1.896
 2061SOL     OW 7081   1.981   2.039   2.216
 2061SOL    HW1 7082   1.972   2.067   2.121
 2061SOL    HW2 7083   2.068   2.071   2.252
 2062SOL     OW 7084   6.923   5.886   5.320
 2062SOL    HW1 7085   6.887   5.887   5.413
 2062SOL    HW2 7086   6.853   5.919   5.257
 2063SOL     OW 7087   1.146   6.772   4.699
 2063SOL    HW1 7088   1.170   6.781   4.796
 2063SOL    HW2 7089   1.073   6.705   4.689
 2064SOL     OW 7090   0.816   3.161   4.390
 2064SOL    HW1 7091   0.795   3.238   4.330
 2064SOL    HW2 7092   0.911   3.166   4.420
 2065SOL     OW 7093   5.345   3.417   5.899
 2065SOL    HW1 7094   5.283   3.432   5.821
 2065SOL    HW2 7095   5.429   3.469   5.885
 2066SOL     OW 7096   6.440   4.430   5.578
 2066SOL    HW1 7097   6.449   4.468   5.486
 2066SOL    HW2 7098   6.386   4.491   5.635
 2067SOL     OW 7099   6.456   4.890   1.186
 2067SOL    HW1 7100   6.510   4.806   1.200
 2067SOL    HW2 7101   6.375   4.886   1.244
 2068SOL     OW 7102   3.977   1.186   4.513
 2068SOL    HW1 7103   3.986   1.285   4.504
 2068SOL    HW2 7104   4.048   1.152   4.575
 2069SOL     OW 7105   0.320   2.233   4.157
 2069SOL    HW1 7106   0.247   2.298   4.182
 2069SOL    HW2 7107   0.303   2.145   4.201
 2070SOL     OW 7108   1.347   2.841   0.899
 2070SOL    HW1 7109   1.347   2.751   0.942
 2070SOL    HW2 7110   1.397   2.837   0.812
 2071SOL     OW 7111   5.774   1.989   6.192
 2071SOL    HW1 7112   5.770   2.089   6.190
 2071SOL    HW2 7113   5.823   1.960   6.274
 2072SOL     OW 7114   4.069   5.038   5.326
 2072SOL    HW1 7115   4.077   5.137   5.332
 2072SOL    HW2 7116   4.089   4.998   5.416
 2073SOL     OW 7117   3.398   6.392   5.679
 2073SOL    HW1 7118   3.324   6.344   5.727
 2073SOL    HW2 7119   3.486   6.350   5.702
 2074SOL     OW 7120   1.595   2.360   6.523
 2074SOL    HW1 7121   1.635   2.411   6.447
 2074SOL    HW2 7122   1.645   2.274   6.536
 2075SOL     OW 7123   6.642   2.151   3.394
 2075SOL    HW1 7124   6.683   2.116   3.310
 2075SOL    HW2 7125   6.546   2.126   3.397
 2076SOL     OW 7126   6.238   0.507   5.678
 2076SOL    HW1 7127   6.312   0.497   5.744
 2076SOL    HW2 7128   6.155   0.463   5.713
 2077SOL     OW 7129   6.080   1.818   1.739
 2077SOL    HW1 7130   6.026   1.864   1.668
 2077SOL    HW2 7131   6.110   1.885   1.807
 2078SOL     OW 7132   1.164   5.155   5.815
 2078SOL    HW1 7133   1.203   5.216   5.883
 2078SOL    HW2 7134   1.232   5.138   5.743
 2079SOL     OW 7135   5.968   0.764   2.397
 2079SOL    HW1 7136   5.902   0.835   2.372
 2079SOL    HW2 7137   5.962   0.746   2.495
 2080SOL     OW 7138   3.515   1.716   4.788
 2080SOL    HW1 7139   3.573   1.682   4.714
 2080SOL    HW2 7140   3.485   1.639   4.845
 2081SOL     OW 7141   1.012   6.687   3.980
 2081SOL    HW1 7142   1.033   6.589   3.983
 2081SOL    HW2 7143   0.949   6.709   4.055
 2082SOL     OW 7144   0.709   6.517   3.076
 2082SOL    HW1 7145   0.763   6.437   3.049
 2082SOL    HW2 7146   0.762   6.572   3.141
 2083SOL     OW 7147   0.819   5.902   4.403
 2083SOL    HW1 7148   0.798   5.870   4.310
 2083SOL    HW2 7149   0.822   5.823   4.465
 2084SOL     OW 7150   0.951   2.606   1.494
 2084SOL    HW1 7151   1.048   2.626   1.478
 2084SOL    HW2 7152   0.900   2.616   1.409
 2085SOL     OW 7153   5.147   6.354   0.944
 2085SOL    HW1 7154   5.057   6.384   0.974
 2085SOL    HW2 7155   5.190   6.425   0.889
 2086SOL     OW 7156   3.856   5.682   6.607
 2086SOL    HW1 7157   3.782   5.638   6.556
 2086SOL    HW2 7158   3.942   5.636   6.587
 2087SOL     OW 7159   4.632   1.835   0.464
 2087SOL    HW1 7160   4.637   1.912   0.528
 2087SOL    HW2 7161   4.540   1.795   0.468
 2088SOL     OW 7162   1.131   5.720   5.380
 2088SOL    HW1 7163   1.051   5.683   5.427
 2088SOL    HW2 7164   1.102   5.791   5.316
 2089SOL     OW 7165   3.968   2.250   5.254
 2089SOL    HW1 7166   3.956   2.206   5.165
 2089SOL    HW2 7167   3.887   2.307   5.273
 2090SOL     OW 7168   5.051   2.645   5.541
 2090SOL    HW1 7169   5.023   2.718   5.479
 2090SOL    HW2 7170   5.036   2.556   5.498
 2091SOL     OW 7171   6.689   6.196   0.860
 2091SOL    HW1 7172   6.747   6.258   0.913
 2091SOL    HW2 7173   6.625   6.149   0.921
 2092SOL     OW 7174   5.747   3.589   0.867
 2092SOL    HW1 7175   5.805   3.595   0.948
 2092SOL    HW2 7176   5.759   3.670   0.810
 2093SOL     OW 7177   3.497   2.040   2.465
 2093SOL    HW1 7178   3.505   2.058   2.368
 2093SOL    HW2 7179   3.408   2.073   2.498
 2094SOL     OW 7180   5.612   2.192   0.859
 2094SOL    HW1 7181   5.627   2.238   0.771
 2094SOL    HW2 7182   5.517   2.160   0.864
 2095SOL     OW 7183   6.112   5.840   3.576
 2095SOL    HW1 7184   6.191   5.877   3.625
 2095SOL    HW2 7185   6.143   5.784   3.500
 2096SOL     OW 7186   4.525   5.797   2.711
 2096SOL    HW1 7187   4.460   5.762   2.779
 2096SOL    HW2 7188   4.547   5.892   2.733
 2097SOL     OW 7189   2.608   3.353   7.018
 2097SOL    HW1 7190   2.676   3.393   0.054
 2097SOL    HW2 7191   2.651   3.329   6.932
 2098SOL     OW 7192   3.980   5.884   3.086
 2098SOL    HW1 7193   4.015   5.962   3.138
 2098SOL    HW2 7194   4.013   5.888   2.992
 2099SOL     OW 7195   4.099   1.842   6.863
 2099SOL    HW1 7196   4.110   1.769   6.930
 2099SOL    HW2 7197   4.025   1.819   6.799
 2100SOL     OW 7198   5.113   1.521   0.732
 2100SOL    HW1 7199   5.151   1.613   0.743
 2100SOL    HW2 7200   5.019   1.519   0.766
 2101SOL     OW 7201   6.817   6.373   1.018
 2101SOL    HW1 7202   6.848   6.350   1.110
 2101SOL    HW2 7203   6.832   6.470   1.001
 2102SOL     OW 7204   4.569   3.716   1.316
 2102SOL    HW1 7205   4.493   3.679   1.370
 2102SOL    HW2 7206   4.628   3.771   1.375
 2103SOL     OW 7207   2.852   3.691   0.650
 2103SOL    HW1 7208   2.938   3.685   0.700
 2103SOL    HW2 7209   2.776   3.668   0.712
 2104SOL     OW 7210   1.303   4.784   1.915
 2104SOL    HW1 7211   1.313   4.866   1.972
 2104SOL    HW2 7212   1.346   4.800   1.826
 2105SOL     OW 7213   3.690   4.389   0.009
 2105SOL    HW1 7214   3.657   4.430   6.950
 2105SOL    HW2 7215   3.750   4.454   0.056
 2106SOL     OW 7216   5.443   3.581   1.085
 2106SOL    HW1 7217   5.524   3.537   1.123
 2106SOL    HW2 7218   5.455   3.680   1.087
 2107SOL     OW 7219   6.039   3.140   5.638
 2107SOL    HW1 7220   5.996   3.123   5.549
 2107SOL    HW2 7221   6.070   3.234   5.642
 2108SOL     OW 7222   5.663   6.363   5.835
 2108SOL    HW1 7223   5.713   6.284   5.800
 2108SOL    HW2 7224   5.609   6.403   5.761
 2109SOL     OW 7225   3.191   5.754   1.973
 2109SOL    HW1 7226   3.269   5.759   1.910
 2109SOL    HW2 7227   3.132   5.834   1.958
 2110SOL     OW 7228   3.844   0.608   5.826
 2110SOL    HW1 7229   3.812   0.524   5.783
 2110SOL    HW2 7230   3.768   0.656   5.869
 2111SOL     OW 7231   1.114   1.943   5.779
 2111SOL    HW1 7232   1.177   1.962   5.854
 2111SOL    HW2 7233   1.053   2.022   5.766
 2112SOL     OW 7234   5.753   2.322   6.471
 2112SOL    HW1 7235   5.735   2.292   6.377
 2112SOL    HW2 7236   5.699   2.404   6.490
 2113SOL     OW 7237   1.745   6.844   4.643
 2113SOL    HW1 7238   1.670   6.903   4.672
 2113SOL    HW2 7239   1.821   6.900   4.610
 2114SOL     OW 7240   2.308   2.704   7.009
 2114SOL    HW1 7241   2.217   2.744   7.015
 2114SOL    HW2 7242   2.312   2.643   6.930
 2115SOL     OW 7243   1.301   4.638   1.594
 2115SOL    HW1 7244   1.243   4.604   1.520
 2115SOL    HW2 7245   1.259   4.615   1.682
 2116SOL     OW 7246   0.625   2.565   1.052
 2116SOL    HW1 7247   0.714   2.606   1.030
 2116SOL    HW2 7248   0.565   2.571   0.972
 2117SOL     OW 7249   5.147   3.123   1.754
 2117SOL    HW1 7250   5.099   3.078   1.830
 2117SOL    HW2 7251   5.197   3.054   1.701
 2118SOL     OW 7252   6.292   3.668   2.329
 2118SOL    HW1 7253   6.289   3.721   2.413
 2118SOL    HW2 7254   6.207   3.682   2.277
 2119SOL     OW 7255   1.526   1.527   0.328
 2119SOL    HW1 7256   1.481   1.610   0.297
 2119SOL    HW2 7257   1.533   1.528   0.427
 2120SOL     OW 7258   6.289   2.046   2.586
 2120SOL    HW1 7259   6.238   1.991   2.652
 2120SOL    HW2 7260   6.289   1.999   2.497
 2121SOL     OW 7261   2.268   2.293   6.269
 2121SOL    HW1 7262   2.171   2.307   6.289
 2121SOL    HW2 7263   2.290   2.331   6.179
 2122SOL     OW 7264   6.019   6.847   6.251
 2122SOL    HW1 7265   6.103   6.861   6.303
 2122SOL    HW2 7266   6.019   6.755   6.212
 2123SOL     OW 7267   6.566   6.055   2.407
 2123SOL    HW1 7268   6.644   6.035   2.466
 2123SOL    HW2 7269   6.561   6.154   2.391
 2124SOL     OW 7270   2.840   1.691   5.658
 2124SOL    HW1 7271   2.784   1.683   5.575
 2124SOL    HW2 7272   2.929   1.648   5.641
 2125SOL     OW 7273   1.773   6.397   2.861
 2125SOL    HW1 7274   1.861   6.435   2.888
 2125SOL    HW2 7275   1.712   6.470   2.831
 2126SOL     OW 7276   4.261   3.159   6.966
 2126SOL    HW1 7277   4.214   3.241   6.934
 2126SOL    HW2 7278   4.277   3.097   6.889
 2127SOL     OW 7279   0.405   1.929   5.482
 2127SOL    HW1 7280   0.368   1.960   5.570
 2127SOL    HW2 7281   0.501   1.958   5.475
 2128SOL     OW 7282   5.952   3.633   1.062
 2128SOL    HW1 7283   5.994   3.640   1.153
 2128SOL    HW2 7284   6.024   3.629   0.993
 2129SOL     OW 7285   5.186   4.426   4.307
 2129SOL    HW1 7286   5.130   4.509   4.306
 2129SOL    HW2 7287   5.127   4.346   4.296
 2130SOL     OW 7288   2.620   1.565   1.415
 2130SOL    HW1 7289   2.524   1.541   1.400
 2130SOL    HW2 7290   2.644   1.548   1.510
 2131SOL     OW 7291   5.312   1.980   0.610
 2131SOL    HW1 7292   5.222   1.952   0.576
 2131SOL    HW2 7293   5.372   2.000   0.533
 2132SOL     OW 7294   3.496   1.434   6.776
 2132SOL    HW1 7295   3.400   1.463   6.781
 2132SOL    HW2 7296   3.546   1.498   6.718
 2133SOL     OW 7297   2.313   2.379   1.406
 2133SOL    HW1 7298   2.378   2.317   1.450
 2133SOL    HW2 7299   2.231   2.329   1.379
 2134SOL     OW 7300   1.255   0.781   4.576
 2134SOL    HW1 7301   1.290   0.696   4.536
 2134SOL    HW2 7302   1.324   0.853   4.569
 2135SOL     OW 7303   0.609   2.008   4.042
 2135SOL    HW1 7304   0.638   2.102   4.059
 2135SOL    HW2 7305   0.510   2.004   4.033
 2136SOL     OW 7306   0.826   3.484   4.792
 2136SOL    HW1 7307   0.863   3.465   4.701
 2136SOL    HW2 7308   0.770   3.566   4.788
 2137SOL     OW 7309   0.727   0.191   4.788
 2137SOL    HW1 7310   0.707   0.241   4.873
 2137SOL    HW2 7311   0.825   0.197   4.769
 2138SOL     OW 7312   6.210   2.595   1.809
 2138SOL    HW1 7313   6.258   2.510   1.831
 2138SOL    HW2 7314   6.244   2.631   1.722
 2139SOL     OW 7315   3.871   0.774   3.593
 2139SOL    HW1 7316   3.874   0.838   3.670
 2139SOL    HW2 7317   3.855   0.825   3.508
 2140SOL     OW 7318   3.130   6.293   2.805
 2140SOL    HW1 7319   3.206   6.299   2.740
 2140SOL    HW2 7320   3.100   6.197   2.812
 2141SOL     OW 7321   6.713   3.063   1.832
 2141SOL    HW1 7322   6.659   3.142   1.805
 2141SOL    HW2 7323   6.709   2.993   1.760
 2142SOL     OW 7324   1.392   1.973   3.222
 2142SOL    HW1 7325   1.347   2.050   3.267
 2142SOL    HW2 7326   1.327   1.899   3.208
 2143SOL     OW 7327   3.705   6.109   1.145
 2143SOL    HW1 7328   3.631   6.151   1.198
 2143SOL    HW2 7329   3.722   6.016   1.179
 2144SOL     OW 7330   1.492   0.582   3.163
 2144SOL    HW1 7331   1.464   0.646   3.092
 2144SOL    HW2 7332   1.562   0.520   3.127
 2145SOL     OW 7333   3.616   5.723   3.859
 2145SOL    HW1 7334   3.663   5.811   3.853
 2145SOL    HW2 7335   3.572   5.702   3.771
 2146SOL     OW 7336   3.486   3.992   2.511
 2146SOL    HW1 7337   3.421   4.015   2.439
 2146SOL    HW2 7338   3.465   3.902   2.548
 2147SOL     OW 7339   0.259   1.444   6.935
 2147SOL    HW1 7340   0.242   1.356   6.892
 2147SOL    HW2 7341   0.179   1.503   6.922
 2148SOL     OW 7342   4.923   3.438   4.099
 2148SOL    HW1 7343   4.922   3.532   4.132
 2148SOL    HW2 7344   4.892   3.436   4.004
 2149SOL     OW 7345   3.512   0.659   1.918
 2149SOL    HW1 7346   3.554   0.626   1.833
 2149SOL    HW2 7347   3.572   0.637   1.995
 2150SOL     OW 7348   3.181   2.170   2.772
 2150SOL    HW1 7349   3.211   2.114   2.695
 2150SOL    HW2 7350   3.237   2.150   2.852
 2151SOL     OW 7351   3.337   2.000   5.371
 2151SOL    HW1 7352   3.252   2.052   5.358
 2151SOL    HW2 7353   3.348   1.977   5.468
 2152SOL     OW 7354   5.457   6.349   1.713
 2152SOL    HW1 7355   5.466   6.305   1.802
 2152SOL    HW2 7356   5.548   6.361   1.672
 2153SOL     OW 7357   4.297   0.967   4.451
 2153SOL    HW1 7358   4.283   0.894   4.383
 2153SOL    HW2 7359   4.218   0.972   4.511
 2154SOL     OW 7360   3.359   5.847   4.792
 2154SOL    HW1 7361   3.278   5.819   4.740
 2154SOL    HW2 7362   3.347   5.940   4.827
 2155SOL     OW 7363   1.669   5.178   7.026
 2155SOL    HW1 7364   1.643   5.098   6.973
 2155SOL    HW2 7365   1.750   5.157   0.055
 2156SOL     OW 7366   2.260   0.331   1.884
 2156SOL    HW1 7367   2.306   0.414   1.853
 2156SOL    HW2 7368   2.321   0.252   1.871
 2157SOL     OW 7369   6.331   0.861   4.585
 2157SOL    HW1 7370   6.240   0.822   4.599
 2157SOL    HW2 7371   6.327   0.961   4.595
 2158SOL     OW 7372   3.167   6.394   6.976
 2158SOL    HW1 7373   3.259   6.357   6.969
 2158SOL    HW2 7374   3.171   6.491   6.999
 2159SOL     OW 7375   1.437   6.349   5.110
 2159SOL    HW1 7376   1.459   6.413   5.036
 2159SOL    HW2 7377   1.516   6.339   5.170
 2160SOL     OW 7378   4.521   4.179   1.591
 2160SOL    HW1 7379   4.462   4.204   1.668
 2160SOL    HW2 7380   4.465   4.144   1.516
 2161SOL     OW 7381   4.891   3.652   3.624
 2161SOL    HW1 7382   4.881   3.604   3.711
 2161SOL    HW2 7383   4.902   3.585   3.550
 2162SOL     OW 7384   1.788   0.818   0.286
 2162SOL    HW1 7385   1.766   0.911   0.317
 2162SOL    HW2 7386   1.880   0.793   0.316
 2163SOL     OW 7387   0.848   6.558   6.446
 2163SOL    HW1 7388   0.763   6.610   6.449
 2163SOL    HW2 7389   0.861   6.509   6.533
 2164SOL     OW 7390   1.820   0.904   6.119
 2164SOL    HW1 7391   1.787   0.812   6.097
 2164SOL    HW2 7392   1.858   0.946   6.036
 2165SOL     OW 7393   1.682   0.984   2.472
 2165SOL    HW1 7394   1.705   0.950   2.563
 2165SOL    HW2 7395   1.689   1.084   2.470
 2166SOL     OW 7396   1.816   2.653   5.818
 2166SOL    HW1 7397   1.881   2.636   5.745
 2166SOL    HW2 7398   1.862   2.699   5.894
 2167SOL     OW 7399   3.018   0.281   2.161
 2167SOL    HW1 7400   3.081   0.225   2.107
 2167SOL    HW2 7401   2.927   0.278   2.120
 2168SOL     OW 7402   6.230   3.068   5.293
 2168SOL    HW1 7403   6.213   3.151   5.347
 2168SOL    HW2 7404   6.163   3.061   5.220
 2169SOL     OW 7405   5.181   2.426   5.832
 2169SOL    HW1 7406   5.204   2.354   5.765
 2169SOL    HW2 7407   5.220   2.513   5.802
 2170SOL     OW 7408   5.259   4.567   5.097
 2170SOL    HW1 7409   5.302   4.517   5.172
 2170SOL    HW2 7410   5.306   4.547   5.012
 2171SOL     OW 7411   6.611   2.575   7.013
 2171SOL    HW1 7412   6.523   2.592   6.968
 2171SOL    HW2 7413   6.618   2.478   0.010
 2172SOL     OW 7414   3.183   1.294   0.420
 2172SOL    HW1 7415   3.089   1.289   0.453
 2172SOL    HW2 7416   3.184   1.286   0.320
 2173SOL     OW 7417   4.030   0.214   5.691
 2173SOL    HW1 7418   4.022   0.147   5.764
 2173SOL    HW2 7419   3.946   0.216   5.637
 2174SOL     OW 7420   6.574   4.528   5.970
 2174SOL    HW1 7421   6.630   4.445   5.967
 2174SOL    HW2 7422   6.495   4.512   6.029
 2175SOL     OW 7423   3.384   1.461   3.477
 2175SOL    HW1 7424   3.387   1.365   3.505
 2175SOL    HW2 7425   3.334   1.469   3.391
 2176SOL     OW 7426   1.320   2.262   1.837
 2176SOL    HW1 7427   1.326   2.163   1.848
 2176SOL    HW2 7428   1.407   2.304   1.865
 2177SOL     OW 7429   6.672   1.150   2.190
 2177SOL    HW1 7430   6.638   1.087   2.260
 2177SOL    HW2 7431   6.673   1.243   2.226
 2178SOL     OW 7432   1.151   3.892   0.762
 2178SOL    HW1 7433   1.240   3.866   0.799
 2178SOL    HW2 7434   1.097   3.810   0.745
 2179SOL     OW 7435   1.919   5.526   3.978
 2179SOL    HW1 7436   1.903   5.500   3.883
 2179SOL    HW2 7437   1.938   5.625   3.982
 2180SOL     OW 7438   3.188   3.534   3.048
 2180SOL    HW1 7439   3.252   3.605   3.074
 2180SOL    HW2 7440   3.094   3.568   3.058
 2181SOL     OW 7441   4.945   4.495   5.668
 2181SOL    HW1 7442   4.878   4.446   5.723
 2181SOL    HW2 7443   5.015   4.535   5.728
 2182SOL     OW 7444   6.911   3.614   6.427
 2182SOL    HW1 7445   7.010   3.622   6.431
 2182SOL    HW2 7446   6.880   3.551   6.499
 2183SOL     OW 7447   3.280   3.129   0.948
 2183SOL    HW1 7448   3.185   3.098   0.953
 2183SOL    HW2 7449   3.340   3.055   0.978
 2184SOL     OW 7450   3.759   0.495   6.202
 2184SOL    HW1 7451   3.844   0.480   6.151
 2184SOL    HW2 7452   3.698   0.553   6.147
 2185SOL     OW 7453   1.800   1.715   0.730
 2185SOL    HW1 7454   1.766   1.794   0.678
 2185SOL    HW2 7455   1.890   1.736   0.767
 2186SOL     OW 7456   0.060   4.719   2.117
 2186SOL    HW1 7457   0.144   4.739   2.169
 2186SOL    HW2 7458   7.015   4.784   2.144
 2187SOL     OW 7459   0.346   1.377   1.664
 2187SOL    HW1 7460   0.252   1.392   1.635
 2187SOL    HW2 7461   0.379   1.291   1.626
 2188SOL     OW 7462   4.910   6.005   3.807
 2188SOL    HW1 7463   4.902   6.067   3.729
 2188SOL    HW2 7464   5.002   5.966   3.808
 2189SOL     OW 7465   1.253   6.787   5.764
 2189SOL    HW1 7466   1.333   6.744   5.723
 2189SOL    HW2 7467   1.252   6.768   5.862
 2190SOL     OW 7468   5.958   2.948   1.763
 2190SOL    HW1 7469   5.911   2.926   1.848
 2190SOL    HW2 7470   5.905   2.914   1.686
 2191SOL     OW 7471   3.480   2.378   6.065
 2191SOL    HW1 7472   3.481   2.281   6.042
 2191SOL    HW2 7473   3.386   2.410   6.072
 2192SOL     OW 7474   4.501   6.387   5.184
 2192SOL    HW1 7475   4.570   6.374   5.113
 2192SOL    HW2 7476   4.411   6.400   5.141
 2193SOL     OW 7477   0.048   5.343   5.987
 2193SOL    HW1 7478   6.983   5.310   6.014
 2193SOL    HW2 7479   0.045   5.442   5.975
 2194SOL     OW 7480   1.933   5.977   0.483
 2194SOL    HW1 7481   1.895   5.896   0.439
 2194SOL    HW2 7482   2.032   5.977   0.474
 2195SOL     OW 7483   0.186   6.499   1.948
 2195SOL    HW1 7484   0.230   6.437   1.883
 2195SOL    HW2 7485   0.194   6.593   1.914
 2196SOL     OW 7486   2.657   0.656   5.433
 2196SOL    HW1 7487   2.590   0.730   5.432
 2196SOL    HW2 7488   2.700   0.651   5.523
 2197SOL     OW 7489   4.840   3.974   1.948
 2197SOL    HW1 7490   4.896   3.899   1.912
 2197SOL    HW2 7491   4.881   4.007   2.033
 2198SOL     OW 7492   6.920   3.645   6.810
 2198SOL    HW1 7493   6.994   3.696   6.765
 2198SOL    HW2 7494   6.891   3.570   6.751
 2199SOL     OW 7495   5.286   6.817   0.949
 2199SOL    HW1 7496   5.318   6.911   0.957
 2199SOL    HW2 7497   5.333   6.760   1.017
 2200SOL     OW 7498   4.225   0.495   4.591
 2200SOL    HW1 7499   4.278   0.411   4.579
 2200SOL    HW2 7500   4.177   0.517   4.505
 2201SOL     OW 7501   5.974   4.007   2.168
 2201SOL    HW1 7502   5.899   4.065   2.138
 2201SOL    HW2 7503   6.050   4.063   2.200
 2202SOL     OW 7504   3.475   4.967   4.436
 2202SOL    HW1 7505   3.445   4.957   4.531
 2202SOL    HW2 7506   3.573   4.951   4.430
 2203SOL     OW 7507   3.634   2.061   2.984
 2203SOL    HW1 7508   3.645   2.073   2.885
 2203SOL    HW2 7509   3.713   2.100   3.031
 2204SOL     OW 7510   3.535   1.203   6.897
 2204SOL    HW1 7511   3.468   1.148   6.946
 2204SOL    HW2 7512   3.492   1.288   6.865
 2205SOL     OW 7513   1.787   0.601   6.527
 2205SOL    HW1 7514   1.792   0.682   6.585
 2205SOL    HW2 7515   1.847   0.530   6.564
 2206SOL     OW 7516   2.935   3.505   6.482
 2206SOL    HW1 7517   2.999   3.498   6.558
 2206SOL    HW2 7518   2.979   3.472   6.398
 2207SOL     OW 7519   0.863   4.527   6.199
 2207SOL    HW1 7520   0.872   4.519   6.100
 2207SOL    HW2 7521   0.911   4.452   6.244
 2208SOL     OW 7522   1.220   3.796   2.144
 2208SOL    HW1 7523   1.282   3.770   2.069
 2208SOL    HW2 7524   1.179   3.713   2.183
 2209SOL     OW 7525   1.728   6.062   6.026
 2209SOL    HW1 7526   1.789   6.027   6.098
 2209SOL    HW2 7527   1.778   6.126   5.968
 2210SOL     OW 7528   0.543   5.221   3.128
 2210SOL    HW1 7529   0.623   5.219   3.069
 2210SOL    HW2 7530   0.482   5.146   3.104
 2211SOL     OW 7531   5.772   1.757   5.579
 2211SOL    HW1 7532   5.838   1.810   5.632
 2211SOL    HW2 7533   5.731   1.816   5.509
 2212SOL     OW 7534   0.254   6.353   6.121
 2212SOL    HW1 7535   0.309   6.427   6.083
 2212SOL    HW2 7536   0.217   6.298   6.047
 2213SOL     OW 7537   4.373   2.240   4.250
 2213SOL    HW1 7538   4.338   2.300   4.321
 2213SOL    HW2 7539   4.348   2.276   4.160
 2214SOL     OW 7540   4.896   0.572   5.648
 2214SOL    HW1 7541   4.905   0.630   5.567
 2214SOL    HW2 7542   4.829   0.500   5.630
 2215SOL     OW 7543   6.874   1.517   5.635
 2215SOL    HW1 7544   6.959   1.541   5.681
 2215SOL    HW2 7545   6.801   1.507   5.702
 2216SOL     OW 7546   1.349   0.427   0.828
 2216SOL    HW1 7547   1.395   0.440   0.916
 2216SOL    HW2 7548   1.257   0.467   0.832
 2217SOL     OW 7549   3.971   0.368   0.673
 2217SOL    HW1 7550   4.027   0.349   0.753
 2217SOL    HW2 7551   4.027   0.362   0.591
 2218SOL     OW 7552   1.363   6.207   6.577
 2218SOL    HW1 7553   1.263   6.215   6.585
 2218SOL    HW2 7554   1.398   6.158   6.657
 2219SOL     OW 7555   1.657   4.044   3.105
 2219SOL    HW1 7556   1.652   4.106   3.184
 2219SOL    HW2 7557   1.747   4.051   3.063
 2220SOL     OW 7558   0.370   1.916   4.714
 2220SOL    HW1 7559   0.292   1.965   4.751
 2220SOL    HW2 7560   0.357   1.818   4.727
 2221SOL     OW 7561   6.685   2.006   1.148
 2221SOL    HW1 7562   6.643   1.999   1.239
 2221SOL    HW2 7563   6.620   1.975   1.079
 2222SOL     OW 7564   3.988   0.455   1.261
 2222SOL    HW1 7565   3.985   0.546   1.302
 2222SOL    HW2 7566   3.903   0.437   1.212
 2223SOL     OW 7567   6.237   5.320   3.390
 2223SOL    HW1 7568   6.217   5.328   3.293
 2223SOL    HW2 7569   6.170   5.374   3.442
 2224SOL     OW 7570   1.851   4.741   1.660
 2224SOL    HW1 7571   1.911   4.784   1.593
 2224SOL    HW2 7572   1.879   4.767   1.752
 2225SOL     OW 7573   6.100   4.574   2.194
 2225SOL    HW1 7574   6.153   4.576   2.278
 2225SOL    HW2 7575   6.008   4.540   2.213
 2226SOL     OW 7576   3.507   3.055   1.568
 2226SOL    HW1 7577   3.412   3.025   1.574
 2226SOL    HW2 7578   3.548   3.017   1.485
 2227SOL     OW 7579   6.413   4.137   5.993
 2227SOL    HW1 7580   6.320   4.173   5.988
 2227SOL    HW2 7581   6.474   4.206   6.031
 2228SOL     OW 7582   2.831   4.860   0.121
 2228SOL    HW1 7583   2.914   4.901   0.161
 2228SOL    HW2 7584   2.857   4.792   0.053
 2229SOL     OW 7585   4.768   1.492   4.102
 2229SOL    HW1 7586   4.686   1.433   4.108
 2229SOL    HW2 7587   4.839   1.454   4.161
 2230SOL     OW 7588   1.585   5.102   4.000
 2230SOL    HW1 7589   1.629   5.142   3.920
 2230SOL    HW2 7590   1.645   5.032   4.040
 2231SOL     OW 7591   1.894   1.532   2.410
 2231SOL    HW1 7592   1.928   1.619   2.374
 2231SOL    HW2 7593   1.898   1.462   2.339
 2232SOL     OW 7594   0.515   3.328   3.148
 2232SOL    HW1 7595   0.603   3.289   3.174
 2232SOL    HW2 7596   0.524   3.428   3.142
 2233SOL     OW 7597   3.592   4.776   0.093
 2233SOL    HW1 7598   3.554   4.756   0.003
 2233SOL    HW2 7599   3.678   4.826   0.082
 2234SOL     OW 7600   3.795   2.185   0.765
 2234SOL    HW1 7601   3.892   2.203   0.779
 2234SOL    HW2 7602   3.758   2.137   0.845
 2235SOL     OW 7603   1.204   6.984   6.825
 2235SOL    HW1 7604   1.145   6.944   6.895
 2235SOL    HW2 7605   1.237   6.912   6.764
 2236SOL     OW 7606   0.575   4.237   0.679
 2236SOL    HW1 7607   0.591   4.139   0.674
 2236SOL    HW2 7608   0.638   4.284   0.617
 2237SOL     OW 7609   6.665   3.701   4.451
 2237SOL    HW1 7610   6.697   3.733   4.362
 2237SOL    HW2 7611   6.738   3.712   4.519
 2238SOL     OW 7612   6.997   5.759   2.006
 2238SOL    HW1 7613   0.009   5.671   1.978
 2238SOL    HW2 7614   0.012   5.832   1.951
 2239SOL     OW 7615   4.296   4.710   3.896
 2239SOL    HW1 7616   4.198   4.714   3.876
 2239SOL    HW2 7617   4.310   4.688   3.993
 2240SOL     OW 7618   6.878   5.462   3.300
 2240SOL    HW1 7619   6.822   5.513   3.365
 2240SOL    HW2 7620   6.826   5.383   3.266
 2241SOL     OW 7621   0.257   6.527   2.242
 2241SOL    HW1 7622   0.274   6.626   2.251
 2241SOL    HW2 7623   0.223   6.508   2.149
 2242SOL     OW 7624   5.088   1.866   2.918
 2242SOL    HW1 7625   5.137   1.918   2.848
 2242SOL    HW2 7626   5.147   1.795   2.954
 2243SOL     OW 7627   2.757   5.927   4.683
 2243SOL    HW1 7628   2.671   5.956   4.641
 2243SOL    HW2 7629   2.742   5.846   4.739
 2244SOL     OW 7630   3.933   1.186   3.981
 2244SOL    HW1 7631   3.914   1.104   3.926
 2244SOL    HW2 7632   3.908   1.168   4.076
 2245SOL     OW 7633   6.697   2.032   2.142
 2245SOL    HW1 7634   6.677   2.127   2.164
 2245SOL    HW2 7635   6.783   2.027   2.090
 2246SOL     OW 7636   1.623   2.935   5.160
 2246SOL    HW1 7637   1.713   2.907   5.192
 2246SOL    HW2 7638   1.571   2.974   5.236
 2247SOL     OW 7639   2.585   2.310   5.498
 2247SOL    HW1 7640   2.642   2.338   5.575
 2247SOL    HW2 7641   2.593   2.378   5.425
 2248SOL     OW 7642   5.045   4.237   5.226
 2248SOL    HW1 7643   5.036   4.246   5.127
 2248SOL    HW2 7644   5.016   4.323   5.270
 2249SOL     OW 7645   5.447   6.045   2.887
 2249SOL    HW1 7646   5.366   6.048   2.829
 2249SOL    HW2 7647   5.497   6.131   2.879
 2250SOL     OW 7648   5.566   3.740   1.392
 2250SOL    HW1 7649   5.617   3.778   1.469
 2250SOL    HW2 7650   5.528   3.651   1.418
 2251SOL     OW 7651   6.223   1.736   0.166
 2251SOL    HW1 7652   6.182   1.747   0.075
 2251SOL    HW2 7653   6.253   1.641   0.178
 2252SOL     OW 7654   5.823   2.932   5.105
 2252SOL    HW1 7655   5.883   2.852   5.098
 2252SOL    HW2 7656   5.839   2.993   5.027
 2253SOL     OW 7657   1.887   3.210   6.432
 2253SOL    HW1 7658   1.792   3.241   6.432
 2253SOL    HW2 7659   1.890   3.114   6.405
 2254SOL     OW 7660   2.190   3.327   5.971
 2254SOL    HW1 7661   2.217   3.251   6.031
 2254SOL    HW2 7662   2.205   3.301   5.876
 2255SOL     OW 7663   6.120   2.715   2.035
 2255SOL    HW1 7664   6.157   2.670   1.954
 2255SOL    HW2 7665   6.052   2.783   2.007
 2256SOL     OW 7666   2.940   4.861   2.109
 2256SOL    HW1 7667   2.905   4.781   2.061
 2256SOL    HW2 7668   2.961   4.837   2.204
 2257SOL     OW 7669   1.582   3.316   4.505
 2257SOL    HW1 7670   1.552   3.250   4.436
 2257SOL    HW2 7671   1.531   3.301   4.590
 2258SOL     OW 7672   1.792   4.419   4.910
 2258SOL    HW1 7673   1.792   4.383   5.003
 2258SOL    HW2 7674   1.886   4.438   4.882
 2259SOL     OW 7675   5.619   4.465   6.374
 2259SOL    HW1 7676   5.649   4.384   6.425
 2259SOL    HW2 7677   5.597   4.538   6.438
 2260SOL     OW 7678   3.795   4.999   2.679
 2260SOL    HW1 7679   3.706   4.981   2.636
 2260SOL    HW2 7680   3.794   4.967   2.773
 2261SOL     OW 7681   5.356   6.459   0.805
 2261SOL    HW1 7682   5.351   6.509   0.719
 2261SOL    HW2 7683   5.435   6.397   0.803
 2262SOL     OW 7684   5.849   1.613   4.317
 2262SOL    HW1 7685   5.794   1.591   4.237
 2262SOL    HW2 7686   5.900   1.697   4.301
 2263SOL     OW 7687   2.080   5.769   6.168
 2263SOL    HW1 7688   2.156   5.703   6.167
 2263SOL    HW2 7689   2.049   5.785   6.074
 2264SOL     OW 7690   2.939   3.413   2.673
 2264SOL    HW1 7691   2.847   3.379   2.653
 2264SOL    HW2 7692   2.983   3.352   2.739
 2265SOL     OW 7693   7.021   0.984   2.532
 2265SOL    HW1 7694   6.963   1.066   2.537
 2265SOL    HW2 7695   0.089   1.009   2.558
 2266SOL     OW 7696   6.330   1.062   0.641
 2266SOL    HW1 7697   6.283   1.082   0.727
 2266SOL    HW2 7698   6.425   1.038   0.660
 2267SOL     OW 7699   5.578   2.563   5.005
 2267SOL    HW1 7700   5.613   2.589   4.915
 2267SOL    HW2 7701   5.633   2.488   5.041
 2268SOL     OW 7702   6.802   5.984   0.742
 2268SOL    HW1 7703   6.825   6.011   0.648
 2268SOL    HW2 7704   6.742   6.052   0.783
 2269SOL     OW 7705   6.424   6.052   5.503
 2269SOL    HW1 7706   6.335   6.029   5.464
 2269SOL    HW2 7707   6.419   6.048   5.603
 2270SOL     OW 7708   3.256   3.756   1.951
 2270SOL    HW1 7709   3.275   3.673   1.899
 2270SOL    HW2 7710   3.173   3.742   2.005
 2271SOL     OW 7711   5.982   4.412   1.631
 2271SOL    HW1 7712   5.924   4.490   1.606
 2271SOL    HW2 7713   6.064   4.413   1.574
 2272SOL     OW 7714   5.317   2.223   4.851
 2272SOL    HW1 7715   5.258   2.302   4.869
 2272SOL    HW2 7716   5.272   2.163   4.784
 2273SOL     OW 7717   0.807   0.636   3.172
 2273SOL    HW1 7718   0.796   0.563   3.239
 2273SOL    HW2 7719   0.736   0.705   3.186
 2274SOL     OW 7720   1.734   3.627   4.859
 2274SOL    HW1 7721   1.658   3.577   4.901
 2274SOL    HW2 7722   1.776   3.686   4.928
 2275SOL     OW 7723   4.845   5.969   4.793
 2275SOL    HW1 7724   4.892   5.890   4.755
 2275SOL    HW2 7725   4.756   5.980   4.749
 2276SOL     OW 7726   3.685   4.774   0.999
 2276SOL    HW1 7727   3.761   4.838   0.986
 2276SOL    HW2 7728   3.602   4.825   1.021
 2277SOL     OW 7729   3.329   3.329   5.689
 2277SOL    HW1 7730   3.232   3.318   5.666
 2277SOL    HW2 7731   3.375   3.382   5.617
 2278SOL     OW 7732   4.792   6.113   2.389
 2278SOL    HW1 7733   4.888   6.133   2.407
 2278SOL    HW2 7734   4.735   6.157   2.459
 2279SOL     OW 7735   5.124   3.860   4.373
 2279SOL    HW1 7736   5.178   3.882   4.291
 2279SOL    HW2 7737   5.106   3.762   4.376
 2280SOL     OW 7738   6.514   6.321   5.193
 2280SOL    HW1 7739   6.557   6.348   5.278
 2280SOL    HW2 7740   6.414   6.322   5.204
 2281SOL     OW 7741   3.668   1.898   1.914
 2281SOL    HW1 7742   3.670   1.985   1.964
 2281SOL    HW2 7743   3.616   1.831   1.966
 2282SOL     OW 7744   4.514   5.755   4.744
 2282SOL    HW1 7745   4.593   5.697   4.726
 2282SOL    HW2 7746   4.536   5.850   4.724
 2283SOL     OW 7747   6.530   3.910   3.175
 2283SOL    HW1 7748   6.594   3.864   3.113
 2283SOL    HW2 7749   6.446   3.931   3.126
 2284SOL     OW 7750   2.395   2.475   2.120
 2284SOL    HW1 7751   2.337   2.483   2.039
 2284SOL    HW2 7752   2.491   2.470   2.093
 2285SOL     OW 7753   1.569   3.962   0.601
 2285SOL    HW1 7754   1.648   3.969   0.540
 2285SOL    HW2 7755   1.485   3.970   0.546
 2286SOL     OW 7756   6.754   5.683   5.216
 2286SOL    HW1 7757   6.715   5.603   5.262
 2286SOL    HW2 7758   6.681   5.734   5.171
 2287SOL     OW 7759   2.019   3.017   1.447
 2287SOL    HW1 7760   1.933   3.068   1.453
 2287SOL    HW2 7761   2.041   2.999   1.351
 2288SOL     OW 7762   0.694   6.151   3.180
 2288SOL    HW1 7763   0.662   6.061   3.209
 2288SOL    HW2 7764   0.686   6.215   3.256
 2289SOL     OW 7765   5.549   2.283   1.876
 2289SOL    HW1 7766   5.622   2.342   1.908
 2289SOL    HW2 7767   5.575   2.187   1.888
 2290SOL     OW 7768   3.061   3.385   3.409
 2290SOL    HW1 7769   3.145   3.338   3.379
 2290SOL    HW2 7770   2.982   3.325   3.392
 2291SOL     OW 7771   2.213   1.879   1.276
 2291SOL    HW1 7772   2.136   1.942   1.286
 2291SOL    HW2 7773   2.276   1.915   1.207
 2292SOL     OW 7774   5.167   2.588   4.000
 2292SOL    HW1 7775   5.231   2.518   4.032
 2292SOL    HW2 7776   5.212   2.678   4.004
 2293SOL     OW 7777   5.447   1.239   0.827
 2293SOL    HW1 7778   5.473   1.206   0.918
 2293SOL    HW2 7779   5.354   1.211   0.806
 2294SOL     OW 7780   2.375   2.454   5.664
 2294SOL    HW1 7781   2.460   2.428   5.619
 2294SOL    HW2 7782   2.332   2.530   5.614
 2295SOL     OW 7783   6.765   0.394   1.679
 2295SOL    HW1 7784   6.720   0.358   1.597
 2295SOL    HW2 7785   6.751   0.493   1.684
 2296SOL     OW 7786   2.337   4.990   3.433
 2296SOL    HW1 7787   2.368   5.083   3.448
 2296SOL    HW2 7788   2.248   4.992   3.388
 2297SOL     OW 7789   5.327   4.557   5.773
 2297SOL    HW1 7790   5.281   4.550   5.861
 2297SOL    HW2 7791   5.343   4.654   5.751
 2298SOL     OW 7792   4.033   3.081   4.341
 2298SOL    HW1 7793   4.108   3.021   4.368
 2298SOL    HW2 7794   3.948   3.051   4.383
 2299SOL     OW 7795   4.886   3.418   4.686
 2299SOL    HW1 7796   4.883   3.417   4.586
 2299SOL    HW2 7797   4.891   3.513   4.717
 2300SOL     OW 7798   3.446   6.855   3.138
 2300SOL    HW1 7799   3.429   6.832   3.042
 2300SOL    HW2 7800   3.373   6.819   3.195
 2301SOL     OW 7801   3.002   3.212   4.598
 2301SOL    HW1 7802   3.053   3.151   4.659
 2301SOL    HW2 7803   2.904   3.196   4.608
 2302SOL     OW 7804   3.920   1.211   0.169
 2302SOL    HW1 7805   3.941   1.121   0.206
 2302SOL    HW2 7806   3.821   1.219   0.154
 2303SOL     OW 7807   2.485   2.790   1.424
 2303SOL    HW1 7808   2.474   2.871   1.366
 2303SOL    HW2 7809   2.572   2.796   1.474
 2304SOL     OW 7810   6.677   5.700   3.752
 2304SOL    HW1 7811   6.630   5.734   3.833
 2304SOL    HW2 7812   6.697   5.602   3.764
 2305SOL     OW 7813   1.847   1.109   4.006
 2305SOL    HW1 7814   1.924   1.150   4.055
 2305SOL    HW2 7815   1.821   1.169   3.930
 2306SOL     OW 7816   1.845   4.756   3.194
 2306SOL    HW1 7817   1.939   4.723   3.191
 2306SOL    HW2 7818   1.799   4.736   3.107
 2307SOL     OW 7819   1.495   2.800   5.409
 2307SOL    HW1 7820   1.481   2.758   5.319
 2307SOL    HW2 7821   1.593   2.809   5.426
 2308SOL     OW 7822   2.062   5.235   1.528
 2308SOL    HW1 7823   2.112   5.174   1.465
 2308SOL    HW2 7824   2.087   5.213   1.622
 2309SOL     OW 7825   1.574   0.551   4.195
 2309SOL    HW1 7826   1.508   0.626   4.193
 2309SOL    HW2 7827   1.574   0.505   4.106
 2310SOL     OW 7828   4.812   0.033   1.952
 2310SOL    HW1 7829   4.848   0.096   1.883
 2310SOL    HW2 7830   4.859   0.049   2.039
 2311SOL     OW 7831   2.473   6.047   0.383
 2311SOL    HW1 7832   2.472   5.957   0.426
 2311SOL    HW2 7833   2.537   6.048   0.307
 2312SOL     OW 7834   3.882   5.885   2.703
 2312SOL    HW1 7835   3.815   5.892   2.777
 2312SOL    HW2 7836   3.859   5.951   2.632
 2313SOL     OW 7837   5.177   4.959   2.609
 2313SOL    HW1 7838   5.132   5.018   2.676
 2313SOL    HW2 7839   5.146   4.983   2.517
 2314SOL     OW 7840   3.459   5.417   2.845
 2314SOL    HW1 7841   3.550   5.436   2.808
 2314SOL    HW2 7842   3.457   5.325   2.884
 2315SOL     OW 7843   4.869   2.942   6.267
 2315SOL    HW1 7844   4.867   2.932   6.168
 2315SOL    HW2 7845   4.840   3.035   6.291
 2316SOL     OW 7846   5.334   2.615   3.740
 2316SOL    HW1 7847   5.300   2.636   3.648
 2316SOL    HW2 7848   5.366   2.699   3.783
 2317SOL     OW 7849   1.357   4.667   2.177
 2317SOL    HW1 7850   1.295   4.715   2.239
 2317SOL    HW2 7851   1.359   4.713   2.089
 2318SOL     OW 7852   0.603   1.814   3.286
 2318SOL    HW1 7853   0.627   1.773   3.374
 2318SOL    HW2 7854   0.676   1.797   3.220
 2319SOL     OW 7855   2.142   3.995   4.501
 2319SOL    HW1 7856   2.169   4.008   4.597
 2319SOL    HW2 7857   2.077   4.067   4.476
 2320SOL     OW 7858   0.152   2.424   4.292
 2320SOL    HW1 7859   0.106   2.507   4.260
 2320SOL    HW2 7860   0.084   2.351   4.304
 2321SOL     OW 7861   2.999   0.016   5.075
 2321SOL    HW1 7862   3.070   0.079   5.045
 2321SOL    HW2 7863   2.971   6.984   4.998
 2322SOL     OW 7864   1.160   1.678   5.702
 2322SOL    HW1 7865   1.148   1.778   5.709
 2322SOL    HW2 7866   1.087   1.640   5.646
 2323SOL     OW 7867   4.451   5.511   3.346
 2323SOL    HW1 7868   4.413   5.435   3.399
 2323SOL    HW2 7869   4.431   5.597   3.393
 2324SOL     OW 7870   0.945   6.039   2.472
 2324SOL    HW1 7871   0.855   6.079   2.454
 2324SOL    HW2 7872   0.934   5.948   2.512
 2325SOL     OW 7873   1.026   3.375   1.525
 2325SOL    HW1 7874   0.959   3.447   1.507
 2325SOL    HW2 7875   1.068   3.391   1.614
 2326SOL     OW 7876   1.609   4.797   6.290
 2326SOL    HW1 7877   1.592   4.701   6.266
 2326SOL    HW2 7878   1.624   4.804   6.389
 2327SOL     OW 7879   4.650   2.694   4.580
 2327SOL    HW1 7880   4.639   2.790   4.555
 2327SOL    HW2 7881   4.622   2.636   4.504
 2328SOL     OW 7882   5.008   1.373   2.820
 2328SOL    HW1 7883   4.914   1.402   2.833
 2328SOL    HW2 7884   5.009   1.281   2.780
 2329SOL     OW 7885   1.252   5.303   4.009
 2329SOL    HW1 7886   1.307   5.304   4.093
 2329SOL    HW2 7887   1.309   5.333   3.932
 2330SOL     OW 7888   0.605   4.861   1.799
 2330SOL    HW1 7889   0.518   4.893   1.760
 2330SOL    HW2 7890   0.623   4.768   1.768
 2331SOL     OW 7891   0.187   4.234   5.221
 2331SOL    HW1 7892   0.207   4.148   5.268
 2331SOL    HW2 7893   0.256   4.302   5.244
 2332SOL     OW 7894   5.148   2.823   6.124
 2332SOL    HW1 7895   5.097   2.823   6.038
 2332SOL    HW2 7896   5.152   2.916   6.160
 2333SOL     OW 7897   0.959   5.308   3.200
 2333SOL    HW1 7898   0.994   5.282   3.290
 2333SOL    HW2 7899   0.876   5.363   3.211
 2334SOL     OW 7900   3.348   6.833   0.046
 2334SOL    HW1 7901   3.445   6.850   0.034
 2334SOL    HW2 7902   3.296   6.917   0.029
 2335SOL     OW 7903   5.446   0.164   3.529
 2335SOL    HW1 7904   5.380   0.090   3.515
 2335SOL    HW2 7905   5.404   0.251   3.503
 2336SOL     OW 7906   5.081   1.262   6.019
 2336SOL    HW1 7907   5.060   1.297   6.110
 2336SOL    HW2 7908   5.075   1.162   6.020
 2337SOL     OW 7909   5.474   0.147   3.195
 2337SOL    HW1 7910   5.507   0.079   3.130
 2337SOL    HW2 7911   5.550   0.178   3.252
 2338SOL     OW 7912   0.200   6.421   0.393
 2338SOL    HW1 7913   0.295   6.432   0.365
 2338SOL    HW2 7914   0.145   6.396   0.313
 2339SOL     OW 7915   3.468   4.597   6.550
 2339SOL    HW1 7916   3.506   4.690   6.559
 2339SOL    HW2 7917   3.375   4.603   6.514
 2340SOL     OW 7918   3.398   6.177   5.149
 2340SOL    HW1 7919   3.416   6.125   5.232
 2340SOL    HW2 7920   3.450   6.263   5.151
 2341SOL     OW 7921   5.857   4.984   0.725
 2341SOL    HW1 7922   5.895   4.966   0.816
 2341SOL    HW2 7923   5.835   4.898   0.680
 2342SOL     OW 7924   0.117   0.421   5.420
 2342SOL    HW1 7925   0.036   0.470   5.387
 2342SOL    HW2 7926   0.146   0.354   5.352
 2343SOL     OW 7927   1.452   6.135   0.857
 2343SOL    HW1 7928   1.400   6.194   0.795
 2343SOL    HW2 7929   1.543   6.175   0.873
 2344SOL     OW 7930   2.552   1.691   2.752
 2344SOL    HW1 7931   2.583   1.626   2.820
 2344SOL    HW2 7932   2.622   1.701   2.681
 2345SOL     OW 7933   1.413   0.926   4.953
 2345SOL    HW1 7934   1.364   0.839   4.956
 2345SOL    HW2 7935   1.498   0.916   4.903
 2346SOL     OW 7936   4.852   3.265   5.496
 2346SOL    HW1 7937   4.779   3.311   5.446
 2346SOL    HW2 7938   4.928   3.246   5.434
 2347SOL     OW 7939   1.550   3.555   1.813
 2347SOL    HW1 7940   1.458   3.591   1.826
 2347SOL    HW2 7941   1.576   3.561   1.717
 2348SOL     OW 7942   2.611   6.739   3.700
 2348SOL    HW1 7943   2.600   6.673   3.626
 2348SOL    HW2 7944   2.692   6.796   3.682
 2349SOL     OW 7945   6.817   6.995   6.054
 2349SOL    HW1 7946   6.888   7.013   6.121
 2349SOL    HW2 7947   6.728   6.991   6.099
 2350SOL     OW 7948   2.938   0.274   4.846
 2350SOL    HW1 7949   2.859   0.294   4.904
 2350SOL    HW2 7950   3.015   0.246   4.904
 2351SOL     OW 7951   2.710   5.141   3.392
 2351SOL    HW1 7952   2.646   5.098   3.327
 2351SOL    HW2 7953   2.774   5.199   3.341
 2352SOL     OW 7954   6.836   4.445   2.761
 2352SOL    HW1 7955   6.837   4.360   2.710
 2352SOL    HW2 7956   6.763   4.442   2.830
 2353SOL     OW 7957   2.753   3.914   5.948
 2353SOL    HW1 7958   2.841   3.960   5.942
 2353SOL    HW2 7959   2.697   3.940   5.869
 2354SOL     OW 7960   3.717   2.658   0.490
 2354SOL    HW1 7961   3.670   2.601   0.558
 2354SOL    HW2 7962   3.650   2.697   0.427
 2355SOL     OW 7963   0.672   6.683   1.059
 2355SOL    HW1 7964   0.669   6.698   0.960
 2355SOL    HW2 7965   0.677   6.585   1.077
 2356SOL     OW 7966   2.385   5.268   2.793
 2356SOL    HW1 7967   2.440   5.200   2.746
 2356SOL    HW2 7968   2.288   5.254   2.771
 2357SOL     OW 7969   5.305   4.401   2.804
 2357SOL    HW1 7970   5.255   4.451   2.875
 2357SOL    HW2 7971   5.366   4.334   2.847
 2358SOL     OW 7972   3.371   0.002   4.784
 2358SOL    HW1 7973   3.406   0.072   4.847
 2358SOL    HW2 7974   3.438   7.011   4.712
 2359SOL     OW 7975   2.565   1.622   5.778
 2359SOL    HW1 7976   2.655   1.651   5.746
 2359SOL    HW2 7977   2.526   1.693   5.837
 2360SOL     OW 7978   3.716   4.794   0.617
 2360SOL    HW1 7979   3.765   4.707   0.618
 2360SOL    HW2 7980   3.630   4.785   0.666
 2361SOL     OW 7981   3.392   6.766   2.884
 2361SOL    HW1 7982   3.428   6.823   2.810
 2361SOL    HW2 7983   3.455   6.691   2.902
 2362SOL     OW 7984   4.321   6.041   4.681
 2362SOL    HW1 7985   4.223   6.047   4.695
 2362SOL    HW2 7986   4.355   6.128   4.644
 2363SOL     OW 7987   3.727   2.692   6.727
 2363SOL    HW1 7988   3.806   2.672   6.785
 2363SOL    HW2 7989   3.689   2.780   6.753
 2364SOL     OW 7990   5.013   1.845   1.975
 2364SOL    HW1 7991   4.986   1.778   1.906
 2364SOL    HW2 7992   5.066   1.800   2.047
 2365SOL     OW 7993   4.890   3.476   4.427
 2365SOL    HW1 7994   4.989   3.488   4.416
 2365SOL    HW2 7995   4.843   3.540   4.366
 2366SOL     OW 7996   1.640   4.144   5.529
 2366SOL    HW1 7997   1.661   4.179   5.621
 2366SOL    HW2 7998   1.698   4.065   5.510
 2367SOL     OW 7999   0.921   3.387   5.994
 2367SOL    HW1 8000   0.896   3.475   6.033
 2367SOL    HW2 8001   0.980   3.401   5.914
 2368SOL     OW 8002   4.958   0.574   4.376
 2368SOL    HW1 8003   4.976   0.586   4.474
 2368SOL    HW2 8004   4.981   0.659   4.328
 2369SOL     OW 8005   3.633   1.561   3.467
 2369SOL    HW1 8006   3.543   1.517   3.471
 2369SOL    HW2 8007   3.654   1.585   3.373
 2370SOL     OW 8008   4.640   2.993   1.243
 2370SOL    HW1 8009   4.608   3.088   1.239
 2370SOL    HW2 8010   4.630   2.958   1.336
 2371SOL     OW 8011   0.723   6.659   2.688
 2371SOL    HW1 8012   0.726   6.727   2.614
 2371SOL    HW2 8013   0.812   6.653   2.731
 2372SOL     OW 8014   6.185   1.803   5.900
 2372SOL    HW1 8015   6.248   1.873   5.935
 2372SOL    HW2 8016   6.164   1.738   5.973
 2373SOL     OW 8017   6.091   0.734   6.116
 2373SOL    HW1 8018   6.026   0.807   6.099
 2373SOL    HW2 8019   6.081   0.702   6.211
 2374SOL     OW 8020   6.244   5.682   3.379
 2374SOL    HW1 8021   6.145   5.684   3.360
 2374SOL    HW2 8022   6.288   5.618   3.316
 2375SOL     OW 8023   0.908   0.433   3.927
 2375SOL    HW1 8024   0.815   0.399   3.911
 2375SOL    HW2 8025   0.974   0.366   3.893
 2376SOL     OW 8026   0.035   2.254   2.949
 2376SOL    HW1 8027   6.962   2.241   2.950
 2376SOL    HW2 8028   0.080   2.171   2.983
 2377SOL     OW 8029   3.215   4.688   6.443
 2377SOL    HW1 8030   3.132   4.638   6.420
 2377SOL    HW2 8031   3.209   4.722   6.537
 2378SOL     OW 8032   6.179   2.036   0.540
 2378SOL    HW1 8033   6.142   1.996   0.456
 2378SOL    HW2 8034   6.188   2.135   0.528
 2379SOL     OW 8035   0.091   4.924   0.537
 2379SOL    HW1 8036   0.055   4.951   0.627
 2379SOL    HW2 8037   0.188   4.899   0.547
 2380SOL     OW 8038   5.908   3.012   5.375
 2380SOL    HW1 8039   5.811   3.024   5.396
 2380SOL    HW2 8040   5.918   2.968   5.286
 2381SOL     OW 8041   2.150   4.588   5.179
 2381SOL    HW1 8042   2.139   4.498   5.221
 2381SOL    HW2 8043   2.218   4.640   5.231
 2382SOL     OW 8044   2.019   6.166   2.962
 2382SOL    HW1 8045   2.025   6.131   2.869
 2382SOL    HW2 8046   1.942   6.124   3.009
 2383SOL     OW 8047   5.433   5.922   5.653
 2383SOL    HW1 8048   5.413   5.855   5.724
 2383SOL    HW2 8049   5.530   5.918   5.629
 2384SOL     OW 8050   0.625   2.188   1.432
 2384SOL    HW1 8051   0.551   2.197   1.498
 2384SOL    HW2 8052   0.595   2.218   1.342
 2385SOL     OW 8053   0.743   1.854   0.262
 2385SOL    HW1 8054   0.663   1.801   0.234
 2385SOL    HW2 8055   0.726   1.897   0.351
 2386SOL     OW 8056   3.261   5.341   4.210
 2386SOL    HW1 8057   3.209   5.371   4.290
 2386SOL    HW2 8058   3.199   5.334   4.131
 2387SOL     OW 8059   0.556   2.635   4.195
 2387SOL    HW1 8060   0.641   2.688   4.187
 2387SOL    HW2 8061   0.559   2.559   4.130
 2388SOL     OW 8062   0.277   2.326   6.009
 2388SOL    HW1 8063   0.324   2.415   6.010
 2388SOL    HW2 8064   0.318   2.266   6.077
 2389SOL     OW 8065   4.946   5.186   4.265
 2389SOL    HW1 8066   5.027   5.202   4.320
 2389SOL    HW2 8067   4.968   5.122   4.190
 2390SOL     OW 8068   4.546   3.462   6.335
 2390SOL    HW1 8069   4.558   3.540   6.397
 2390SOL    HW2 8070   4.522   3.381   6.389
 2391SOL     OW 8071   3.636   3.019   6.842
 2391SOL    HW1 8072   3.705   3.018   6.915
 2391SOL    HW2 8073   3.551   2.979   6.876
 2392SOL     OW 8074   3.182   4.766   5.755
 2392SOL    HW1 8075   3.160   4.669   5.743
 2392SOL    HW2 8076   3.178   4.812   5.667
 2393SOL     OW 8077   4.271   5.213   1.766
 2393SOL    HW1 8078   4.287   5.114   1.759
 2393SOL    HW2 8079   4.351   5.262   1.732
 2394SOL     OW 8080   6.963   4.181   3.576
 2394SOL    HW1 8081   6.881   4.151   3.527
 2394SOL    HW2 8082   7.019   4.102   3.599
 2395SOL     OW 8083   0.732   3.193   6.698
 2395SOL    HW1 8084   0.739   3.234   6.789
 2395SOL    HW2 8085   0.754   3.096   6.703
 2396SOL     OW 8086   5.598   0.717   5.821
 2396SOL    HW1 8087   5.543   0.758   5.894
 2396SOL    HW2 8088   5.674   0.666   5.861
 2397SOL     OW 8089   0.475   5.016   5.864
 2397SOL    HW1 8090   0.553   4.998   5.803
 2397SOL    HW2 8091   0.400   5.055   5.812
 2398SOL     OW 8092   2.734   5.613   3.496
 2398SOL    HW1 8093   2.814   5.579   3.446
 2398SOL    HW2 8094   2.664   5.643   3.431
 2399SOL     OW 8095   2.955   2.271   3.878
 2399SOL    HW1 8096   2.873   2.214   3.869
 2399SOL    HW2 8097   3.007   2.242   3.959
 2400SOL     OW 8098   2.269   3.590   0.529
 2400SOL    HW1 8099   2.178   3.548   0.528
 2400SOL    HW2 8100   2.262   3.683   0.492
 2401SOL     OW 8101   3.468   0.269   4.198
 2401SOL    HW1 8102   3.551   0.217   4.220
 2401SOL    HW2 8103   3.388   0.221   4.234
 2402SOL     OW 8104   0.859   2.363   3.040
 2402SOL    HW1 8105   0.776   2.419   3.042
 2402SOL    HW2 8106   0.939   2.423   3.047
 2403SOL     OW 8107   3.866   3.145   1.387
 2403SOL    HW1 8108   3.787   3.135   1.326
 2403SOL    HW2 8109   3.896   3.055   1.418
 2404SOL     OW 8110   6.076   1.268   1.254
 2404SOL    HW1 8111   6.025   1.353   1.266
 2404SOL    HW2 8112   6.157   1.284   1.197
 2405SOL     OW 8113   2.673   5.023   6.248
 2405SOL    HW1 8114   2.652   5.104   6.302
 2405SOL    HW2 8115   2.768   4.998   6.261
 2406SOL     OW 8116   2.015   0.054   3.554
 2406SOL    HW1 8117   2.079   0.063   3.630
 2406SOL    HW2 8118   2.063   0.071   3.468
 2407SOL     OW 8119   4.704   2.240   3.190
 2407SOL    HW1 8120   4.703   2.254   3.091
 2407SOL    HW2 8121   4.640   2.304   3.233
 2408SOL     OW 8122   2.575   5.798   3.325
 2408SOL    HW1 8123   2.668   5.834   3.330
 2408SOL    HW2 8124   2.517   5.862   3.274
 2409SOL     OW 8125   2.697   2.718   1.125
 2409SOL    HW1 8126   2.731   2.812   1.125
 2409SOL    HW2 8127   2.675   2.690   1.219
 2410SOL     OW 8128   6.145   3.624   6.205
 2410SOL    HW1 8129   6.075   3.694   6.217
 2410SOL    HW2 8130   6.222   3.662   6.155
 2411SOL     OW 8131   2.830   4.080   6.506
 2411SOL    HW1 8132   2.894   4.026   6.561
 2411SOL    HW2 8133   2.742   4.032   6.500
 2412SOL     OW 8134   2.869   2.998   0.066
 2412SOL    HW1 8135   2.916   2.924   0.115
 2412SOL    HW2 8136   2.896   3.086   0.105
 2413SOL     OW 8137   6.417   3.209   6.368
 2413SOL    HW1 8138   6.451   3.189   6.459
 2413SOL    HW2 8139   6.373   3.299   6.368
 2414SOL     OW 8140   5.578   2.150   3.698
 2414SOL    HW1 8141   5.677   2.145   3.688
 2414SOL    HW2 8142   5.554   2.215   3.770
 2415SOL     OW 8143   2.238   6.960   6.765
 2415SOL    HW1 8144   2.253   6.894   6.691
 2415SOL    HW2 8145   2.271   6.921   6.851
 2416SOL     OW 8146   0.764   3.232   3.306
 2416SOL    HW1 8147   0.809   3.279   3.382
 2416SOL    HW2 8148   0.830   3.219   3.231
 2417SOL     OW 8149   4.705   2.589   6.974
 2417SOL    HW1 8150   4.796   2.547   6.977
 2417SOL    HW2 8151   4.676   2.612   0.041
 2418SOL     OW 8152   4.157   3.982   5.298
 2418SOL    HW1 8153   4.190   3.973   5.392
 2418SOL    HW2 8154   4.083   4.049   5.296
 2419SOL     OW 8155   2.023   6.850   4.378
 2419SOL    HW1 8156   2.086   6.825   4.305
 2419SOL    HW2 8157   2.070   6.842   4.466
 2420SOL     OW 8158   3.685   5.711   1.919
 2420SOL    HW1 8159   3.667   5.630   1.863
 2420SOL    HW2 8160   3.739   5.777   1.866
 2421SOL     OW 8161   4.192   6.820   3.665
 2421SOL    HW1 8162   4.291   6.819   3.655
 2421SOL    HW2 8163   4.154   6.893   3.609
 2422SOL     OW 8164   3.866   6.993   1.263
 2422SOL    HW1 8165   3.965   6.985   1.251
 2422SOL    HW2 8166   3.847   0.007   1.353
 2423SOL     OW 8167   2.065   5.998   1.899
 2423SOL    HW1 8168   1.988   5.972   1.842
 2423SOL    HW2 8169   2.138   6.037   1.842
 2424SOL     OW 8170   5.358   6.101   6.653
 2424SOL    HW1 8171   5.284   6.165   6.674
 2424SOL    HW2 8172   5.382   6.108   6.556
 2425SOL     OW 8173   4.907   5.575   5.706
 2425SOL    HW1 8174   4.810   5.601   5.711
 2425SOL    HW2 8175   4.928   5.542   5.614
 2426SOL     OW 8176   1.256   5.958   4.631
 2426SOL    HW1 8177   1.190   6.033   4.640
 2426SOL    HW2 8178   1.214   5.872   4.660
 2427SOL     OW 8179   4.909   6.376   6.562
 2427SOL    HW1 8180   4.930   6.306   6.494
 2427SOL    HW2 8181   4.810   6.389   6.567
 2428SOL     OW 8182   0.245   1.313   3.269
 2428SOL    HW1 8183   0.317   1.380   3.285
 2428SOL    HW2 8184   0.197   1.294   3.354
 2429SOL     OW 8185   5.068   4.946   2.292
 2429SOL    HW1 8186   5.115   4.863   2.323
 2429SOL    HW2 8187   4.983   4.920   2.245
 2430SOL     OW 8188   5.648   2.273   0.622
 2430SOL    HW1 8189   5.665   2.192   0.565
 2430SOL    HW2 8190   5.705   2.349   0.591
 2431SOL     OW 8191   5.846   1.644   1.923
 2431SOL    HW1 8192   5.862   1.621   2.018
 2431SOL    HW2 8193   5.850   1.743   1.911
 2432SOL     OW 8194   3.338   5.534   1.665
 2432SOL    HW1 8195   3.341   5.434   1.662
 2432SOL    HW2 8196   3.267   5.563   1.729
 2433SOL     OW 8197   0.268   5.620   0.259
 2433SOL    HW1 8198   0.237   5.558   0.330
 2433SOL    HW2 8199   0.350   5.668   0.289
 2434SOL     OW 8200   4.312   2.020   2.197
 2434SOL    HW1 8201   4.395   2.033   2.143
 2434SOL    HW2 8202   4.256   2.102   2.191
 2435SOL     OW 8203   5.532   5.607   0.343
 2435SOL    HW1 8204   5.572   5.620   0.252
 2435SOL    HW2 8205   5.479   5.688   0.368
 2436SOL     OW 8206   1.976   1.379   1.681
 2436SOL    HW1 8207   2.032   1.419   1.754
 2436SOL    HW2 8208   1.919   1.450   1.641
 2437SOL     OW 8209   5.983   5.781   2.187
 2437SOL    HW1 8210   5.999   5.879   2.197
 2437SOL    HW2 8211   5.907   5.753   2.245
 2438SOL     OW 8212   3.793   2.024   4.770
 2438SOL    HW1 8213   3.817   1.944   4.715
 2438SOL    HW2 8214   3.722   1.999   4.836
 2439SOL     OW 8215   0.272   5.143   6.731
 2439SOL    HW1 8216   0.353   5.135   6.672
 2439SOL    HW2 8217   0.211   5.212   6.694
 2440SOL     OW 8218   4.003   0.353   5.239
 2440SOL    HW1 8219   4.078   0.417   5.225
 2440SOL    HW2 8220   3.925   0.401   5.278
 2441SOL     OW 8221   5.373   0.680   0.180
 2441SOL    HW1 8222   5.416   0.595   0.211
 2441SOL    HW2 8223   5.404   0.756   0.237
 2442SOL     OW 8224   5.808   3.986   2.772
 2442SOL    HW1 8225   5.879   3.938   2.721
 2442SOL    HW2 8226   5.850   4.037   2.847
 2443SOL     OW 8227   2.234   0.865   6.152
 2443SOL    HW1 8228   2.304   0.819   6.098
 2443SOL    HW2 8229   2.144   0.846   6.113
 2444SOL     OW 8230   3.888   4.800   0.155
 2444SOL    HW1 8231   3.918   4.848   0.238
 2444SOL    HW2 8232   3.939   4.834   0.076
 2445SOL     OW 8233   6.347   1.375   2.068
 2445SOL    HW1 8234   6.326   1.468   2.036
 2445SOL    HW2 8235   6.341   1.312   1.991
 2446SOL     OW 8236   0.793   2.639   2.995
 2446SOL    HW1 8237   0.726   2.691   3.049
 2446SOL    HW2 8238   0.885   2.670   3.019
 2447SOL     OW 8239   2.112   0.918   0.644
 2447SOL    HW1 8240   2.207   0.930   0.674
 2447SOL    HW2 8241   2.108   0.921   0.544
 2448SOL     OW 8242   6.128   1.852   4.021
 2448SOL    HW1 8243   6.069   1.865   3.941
 2448SOL    HW2 8244   6.072   1.844   4.103
 2449SOL     OW 8245   1.190   3.441   1.891
 2449SOL    HW1 8246   1.189   3.344   1.915
 2449SOL    HW2 8247   1.098   3.479   1.903
 2450SOL     OW 8248   2.907   5.060   6.879
 2450SOL    HW1 8249   2.914   4.966   6.846
 2450SOL    HW2 8250   2.987   5.082   6.935
 2451SOL     OW 8251   0.637   6.973   4.078
 2451SOL    HW1 8252   0.707   7.025   4.029
 2451SOL    HW2 8253   0.600   0.003   4.152
 2452SOL     OW 8254   2.398   2.050   3.761
 2452SOL    HW1 8255   2.354   1.962   3.743
 2452SOL    HW2 8256   2.399   2.068   3.860
 2453SOL     OW 8257   6.943   2.838   1.037
 2453SOL    HW1 8258   6.888   2.869   0.959
 2453SOL    HW2 8259   6.886   2.783   1.098
 2454SOL     OW 8260   2.548   5.989   6.558
 2454SOL    HW1 8261   2.494   6.064   6.597
 2454SOL    HW2 8262   2.632   6.025   6.518
 2455SOL     OW 8263   3.965   1.211   0.755
 2455SOL    HW1 8264   3.980   1.309   0.741
 2455SOL    HW2 8265   3.936   1.169   0.669
 2456SOL     OW 8266   0.904   3.241   6.485
 2456SOL    HW1 8267   0.865   3.222   6.395
 2456SOL    HW2 8268   0.831   3.249   6.553
 2457SOL     OW 8269   6.250   0.834   5.339
 2457SOL    HW1 8270   6.322   0.903   5.343
 2457SOL    HW2 8271   6.193   0.841   5.421
 2458SOL     OW 8272   1.028   0.224   3.802
 2458SOL    HW1 8273   1.008   0.241   3.705
 2458SOL    HW2 8274   1.119   0.183   3.810
 2459SOL     OW 8275   3.120   5.906   5.939
 2459SOL    HW1 8276   3.040   5.863   5.982
 2459SOL    HW2 8277   3.204   5.871   5.982
 2460SOL     OW 8278   1.322   1.191   0.592
 2460SOL    HW1 8279   1.282   1.255   0.526
 2460SOL    HW2 8280   1.358   1.112   0.542
 2461SOL     OW 8281   4.790   0.340   4.161
 2461SOL    HW1 8282   4.782   0.415   4.226
 2461SOL    HW2 8283   4.784   0.375   4.068
 2462SOL     OW 8284   2.076   5.081   0.418
 2462SOL    HW1 8285   2.098   5.148   0.347
 2462SOL    HW2 8286   1.978   5.082   0.436
 2463SOL     OW 8287   6.590   2.128   0.278
 2463SOL    HW1 8288   6.531   2.050   0.257
 2463SOL    HW2 8289   6.630   2.116   0.368
 2464SOL     OW 8290   1.172   3.063   3.398
 2464SOL    HW1 8291   1.156   2.968   3.423
 2464SOL    HW2 8292   1.268   3.086   3.410
 2465SOL     OW 8293   6.828   6.193   6.165
 2465SOL    HW1 8294   6.779   6.110   6.191
 2465SOL    HW2 8295   6.898   6.170   6.097
 2466SOL     OW 8296   1.636   1.532   2.514
 2466SOL    HW1 8297   1.719   1.556   2.464
 2466SOL    HW2 8298   1.625   1.592   2.593
 2467SOL     OW 8299   4.789   1.862   5.869
 2467SOL    HW1 8300   4.872   1.913   5.847
 2467SOL    HW2 8301   4.750   1.898   5.954
 2468SOL     OW 8302   4.342   7.006   0.603
 2468SOL    HW1 8303   4.345   0.030   0.689
 2468SOL    HW2 8304   4.287   0.030   0.536
 2469SOL     OW 8305   3.895   3.319   5.531
 2469SOL    HW1 8306   3.930   3.256   5.601
 2469SOL    HW2 8307   3.957   3.396   5.522
 2470SOL     OW 8308   3.856   4.859   5.968
 2470SOL    HW1 8309   3.923   4.932   5.983
 2470SOL    HW2 8310   3.794   4.855   6.047
 2471SOL     OW 8311   3.275   0.061   0.191
 2471SOL    HW1 8312   3.312   0.153   0.206
 2471SOL    HW2 8313   3.222   0.033   0.271
 2472SOL     OW 8314   4.258   2.381   3.418
 2472SOL    HW1 8315   4.181   2.354   3.361
 2472SOL    HW2 8316   4.225   2.418   3.505
 2473SOL     OW 8317   1.085   4.265   5.488
 2473SOL    HW1 8318   1.183   4.281   5.474
 2473SOL    HW2 8319   1.048   4.215   5.409
 2474SOL     OW 8320   1.159   5.917   1.177
 2474SOL    HW1 8321   1.155   5.818   1.185
 2474SOL    HW2 8322   1.244   5.943   1.131
 2475SOL     OW 8323   4.100   0.997   2.390
 2475SOL    HW1 8324   4.189   1.022   2.351
 2475SOL    HW2 8325   4.028   1.017   2.324
 2476SOL     OW 8326   5.731   0.172   2.277
 2476SOL    HW1 8327   5.762   0.251   2.330
 2476SOL    HW2 8328   5.810   0.122   2.243
 2477SOL     OW 8329   4.395   1.247   3.753
 2477SOL    HW1 8330   4.417   1.322   3.817
 2477SOL    HW2 8331   4.337   1.283   3.679
 2478SOL     OW 8332   6.001   0.962   2.025
 2478SOL    HW1 8333   6.035   0.936   2.115
 2478SOL    HW2 8334   6.077   0.968   1.961
 2479SOL     OW 8335   1.118   3.177   1.897
 2479SOL    HW1 8336   1.020   3.166   1.880
 2479SOL    HW2 8337   1.133   3.192   1.995
 2480SOL     OW 8338   4.227   3.235   0.871
 2480SOL    HW1 8339   4.244   3.235   0.970
 2480SOL    HW2 8340   4.278   3.159   0.829
 2481SOL     OW 8341   3.506   6.819   0.965
 2481SOL    HW1 8342   3.533   6.840   0.871
 2481SOL    HW2 8343   3.472   6.902   1.009
 2482SOL     OW 8344   5.449   3.238   6.438
 2482SOL    HW1 8345   5.532   3.275   6.481
 2482SOL    HW2 8346   5.425   3.294   6.359
 2483SOL     OW 8347   2.076   1.952   6.800
 2483SOL    HW1 8348   2.082   2.010   6.881
 2483SOL    HW2 8349   2.102   2.005   6.719
 2484SOL     OW 8350   3.373   0.852   0.070
 2484SOL    HW1 8351   3.328   0.861   0.159
 2484SOL    HW2 8352   3.472   0.863   0.081
 2485SOL     OW 8353   5.850   2.929   1.338
 2485SOL    HW1 8354   5.891   3.006   1.288
 2485SOL    HW2 8355   5.923   2.869   1.372
 2486SOL     OW 8356   1.317   4.804   5.196
 2486SOL    HW1 8357   1.305   4.899   5.225
 2486SOL    HW2 8358   1.331   4.746   5.276
 2487SOL     OW 8359   4.476   6.598   0.436
 2487SOL    HW1 8360   4.512   6.585   0.528
 2487SOL    HW2 8361   4.410   6.673   0.435
 2488SOL     OW 8362   1.164   4.226   2.195
 2488SOL    HW1 8363   1.152   4.299   2.262
 2488SOL    HW2 8364   1.216   4.151   2.235
 2489SOL     OW 8365   0.707   5.830   4.160
 2489SOL    HW1 8366   0.624   5.876   4.192
 2489SOL    HW2 8367   0.713   5.836   4.061
 2490SOL     OW 8368   0.173   5.085   1.092
 2490SOL    HW1 8369   0.235   5.101   1.016
 2490SOL    HW2 8370   0.081   5.068   1.057
 2491SOL     OW 8371   2.975   4.210   0.186
 2491SOL    HW1 8372   2.970   4.161   0.272
 2491SOL    HW2 8373   2.899   4.183   0.127
 2492SOL     OW 8374   4.848   3.827   1.069
 2492SOL    HW1 8375   4.830   3.877   1.153
 2492SOL    HW2 8376   4.944   3.839   1.043
 2493SOL     OW 8377   6.486   6.964   1.923
 2493SOL    HW1 8378   6.555   0.008   1.941
 2493SOL    HW2 8379   6.442   6.937   2.009
 2494SOL     OW 8380   5.449   4.245   2.961
 2494SOL    HW1 8381   5.437   4.146   2.954
 2494SOL    HW2 8382   5.393   4.280   3.036
 2495SOL     OW 8383   5.196   6.163   3.671
 2495SOL    HW1 8384   5.220   6.076   3.713
 2495SOL    HW2 8385   5.103   6.158   3.634
 2496SOL     OW 8386   0.664   2.694   6.369
 2496SOL    HW1 8387   0.605   2.739   6.436
 2496SOL    HW2 8388   0.674   2.598   6.392
 2497SOL     OW 8389   0.652   0.062   0.316
 2497SOL    HW1 8390   0.623   7.015   0.254
 2497SOL    HW2 8391   0.644   0.031   0.411
 2498SOL     OW 8392   2.859   1.898   5.370
 2498SOL    HW1 8393   2.916   1.958   5.312
 2498SOL    HW2 8394   2.769   1.940   5.383
 2499SOL     OW 8395   6.090   2.788   2.302
 2499SOL    HW1 8396   6.116   2.719   2.235
 2499SOL    HW2 8397   6.128   2.876   2.275
 2500SOL     OW 8398   3.972   4.004   0.074
 2500SOL    HW1 8399   4.049   4.005   0.137
 2500SOL    HW2 8400   4.006   4.006   7.006
 2501SOL     OW 8401   5.326   5.427   1.138
 2501SOL    HW1 8402   5.282   5.347   1.096
 2501SOL    HW2 8403   5.292   5.510   1.093
 2502SOL     OW 8404   0.975   0.554   4.168
 2502SOL    HW1 8405   0.939   0.501   4.091
 2502SOL    HW2 8406   0.901   0.577   4.231
 2503SOL     OW 8407   2.314   6.490   4.677
 2503SOL    HW1 8408   2.249   6.508   4.603
 2503SOL    HW2 8409   2.329   6.574   4.729
 2504SOL     OW 8410   4.049   5.054   3.892
 2504SOL    HW1 8411   3.957   5.056   3.854
 2504SOL    HW2 8412   4.068   4.963   3.929
 2505SOL     OW 8413   6.937   0.094   2.970
 2505SOL    HW1 8414   6.845   0.132   2.959
 2505SOL    HW2 8415   6.989   0.152   3.034
 2506SOL     OW 8416   6.226   4.001   6.224
 2506SOL    HW1 8417   6.284   4.040   6.151
 2506SOL    HW2 8418   6.278   3.933   6.275
 2507SOL     OW 8419   6.528   3.017   0.089
 2507SOL    HW1 8420   6.605   3.005   0.151
 2507SOL    HW2 8421   6.459   3.075   0.132
 2508SOL     OW 8422   3.277   1.536   3.225
 2508SOL    HW1 8423   3.234   1.486   3.150
 2508SOL    HW2 8424   3.208   1.588   3.275
 2509SOL     OW 8425   0.428   3.972   0.945
 2509SOL    HW1 8426   0.441   3.905   1.018
 2509SOL    HW2 8427   0.357   3.939   0.882
 2510SOL     OW 8428   2.962   5.217   1.377
 2510SOL    HW1 8429   2.896   5.246   1.307
 2510SOL    HW2 8430   2.928   5.135   1.424
 2511SOL     OW 8431   3.549   1.586   3.922
 2511SOL    HW1 8432   3.645   1.592   3.894
 2511SOL    HW2 8433   3.492   1.637   3.857
 2512SOL     OW 8434   4.553   3.574   5.643
 2512SOL    HW1 8435   4.569   3.640   5.717
 2512SOL    HW2 8436   4.597   3.487   5.667
 2513SOL     OW 8437   1.884   4.079   5.140
 2513SOL    HW1 8438   1.963   4.026   5.170
 2513SOL    HW2 8439   1.861   4.148   5.209
 2514SOL     OW 8440   0.339   3.818   5.001
 2514SOL    HW1 8441   0.249   3.823   5.045
 2514SOL    HW2 8442   0.410   3.835   5.069
 2515SOL     OW 8443   1.213   7.006   0.681
 2515SOL    HW1 8444   1.297   6.996   0.734
 2515SOL    HW2 8445   1.159   0.056   0.717
 2516SOL     OW 8446   5.555   1.806   2.687
 2516SOL    HW1 8447   5.653   1.827   2.682
 2516SOL    HW2 8448   5.543   1.718   2.734
 2517SOL     OW 8449   0.681   6.760   5.945
 2517SOL    HW1 8450   0.662   6.663   5.931
 2517SOL    HW2 8451   0.606   6.814   5.909
 2518SOL     OW 8452   1.758   4.896   0.248
 2518SOL    HW1 8453   1.811   4.834   0.305
 2518SOL    HW2 8454   1.819   4.958   0.199
 2519SOL     OW 8455   3.726   6.157   1.942
 2519SOL    HW1 8456   3.786   6.219   1.993
 2519SOL    HW2 8457   3.715   6.191   1.849
 2520SOL     OW 8458   3.183   1.727   0.765
 2520SOL    HW1 8459   3.174   1.787   0.686
 2520SOL    HW2 8460   3.165   1.633   0.738
 2521SOL     OW 8461   2.899   0.554   5.360
 2521SOL    HW1 8462   2.911   0.580   5.265
 2521SOL    HW2 8463   2.806   0.579   5.390
 2522SOL     OW 8464   0.962   2.356   5.438
 2522SOL    HW1 8465   0.937   2.295   5.513
 2522SOL    HW2 8466   0.880   2.377   5.384
 2523SOL     OW 8467   0.251   3.198   1.306
 2523SOL    HW1 8468   0.284   3.111   1.270
 2523SOL    HW2 8469   0.203   3.247   1.234
 2524SOL     OW 8470   0.692   6.545   4.744
 2524SOL    HW1 8471   0.611   6.590   4.782
 2524SOL    HW2 8472   0.671   6.449   4.725
 2525SOL     OW 8473   1.541   2.418   5.303
 2525SOL    HW1 8474   1.507   2.340   5.250
 2525SOL    HW2 8475   1.511   2.503   5.260
 2526SOL     OW 8476   1.348   4.793   6.273
 2526SOL    HW1 8477   1.445   4.818   6.277
 2526SOL    HW2 8478   1.313   4.787   6.367
 2527SOL     OW 8479   5.226   6.075   5.777
 2527SOL    HW1 8480   5.238   6.091   5.875
 2527SOL    HW2 8481   5.304   6.024   5.742
 2528SOL     OW 8482   6.162   4.828   0.075
 2528SOL    HW1 8483   6.130   4.756   0.013
 2528SOL    HW2 8484   6.260   4.843   0.061
 2529SOL     OW 8485   6.489   6.044   6.452
 2529SOL    HW1 8486   6.405   6.021   6.502
 2529SOL    HW2 8487   6.494   6.143   6.439
 2530SOL     OW 8488   2.840   6.214   5.078
 2530SOL    HW1 8489   2.771   6.267   5.128
 2530SOL    HW2 8490   2.928   6.225   5.123
 2531SOL     OW 8491   5.271   5.827   4.928
 2531SOL    HW1 8492   5.344   5.777   4.974
 2531SOL    HW2 8493   5.310   5.898   4.870
 2532SOL     OW 8494   0.597   5.696   0.937
 2532SOL    HW1 8495   0.514   5.651   0.969
 2532SOL    HW2 8496   0.576   5.791   0.912
 2533SOL     OW 8497   3.444   6.668   4.306
 2533SOL    HW1 8498   3.509   6.691   4.234
 2533SOL    HW2 8499   3.421   6.571   4.302
 2534SOL     OW 8500   3.972   0.824   2.582
 2534SOL    HW1 8501   4.046   0.870   2.532
 2534SOL    HW2 8502   3.887   0.833   2.531
 2535SOL     OW 8503   3.560   2.588   5.468
 2535SOL    HW1 8504   3.584   2.673   5.422
 2535SOL    HW2 8505   3.467   2.561   5.442
 2536SOL     OW 8506   1.173   1.480   4.934
 2536SOL    HW1 8507   1.204   1.404   4.991
 2536SOL    HW2 8508   1.073   1.479   4.929
 2537SOL     OW 8509   3.776   0.376   6.437
 2537SOL    HW1 8510   3.772   0.414   6.345
 2537SOL    HW2 8511   3.794   0.450   6.502
 2538SOL     OW 8512   0.883   4.423   3.011
 2538SOL    HW1 8513   0.875   4.508   3.063
 2538SOL    HW2 8514   0.979   4.395   3.006
 2539SOL     OW 8515   6.084   1.028   4.949
 2539SOL    HW1 8516   6.137   0.944   4.953
 2539SOL    HW2 8517   6.014   1.021   4.878
 2540SOL     OW 8518   4.002   1.946   2.977
 2540SOL    HW1 8519   3.984   1.935   2.879
 2540SOL    HW2 8520   4.092   1.907   2.998
 2541SOL     OW 8521   2.606   0.446   5.215
 2541SOL    HW1 8522   2.568   0.497   5.137
 2541SOL    HW2 8523   2.624   0.509   5.290
 2542SOL     OW 8524   3.081   2.084   5.540
 2542SOL    HW1 8525   3.096   2.001   5.594
 2542SOL    HW2 8526   2.997   2.075   5.487
 2543SOL     OW 8527   1.393   0.725   2.981
 2543SOL    HW1 8528   1.311   0.779   3.000
 2543SOL    HW2 8529   1.366   0.637   2.940
 2544SOL     OW 8530   0.423   6.502   1.117
 2544SOL    HW1 8531   0.513   6.472   1.148
 2544SOL    HW2 8532   0.360   6.424   1.116
 2545SOL     OW 8533   1.178   0.192   2.357
 2545SOL    HW1 8534   1.125   0.132   2.416
 2545SOL    HW2 8535   1.116   0.255   2.309
 2546SOL     OW 8536   0.243   0.606   1.819
 2546SOL    HW1 8537   0.256   0.508   1.833
 2546SOL    HW2 8538   0.332   0.651   1.816
 2547SOL     OW 8539   6.556   4.748   0.416
 2547SOL    HW1 8540   6.656   4.745   0.420
 2547SOL    HW2 8541   6.521   4.811   0.485
 2548SOL     OW 8542   1.173   6.491   5.689
 2548SOL    HW1 8543   1.113   6.414   5.713
 2548SOL    HW2 8544   1.133   6.576   5.722
 2549SOL     OW 8545   1.907   0.289   1.131
 2549SOL    HW1 8546   1.880   0.196   1.106
 2549SOL    HW2 8547   1.918   0.343   1.048
 2550SOL     OW 8548   6.668   0.179   6.657
 2550SOL    HW1 8549   6.593   0.236   6.623
 2550SOL    HW2 8550   6.691   0.208   6.750
 2551SOL     OW 8551   2.751   5.303   0.664
 2551SOL    HW1 8552   2.666   5.257   0.639
 2551SOL    HW2 8553   2.828   5.258   0.619
 2552SOL     OW 8554   1.781   6.479   4.796
 2552SOL    HW1 8555   1.838   6.406   4.832
 2552SOL    HW2 8556   1.769   6.467   4.698
 2553SOL     OW 8557   4.794   3.185   5.763
 2553SOL    HW1 8558   4.806   3.271   5.812
 2553SOL    HW2 8559   4.781   3.203   5.665
 2554SOL     OW 8560   2.267   6.861   7.012
 2554SOL    HW1 8561   2.181   6.815   0.007
 2554SOL    HW2 8562   2.328   6.855   0.066
 2555SOL     OW 8563   5.494   6.974   5.116
 2555SOL    HW1 8564   5.428   0.017   5.148
 2555SOL    HW2 8565   5.583   6.991   5.158
 2556SOL     OW 8566   4.033   5.820   0.252
 2556SOL    HW1 8567   4.101   5.833   0.180
 2556SOL    HW2 8568   3.963   5.891   0.245
 2557SOL     OW 8569   2.234   4.715   6.862
 2557SOL    HW1 8570   2.166   4.707   6.789
 2557SOL    HW2 8571   2.316   4.759   6.827
 2558SOL     OW 8572   5.485   1.456   4.858
 2558SOL    HW1 8573   5.482   1.472   4.956
 2558SOL    HW2 8574   5.534   1.371   4.839
 2559SOL     OW 8575   0.425   4.096   4.885
 2559SOL    HW1 8576   0.515   4.098   4.842
 2559SOL    HW2 8577   0.408   4.004   4.922
 2560SOL     OW 8578   5.640   3.083   4.156
 2560SOL    HW1 8579   5.618   3.172   4.195
 2560SOL    HW2 8580   5.732   3.056   4.185
 2561SOL     OW 8581   3.083   6.197   5.211
 2561SOL    HW1 8582   3.088   6.101   5.239
 2561SOL    HW2 8583   3.176   6.234   5.202
 2562SOL     OW 8584   2.315   5.541   1.483
 2562SOL    HW1 8585   2.298   5.511   1.577
 2562SOL    HW2 8586   2.324   5.461   1.423
 2563SOL     OW 8587   3.565   2.192   0.397
 2563SOL    HW1 8588   3.585   2.260   0.327
 2563SOL    HW2 8589   3.583   2.232   0.488
 2564SOL     OW 8590   2.172   5.599   6.374
 2564SOL    HW1 8591   2.170   5.683   6.320
 2564SOL    HW2 8592   2.079   5.564   6.385
 2565SOL     OW 8593   1.310   0.532   0.251
 2565SOL    HW1 8594   1.373   0.504   0.179
 2565SOL    HW2 8595   1.354   0.519   0.340
 2566SOL     OW 8596   2.742   6.784   1.074
 2566SOL    HW1 8597   2.731   6.693   1.034
 2566SOL    HW2 8598   2.669   6.799   1.142
 2567SOL     OW 8599   0.759   0.914   0.802
 2567SOL    HW1 8600   0.733   0.847   0.871
 2567SOL    HW2 8601   0.801   0.993   0.846
 2568SOL     OW 8602   4.241   0.639   6.497
 2568SOL    HW1 8603   4.150   0.598   6.497
 2568SOL    HW2 8604   4.250   0.699   6.576
 2569SOL     OW 8605   3.060   1.372   2.018
 2569SOL    HW1 8606   3.087   1.381   2.114
 2569SOL    HW2 8607   3.076   1.459   1.970
 2570SOL     OW 8608   5.515   0.100   6.674
 2570SOL    HW1 8609   5.573   0.168   6.720
 2570SOL    HW2 8610   5.432   0.085   6.728
 2571SOL     OW 8611   2.386   4.455   5.003
 2571SOL    HW1 8612   2.324   4.378   5.014
 2571SOL    HW2 8613   2.339   4.530   4.957
 2572SOL     OW 8614   2.489   5.857   0.771
 2572SOL    HW1 8615   2.466   5.851   0.868
 2572SOL    HW2 8616   2.577   5.812   0.755
 2573SOL     OW 8617   6.833   2.106   1.694
 2573SOL    HW1 8618   6.914   2.109   1.753
 2573SOL    HW2 8619   6.860   2.127   1.600
 2574SOL     OW 8620   5.853   4.049   0.625
 2574SOL    HW1 8621   5.855   4.058   0.725
 2574SOL    HW2 8622   5.887   4.134   0.584
 2575SOL     OW 8623   5.185   5.444   0.687
 2575SOL    HW1 8624   5.209   5.347   0.678
 2575SOL    HW2 8625   5.087   5.452   0.705
 2576SOL     OW 8626   4.448   6.655   4.690
 2576SOL    HW1 8627   4.433   6.734   4.631
 2576SOL    HW2 8628   4.361   6.608   4.705
 2577SOL     OW 8629   4.491   6.551   2.056
 2577SOL    HW1 8630   4.470   6.648   2.045
 2577SOL    HW2 8631   4.591   6.540   2.064
 2578SOL     OW 8632   4.623   1.749   5.145
 2578SOL    HW1 8633   4.620   1.713   5.052
 2578SOL    HW2 8634   4.649   1.676   5.208
 2579SOL     OW 8635   1.871   6.684   2.789
 2579SOL    HW1 8636   1.931   6.693   2.869
 2579SOL    HW2 8637   1.923   6.648   2.712
 2580SOL     OW 8638   3.462   3.911   6.327
 2580SOL    HW1 8639   3.387   3.943   6.384
 2580SOL    HW2 8640   3.426   3.883   6.237
 2581SOL     OW 8641   1.805   5.230   1.582
 2581SOL    HW1 8642   1.788   5.253   1.678
 2581SOL    HW2 8643   1.897   5.259   1.557
 2582SOL     OW 8644   0.545   4.168   1.470
 2582SOL    HW1 8645   0.600   4.245   1.438
 2582SOL    HW2 8646   0.605   4.102   1.516
 2583SOL     OW 8647   1.319   1.533   6.527
 2583SOL    HW1 8648   1.281   1.625   6.517
 2583SOL    HW2 8649   1.258   1.467   6.482
 2584SOL     OW 8650   4.693   5.128   6.112
 2584SOL    HW1 8651   4.615   5.182   6.081
 2584SOL    HW2 8652   4.701   5.046   6.056
 2585SOL     OW 8653   4.271   3.505   0.528
 2585SOL    HW1 8654   4.194   3.483   0.587
 2585SOL    HW2 8655   4.258   3.596   0.489
 2586SOL     OW 8656   3.766   0.986   3.824
 2586SOL    HW1 8657   3.722   1.073   3.848
 2586SOL    HW2 8658   3.697   0.922   3.791
 2587SOL     OW 8659   6.689   0.789   3.400
 2587SOL    HW1 8660   6.607   0.801   3.344
 2587SOL    HW2 8661   6.761   0.746   3.346
 2588SOL     OW 8662   4.987   1.691   6.763
 2588SOL    HW1 8663   5.065   1.753   6.758
 2588SOL    HW2 8664   4.981   1.638   6.679
 2589SOL     OW 8665   1.185   6.522   5.109
 2589SOL    HW1 8666   1.161   6.581   5.031
 2589SOL    HW2 8667   1.283   6.506   5.110
 2590SOL     OW 8668   3.365   4.554   0.135
 2590SOL    HW1 8669   3.404   4.464   0.112
 2590SOL    HW2 8670   3.377   4.617   0.059
 2591SOL     OW 8671   0.058   4.660   3.112
 2591SOL    HW1 8672   0.116   4.686   3.035
 2591SOL    HW2 8673   0.052   4.560   3.117
 2592SOL     OW 8674   3.101   5.710   0.002
 2592SOL    HW1 8675   3.197   5.728   7.006
 2592SOL    HW2 8676   3.078   5.616   7.004
 2593SOL     OW 8677   4.102   5.650   0.033
 2593SOL    HW1 8678   4.021   5.647   7.001
 2593SOL    HW2 8679   4.076   5.644   0.129
 2594SOL     OW 8680   1.738   4.295   6.222
 2594SOL    HW1 8681   1.781   4.213   6.185
 2594SOL    HW2 8682   1.656   4.269   6.273
 2595SOL     OW 8683   0.196   0.442   4.055
 2595SOL    HW1 8684   0.248   0.357   4.063
 2595SOL    HW2 8685   0.222   0.489   3.971
 2596SOL     OW 8686   3.082   2.202   1.874
 2596SOL    HW1 8687   3.157   2.263   1.849
 2596SOL    HW2 8688   3.018   2.250   1.933
 2597SOL     OW 8689   0.540   5.107   6.114
 2597SOL    HW1 8690   0.537   5.041   6.039
 2597SOL    HW2 8691   0.503   5.194   6.082
 2598SOL     OW 8692   6.671   1.570   2.894
 2598SOL    HW1 8693   6.738   1.496   2.890
 2598SOL    HW2 8694   6.613   1.568   2.812
 2599SOL     OW 8695   1.427   5.762   0.918
 2599SOL    HW1 8696   1.396   5.816   0.840
 2599SOL    HW2 8697   1.413   5.814   1.003
 2600SOL     OW 8698   5.660   2.691   4.767
 2600SOL    HW1 8699   5.676   2.670   4.671
 2600SOL    HW2 8700   5.620   2.783   4.774
 2601SOL     OW 8701   1.725   1.493   2.050
 2601SOL    HW1 8702   1.659   1.554   2.093
 2601SOL    HW2 8703   1.700   1.480   1.954
 2602SOL     OW 8704   0.925   4.956   4.798
 2602SOL    HW1 8705   0.983   4.891   4.848
 2602SOL    HW2 8706   0.842   4.908   4.767
 2603SOL     OW 8707   3.024   0.880   3.225
 2603SOL    HW1 8708   2.954   0.831   3.173
 2603SOL    HW2 8709   3.096   0.910   3.163
 2604SOL     OW 8710   4.911   2.361   2.718
 2604SOL    HW1 8711   4.832   2.400   2.766
 2604SOL    HW2 8712   4.910   2.390   2.623
 2605SOL     OW 8713   1.505   2.902   2.994
 2605SOL    HW1 8714   1.553   2.980   3.035
 2605SOL    HW2 8715   1.551   2.817   3.020
 2606SOL     OW 8716   5.592   4.468   1.657
 2606SOL    HW1 8717   5.655   4.533   1.615
 2606SOL    HW2 8718   5.576   4.494   1.753
 2607SOL     OW 8719   1.011   1.279   2.090
 2607SOL    HW1 8720   0.955   1.196   2.091
 2607SOL    HW2 8721   1.007   1.320   1.999
 2608SOL     OW 8722   3.822   5.657   0.798
 2608SOL    HW1 8723   3.920   5.638   0.803
 2608SOL    HW2 8724   3.798   5.725   0.868
 2609SOL     OW 8725   6.409   1.108   2.546
 2609SOL    HW1 8726   6.420   1.024   2.600
 2609SOL    HW2 8727   6.356   1.174   2.599
 2610SOL     OW 8728   0.649   4.115   4.733
 2610SOL    HW1 8729   0.668   4.213   4.722
 2610SOL    HW2 8730   0.640   4.073   4.642
 2611SOL     OW 8731   4.404   6.105   0.727
 2611SOL    HW1 8732   4.491   6.144   0.698
 2611SOL    HW2 8733   4.418   6.011   0.758
 2612SOL     OW 8734   6.156   6.353   4.602
 2612SOL    HW1 8735   6.138   6.426   4.668
 2612SOL    HW2 8736   6.254   6.341   4.592
 2613SOL     OW 8737   1.985   5.347   6.115
 2613SOL    HW1 8738   2.052   5.418   6.092
 2613SOL    HW2 8739   1.898   5.370   6.072
 2614SOL     OW 8740   6.673   2.341   0.080
 2614SOL    HW1 8741   6.651   2.265   0.140
 2614SOL    HW2 8742   6.769   2.334   0.052
 2615SOL     OW 8743   0.699   3.280   2.363
 2615SOL    HW1 8744   0.706   3.235   2.451
 2615SOL    HW2 8745   0.606   3.270   2.327
 2616SOL     OW 8746   2.320   2.781   5.950
 2616SOL    HW1 8747   2.235   2.821   5.915
 2616SOL    HW2 8748   2.304   2.686   5.976
 2617SOL     OW 8749   4.313   0.598   0.428
 2617SOL    HW1 8750   4.368   0.681   0.435
 2617SOL    HW2 8751   4.296   0.563   0.520
 2618SOL     OW 8752   6.861   0.186   4.000
 2618SOL    HW1 8753   6.851   0.087   3.989
 2618SOL    HW2 8754   6.933   0.204   4.067
 2619SOL     OW 8755   5.297   2.066   1.655
 2619SOL    HW1 8756   5.237   2.085   1.733
 2619SOL    HW2 8757   5.328   2.153   1.616
 2620SOL     OW 8758   6.802   6.800   3.456
 2620SOL    HW1 8759   6.845   6.839   3.375
 2620SOL    HW2 8760   6.871   6.779   3.525
 2621SOL     OW 8761   1.129   5.361   2.250
 2621SOL    HW1 8762   1.103   5.440   2.305
 2621SOL    HW2 8763   1.223   5.372   2.217
 2622SOL     OW 8764   2.282   3.888   6.128
 2622SOL    HW1 8765   2.346   3.939   6.070
 2622SOL    HW2 8766   2.194   3.880   6.083
 2623SOL     OW 8767   0.829   1.011   5.528
 2623SOL    HW1 8768   0.785   0.933   5.572
 2623SOL    HW2 8769   0.765   1.088   5.524
 2624SOL     OW 8770   0.448   1.896   5.093
 2624SOL    HW1 8771   0.518   1.834   5.128
 2624SOL    HW2 8772   0.362   1.881   5.142
 2625SOL     OW 8773   2.501   3.687   5.829
 2625SOL    HW1 8774   2.558   3.698   5.910
 2625SOL    HW2 8775   2.542   3.619   5.768
 2626SOL     OW 8776   6.674   0.408   6.159
 2626SOL    HW1 8777   6.688   0.420   6.060
 2626SOL    HW2 8778   6.601   0.469   6.189
 2627SOL     OW 8779   1.603   1.112   6.302
 2627SOL    HW1 8780   1.700   1.123   6.323
 2627SOL    HW2 8781   1.587   1.131   6.205
 2628SOL     OW 8782   2.119   4.037   5.522
 2628SOL    HW1 8783   2.175   3.962   5.556
 2628SOL    HW2 8784   2.141   4.121   5.572
 2629SOL     OW 8785   3.611   3.263   2.370
 2629SOL    HW1 8786   3.626   3.234   2.275
 2629SOL    HW2 8787   3.553   3.344   2.371
 2630SOL     OW 8788   3.745   1.166   2.617
 2630SOL    HW1 8789   3.837   1.204   2.612
 2630SOL    HW2 8790   3.703   1.167   2.526
 2631SOL     OW 8791   5.281   0.942   6.728
 2631SOL    HW1 8792   5.311   1.031   6.762
 2631SOL    HW2 8793   5.284   0.875   6.802
 2632SOL     OW 8794   5.630   3.407   0.514
 2632SOL    HW1 8795   5.657   3.361   0.598
 2632SOL    HW2 8796   5.533   3.388   0.495
 2633SOL     OW 8797   6.903   2.003   4.889
 2633SOL    HW1 8798   6.848   2.028   4.809
 2633SOL    HW2 8799   6.855   2.030   4.972
 2634SOL     OW 8800   0.706   5.758   3.432
 2634SOL    HW1 8801   0.676   5.725   3.522
 2634SOL    HW2 8802   0.791   5.712   3.406
 2635SOL     OW 8803   6.809   6.221   4.715
 2635SOL    HW1 8804   6.830   6.164   4.636
 2635SOL    HW2 8805   6.854   6.183   4.796
 2636SOL     OW 8806   3.809   0.629   6.593
 2636SOL    HW1 8807   3.866   0.703   6.629
 2636SOL    HW2 8808   3.713   0.654   6.602
 2637SOL     OW 8809   6.298   1.641   4.065
 2637SOL    HW1 8810   6.247   1.717   4.024
 2637SOL    HW2 8811   6.274   1.556   4.017
 2638SOL     OW 8812   0.076   6.582   4.608
 2638SOL    HW1 8813   0.139   6.654   4.638
 2638SOL    HW2 8814   0.104   6.495   4.649
 2639SOL     OW 8815   6.723   6.192   6.824
 2639SOL    HW1 8816   6.699   6.163   6.917
 2639SOL    HW2 8817   6.666   6.144   6.758
 2640SOL     OW 8818   6.732   6.773   5.321
 2640SOL    HW1 8819   6.736   6.873   5.326
 2640SOL    HW2 8820   6.691   6.746   5.234
 2641SOL     OW 8821   5.436   2.322   1.624
 2641SOL    HW1 8822   5.450   2.414   1.588
 2641SOL    HW2 8823   5.477   2.315   1.715
 2642SOL     OW 8824   6.103   0.187   4.031
 2642SOL    HW1 8825   6.112   0.257   3.960
 2642SOL    HW2 8826   6.181   0.193   4.093
 2643SOL     OW 8827   1.260   3.857   3.647
 2643SOL    HW1 8828   1.234   3.887   3.739
 2643SOL    HW2 8829   1.263   3.757   3.644
 2644SOL     OW 8830   4.869   4.906   5.085
 2644SOL    HW1 8831   4.795   4.973   5.077
 2644SOL    HW2 8832   4.937   4.940   5.150
 2645SOL     OW 8833   4.665   5.390   3.531
 2645SOL    HW1 8834   4.645   5.404   3.628
 2645SOL    HW2 8835   4.607   5.451   3.476
 2646SOL     OW 8836   6.947   2.353   0.197
 2646SOL    HW1 8837   6.949   2.283   0.269
 2646SOL    HW2 8838   6.992   2.317   0.115
 2647SOL     OW 8839   6.000   6.966   1.619
 2647SOL    HW1 8840   6.076   6.980   1.556
 2647SOL    HW2 8841   6.035   6.945   1.710
 2648SOL     OW 8842   0.060   6.319   4.724
 2648SOL    HW1 8843   0.080   6.224   4.749
 2648SOL    HW2 8844   6.992   6.326   4.690
 2649SOL     OW 8845   6.080   3.100   1.457
 2649SOL    HW1 8846   6.146   3.084   1.530
 2649SOL    HW2 8847   6.004   3.155   1.493
 2650SOL     OW 8848   1.896   5.082   4.539
 2650SOL    HW1 8849   1.873   5.051   4.446
 2650SOL    HW2 8850   1.889   5.181   4.544
 2651SOL     OW 8851   2.962   1.285   1.064
 2651SOL    HW1 8852   2.901   1.361   1.087
 2651SOL    HW2 8853   3.010   1.305   0.979
 2652SOL     OW 8854   4.812   3.430   5.876
 2652SOL    HW1 8855   4.846   3.518   5.906
 2652SOL    HW2 8856   4.811   3.366   5.953
 2653SOL     OW 8857   4.733   5.942   5.740
 2653SOL    HW1 8858   4.775   5.968   5.653
 2653SOL    HW2 8859   4.795   5.965   5.815
 2654SOL     OW 8860   4.725   6.573   1.289
 2654SOL    HW1 8861   4.813   6.548   1.250
 2654SOL    HW2 8862   4.704   6.668   1.266
 2655SOL     OW 8863   4.925   5.490   3.628
 2655SOL    HW1 8864   4.864   5.432   3.574
 2655SOL    HW2 8865   4.942   5.449   3.717
 2656SOL     OW 8866   3.543   5.629   4.270
 2656SOL    HW1 8867   3.572   5.534   4.264
 2656SOL    HW2 8868   3.466   5.637   4.333
 2657SOL     OW 8869   1.679   3.526   0.412
 2657SOL    HW1 8870   1.710   3.619   0.393
 2657SOL    HW2 8871   1.741   3.461   0.368
 2658SOL     OW 8872   4.756   4.792   0.403
 2658SOL    HW1 8873   4.834   4.730   0.398
 2658SOL    HW2 8874   4.784   4.884   0.377
 2659SOL     OW 8875   4.639   3.069   5.418
 2659SOL    HW1 8876   4.729   3.029   5.399
 2659SOL    HW2 8877   4.643   3.168   5.408
 2660SOL     OW 8878   0.645   0.734   1.654
 2660SOL    HW1 8879   0.652   0.710   1.557
 2660SOL    HW2 8880   0.723   0.697   1.703
 2661SOL     OW 8881   2.096   6.694   1.691
 2661SOL    HW1 8882   2.037   6.671   1.613
 2661SOL    HW2 8883   2.174   6.747   1.658
 2662SOL     OW 8884   2.940   7.001   3.837
 2662SOL    HW1 8885   2.962   6.936   3.910
 2662SOL    HW2 8886   2.863   0.032   3.866
 2663SOL     OW 8887   4.447   4.932   6.603
 2663SOL    HW1 8888   4.497   4.933   6.516
 2663SOL    HW2 8889   4.431   5.026   6.633
 2664SOL     OW 8890   4.206   3.063   5.533
 2664SOL    HW1 8891   4.147   3.105   5.602
 2664SOL    HW2 8892   4.287   3.025   5.576
 2665SOL     OW 8893   2.472   3.398   5.580
 2665SOL    HW1 8894   2.451   3.417   5.484
 2665SOL    HW2 8895   2.547   3.457   5.609
 2666SOL     OW 8896   1.560   4.701   1.701
 2666SOL    HW1 8897   1.472   4.694   1.655
 2666SOL    HW2 8898   1.626   4.640   1.657
 2667SOL     OW 8899   1.221   5.762   3.698
 2667SOL    HW1 8900   1.257   5.767   3.791
 2667SOL    HW2 8901   1.225   5.852   3.656
 2668SOL     OW 8902   6.227   2.833   4.693
 2668SOL    HW1 8903   6.139   2.866   4.728
 2668SOL    HW2 8904   6.293   2.829   4.768
 2669SOL     OW 8905   3.154   5.341   6.773
 2669SOL    HW1 8906   3.240   5.389   6.790
 2669SOL    HW2 8907   3.083   5.380   6.831
 2670SOL     OW 8908   5.869   2.567   4.869
 2670SOL    HW1 8909   5.861   2.468   4.870
 2670SOL    HW2 8910   5.786   2.607   4.830
 2671SOL     OW 8911   4.794   5.464   6.308
 2671SOL    HW1 8912   4.842   5.407   6.375
 2671SOL    HW2 8913   4.751   5.542   6.354
 2672SOL     OW 8914   3.432   6.511   1.623
 2672SOL    HW1 8915   3.339   6.549   1.619
 2672SOL    HW2 8916   3.461   6.484   1.531
 2673SOL     OW 8917   5.850   1.931   1.980
 2673SOL    HW1 8918   5.843   2.029   1.999
 2673SOL    HW2 8919   5.942   1.899   2.003
 2674SOL     OW 8920   1.090   4.642   4.069
 2674SOL    HW1 8921   1.095   4.672   4.164
 2674SOL    HW2 8922   1.136   4.553   4.060
 2675SOL     OW 8923   6.870   6.683   4.225
 2675SOL    HW1 8924   6.876   6.708   4.128
 2675SOL    HW2 8925   6.838   6.588   4.233
 2676SOL     OW 8926   3.441   3.508   2.273
 2676SOL    HW1 8927   3.428   3.606   2.284
 2676SOL    HW2 8928   3.391   3.476   2.193
 2677SOL     OW 8929   2.584   4.850   1.269
 2677SOL    HW1 8930   2.598   4.839   1.367
 2677SOL    HW2 8931   2.609   4.765   1.222
 2678SOL     OW 8932   0.022   2.261   2.089
 2678SOL    HW1 8933   6.992   2.345   2.094
 2678SOL    HW2 8934   0.118   2.285   2.101
 2679SOL     OW 8935   1.673   4.730   2.381
 2679SOL    HW1 8936   1.627   4.676   2.311
 2679SOL    HW2 8937   1.772   4.715   2.375
 2680SOL     OW 8938   1.273   2.273   6.761
 2680SOL    HW1 8939   1.198   2.216   6.796
 2680SOL    HW2 8940   1.347   2.214   6.730
 2681SOL     OW 8941   1.293   2.560   4.791
 2681SOL    HW1 8942   1.369   2.607   4.747
 2681SOL    HW2 8943   1.239   2.626   4.844
 2682SOL     OW 8944   4.758   4.028   3.255
 2682SOL    HW1 8945   4.832   3.970   3.222
 2682SOL    HW2 8946   4.719   3.989   3.338
 2683SOL     OW 8947   2.160   4.714   2.135
 2683SOL    HW1 8948   2.211   4.792   2.098
 2683SOL    HW2 8949   2.224   4.645   2.169
 2684SOL     OW 8950   4.936   0.151   1.744
 2684SOL    HW1 8951   4.938   0.250   1.731
 2684SOL    HW2 8952   4.909   0.107   1.658
 2685SOL     OW 8953   6.023   4.803   5.653
 2685SOL    HW1 8954   5.995   4.734   5.586
 2685SOL    HW2 8955   6.010   4.767   5.745
 2686SOL     OW 8956   0.842   1.641   5.558
 2686SOL    HW1 8957   0.834   1.638   5.458
 2686SOL    HW2 8958   0.846   1.548   5.594
 2687SOL     OW 8959   3.591   5.728   0.382
 2687SOL    HW1 8960   3.614   5.686   0.470
 2687SOL    HW2 8961   3.511   5.786   0.393
 2688SOL     OW 8962   2.620   2.222   0.545
 2688SOL    HW1 8963   2.651   2.279   0.469
 2688SOL    HW2 8964   2.676   2.241   0.626
 2689SOL     OW 8965   0.086   4.052   2.352
 2689SOL    HW1 8966   0.178   4.089   2.363
 2689SOL    HW2 8967   0.021   4.127   2.339
 2690SOL     OW 8968   3.007   3.442   0.011
 2690SOL    HW1 8969   3.025   3.381   6.959
 2690SOL    HW2 8970   3.060   3.526   0.001
 2691SOL     OW 8971   0.281   4.643   3.904
 2691SOL    HW1 8972   0.332   4.616   3.822
 2691SOL    HW2 8973   0.189   4.672   3.878
 2692SOL     OW 8974   2.370   0.006   2.808
 2692SOL    HW1 8975   2.328   6.969   2.742
 2692SOL    HW2 8976   2.365   6.992   2.900
 2693SOL     OW 8977   2.547   4.758   3.979
 2693SOL    HW1 8978   2.555   4.701   3.898
 2693SOL    HW2 8979   2.588   4.711   4.057
 2694SOL     OW 8980   3.880   6.537   3.412
 2694SOL    HW1 8981   3.942   6.554   3.488
 2694SOL    HW2 8982   3.789   6.570   3.435
 2695SOL     OW 8983   5.603   0.316   3.007
 2695SOL    HW1 8984   5.580   0.326   2.910
 2695SOL    HW2 8985   5.528   0.271   3.055
 2696SOL     OW 8986   4.739   4.009   5.529
 2696SOL    HW1 8987   4.644   4.008   5.498
 2696SOL    HW2 8988   4.787   3.929   5.493
 2697SOL     OW 8989   4.310   1.890   2.752
 2697SOL    HW1 8990   4.228   1.903   2.696
 2697SOL    HW2 8991   4.387   1.938   2.710
 2698SOL     OW 8992   1.716   4.945   6.692
 2698SOL    HW1 8993   1.707   4.856   6.649
 2698SOL    HW2 8994   1.762   5.008   6.629
 2699SOL     OW 8995   3.065   6.099   0.946
 2699SOL    HW1 8996   3.051   6.093   1.045
 2699SOL    HW2 8997   2.987   6.059   0.898
 2700SOL     OW 8998   2.733   1.504   1.164
 2700SOL    HW1 8999   2.703   1.531   1.255
 2700SOL    HW2 9000   2.817   1.552   1.140
 2701SOL     OW 9001   5.505   2.344   5.240
 2701SOL    HW1 9002   5.479   2.270   5.178
 2701SOL    HW2 9003   5.448   2.425   5.222
 2702SOL     OW 9004   1.105   2.173   2.675
 2702SOL    HW1 9005   1.033   2.158   2.742
 2702SOL    HW2 9006   1.077   2.138   2.586
 2703SOL     OW 9007   1.531   5.997   1.559
 2703SOL    HW1 9008   1.603   5.947   1.512
 2703SOL    HW2 9009   1.497   5.943   1.637
 2704SOL     OW 9010   6.633   5.661   1.886
 2704SOL    HW1 9011   6.563   5.649   1.957
 2704SOL    HW2 9012   6.623   5.751   1.845
 2705SOL     OW 9013   6.857   0.464   5.334
 2705SOL    HW1 9014   6.901   0.544   5.294
 2705SOL    HW2 9015   6.757   0.475   5.328
 2706SOL     OW 9016   6.504   4.577   3.765
 2706SOL    HW1 9017   6.543   4.630   3.690
 2706SOL    HW2 9018   6.405   4.592   3.768
 2707SOL     OW 9019   4.107   0.402   4.139
 2707SOL    HW1 9020   4.073   0.342   4.066
 2707SOL    HW2 9021   4.198   0.436   4.114
 2708SOL     OW 9022   6.580   2.768   1.348
 2708SOL    HW1 9023   6.501   2.711   1.326
 2708SOL    HW2 9024   6.622   2.802   1.264
 2709SOL     OW 9025   5.140   0.168   6.520
 2709SOL    HW1 9026   5.079   0.232   6.475
 2709SOL    HW2 9027   5.094   0.127   6.599
 2710SOL     OW 9028   1.658   2.679   3.806
 2710SOL    HW1 9029   1.670   2.757   3.868
 2710SOL    HW2 9030   1.689   2.595   3.851
 2711SOL     OW 9031   3.503   0.921   3.533
 2711SOL    HW1 9032   3.416   0.898   3.489
 2711SOL    HW2 9033   3.533   0.845   3.590
 2712SOL     OW 9034   2.225   5.710   2.284
 2712SOL    HW1 9035   2.254   5.782   2.221
 2712SOL    HW2 9036   2.154   5.746   2.345
 2713SOL     OW 9037   4.140   3.944   6.853
 2713SOL    HW1 9038   4.206   3.930   6.927
 2713SOL    HW2 9039   4.170   3.892   6.773
 2714SOL     OW 9040   3.711   3.292   0.011
 2714SOL    HW1 9041   3.663   3.217   0.056
 2714SOL    HW2 9042   3.708   3.373   0.069
 2715SOL     OW 9043   5.756   1.962   0.861
 2715SOL    HW1 9044   5.706   2.048   0.853
 2715SOL    HW2 9045   5.846   1.972   0.820
 2716SOL     OW 9046   5.232   3.114   3.792
 2716SOL    HW1 9047   5.168   3.038   3.778
 2716SOL    HW2 9048   5.284   3.129   3.707
 2717SOL     OW 9049   0.931   6.928   1.674
 2717SOL    HW1 9050   0.950   6.968   1.764
 2717SOL    HW2 9051   0.912   6.831   1.683
 2718SOL     OW 9052   0.491   1.367   5.434
 2718SOL    HW1 9053   0.506   1.464   5.456
 2718SOL    HW2 9054   0.508   1.352   5.337
 2719SOL     OW 9055   1.391   4.204   1.451
 2719SOL    HW1 9056   1.367   4.229   1.545
 2719SOL    HW2 9057   1.429   4.284   1.405
 2720SOL     OW 9058   1.205   0.499   3.066
 2720SOL    HW1 9059   1.153   0.545   2.994
 2720SOL    HW2 9060   1.209   0.558   3.147
 2721SOL     OW 9061   3.328   6.524   3.148
 2721SOL    HW1 9062   3.395   6.552   3.080
 2721SOL    HW2 9063   3.353   6.435   3.185
 2722SOL     OW 9064   4.935   5.321   6.477
 2722SOL    HW1 9065   4.853   5.333   6.533
 2722SOL    HW2 9066   4.995   5.254   6.520
 2723SOL     OW 9067   2.101   6.176   6.796
 2723SOL    HW1 9068   2.008   6.168   6.834
 2723SOL    HW2 9069   2.166   6.139   6.862
 2724SOL     OW 9070   1.756   6.130   6.739
 2724SOL    HW1 9071   1.658   6.137   6.724
 2724SOL    HW2 9072   1.773   6.101   6.833
 2725SOL     OW 9073   5.511   4.027   4.803
 2725SOL    HW1 9074   5.542   3.954   4.864
 2725SOL    HW2 9075   5.585   4.053   4.742
 2726SOL     OW 9076   0.625   2.369   1.863
 2726SOL    HW1 9077   0.683   2.421   1.926
 2726SOL    HW2 9078   0.656   2.274   1.862
 2727SOL     OW 9079   1.379   3.631   4.257
 2727SOL    HW1 9080   1.459   3.635   4.317
 2727SOL    HW2 9081   1.397   3.567   4.181
 2728SOL     OW 9082   5.421   6.142   6.390
 2728SOL    HW1 9083   5.472   6.085   6.326
 2728SOL    HW2 9084   5.343   6.184   6.344
 2729SOL     OW 9085   6.660   6.479   0.211
 2729SOL    HW1 9086   6.657   6.498   0.310
 2729SOL    HW2 9087   6.582   6.524   0.167
 2730SOL     OW 9088   0.965   6.317   2.099
 2730SOL    HW1 9089   0.919   6.230   2.117
 2730SOL    HW2 9090   1.040   6.302   2.035
 2731SOL     OW 9091   3.317   3.698   3.349
 2731SOL    HW1 9092   3.391   3.710   3.414
 2731SOL    HW2 9093   3.231   3.682   3.398
 2732SOL     OW 9094   5.990   2.000   0.750
 2732SOL    HW1 9095   5.983   2.070   0.821
 2732SOL    HW2 9096   6.079   2.006   0.705
 2733SOL     OW 9097   0.073   1.353   5.115
 2733SOL    HW1 9098   0.064   1.286   5.189
 2733SOL    HW2 9099   0.066   1.445   5.152
 2734SOL     OW 9100   3.670   5.639   1.415
 2734SOL    HW1 9101   3.721   5.559   1.381
 2734SOL    HW2 9102   3.573   5.617   1.418
 2735SOL     OW 9103   1.079   2.058   1.716
 2735SOL    HW1 9104   1.083   2.154   1.687
 2735SOL    HW2 9105   1.159   2.009   1.682
 2736SOL     OW 9106   6.031   6.121   4.724
 2736SOL    HW1 9107   5.934   6.122   4.700
 2736SOL    HW2 9108   6.078   6.197   4.679
 2737SOL     OW 9109   2.773   3.342   6.030
 2737SOL    HW1 9110   2.749   3.348   5.933
 2737SOL    HW2 9111   2.873   3.338   6.039
 2738SOL     OW 9112   6.016   6.040   2.183
 2738SOL    HW1 9113   6.085   6.085   2.126
 2738SOL    HW2 9114   5.995   6.099   2.262
 2739SOL     OW 9115   0.760   4.570   1.037
 2739SOL    HW1 9116   0.774   4.661   0.997
 2739SOL    HW2 9117   0.681   4.527   0.995
 2740SOL     OW 9118   6.687   5.169   1.610
 2740SOL    HW1 9119   6.710   5.165   1.708
 2740SOL    HW2 9120   6.751   5.111   1.559
 2741SOL     OW 9121   0.020   1.637   5.169
 2741SOL    HW1 9122   0.064   1.667   5.085
 2741SOL    HW2 9123   6.949   1.662   5.168
 2742SOL     OW 9124   1.748   5.240   0.760
 2742SOL    HW1 9125   1.744   5.292   0.845
 2742SOL    HW2 9126   1.678   5.169   0.761
 2743SOL     OW 9127   0.057   4.993   2.314
 2743SOL    HW1 9128   0.005   4.912   2.340
 2743SOL    HW2 9129   0.154   4.968   2.303
 2744SOL     OW 9130   4.202   3.018   1.739
 2744SOL    HW1 9131   4.159   2.957   1.672
 2744SOL    HW2 9132   4.291   3.049   1.704
 2745SOL     OW 9133   6.786   1.304   5.267
 2745SOL    HW1 9134   6.845   1.233   5.306
 2745SOL    HW2 9135   6.695   1.266   5.250
 2746SOL     OW 9136   0.906   2.600   3.995
 2746SOL    HW1 9137   0.836   2.630   3.930
 2746SOL    HW2 9138   0.865   2.537   4.061
 2747SOL     OW 9139   4.620   5.794   6.809
 2747SOL    HW1 9140   4.717   5.781   6.792
 2747SOL    HW2 9141   4.599   5.891   6.810
 2748SOL     OW 9142   4.268   0.969   1.697
 2748SOL    HW1 9143   4.324   1.045   1.664
 2748SOL    HW2 9144   4.299   0.943   1.789
 2749SOL     OW 9145   0.262   4.424   1.466
 2749SOL    HW1 9146   0.186   4.397   1.525
 2749SOL    HW2 9147   0.349   4.395   1.506
 2750SOL     OW 9148   2.183   4.404   2.185
 2750SOL    HW1 9149   2.221   4.452   2.105
 2750SOL    HW2 9150   2.257   4.384   2.249
 2751SOL     OW 9151   1.108   2.267   1.498
 2751SOL    HW1 9152   1.142   2.335   1.433
 2751SOL    HW2 9153   1.019   2.234   1.469
 2752SOL     OW 9154   3.230   4.525   6.140
 2752SOL    HW1 9155   3.212   4.586   6.217
 2752SOL    HW2 9156   3.154   4.529   6.076
 2753SOL     OW 9157   0.185   6.173   5.246
 2753SOL    HW1 9158   0.139   6.159   5.158
 2753SOL    HW2 9159   0.139   6.117   5.315
 2754SOL     OW 9160   0.144   7.019   6.991
 2754SOL    HW1 9161   0.095   6.947   6.942
 2754SOL    HW2 9162   0.092   0.019   0.046
 2755SOL     OW 9163   4.078   0.001   2.896
 2755SOL    HW1 9164   4.168   0.033   2.867
 2755SOL    HW2 9165   4.018   0.080   2.911
 2756SOL     OW 9166   4.197   5.900   0.064
 2756SOL    HW1 9167   4.160   5.833   7.026
 2756SOL    HW2 9168   4.228   5.981   0.014
 2757SOL     OW 9169   2.438   6.776   0.939
 2757SOL    HW1 9170   2.338   6.778   0.928
 2757SOL    HW2 9171   2.462   6.715   1.013
 2758SOL     OW 9172   4.444   0.277   4.204
 2758SOL    HW1 9173   4.453   0.249   4.109
 2758SOL    HW2 9174   4.512   0.229   4.260
 2759SOL     OW 9175   5.443   6.914   5.505
 2759SOL    HW1 9176   5.495   6.875   5.430
 2759SOL    HW2 9177   5.418   7.009   5.483
 2760SOL     OW 9178   0.942   5.682   1.624
 2760SOL    HW1 9179   0.960   5.586   1.648
 2760SOL    HW2 9180   0.854   5.710   1.662
 2761SOL     OW 9181   2.311   4.670   4.139
 2761SOL    HW1 9182   2.376   4.731   4.094
 2761SOL    HW2 9183   2.348   4.577   4.141
 2762SOL     OW 9184   1.204   0.924   5.374
 2762SOL    HW1 9185   1.171   0.966   5.290
 2762SOL    HW2 9186   1.255   0.840   5.352
 2763SOL     OW 9187   5.356   1.229   3.672
 2763SOL    HW1 9188   5.373   1.168   3.749
 2763SOL    HW2 9189   5.318   1.178   3.596
 2764SOL     OW 9190   6.382   0.356   1.305
 2764SOL    HW1 9191   6.303   0.350   1.366
 2764SOL    HW2 9192   6.462   0.317   1.351
 2765SOL     OW 9193   5.451   0.045   0.699
 2765SOL    HW1 9194   5.492   0.097   0.624
 2765SOL    HW2 9195   5.452   6.974   0.677
 2766SOL     OW 9196   4.964   2.654   0.635
 2766SOL    HW1 9197   5.027   2.719   0.593
 2766SOL    HW2 9198   4.980   2.563   0.598
 2767SOL     OW 9199   6.417   4.908   0.004
 2767SOL    HW1 9200   6.450   4.886   6.938
 2767SOL    HW2 9201   6.459   4.845   0.070
 2768SOL     OW 9202   5.102   0.708   0.264
 2768SOL    HW1 9203   5.191   0.664   0.250
 2768SOL    HW2 9204   5.101   0.797   0.219
 2769SOL     OW 9205   0.224   4.108   3.915
 2769SOL    HW1 9206   0.199   4.013   3.932
 2769SOL    HW2 9207   0.309   4.111   3.863
 2770SOL     OW 9208   2.634   5.502   6.310
 2770SOL    HW1 9209   2.680   5.436   6.370
 2770SOL    HW2 9210   2.565   5.552   6.362
 2771SOL     OW 9211   6.254   0.884   2.394
 2771SOL    HW1 9212   6.323   0.861   2.462
 2771SOL    HW2 9213   6.190   0.808   2.383
 2772SOL     OW 9214   4.548   1.159   0.604
 2772SOL    HW1 9215   4.605   1.227   0.557
 2772SOL    HW2 9216   4.490   1.205   0.671
 2773SOL     OW 9217   5.712   2.674   5.477
 2773SOL    HW1 9218   5.677   2.746   5.417
 2773SOL    HW2 9219   5.773   2.714   5.545
 2774SOL     OW 9220   6.348   3.700   3.249
 2774SOL    HW1 9221   6.359   3.606   3.217
 2774SOL    HW2 9222   6.431   3.753   3.228
 2775SOL     OW 9223   6.902   5.107   6.548
 2775SOL    HW1 9224   6.956   5.034   6.590
 2775SOL    HW2 9225   6.962   5.163   6.491
 2776SOL     OW 9226   5.713   5.033   5.516
 2776SOL    HW1 9227   5.631   5.090   5.522
 2776SOL    HW2 9228   5.744   5.010   5.608
 2777SOL     OW 9229   2.729   1.011   1.922
 2777SOL    HW1 9230   2.784   0.970   1.849
 2777SOL    HW2 9231   2.755   0.972   2.010
 2778SOL     OW 9232   1.454   0.482   5.148
 2778SOL    HW1 9233   1.397   0.448   5.073
 2778SOL    HW2 9234   1.440   0.426   5.229
 2779SOL     OW 9235   4.805   6.744   0.957
 2779SOL    HW1 9236   4.878   6.783   0.900
 2779SOL    HW2 9237   4.821   6.766   1.053
 2780SOL     OW 9238   6.899   5.988   6.658
 2780SOL    HW1 9239   6.928   6.004   6.564
 2780SOL    HW2 9240   6.803   5.959   6.659
 2781SOL     OW 9241   5.986   5.590   1.204
 2781SOL    HW1 9242   5.954   5.682   1.185
 2781SOL    HW2 9243   6.056   5.593   1.276
 2782SOL     OW 9244   3.451   1.973   5.627
 2782SOL    HW1 9245   3.492   1.943   5.713
 2782SOL    HW2 9246   3.428   2.070   5.633
 2783SOL     OW 9247   5.817   3.342   4.745
 2783SOL    HW1 9248   5.803   3.305   4.654
 2783SOL    HW2 9249   5.849   3.270   4.806
 2784SOL     OW 9250   3.107   2.013   1.101
 2784SOL    HW1 9251   3.169   1.947   1.058
 2784SOL    HW2 9252   3.040   2.044   1.033
 2785SOL     OW 9253   5.704   1.521   0.897
 2785SOL    HW1 9254   5.735   1.558   0.985
 2785SOL    HW2 9255   5.708   1.593   0.828
 2786SOL     OW 9256   4.130   5.373   1.944
 2786SOL    HW1 9257   4.166   5.309   1.876
 2786SOL    HW2 9258   4.123   5.464   1.904
 2787SOL     OW 9259   3.153   2.469   6.975
 2787SOL    HW1 9260   3.114   2.488   0.039
 2787SOL    HW2 9261   3.160   2.370   6.961
 2788SOL     OW 9262   2.307   4.506   6.133
 2788SOL    HW1 9263   2.283   4.409   6.123
 2788SOL    HW2 9264   2.381   4.515   6.199
 2789SOL     OW 9265   1.792   2.487   3.144
 2789SOL    HW1 9266   1.786   2.571   3.198
 2789SOL    HW2 9267   1.872   2.434   3.173
 2790SOL     OW 9268   2.482   5.627   2.774
 2790SOL    HW1 9269   2.520   5.579   2.695
 2790SOL    HW2 9270   2.525   5.717   2.783
 2791SOL     OW 9271   1.199   3.954   3.911
 2791SOL    HW1 9272   1.231   4.048   3.921
 2791SOL    HW2 9273   1.099   3.952   3.913
 2792SOL     OW 9274   0.719   6.992   4.625
 2792SOL    HW1 9275   0.807   6.959   4.591
 2792SOL    HW2 9276   0.732   0.055   4.670
 2793SOL     OW 9277   4.899   3.446   3.170
 2793SOL    HW1 9278   4.819   3.503   3.153
 2793SOL    HW2 9279   4.956   3.489   3.240
 2794SOL     OW 9280   0.236   2.541   1.237
 2794SOL    HW1 9281   0.198   2.451   1.214
 2794SOL    HW2 9282   0.221   2.560   1.334
 2795SOL     OW 9283   2.145   2.773   0.608
 2795SOL    HW1 9284   2.067   2.824   0.570
 2795SOL    HW2 9285   2.228   2.827   0.598
 2796SOL     OW 9286   5.993   4.812   2.569
 2796SOL    HW1 9287   5.991   4.782   2.665
 2796SOL    HW2 9288   6.072   4.771   2.523
 2797SOL     OW 9289   4.598   5.176   4.427
 2797SOL    HW1 9290   4.687   5.130   4.432
 2797SOL    HW2 9291   4.580   5.223   4.513
 2798SOL     OW 9292   0.935   4.635   1.635
 2798SOL    HW1 9293   0.982   4.684   1.561
 2798SOL    HW2 9294   0.998   4.568   1.674
 2799SOL     OW 9295   0.183   6.725   0.181
 2799SOL    HW1 9296   0.218   6.654   0.119
 2799SOL    HW2 9297   0.225   6.813   0.157
 2800SOL     OW 9298   4.507   4.943   0.359
 2800SOL    HW1 9299   4.595   4.894   0.362
 2800SOL    HW2 9300   4.439   4.887   0.311
 2801SOL     OW 9301   5.098   5.468   5.049
 2801SOL    HW1 9302   5.106   5.522   5.132
 2801SOL    HW2 9303   5.147   5.382   5.060
 2802SOL     OW 9304   4.846   2.721   6.439
 2802SOL    HW1 9305   4.859   2.778   6.358
 2802SOL    HW2 9306   4.919   2.741   6.505
 2803SOL     OW 9307   3.484   5.884   6.338
 2803SOL    HW1 9308   3.504   5.927   6.426
 2803SOL    HW2 9309   3.511   5.787   6.341
 2804SOL     OW 9310   6.500   4.546   4.936
 2804SOL    HW1 9311   6.591   4.506   4.922
 2804SOL    HW2 9312   6.430   4.476   4.923
 2805SOL     OW 9313   5.145   3.031   2.323
 2805SOL    HW1 9314   5.045   3.032   2.326
 2805SOL    HW2 9315   5.181   3.023   2.416
 2806SOL     OW 9316   6.989   5.274   4.305
 2806SOL    HW1 9317   0.027   5.200   4.285
 2806SOL    HW2 9318   6.908   5.237   4.351
 2807SOL     OW 9319   5.620   5.321   3.504
 2807SOL    HW1 9320   5.543   5.333   3.441
 2807SOL    HW2 9321   5.695   5.275   3.455
 2808SOL     OW 9322   5.319   2.930   2.875
 2808SOL    HW1 9323   5.227   2.923   2.913
 2808SOL    HW2 9324   5.385   2.941   2.949
 2809SOL     OW 9325   5.847   2.878   2.009
 2809SOL    HW1 9326   5.750   2.867   1.983
 2809SOL    HW2 9327   5.859   2.965   2.055
 2810SOL     OW 9328   3.261   5.962   3.494
 2810SOL    HW1 9329   3.315   5.994   3.571
 2810SOL    HW2 9330   3.225   5.871   3.514
 2811SOL     OW 9331   0.655   0.930   3.373
 2811SOL    HW1 9332   0.747   0.929   3.414
 2811SOL    HW2 9333   0.600   1.000   3.418
 2812SOL     OW 9334   5.329   3.441   0.200
 2812SOL    HW1 9335   5.407   3.460   0.141
 2812SOL    HW2 9336   5.352   3.465   0.295
 2813SOL     OW 9337   6.611   0.121   5.802
 2813SOL    HW1 9338   6.662   0.202   5.829
 2813SOL    HW2 9339   6.543   0.099   5.871
 2814SOL     OW 9340   4.873   3.313   6.985
 2814SOL    HW1 9341   4.961   3.283   7.023
 2814SOL    HW2 9342   4.806   3.240   6.994
 2815SOL     OW 9343   6.554   1.151   5.427
 2815SOL    HW1 9344   6.514   1.238   5.457
 2815SOL    HW2 9345   6.591   1.104   5.507
 2816SOL     OW 9346   6.580   6.037   3.428
 2816SOL    HW1 9347   6.643   5.980   3.480
 2816SOL    HW2 9348   6.556   5.991   3.343
 2817SOL     OW 9349   2.804   0.015   1.158
 2817SOL    HW1 9350   2.773   6.962   1.105
 2817SOL    HW2 9351   2.844   7.009   1.245
 2818SOL     OW 9352   0.375   0.078   6.937
 2818SOL    HW1 9353   0.294   0.033   6.974
 2818SOL    HW2 9354   0.421   0.016   6.873
 2819SOL     OW 9355   0.517   0.857   1.378
 2819SOL    HW1 9356   0.562   0.947   1.378
 2819SOL    HW2 9357   0.586   0.785   1.365
 2820SOL     OW 9358   1.693   1.810   3.130
 2820SOL    HW1 9359   1.639   1.893   3.125
 2820SOL    HW2 9360   1.639   1.732   3.096
 2821SOL     OW 9361   4.233   3.284   0.381
 2821SOL    HW1 9362   4.234   3.364   0.441
 2821SOL    HW2 9363   4.322   3.273   0.337
 2822SOL     OW 9364   4.590   2.411   6.738
 2822SOL    HW1 9365   4.596   2.473   6.660
 2822SOL    HW2 9366   4.643   2.447   6.815
 2823SOL     OW 9367   3.748   6.067   0.728
 2823SOL    HW1 9368   3.726   6.162   0.711
 2823SOL    HW2 9369   3.746   6.016   0.642
 2824SOL     OW 9370   2.811   1.229   3.976
 2824SOL    HW1 9371   2.802   1.326   3.997
 2824SOL    HW2 9372   2.876   1.187   4.039
 2825SOL     OW 9373   6.466   0.433   6.792
 2825SOL    HW1 9374   6.402   0.376   6.740
 2825SOL    HW2 9375   6.434   0.442   6.886
 2826SOL     OW 9376   4.816   2.008   0.302
 2826SOL    HW1 9377   4.801   2.105   0.321
 2826SOL    HW2 9378   4.757   1.953   0.361
 2827SOL     OW 9379   6.347   0.561   5.413
 2827SOL    HW1 9380   6.327   0.654   5.382
 2827SOL    HW2 9381   6.293   0.541   5.494
 2828SOL     OW 9382   2.951   1.286   0.533
 2828SOL    HW1 9383   2.909   1.356   0.476
 2828SOL    HW2 9384   2.879   1.236   0.583
 2829SOL     OW 9385   3.669   3.744   6.082
 2829SOL    HW1 9386   3.751   3.787   6.043
 2829SOL    HW2 9387   3.591   3.805   6.069
 2830SOL     OW 9388   1.016   3.209   6.182
 2830SOL    HW1 9389   0.994   3.121   6.139
 2830SOL    HW2 9390   0.989   3.284   6.121
 2831SOL     OW 9391   0.554   5.925   3.290
 2831SOL    HW1 9392   0.610   5.848   3.321
 2831SOL    HW2 9393   0.491   5.894   3.219
 2832SOL     OW 9394   0.913   0.602   2.453
 2832SOL    HW1 9395   0.999   0.650   2.468
 2832SOL    HW2 9396   0.846   0.667   2.416
 2833SOL     OW 9397   4.534   2.482   2.538
 2833SOL    HW1 9398   4.503   2.414   2.605
 2833SOL    HW2 9399   4.550   2.570   2.584
 2834SOL     OW 9400   2.632   6.147   5.513
 2834SOL    HW1 9401   2.710   6.132   5.575
 2834SOL    HW2 9402   2.591   6.059   5.488
 2835SOL     OW 9403   6.615   0.618   2.265
 2835SOL    HW1 9404   6.598   0.678   2.187
 2835SOL    HW2 9405   6.704   0.640   2.306
 2836SOL     OW 9406   5.787   0.220   2.596
 2836SOL    HW1 9407   5.862   0.284   2.614
 2836SOL    HW2 9408   5.825   0.134   2.559
 2837SOL     OW 9409   5.332   4.159   3.540
 2837SOL    HW1 9410   5.358   4.153   3.443
 2837SOL    HW2 9411   5.293   4.249   3.559
 2838SOL     OW 9412   1.925   4.666   0.992
 2838SOL    HW1 9413   1.859   4.628   1.058
 2838SOL    HW2 9414   1.925   4.766   1.000
 2839SOL     OW 9415   6.211   1.604   1.917
 2839SOL    HW1 9416   6.181   1.672   1.850
 2839SOL    HW2 9417   6.164   1.517   1.899
 2840SOL     OW 9418   1.619   0.936   3.604
 2840SOL    HW1 9419   1.585   0.870   3.536
 2840SOL    HW2 9420   1.563   1.019   3.601
 2841SOL     OW 9421   0.730   0.874   6.410
 2841SOL    HW1 9422   0.745   0.909   6.502
 2841SOL    HW2 9423   0.812   0.826   6.379
 2842SOL     OW 9424   6.923   4.035   4.404
 2842SOL    HW1 9425   6.993   3.969   4.432
 2842SOL    HW2 9426   6.870   4.063   4.485
 2843SOL     OW 9427   2.891   1.438   2.734
 2843SOL    HW1 9428   2.920   1.416   2.641
 2843SOL    HW2 9429   2.796   1.471   2.732
 2844SOL     OW 9430   0.411   5.448   0.835
 2844SOL    HW1 9431   0.401   5.459   0.934
 2844SOL    HW2 9432   0.357   5.517   0.787
 2845SOL     OW 9433   0.394   2.924   1.322
 2845SOL    HW1 9434   0.318   2.891   1.267
 2845SOL    HW2 9435   0.436   2.848   1.371
 2846SOL     OW 9436   4.651   1.023   6.612
 2846SOL    HW1 9437   4.572   0.962   6.618
 2846SOL    HW2 9438   4.624   1.115   6.640
 2847SOL     OW 9439   5.133   3.805   3.639
 2847SOL    HW1 9440   5.077   3.854   3.572
 2847SOL    HW2 9441   5.076   3.742   3.691
 2848SOL     OW 9442   1.290   3.218   5.883
 2848SOL    HW1 9443   1.351   3.297   5.873
 2848SOL    HW2 9444   1.318   3.163   5.961
 2849SOL     OW 9445   3.340   6.824   0.430
 2849SOL    HW1 9446   3.407   6.885   0.386
 2849SOL    HW2 9447   3.326   6.743   0.373
 2850SOL     OW 9448   3.397   0.184   2.240
 2850SOL    HW1 9449   3.332   0.206   2.312
 2850SOL    HW2 9450   3.490   0.194   2.274
 2851SOL     OW 9451   0.069   2.331   5.656
 2851SOL    HW1 9452   0.048   2.338   5.558
 2851SOL    HW2 9453   0.071   2.422   5.696
 2852SOL     OW 9454   6.022   4.417   0.186
 2852SOL    HW1 9455   5.931   4.434   0.224
 2852SOL    HW2 9456   6.089   4.418   0.259
 2853SOL     OW 9457   2.050   2.818   7.004
 2853SOL    HW1 9458   2.014   2.880   0.048
 2853SOL    HW2 9459   2.043   2.862   6.914
 2854SOL     OW 9460   3.710   0.928   5.150
 2854SOL    HW1 9461   3.784   0.882   5.101
 2854SOL    HW2 9462   3.739   0.949   5.243
 2855SOL     OW 9463   2.848   0.618   6.478
 2855SOL    HW1 9464   2.874   0.680   6.552
 2855SOL    HW2 9465   2.878   0.656   6.390
 2856SOL     OW 9466   1.852   2.619   6.176
 2856SOL    HW1 9467   1.829   2.687   6.105
 2856SOL    HW2 9468   1.946   2.589   6.162
 2857SOL     OW 9469   3.432   1.611   2.260
 2857SOL    HW1 9470   3.456   1.681   2.193
 2857SOL    HW2 9471   3.346   1.636   2.304
 2858SOL     OW 9472   5.133   4.253   2.617
 2858SOL    HW1 9473   5.046   4.301   2.626
 2858SOL    HW2 9474   5.207   4.310   2.655
 2859SOL     OW 9475   5.086   1.957   0.228
 2859SOL    HW1 9476   4.987   1.958   0.247
 2859SOL    HW2 9477   5.102   1.987   0.134
 2860SOL     OW 9478   3.623   2.172   1.255
 2860SOL    HW1 9479   3.586   2.166   1.162
 2860SOL    HW2 9480   3.652   2.081   1.286
 2861SOL     OW 9481   4.278   4.345   6.199
 2861SOL    HW1 9482   4.290   4.433   6.153
 2861SOL    HW2 9483   4.249   4.276   6.133
 2862SOL     OW 9484   5.512   2.023   3.354
 2862SOL    HW1 9485   5.593   2.047   3.300
 2862SOL    HW2 9486   5.465   1.946   3.310
 2863SOL     OW 9487   4.701   1.779   0.110
 2863SOL    HW1 9488   4.703   1.868   0.156
 2863SOL    HW2 9489   4.759   1.715   0.160
 2864SOL     OW 9490   4.143   1.428   1.172
 2864SOL    HW1 9491   4.085   1.497   1.214
 2864SOL    HW2 9492   4.223   1.472   1.130
 2865SOL     OW 9493   5.252   4.374   5.604
 2865SOL    HW1 9494   5.282   4.446   5.666
 2865SOL    HW2 9495   5.283   4.394   5.511
 2866SOL     OW 9496   6.190   6.130   6.896
 2866SOL    HW1 9497   6.200   6.040   6.855
 2866SOL    HW2 9498   6.265   6.189   6.865
 2867SOL     OW 9499   5.654   3.851   2.354
 2867SOL    HW1 9500   5.653   3.773   2.291
 2867SOL    HW2 9501   5.610   3.825   2.440
 2868SOL     OW 9502   0.303   2.681   5.387
 2868SOL    HW1 9503   0.375   2.748   5.370
 2868SOL    HW2 9504   0.214   2.725   5.376
 2869SOL     OW 9505   6.407   0.859   3.751
 2869SOL    HW1 9506   6.460   0.923   3.695
 2869SOL    HW2 9507   6.449   0.852   3.842
 2870SOL     OW 9508   0.556   1.628   4.730
 2870SOL    HW1 9509   0.584   1.723   4.738
 2870SOL    HW2 9510   0.456   1.623   4.734
 2871SOL     OW 9511   0.613   2.093   0.172
 2871SOL    HW1 9512   0.654   2.152   0.242
 2871SOL    HW2 9513   0.652   2.001   0.179
 2872SOL     OW 9514   3.097   1.524   2.884
 2872SOL    HW1 9515   3.014   1.493   2.837
 2872SOL    HW2 9516   3.147   1.588   2.826
 2873SOL     OW 9517   6.689   4.870   2.757
 2873SOL    HW1 9518   6.760   4.818   2.805
 2873SOL    HW2 9519   6.646   4.933   2.822
 2874SOL     OW 9520   3.707   6.324   3.572
 2874SOL    HW1 9521   3.747   6.376   3.647
 2874SOL    HW2 9522   3.620   6.365   3.546
 2875SOL     OW 9523   4.885   6.768   0.574
 2875SOL    HW1 9524   4.865   6.823   0.493
 2875SOL    HW2 9525   4.983   6.773   0.594
 2876SOL     OW 9526   0.803   0.401   1.651
 2876SOL    HW1 9527   0.720   0.412   1.706
 2876SOL    HW2 9528   0.808   0.308   1.616
 2877SOL     OW 9529   3.653   2.834   5.401
 2877SOL    HW1 9530   3.750   2.844   5.380
 2877SOL    HW2 9531   3.639   2.841   5.500
 2878SOL     OW 9532   4.111   5.394   4.705
 2878SOL    HW1 9533   4.210   5.397   4.713
 2878SOL    HW2 9534   4.084   5.313   4.653
 2879SOL     OW 9535   5.054   4.361   0.817
 2879SOL    HW1 9536   5.004   4.403   0.742
 2879SOL    HW2 9537   5.120   4.427   0.854
 2880SOL     OW 9538   6.202   6.940   1.434
 2880SOL    HW1 9539   6.203   6.971   1.339
 2880SOL    HW2 9540   6.236   6.846   1.439
 2881SOL     OW 9541   5.127   6.449   0.162
 2881SOL    HW1 9542   5.169   6.503   0.089
 2881SOL    HW2 9543   5.196   6.423   0.229
 2882SOL     OW 9544   0.815   4.394   2.534
 2882SOL    HW1 9545   0.811   4.309   2.483
 2882SOL    HW2 9546   0.821   4.471   2.471
 2883SOL     OW 9547   5.826   6.683   3.512
 2883SOL    HW1 9548   5.810   6.757   3.448
 2883SOL    HW2 9549   5.796   6.597   3.471
 2884SOL     OW 9550   0.727   5.495   3.265
 2884SOL    HW1 9551   0.727   5.558   3.187
 2884SOL    HW2 9552   0.698   5.543   3.347
 2885SOL     OW 9553   1.001   3.385   2.808
 2885SOL    HW1 9554   1.093   3.385   2.770
 2885SOL    HW2 9555   0.986   3.470   2.859
 2886SOL     OW 9556   2.629   3.745   6.117
 2886SOL    HW1 9557   2.687   3.797   6.054
 2886SOL    HW2 9558   2.677   3.664   6.147
 2887SOL     OW 9559   1.423   0.059   4.525
 2887SOL    HW1 9560   1.359   0.136   4.534
 2887SOL    HW2 9561   1.490   0.063   4.599
 2888SOL     OW 9562   0.631   4.547   0.314
 2888SOL    HW1 9563   0.651   4.644   0.334
 2888SOL    HW2 9564   0.685   4.489   0.376
 2889SOL     OW 9565   2.132   6.548   2.316
 2889SOL    HW1 9566   2.212   6.488   2.310
 2889SOL    HW2 9567   2.060   6.514   2.256
 2890SOL     OW 9568   2.557   0.101   0.860
 2890SOL    HW1 9569   2.468   0.056   0.868
 2890SOL    HW2 9570   2.566   0.172   0.930
 2891SOL     OW 9571   2.196   3.800   3.323
 2891SOL    HW1 9572   2.193   3.900   3.314
 2891SOL    HW2 9573   2.288   3.772   3.349
 2892SOL     OW 9574   5.851   3.495   6.942
 2892SOL    HW1 9575   5.844   3.434   7.020
 2892SOL    HW2 9576   5.850   3.590   6.974
 2893SOL     OW 9577   0.242   6.766   5.019
 2893SOL    HW1 9578   0.155   6.760   4.970
 2893SOL    HW2 9579   0.229   6.736   5.114
 2894SOL     OW 9580   2.796   3.101   0.463
 2894SOL    HW1 9581   2.742   3.080   0.382
 2894SOL    HW2 9582   2.736   3.120   0.541
 2895SOL     OW 9583   4.178   3.134   6.571
 2895SOL    HW1 9584   4.231   3.088   6.643
 2895SOL    HW2 9585   4.112   3.071   6.532
 2896SOL     OW 9586   4.066   5.345   6.788
 2896SOL    HW1 9587   3.989   5.296   6.746
 2896SOL    HW2 9588   4.056   5.341   6.888
 2897SOL     OW 9589   3.536   5.129   3.511
 2897SOL    HW1 9590   3.489   5.045   3.486
 2897SOL    HW2 9591   3.491   5.170   3.591
 2898SOL     OW 9592   3.967   5.839   4.488
 2898SOL    HW1 9593   3.891   5.861   4.427
 2898SOL    HW2 9594   3.965   5.741   4.510
 2899SOL     OW 9595   1.147   1.743   0.526
 2899SOL    HW1 9596   1.066   1.686   0.543
 2899SOL    HW2 9597   1.127   1.837   0.555
 2900SOL     OW 9598   2.144   5.095   5.644
 2900SOL    HW1 9599   2.051   5.133   5.644
 2900SOL    HW2 9600   2.191   5.122   5.727
 2901SOL     OW 9601   2.257   0.066   3.685
 2901SOL    HW1 9602   2.302   0.044   3.599
 2901SOL    HW2 9603   2.283   7.024   3.755
 2902SOL     OW 9604   4.933   6.474   1.568
 2902SOL    HW1 9605   4.880   6.390   1.557
 2902SOL    HW2 9606   5.019   6.453   1.615
 2903SOL     OW 9607   3.027   0.771   0.497
 2903SOL    HW1 9608   2.980   0.696   0.543
 2903SOL    HW2 9609   3.089   0.816   0.560
 2904SOL     OW 9610   2.350   3.493   5.350
 2904SOL    HW1 9611   2.251   3.482   5.355
 2904SOL    HW2 9612   2.372   3.585   5.315
 2905SOL     OW 9613   1.335   2.342   3.465
 2905SOL    HW1 9614   1.237   2.325   3.453
 2905SOL    HW2 9615   1.384   2.256   3.463
 2906SOL     OW 9616   5.245   5.652   2.486
 2906SOL    HW1 9617   5.176   5.580   2.484
 2906SOL    HW2 9618   5.325   5.621   2.538
 2907SOL     OW 9619   0.661   1.463   4.471
 2907SOL    HW1 9620   0.620   1.513   4.547
 2907SOL    HW2 9621   0.756   1.494   4.458
 2908SOL     OW 9622   4.428   6.593   4.209
 2908SOL    HW1 9623   4.335   6.617   4.181
 2908SOL    HW2 9624   4.462   6.518   4.152
 2909SOL     OW 9625   0.257   6.422   3.775
 2909SOL    HW1 9626   0.269   6.372   3.689
 2909SOL    HW2 9627   0.330   6.490   3.785
 2910SOL     OW 9628   4.844   6.228   4.615
 2910SOL    HW1 9629   4.881   6.160   4.551
 2910SOL    HW2 9630   4.813   6.181   4.698
 2911SOL     OW 9631   1.696   5.488   3.497
 2911SOL    HW1 9632   1.621   5.423   3.484
 2911SOL    HW2 9633   1.660   5.576   3.527
 2912SOL     OW 9634   4.358   7.013   6.456
 2912SOL    HW1 9635   4.321   6.984   6.368
 2912SOL    HW2 9636   4.398   0.078   6.446
 2913SOL     OW 9637   2.059   4.561   2.648
 2913SOL    HW1 9638   2.085   4.640   2.705
 2913SOL    HW2 9639   1.967   4.576   2.611
 2914SOL     OW 9640   5.660   6.634   5.870
 2914SOL    HW1 9641   5.695   6.541   5.872
 2914SOL    HW2 9642   5.585   6.640   5.803
 2915SOL     OW 9643   5.306   1.337   5.085
 2915SOL    HW1 9644   5.354   1.261   5.129
 2915SOL    HW2 9645   5.284   1.406   5.154
 2916SOL     OW 9646   6.457   6.176   6.107
 2916SOL    HW1 9647   6.423   6.251   6.165
 2916SOL    HW2 9648   6.380   6.134   6.059
 2917SOL     OW 9649   4.214   6.669   2.180
 2917SOL    HW1 9650   4.196   6.761   2.214
 2917SOL    HW2 9651   4.311   6.658   2.161
 2918SOL     OW 9652   6.467   4.215   3.814
 2918SOL    HW1 9653   6.562   4.195   3.840
 2918SOL    HW2 9654   6.407   4.192   3.891
 2919SOL     OW 9655   6.872   0.819   1.138
 2919SOL    HW1 9656   6.879   0.804   1.237
 2919SOL    HW2 9657   6.961   0.846   1.102
 2920SOL     OW 9658   3.014   1.790   2.132
 2920SOL    HW1 9659   2.916   1.768   2.130
 2920SOL    HW2 9660   3.026   1.889   2.134
 2921SOL     OW 9661   0.978   0.612   2.956
 2921SOL    HW1 9662   0.907   0.603   3.026
 2921SOL    HW2 9663   0.946   0.573   2.870
 2922SOL     OW 9664   5.398   0.334   6.977
 2922SOL    HW1 9665   5.382   0.242   6.941
 2922SOL    HW2 9666   5.348   0.401   6.921
 2923SOL     OW 9667   0.079   4.859   1.656
 2923SOL    HW1 9668   0.095   4.790   1.727
 2923SOL    HW2 9669   0.053   4.813   1.571
 2924SOL     OW 9670   0.597   1.743   6.871
 2924SOL    HW1 9671   0.598   1.646   6.847
 2924SOL    HW2 9672   0.502   1.775   6.877
 2925SOL     OW 9673   4.815   1.162   3.620
 2925SOL    HW1 9674   4.744   1.096   3.599
 2925SOL    HW2 9675   4.849   1.203   3.536
 2926SOL     OW 9676   0.049   1.363   4.625
 2926SOL    HW1 9677   7.009   1.362   4.550
 2926SOL    HW2 9678   0.141   1.381   4.587
 2927SOL     OW 9679   1.354   1.478   2.532
 2927SOL    HW1 9680   1.441   1.526   2.521
 2927SOL    HW2 9681   1.349   1.403   2.466
 2928SOL     OW 9682   0.017   2.556   6.001
 2928SOL    HW1 9683   0.112   2.545   5.972
 2928SOL    HW2 9684   0.004   2.648   6.038
 2929SOL     OW 9685   0.259   0.522   6.801
 2929SOL    HW1 9686   0.257   0.595   6.870
 2929SOL    HW2 9687   0.191   0.542   6.730
 2930SOL     OW 9688   4.250   6.419   5.064
 2930SOL    HW1 9689   4.166   6.391   5.017
 2930SOL    HW2 9690   4.256   6.519   5.066
 2931SOL     OW 9691   5.708   5.315   0.317
 2931SOL    HW1 9692   5.756   5.260   0.385
 2931SOL    HW2 9693   5.613   5.326   0.344
 2932SOL     OW 9694   1.613   5.471   1.582
 2932SOL    HW1 9695   1.664   5.391   1.614
 2932SOL    HW2 9696   1.643   5.494   1.489
 2933SOL     OW 9697   5.909   3.964   3.446
 2933SOL    HW1 9698   5.966   4.040   3.415
 2933SOL    HW2 9699   5.840   3.999   3.510
 2934SOL     OW 9700   4.441   1.621   0.169
 2934SOL    HW1 9701   4.523   1.652   0.121
 2934SOL    HW2 9702   4.360   1.635   0.111
 2935SOL     OW 9703   6.437   3.585   1.704
 2935SOL    HW1 9704   6.430   3.628   1.794
 2935SOL    HW2 9705   6.345   3.570   1.667
 2936SOL     OW 9706   4.165   4.978   2.264
 2936SOL    HW1 9707   4.177   4.884   2.234
 2936SOL    HW2 9708   4.070   5.007   2.247
 2937SOL     OW 9709   3.929   5.056   0.342
 2937SOL    HW1 9710   3.837   5.020   0.330
 2937SOL    HW2 9711   3.932   5.117   0.421
 2938SOL     OW 9712   5.293   4.824   5.756
 2938SOL    HW1 9713   5.320   4.806   5.850
 2938SOL    HW2 9714   5.299   4.922   5.737
 2939SOL     OW 9715   0.307   0.281   4.350
 2939SOL    HW1 9716   0.344   0.222   4.422
 2939SOL    HW2 9717   0.230   0.236   4.306
 2940SOL     OW 9718   6.024   6.525   6.431
 2940SOL    HW1 9719   6.033   6.484   6.523
 2940SOL    HW2 9720   6.027   6.624   6.439
 2941SOL     OW 9721   2.332   2.337   4.050
 2941SOL    HW1 9722   2.318   2.433   4.026
 2941SOL    HW2 9723   2.428   2.313   4.034
 2942SOL     OW 9724   2.911   2.149   1.433
 2942SOL    HW1 9725   2.996   2.180   1.475
 2942SOL    HW2 9726   2.920   2.054   1.406
 2943SOL     OW 9727   5.697   4.242   2.573
 2943SOL    HW1 9728   5.788   4.202   2.584
 2943SOL    HW2 9729   5.629   4.180   2.611
 2944SOL     OW 9730   2.609   5.837   5.144
 2944SOL    HW1 9731   2.544   5.801   5.076
 2944SOL    HW2 9732   2.679   5.891   5.098
 2945SOL     OW 9733   3.870   3.940   4.147
 2945SOL    HW1 9734   3.916   4.019   4.187
 2945SOL    HW2 9735   3.794   3.912   4.205
 2946SOL     OW 9736   1.212   5.615   6.885
 2946SOL    HW1 9737   1.199   5.695   6.945
 2946SOL    HW2 9738   1.306   5.583   6.892
 2947SOL     OW 9739   0.739   3.643   6.372
 2947SOL    HW1 9740   0.639   3.652   6.372
 2947SOL    HW2 9741   0.771   3.634   6.467
 2948SOL     OW 9742   6.811   5.190   5.506
 2948SOL    HW1 9743   6.846   5.256   5.439
 2948SOL    HW2 9744   6.870   5.190   5.586
 2949SOL     OW 9745   2.908   5.825   1.360
 2949SOL    HW1 9746   3.002   5.844   1.389
 2949SOL    HW2 9747   2.847   5.895   1.397
 2950SOL     OW 9748   4.906   3.838   4.538
 2950SOL    HW1 9749   4.879   3.744   4.515
 2950SOL    HW2 9750   5.000   3.854   4.507
 2951SOL     OW 9751   6.501   2.356   1.250
 2951SOL    HW1 9752   6.454   2.299   1.318
 2951SOL    HW2 9753   6.567   2.300   1.199
 2952SOL     OW 9754   0.851   5.980   5.400
 2952SOL    HW1 9755   0.825   5.904   5.341
 2952SOL    HW2 9756   0.897   6.050   5.346
 2953SOL     OW 9757   4.998   3.455   3.456
 2953SOL    HW1 9758   5.065   3.393   3.498
 2953SOL    HW2 9759   4.936   3.402   3.398
 2954SOL     OW 9760   0.557   5.525   1.877
 2954SOL    HW1 9761   0.651   5.515   1.843
 2954SOL    HW2 9762   0.493   5.490   1.809
 2955SOL     OW 9763   1.123   3.935   1.557
 2955SOL    HW1 9764   1.137   3.837   1.572
 2955SOL    HW2 9765   1.196   3.987   1.600
 2956SOL     OW 9766   6.098   6.390   3.087
 2956SOL    HW1 9767   6.193   6.419   3.093
 2956SOL    HW2 9768   6.077   6.329   3.164
 2957SOL     OW 9769   6.480   3.323   2.048
 2957SOL    HW1 9770   6.546   3.345   1.976
 2957SOL    HW2 9771   6.495   3.384   2.126
 2958SOL     OW 9772   2.445   4.373   4.403
 2958SOL    HW1 9773   2.453   4.285   4.450
 2958SOL    HW2 9774   2.504   4.440   4.447
 2959SOL     OW 9775   4.628   4.704   0.708
 2959SOL    HW1 9776   4.556   4.694   0.639
 2959SOL    HW2 9777   4.631   4.622   0.766
 2960SOL     OW 9778   3.918   6.771   6.502
 2960SOL    HW1 9779   3.866   6.688   6.482
 2960SOL    HW2 9780   3.899   6.840   6.433
 2961SOL     OW 9781   4.859   2.373   4.358
 2961SOL    HW1 9782   4.790   2.301   4.364
 2961SOL    HW2 9783   4.914   2.359   4.276
 2962SOL     OW 9784   4.500   0.469   3.609
 2962SOL    HW1 9785   4.504   0.457   3.708
 2962SOL    HW2 9786   4.428   0.535   3.586
 2963SOL     OW 9787   1.904   1.352   6.271
 2963SOL    HW1 9788   1.907   1.256   6.298
 2963SOL    HW2 9789   1.974   1.403   6.322
 2964SOL     OW 9790   6.984   0.192   2.258
 2964SOL    HW1 9791   6.983   0.286   2.225
 2964SOL    HW2 9792   6.891   0.162   2.276
 2965SOL     OW 9793   6.982   0.874   4.540
 2965SOL    HW1 9794   0.016   0.950   4.516
 2965SOL    HW2 9795   6.905   0.907   4.594
 2966SOL     OW 9796   5.502   5.421   4.388
 2966SOL    HW1 9797   5.513   5.363   4.307
 2966SOL    HW2 9798   5.531   5.514   4.366
 2967SOL     OW 9799   6.111   1.923   4.578
 2967SOL    HW1 9800   6.135   2.019   4.566
 2967SOL    HW2 9801   6.191   1.872   4.610
 2968SOL     OW 9802   1.093   3.430   6.416
 2968SOL    HW1 9803   1.077   3.431   6.318
 2968SOL    HW2 9804   1.020   3.380   6.461
 2969SOL     OW 9805   6.034   1.288   4.954
 2969SOL    HW1 9806   6.101   1.215   4.942
 2969SOL    HW2 9807   5.954   1.253   5.002
 2970SOL     OW 9808   0.939   3.849   6.357
 2970SOL    HW1 9809   0.915   3.753   6.340
 2970SOL    HW2 9810   1.035   3.863   6.335
 2971SOL     OW 9811   6.123   3.336   5.977
 2971SOL    HW1 9812   6.045   3.276   5.995
 2971SOL    HW2 9813   6.120   3.414   6.039
 2972SOL     OW 9814   6.649   4.809   6.346
 2972SOL    HW1 9815   6.550   4.815   6.361
 2972SOL    HW2 9816   6.690   4.752   6.417
 2973SOL     OW 9817   5.435   1.024   3.901
 2973SOL    HW1 9818   5.389   0.955   3.958
 2973SOL    HW2 9819   5.473   1.095   3.960
 2974SOL     OW 9820   0.698   3.974   2.637
 2974SOL    HW1 9821   0.696   4.024   2.551
 2974SOL    HW2 9822   0.793   3.965   2.669
 2975SOL     OW 9823   0.246   2.339   4.865
 2975SOL    HW1 9824   0.221   2.307   4.774
 2975SOL    HW2 9825   0.343   2.361   4.868
 2976SOL     OW 9826   4.220   1.716   3.341
 2976SOL    HW1 9827   4.169   1.654   3.281
 2976SOL    HW2 9828   4.276   1.663   3.404
 2977SOL     OW 9829   1.665   6.342   4.126
 2977SOL    HW1 9830   1.696   6.309   4.037
 2977SOL    HW2 9831   1.567   6.363   4.122
 2978SOL     OW 9832   4.457   4.745   6.780
 2978SOL    HW1 9833   4.454   4.813   6.707
 2978SOL    HW2 9834   4.512   4.780   6.856
 2979SOL     OW 9835   4.806   6.781   4.305
 2979SOL    HW1 9836   4.822   6.691   4.345
 2979SOL    HW2 9837   4.890   6.836   4.312
 2980SOL     OW 9838   0.853   6.026   3.449
 2980SOL    HW1 9839   0.815   5.939   3.419
 2980SOL    HW2 9840   0.780   6.093   3.459
 2981SOL     OW 9841   1.536   1.391   5.869
 2981SOL    HW1 9842   1.486   1.477   5.868
 2981SOL    HW2 9843   1.594   1.384   5.788
 2982SOL     OW 9844   4.630   5.631   2.983
 2982SOL    HW1 9845   4.539   5.628   2.941
 2982SOL    HW2 9846   4.643   5.719   3.027
 2983SOL     OW 9847   0.911   1.402   3.953
 2983SOL    HW1 9848   0.909   1.442   4.045
 2983SOL    HW2 9849   0.888   1.472   3.886
 2984SOL     OW 9850   5.283   5.603   1.727
 2984SOL    HW1 9851   5.294   5.557   1.639
 2984SOL    HW2 9852   5.256   5.536   1.796
 2985SOL     OW 9853   1.429   2.664   5.164
 2985SOL    HW1 9854   1.455   2.698   5.074
 2985SOL    HW2 9855   1.331   2.645   5.166
 2986SOL     OW 9856   2.195   4.226   6.375
 2986SOL    HW1 9857   2.278   4.189   6.418
 2986SOL    HW2 9858   2.193   4.325   6.388
 2987SOL     OW 9859   5.625   0.829   3.851
 2987SOL    HW1 9860   5.653   0.872   3.765
 2987SOL    HW2 9861   5.553   0.884   3.894
 2988SOL     OW 9862   0.572   6.508   2.847
 2988SOL    HW1 9863   0.607   6.462   2.928
 2988SOL    HW2 9864   0.646   6.559   2.803
 2989SOL     OW 9865   6.680   6.411   0.507
 2989SOL    HW1 9866   6.628   6.484   0.552
 2989SOL    HW2 9867   6.618   6.356   0.450
 2990SOL     OW 9868   4.603   1.479   3.785
 2990SOL    HW1 9869   4.660   1.414   3.837
 2990SOL    HW2 9870   4.632   1.479   3.689
 2991SOL     OW 9871   6.965   3.893   6.487
 2991SOL    HW1 9872   6.967   3.941   6.399
 2991SOL    HW2 9873   6.922   3.803   6.475
 2992SOL     OW 9874   1.877   4.965   5.831
 2992SOL    HW1 9875   1.877   5.053   5.784
 2992SOL    HW2 9876   1.921   4.974   5.920
 2993SOL     OW 9877   0.888   5.317   1.597
 2993SOL    HW1 9878   0.820   5.245   1.580
 2993SOL    HW2 9879   0.974   5.293   1.551
 2994SOL     OW 9880   3.821   0.170   0.356
 2994SOL    HW1 9881   3.829   0.088   0.414
 2994SOL    HW2 9882   3.870   0.246   0.400
 2995SOL     OW 9883   1.647   3.805   6.783
 2995SOL    HW1 9884   1.588   3.867   6.730
 2995SOL    HW2 9885   1.714   3.763   6.722
 2996SOL     OW 9886   2.221   6.879   3.923
 2996SOL    HW1 9887   2.314   6.907   3.950
 2996SOL    HW2 9888   2.227   6.805   3.856
 2997SOL     OW 9889   5.407   0.382   2.254
 2997SOL    HW1 9890   5.489   0.404   2.307
 2997SOL    HW2 9891   5.356   0.466   2.235
 2998SOL     OW 9892   5.259   6.583   4.583
 2998SOL    HW1 9893   5.263   6.663   4.643
 2998SOL    HW2 9894   5.206   6.510   4.627
 2999SOL     OW 9895   3.341   5.079   4.201
 2999SOL    HW1 9896   3.311   5.171   4.227
 2999SOL    HW2 9897   3.418   5.051   4.259
 3000SOL     OW 9898   1.897   4.173   6.749
 3000SOL    HW1 9899   1.899   4.254   6.807
 3000SOL    HW2 9900   1.860   4.197   6.659
 3001SOL     OW 9901   5.507   5.658   6.621
 3001SOL    HW1 9902   5.535   5.734   6.679
 3001SOL    HW2 9903   5.589   5.614   6.582
 3002SOL     OW 9904   3.919   0.164   6.268
 3002SOL    HW1 9905   4.002   0.157   6.213
 3002SOL    HW2 9906   3.889   0.259   6.272
 3003SOL     OW 9907   2.068   0.116   6.643
 3003SOL    HW1 9908   2.143   0.066   6.687
 3003SOL    HW2 9909   2.098   0.151   6.555
 3004SOL     OW 9910   1.402   5.357   3.803
 3004SOL    HW1 9911   1.482   5.301   3.783
 3004SOL    HW2 9912   1.422   5.452   3.783
 3005SOL     OW 9913   3.018   2.254   0.563
 3005SOL    HW1 9914   3.083   2.321   0.528
 3005SOL    HW2 9915   2.999   2.186   0.492
 3006SOL     OW 9916   5.465   2.287   6.817
 3006SOL    HW1 9917   5.516   2.216   6.866
 3006SOL    HW2 9918   5.475   2.273   6.719
 3007SOL     OW 9919   5.814   5.079   1.831
 3007SOL    HW1 9920   5.746   5.075   1.904
 3007SOL    HW2 9921   5.849   4.987   1.812
 3008SOL     OW 9922   3.177   0.812   6.455
 3008SOL    HW1 9923   3.126   0.887   6.413
 3008SOL    HW2 9924   3.209   0.749   6.384
 3009SOL     OW 9925   0.344   0.119   3.241
 3009SOL    HW1 9926   0.384   0.034   3.206
 3009SOL    HW2 9927   0.337   0.115   3.340
 3010SOL     OW 9928   3.491   6.497   3.527
 3010SOL    HW1 9929   3.405   6.548   3.528
 3010SOL    HW2 9930   3.561   6.551   3.480
 3011SOL     OW 9931   5.720   1.294   1.095
 3011SOL    HW1 9932   5.647   1.227   1.087
 3011SOL    HW2 9933   5.743   1.330   1.005
 3012SOL     OW 9934   0.962   3.344   4.989
 3012SOL    HW1 9935   0.940   3.371   5.083
 3012SOL    HW2 9936   0.925   3.411   4.925
 3013SOL     OW 9937   5.148   5.584   4.800
 3013SOL    HW1 9938   5.208   5.663   4.809
 3013SOL    HW2 9939   5.128   5.547   4.891
 3014SOL     OW 9940   4.833   3.166   4.423
 3014SOL    HW1 9941   4.891   3.127   4.495
 3014SOL    HW2 9942   4.853   3.263   4.413
 3015SOL     OW 9943   2.718   2.542   0.380
 3015SOL    HW1 9944   2.739   2.522   0.476
 3015SOL    HW2 9945   2.676   2.462   0.338
 3016SOL     OW 9946   2.849   5.637   3.746
 3016SOL    HW1 9947   2.805   5.624   3.657
 3016SOL    HW2 9948   2.909   5.717   3.742
 3017SOL     OW 9949   1.149   5.242   1.971
 3017SOL    HW1 9950   1.132   5.171   1.902
 3017SOL    HW2 9951   1.184   5.201   2.054
 3018SOL     OW 9952   1.653   6.337   5.314
 3018SOL    HW1 9953   1.736   6.282   5.318
 3018SOL    HW2 9954   1.577   6.286   5.355
 3019SOL     OW 9955   2.050   6.668   6.917
 3019SOL    HW1 9956   1.991   6.749   6.917
 3019SOL    HW2 9957   2.022   6.607   6.843
 3020SOL     OW 9958   4.098   3.700   2.104
 3020SOL    HW1 9959   4.197   3.707   2.118
 3020SOL    HW2 9960   4.077   3.614   2.058
 3021SOL     OW 9961   3.657   0.480   6.838
 3021SOL    HW1 9962   3.736   0.456   6.895
 3021SOL    HW2 9963   3.583   0.416   6.856
 3022SOL     OW 9964   4.055   5.341   4.141
 3022SOL    HW1 9965   4.075   5.255   4.189
 3022SOL    HW2 9966   3.968   5.378   4.173
 3023SOL     OW 9967   4.805   0.174   2.370
 3023SOL    HW1 9968   4.862   0.126   2.303
 3023SOL    HW2 9969   4.861   0.241   2.419
 3024SOL     OW 9970   3.836   6.779   5.967
 3024SOL    HW1 9971   3.796   6.778   6.058
 3024SOL    HW2 9972   3.780   6.834   5.906
 3025SOL     OW 9973   3.939   1.454   0.438
 3025SOL    HW1 9974   3.989   1.370   0.419
 3025SOL    HW2 9975   3.841   1.440   0.425
 3026SOL     OW 9976   2.050   1.771   0.805
 3026SOL    HW1 9977   2.116   1.837   0.770
 3026SOL    HW2 9978   2.065   1.682   0.762
 3027SOL     OW 9979   4.059   0.321   1.895
 3027SOL    HW1 9980   4.118   0.378   1.838
 3027SOL    HW2 9981   4.097   0.229   1.901
 3028SOL     OW 9982   1.913   3.684   6.152
 3028SOL    HW1 9983   1.907   3.733   6.239
 3028SOL    HW2 9984   1.941   3.590   6.168
 3029SOL     OW 9985   0.213   4.795   4.594
 3029SOL    HW1 9986   0.197   4.893   4.583
 3029SOL    HW2 9987   0.127   4.749   4.613
 3030SOL     OW 9988   1.160   2.361   6.057
 3030SOL    HW1 9989   1.251   2.403   6.046
 3030SOL    HW2 9990   1.121   2.343   5.967
 3031SOL     OW 9991   0.185   2.880   0.621
 3031SOL    HW1 9992   0.194   2.847   0.528
 3031SOL    HW2 9993   0.227   2.970   0.629
 3032SOL     OW 9994   4.511   6.713   1.616
 3032SOL    HW1 9995   4.543   6.747   1.528
 3032SOL    HW2 9996   4.530   6.780   1.687
 3033SOL     OW 9997   0.048   2.492   1.720
 3033SOL    HW1 9998   6.980   2.519   1.697
 3033SOL    HW2 9999   0.055   2.478   1.819
 3034SOL     OW10000   1.851   5.854   3.603
 3034SOL    HW110001   1.944   5.818   3.591
 3034SOL    HW210002   1.847   5.947   3.566
 3035SOL     OW10003   6.998   3.079   0.177
 3035SOL    HW110004   6.937   3.026   0.118
 3035SOL    HW210005   0.009   3.157   0.127
 3036SOL     OW10006   1.772   3.037   6.188
 3036SOL    HW110007   1.692   2.981   6.168
 3036SOL    HW210008   1.743   3.127   6.220
 3037SOL     OW10009   0.470   5.994   4.255
 3037SOL    HW110010   0.385   5.977   4.206
 3037SOL    HW210011   0.457   5.977   4.352
 3038SOL     OW10012   5.803   5.864   6.415
 3038SOL    HW110013   5.822   5.781   6.467
 3038SOL    HW210014   5.809   5.943   6.475
 3039SOL     OW10015   0.429   3.867   1.813
 3039SOL    HW110016   0.448   3.882   1.716
 3039SOL    HW210017   0.442   3.770   1.835
 3040SOL     OW10018   4.908   3.439   6.553
 3040SOL    HW110019   4.856   3.509   6.503
 3040SOL    HW210020   4.898   3.454   6.651
 3041SOL     OW10021   2.265   2.990   4.764
 3041SOL    HW110022   2.333   2.993   4.837
 3041SOL    HW210023   2.253   2.895   4.734
 3042SOL     OW10024   5.204   6.801   1.593
 3042SOL    HW110025   5.201   6.878   1.529
 3042SOL    HW210026   5.236   6.719   1.546
 3043SOL     OW10027   1.106   5.686   1.395
 3043SOL    HW110028   1.093   5.597   1.351
 3043SOL    HW210029   1.050   5.691   1.477
 3044SOL     OW10030   3.508   4.655   6.100
 3044SOL    HW110031   3.430   4.592   6.104
 3044SOL    HW210032   3.485   4.733   6.041
 3045SOL     OW10033   4.713   1.273   3.132
 3045SOL    HW110034   4.680   1.185   3.166
 3045SOL    HW210035   4.799   1.296   3.177
 3046SOL     OW10036   2.684   2.163   6.653
 3046SOL    HW110037   2.624   2.097   6.610
 3046SOL    HW210038   2.681   2.249   6.602
 3047SOL     OW10039   5.284   6.914   2.213
 3047SOL    HW110040   5.236   6.868   2.288
 3047SOL    HW210041   5.347   6.982   2.252
 3048SOL     OW10042   3.932   2.456   1.733
 3048SOL    HW110043   3.937   2.556   1.722
 3048SOL    HW210044   3.845   2.433   1.777
 3049SOL     OW10045   0.922   6.672   1.766
 3049SOL    HW110046   0.946   6.686   1.862
 3049SOL    HW210047   0.830   6.633   1.760
 3050SOL     OW10048   3.456   0.774   2.550
 3050SOL    HW110049   3.469   0.812   2.642
 3050SOL    HW210050   3.455   0.674   2.555
 3051SOL     OW10051   2.245   3.878   6.555
 3051SOL    HW110052   2.303   3.920   6.625
 3051SOL    HW210053   2.297   3.869   6.470
 3052SOL     OW10054   4.787   0.643   2.103
 3052SOL    HW110055   4.873   0.615   2.144
 3052SOL    HW210056   4.718   0.571   2.116
 3053SOL     OW10057   6.929   1.489   6.725
 3053SOL    HW110058   6.973   1.556   6.784
 3053SOL    HW210059   6.981   1.403   6.728
 3054SOL     OW10060   6.726   2.388   1.452
 3054SOL    HW110061   6.793   2.313   1.447
 3054SOL    HW210062   6.663   2.383   1.376
 3055SOL     OW10063   4.908   6.969   3.920
 3055SOL    HW110064   5.001   6.936   3.903
 3055SOL    HW210065   4.909   0.009   3.995
 3056SOL     OW10066   6.287   2.041   5.482
 3056SOL    HW110067   6.381   2.072   5.468
 3056SOL    HW210068   6.230   2.070   5.406
 3057SOL     OW10069   4.056   5.908   3.477
 3057SOL    HW110070   4.014   5.998   3.467
 3057SOL    HW210071   4.099   5.901   3.567
 3058SOL     OW10072   0.000   6.044   0.887
 3058SOL    HW110073   0.002   6.139   0.857
 3058SOL    HW210074   6.940   6.002   0.860
 3059SOL     OW10075   2.212   2.433   4.279
 3059SOL    HW110076   2.234   2.391   4.191
 3059SOL    HW210077   2.218   2.363   4.351
 3060SOL     OW10078   0.814   5.408   0.447
 3060SOL    HW110079   0.908   5.404   0.414
 3060SOL    HW210080   0.809   5.466   0.528
 3061SOL     OW10081   5.748   0.694   5.412
 3061SOL    HW110082   5.805   0.724   5.335
 3061SOL    HW210083   5.720   0.599   5.398
 3062SOL     OW10084   1.686   6.614   6.997
 3062SOL    HW110085   1.716   6.588   6.905
 3062SOL    HW210086   1.587   6.631   6.996
 3063SOL     OW10087   2.676   5.505   1.907
 3063SOL    HW110088   2.587   5.517   1.951
 3063SOL    HW210089   2.705   5.410   1.915
 3064SOL     OW10090   5.314   3.855   4.132
 3064SOL    HW110091   5.301   3.757   4.116
 3064SOL    HW210092   5.262   3.907   4.064
 3065SOL     OW10093   2.054   0.589   6.839
 3065SOL    HW110094   2.112   0.565   6.917
 3065SOL    HW210095   2.023   0.683   6.849
 3066SOL     OW10096   5.083   5.190   0.560
 3066SOL    HW110097   5.032   5.106   0.577
 3066SOL    HW210098   5.157   5.199   0.627
 3067SOL     OW10099   3.956   2.195   4.656
 3067SOL    HW110100   3.884   2.130   4.683
 3067SOL    HW210101   4.018   2.209   4.734
 3068SOL     OW10102   5.403   5.999   1.009
 3068SOL    HW110103   5.348   5.978   1.089
 3068SOL    HW210104   5.450   6.086   1.022
 3069SOL     OW10105   6.702   6.255   2.038
 3069SOL    HW110106   6.670   6.327   1.976
 3069SOL    HW210107   6.629   6.188   2.051
 3070SOL     OW10108   0.974   0.860   2.168
 3070SOL    HW110109   1.056   0.896   2.214
 3070SOL    HW210110   0.943   0.925   2.099
 3071SOL     OW10111   5.878   6.004   3.550
 3071SOL    HW110112   5.840   6.076   3.609
 3071SOL    HW210113   5.975   5.992   3.570
 3072SOL     OW10114   1.413   6.606   0.471
 3072SOL    HW110115   1.489   6.569   0.418
 3072SOL    HW210116   1.363   6.673   0.415
 3073SOL     OW10117   6.882   3.521   5.199
 3073SOL    HW110118   6.804   3.489   5.254
 3073SOL    HW210119   6.912   3.610   5.233
 3074SOL     OW10120   4.876   3.328   1.036
 3074SOL    HW110121   4.840   3.354   1.126
 3074SOL    HW210122   4.867   3.406   0.974
 3075SOL     OW10123   2.238   6.025   1.685
 3075SOL    HW110124   2.285   6.039   1.598
 3075SOL    HW210125   2.218   5.927   1.697
 3076SOL     OW10126   6.896   1.312   4.376
 3076SOL    HW110127   6.952   1.275   4.302
 3076SOL    HW210128   6.837   1.240   4.413
 3077SOL     OW10129   4.626   5.485   2.718
 3077SOL    HW110130   4.669   5.550   2.655
 3077SOL    HW210131   4.673   5.488   2.807
 3078SOL     OW10132   1.193   3.055   0.793
 3078SOL    HW110133   1.227   2.967   0.827
 3078SOL    HW210134   1.228   3.129   0.850
 3079SOL     OW10135   2.176   2.036   4.824
 3079SOL    HW110136   2.234   2.055   4.904
 3079SOL    HW210137   2.228   1.985   4.756
 3080SOL     OW10138   4.781   4.295   3.588
 3080SOL    HW110139   4.844   4.218   3.599
 3080SOL    HW210140   4.744   4.321   3.678
 3081SOL     OW10141   0.409   2.564   6.022
 3081SOL    HW110142   0.414   2.624   5.942
 3081SOL    HW210143   0.471   2.599   6.093
 3082SOL     OW10144   3.461   6.998   3.787
 3082SOL    HW110145   3.540   0.027   3.760
 3082SOL    HW210146   3.377   0.015   3.753
 3083SOL     OW10147   4.322   6.102   3.450
 3083SOL    HW110148   4.255   6.042   3.407
 3083SOL    HW210149   4.278   6.188   3.476
 3084SOL     OW10150   5.143   4.161   4.622
 3084SOL    HW110151   5.050   4.146   4.657
 3084SOL    HW210152   5.168   4.257   4.636
 3085SOL     OW10153   0.373   4.961   1.687
 3085SOL    HW110154   0.283   4.991   1.718
 3085SOL    HW210155   0.434   5.040   1.682
 3086SOL     OW10156   4.061   1.856   2.107
 3086SOL    HW110157   3.971   1.898   2.095
 3086SOL    HW210158   4.132   1.921   2.079
 3087SOL     OW10159   1.393   5.002   3.814
 3087SOL    HW110160   1.315   5.023   3.873
 3087SOL    HW210161   1.474   5.050   3.847
 3088SOL     OW10162   2.200   5.215   5.912
 3088SOL    HW110163   2.131   5.251   5.975
 3088SOL    HW210164   2.265   5.159   5.963
 3089SOL     OW10165   1.333   3.157   0.176
 3089SOL    HW110166   1.345   3.248   0.215
 3089SOL    HW210167   1.236   3.135   0.170
 3090SOL     OW10168   1.981   2.144   1.978
 3090SOL    HW110169   1.906   2.210   1.992
 3090SOL    HW210170   2.058   2.190   1.935
 3091SOL     OW10171   1.515   0.150   0.208
 3091SOL    HW110172   1.429   0.172   0.254
 3091SOL    HW210173   1.562   0.077   0.257
 3092SOL     OW10174   4.709   6.586   0.296
 3092SOL    HW110175   4.768   6.667   0.287
 3092SOL    HW210176   4.637   6.605   0.363
 3093SOL     OW10177   5.674   5.960   5.970
 3093SOL    HW110178   5.675   6.060   5.963
 3093SOL    HW210179   5.621   5.933   6.050
 3094SOL     OW10180   2.763   6.851   4.460
 3094SOL    HW110181   2.714   6.938   4.463
 3094SOL    HW210182   2.704   6.778   4.494
 3095SOL     OW10183   2.327   5.707   4.220
 3095SOL    HW110184   2.267   5.630   4.202
 3095SOL    HW210185   2.301   5.751   4.306
 3096SOL     OW10186   1.121   0.478   4.723
 3096SOL    HW110187   1.053   0.468   4.796
 3096SOL    HW210188   1.104   0.563   4.674
 3097SOL     OW10189   0.536   2.175   0.917
 3097SOL    HW110190   0.550   2.078   0.933
 3097SOL    HW210191   0.615   2.212   0.868
 3098SOL     OW10192   2.587   3.214   0.620
 3098SOL    HW110193   2.493   3.222   0.585
 3098SOL    HW210194   2.644   3.286   0.579
 3099SOL     OW10195   0.275   6.206   4.454
 3099SOL    HW110196   0.221   6.151   4.517
 3099SOL    HW210197   0.257   6.177   4.360
 3100SOL     OW10198   6.532   0.015   4.700
 3100SOL    HW110199   6.614   0.072   4.708
 3100SOL    HW210200   6.553   6.960   4.646
 3101SOL     OW10201   5.597   6.252   6.071
 3101SOL    HW110202   5.634   6.283   5.984
 3101SOL    HW210203   5.626   6.313   6.144
 3102SOL     OW10204   0.335   5.085   3.081
 3102SOL    HW110205   0.295   5.056   2.994
 3102SOL    HW210206   0.266   5.131   3.136
 3103SOL     OW10207   3.393   0.842   1.754
 3103SOL    HW110208   3.460   0.784   1.801
 3103SOL    HW210209   3.304   0.834   1.800
 3104SOL     OW10210   5.312   6.632   5.406
 3104SOL    HW110211   5.301   6.635   5.506
 3104SOL    HW210212   5.289   6.541   5.373
 3105SOL     OW10213   6.111   4.808   2.015
 3105SOL    HW110214   6.123   4.734   2.082
 3105SOL    HW210215   6.080   4.770   1.928
 3106SOL     OW10216   5.917   1.376   2.667
 3106SOL    HW110217   5.863   1.302   2.707
 3106SOL    HW210218   5.976   1.417   2.737
 3107SOL     OW10219   4.271   1.102   4.172
 3107SOL    HW110220   4.331   1.038   4.125
 3107SOL    HW210221   4.244   1.175   4.109
 3108SOL     OW10222   1.251   0.258   4.535
 3108SOL    HW110223   1.195   0.276   4.454
 3108SOL    HW210224   1.208   0.301   4.615
 3109SOL     OW10225   5.922   6.211   2.398
 3109SOL    HW110226   5.854   6.152   2.442
 3109SOL    HW210227   5.972   6.262   2.468
 3110SOL     OW10228   1.723   1.818   3.539
 3110SOL    HW110229   1.747   1.902   3.491
 3110SOL    HW210230   1.650   1.771   3.489
 3111SOL     OW10231   6.364   5.874   4.160
 3111SOL    HW110232   6.386   5.833   4.249
 3111SOL    HW210233   6.356   5.973   4.170
 3112SOL     OW10234   5.037   2.480   6.098
 3112SOL    HW110235   5.128   2.447   6.071
 3112SOL    HW210236   5.033   2.491   6.197
 3113SOL     OW10237   1.791   6.271   3.890
 3113SOL    HW110238   1.828   6.322   3.813
 3113SOL    HW210239   1.800   6.172   3.872
 3114SOL     OW10240   3.868   2.298   6.837
 3114SOL    HW110241   3.918   2.212   6.831
 3114SOL    HW210242   3.777   2.287   6.799
 3115SOL     OW10243   4.538   3.549   6.949
 3115SOL    HW110244   4.496   3.486   6.883
 3115SOL    HW210245   4.606   3.604   6.901
 3116SOL     OW10246   7.024   3.557   0.064
 3116SOL    HW110247   6.942   3.514   0.102
 3116SOL    HW210248   7.005   3.589   6.997
 3117SOL     OW10249   4.719   3.683   5.473
 3117SOL    HW110250   4.662   3.646   5.546
 3117SOL    HW210251   4.701   3.634   5.388
 3118SOL     OW10252   0.185   4.624   0.439
 3118SOL    HW110253   0.184   4.628   0.339
 3118SOL    HW210254   0.279   4.635   0.471
 3119SOL     OW10255   2.234   3.291   5.703
 3119SOL    HW110256   2.151   3.281   5.648
 3119SOL    HW210257   2.309   3.321   5.644
 3120SOL     OW10258   2.969   6.820   4.044
 3120SOL    HW110259   3.024   6.860   4.117
 3120SOL    HW210260   2.999   6.726   4.027
 3121SOL     OW10261   0.325   1.472   2.557
 3121SOL    HW110262   0.293   1.557   2.598
 3121SOL    HW210263   0.400   1.434   2.612
 3122SOL     OW10264   2.770   5.978   5.860
 3122SOL    HW110265   2.700   6.025   5.913
 3122SOL    HW210266   2.850   5.962   5.917
 3123SOL     OW10267   3.164   0.860   4.236
 3123SOL    HW110268   3.259   0.830   4.245
 3123SOL    HW210269   3.103   0.781   4.240
 3124SOL     OW10270   3.988   6.610   4.675
 3124SOL    HW110271   4.077   6.566   4.668
 3124SOL    HW210272   3.936   6.594   4.591
 3125SOL     OW10273   6.787   1.743   5.162
 3125SOL    HW110274   6.743   1.684   5.230
 3125SOL    HW210275   6.816   1.828   5.205
 3126SOL     OW10276   5.090   5.115   6.322
 3126SOL    HW110277   5.062   5.194   6.268
 3126SOL    HW210278   5.043   5.033   6.289
 3127SOL     OW10279   0.789   2.184   3.277
 3127SOL    HW110280   0.856   2.242   3.230
 3127SOL    HW210281   0.836   2.109   3.323
 3128SOL     OW10282   1.845   7.023   6.719
 3128SOL    HW110283   1.910   0.063   6.682
 3128SOL    HW210284   1.881   6.986   6.806
 3129SOL     OW10285   0.866   4.148   6.523
 3129SOL    HW110286   0.922   4.070   6.549
 3129SOL    HW210287   0.782   4.117   6.478
 3130SOL     OW10288   1.806   4.489   1.950
 3130SOL    HW110289   1.708   4.505   1.943
 3130SOL    HW210290   1.850   4.510   1.862
 3131SOL     OW10291   0.380   2.469   1.910
 3131SOL    HW110292   0.473   2.435   1.897
 3131SOL    HW210293   0.333   2.413   1.978
 3132SOL     OW10294   4.761   4.889   5.998
 3132SOL    HW110295   4.691   4.818   6.000
 3132SOL    HW210296   4.841   4.856   5.947
 3133SOL     OW10297   2.937   2.142   3.130
 3133SOL    HW110298   3.019   2.101   3.171
 3133SOL    HW210299   2.856   2.102   3.172
 3134SOL     OW10300   4.519   4.948   1.472
 3134SOL    HW110301   4.574   5.009   1.529
 3134SOL    HW210302   4.572   4.867   1.449
 3135SOL     OW10303   4.939   0.775   5.445
 3135SOL    HW110304   5.022   0.775   5.389
 3135SOL    HW210305   4.867   0.827   5.399
 3136SOL     OW10306   5.644   0.810   6.847
 3136SOL    HW110307   5.659   0.758   6.763
 3136SOL    HW210308   5.580   0.759   6.906
 3137SOL     OW10309   6.198   0.616   3.443
 3137SOL    HW110310   6.126   0.628   3.375
 3137SOL    HW210311   6.211   0.702   3.493
 3138SOL     OW10312   0.083   2.121   3.904
 3138SOL    HW110313   0.095   2.214   3.938
 3138SOL    HW210314   7.012   2.103   3.887
 3139SOL     OW10315   4.548   6.973   0.373
 3139SOL    HW110316   4.554   6.939   0.467
 3139SOL    HW210317   4.453   6.968   0.342
 3140SOL     OW10318   5.713   0.264   6.752
 3140SOL    HW110319   5.772   0.232   6.826
 3140SOL    HW210320   5.694   0.362   6.764
 3141SOL     OW10321   0.398   5.946   6.337
 3141SOL    HW110322   0.400   5.909   6.245
 3141SOL    HW210323   0.390   6.046   6.333
 3142SOL     OW10324   4.786   6.319   1.841
 3142SOL    HW110325   4.713   6.382   1.813
 3142SOL    HW210326   4.831   6.283   1.760
 3143SOL     OW10327   0.466   2.393   6.870
 3143SOL    HW110328   0.366   2.398   6.862
 3143SOL    HW210329   0.495   2.441   6.953
 3144SOL     OW10330   2.993   3.857   0.906
 3144SOL    HW110331   3.008   3.758   0.903
 3144SOL    HW210332   3.018   3.891   0.997
 3145SOL     OW10333   1.870   4.942   2.476
 3145SOL    HW110334   1.855   5.017   2.411
 3145SOL    HW210335   1.873   4.855   2.426
 3146SOL     OW10336   1.417   0.198   3.229
 3146SOL    HW110337   1.410   0.252   3.145
 3146SOL    HW210338   1.453   0.255   3.303
 3147SOL     OW10339   3.639   5.104   0.093
 3147SOL    HW110340   3.605   5.100   0.187
 3147SOL    HW210341   3.563   5.120   0.030
 3148SOL     OW10342   4.963   5.763   4.652
 3148SOL    HW110343   4.989   5.667   4.659
 3148SOL    HW210344   5.037   5.814   4.608
 3149SOL     OW10345   3.158   0.464   5.406
 3149SOL    HW110346   3.138   0.394   5.476
 3149SOL    HW210347   3.084   0.466   5.339
 3150SOL     OW10348   6.541   5.844   3.958
 3150SOL    HW110349   6.630   5.884   3.979
 3150SOL    HW210350   6.476   5.866   4.030
 3151SOL     OW10351   3.542   0.812   6.462
 3151SOL    HW110352   3.597   0.815   6.379
 3151SOL    HW210353   3.506   0.719   6.474
 3152SOL     OW10354   1.428   5.332   0.911
 3152SOL    HW110355   1.424   5.258   0.844
 3152SOL    HW210356   1.523   5.351   0.935
 3153SOL     OW10357   6.796   4.698   1.773
 3153SOL    HW110358   6.884   4.649   1.771
 3153SOL    HW210359   6.781   4.737   1.864
 3154SOL     OW10360   6.088   1.512   0.844
 3154SOL    HW110361   6.042   1.546   0.763
 3154SOL    HW210362   6.175   1.470   0.818
 3155SOL     OW10363   6.836   5.269   1.211
 3155SOL    HW110364   6.779   5.189   1.192
 3155SOL    HW210365   6.778   5.350   1.222
 3156SOL     OW10366   3.163   3.078   3.881
 3156SOL    HW110367   3.099   3.148   3.850
 3156SOL    HW210368   3.131   3.039   3.968
 3157SOL     OW10369   1.919   3.016   4.876
 3157SOL    HW110370   1.950   2.977   4.789
 3157SOL    HW210371   1.985   3.085   4.906
 3158SOL     OW10372   4.517   0.369   1.859
 3158SOL    HW110373   4.542   0.308   1.934
 3158SOL    HW210374   4.457   0.441   1.893
 3159SOL     OW10375   5.693   1.252   0.420
 3159SOL    HW110376   5.693   1.292   0.511
 3159SOL    HW210377   5.764   1.182   0.414
 3160SOL     OW10378   6.625   6.017   5.334
 3160SOL    HW110379   6.650   6.109   5.305
 3160SOL    HW210380   6.550   6.023   5.401
 3161SOL     OW10381   0.938   1.005   3.172
 3161SOL    HW110382   0.923   1.008   3.271
 3161SOL    HW210383   0.854   1.032   3.125
 3162SOL     OW10384   1.205   5.928   0.679
 3162SOL    HW110385   1.164   5.962   0.764
 3162SOL    HW210386   1.198   5.999   0.609
 3163SOL     OW10387   3.773   2.564   0.065
 3163SOL    HW110388   3.829   2.570   7.008
 3163SOL    HW210389   3.679   2.589   0.042
 3164SOL     OW10390   4.505   4.452   1.463
 3164SOL    HW110391   4.491   4.551   1.473
 3164SOL    HW210392   4.466   4.405   1.542
 3165SOL     OW10393   1.235   6.055   1.985
 3165SOL    HW110394   1.209   6.139   1.936
 3165SOL    HW210395   1.193   5.977   1.940
 3166SOL     OW10396   4.887   1.715   6.472
 3166SOL    HW110397   4.809   1.758   6.426
 3166SOL    HW210398   4.969   1.729   6.417
 3167SOL     OW10399   0.119   4.290   1.718
 3167SOL    HW110400   0.106   4.216   1.783
 3167SOL    HW210401   0.175   4.362   1.760
 3168SOL     OW10402   5.379   3.299   0.451
 3168SOL    HW110403   5.280   3.307   0.441
 3168SOL    HW210404   5.401   3.226   0.515
 3169SOL     OW10405   1.240   3.053   5.369
 3169SOL    HW110406   1.249   3.153   5.369
 3169SOL    HW210407   1.329   3.012   5.387
 3170SOL     OW10408   4.239   0.613   0.725
 3170SOL    HW110409   4.258   0.568   0.813
 3170SOL    HW210410   4.147   0.651   0.726
 3171SOL     OW10411   0.080   6.633   0.985
 3171SOL    HW110412   0.046   6.696   0.915
 3171SOL    HW210413   0.123   6.555   0.941
 3172SOL     OW10414   0.603   5.566   5.621
 3172SOL    HW110415   0.519   5.521   5.650
 3172SOL    HW210416   0.590   5.605   5.530
 3173SOL     OW10417   2.991   1.888   1.315
 3173SOL    HW110418   3.054   1.848   1.382
 3173SOL    HW210419   3.042   1.921   1.236
 3174SOL     OW10420   2.673   2.974   6.842
 3174SOL    HW110421   2.638   2.881   6.851
 3174SOL    HW210422   2.749   2.987   6.907
 3175SOL     OW10423   0.169   6.438   0.677
 3175SOL    HW110424   0.202   6.463   0.586
 3175SOL    HW210425   0.230   6.477   0.746
 3176SOL     OW10426   1.998   4.958   4.768
 3176SOL    HW110427   1.952   4.984   4.683
 3176SOL    HW210428   1.953   4.879   4.808
 3177SOL     OW10429   4.940   5.405   5.462
 3177SOL    HW110430   4.847   5.369   5.466
 3177SOL    HW210431   5.001   5.335   5.423
 3178SOL     OW10432   6.714   2.955   1.524
 3178SOL    HW110433   6.813   2.959   1.519
 3178SOL    HW210434   6.680   2.878   1.470
 3179SOL     OW10435   1.720   2.805   1.837
 3179SOL    HW110436   1.783   2.874   1.872
 3179SOL    HW210437   1.770   2.721   1.817
 3180SOL     OW10438   4.743   0.605   6.757
 3180SOL    HW110439   4.744   0.568   6.664
 3180SOL    HW210440   4.720   0.532   6.822
 3181SOL     OW10441   0.720   0.422   3.027
 3181SOL    HW110442   0.736   0.502   3.085
 3181SOL    HW210443   0.755   0.340   3.073
 3182SOL     OW10444   1.633   1.077   5.764
 3182SOL    HW110445   1.576   1.027   5.698
 3182SOL    HW210446   1.581   1.094   5.847
 3183SOL     OW10447   5.167   3.676   1.298
 3183SOL    HW110448   5.156   3.591   1.247
 3183SOL    HW210449   5.190   3.655   1.393
 3184SOL     OW10450   2.337   2.173   2.994
 3184SOL    HW110451   2.355   2.123   2.909
 3184SOL    HW210452   2.306   2.265   2.972
 3185SOL     OW10453   5.816   0.798   6.205
 3185SOL    HW110454   5.721   0.819   6.182
 3185SOL    HW210455   5.831   0.815   6.302
 3186SOL     OW10456   3.473   0.759   2.861
 3186SOL    HW110457   3.548   0.820   2.832
 3186SOL    HW210458   3.454   0.774   2.958
 3187SOL     OW10459   4.855   4.425   0.171
 3187SOL    HW110460   4.868   4.326   0.170
 3187SOL    HW210461   4.861   4.460   0.077
 3188SOL     OW10462   3.506   6.077   3.596
 3188SOL    HW110463   3.528   6.091   3.499
 3188SOL    HW210464   3.591   6.065   3.647
 3189SOL     OW10465   2.359   0.826   2.771
 3189SOL    HW110466   2.368   0.743   2.825
 3189SOL    HW210467   2.287   0.814   2.703
 3190SOL     OW10468   0.935   6.699   1.396
 3190SOL    HW110469   0.952   6.649   1.311
 3190SOL    HW210470   0.907   6.634   1.467
 3191SOL     OW10471   3.567   6.971   0.715
 3191SOL    HW110472   3.518   0.030   0.735
 3191SOL    HW210473   3.652   6.992   0.667
 3192SOL     OW10474   0.625   2.281   1.148
 3192SOL    HW110475   0.646   2.376   1.126
 3192SOL    HW210476   0.578   2.238   1.071
 3193SOL     OW10477   4.240   1.724   6.304
 3193SOL    HW110478   4.194   1.810   6.325
 3193SOL    HW210479   4.324   1.717   6.359
 3194SOL     OW10480   0.921   2.664   6.122
 3194SOL    HW110481   0.821   2.661   6.114
 3194SOL    HW210482   0.961   2.660   6.030
 3195SOL     OW10483   1.667   2.365   2.397
 3195SOL    HW110484   1.713   2.450   2.370
 3195SOL    HW210485   1.577   2.386   2.435
 3196SOL     OW10486   6.551   0.360   4.911
 3196SOL    HW110487   6.548   0.455   4.942
 3196SOL    HW210488   6.535   0.299   4.988
 3197SOL     OW10489   1.513   5.620   3.862
 3197SOL    HW110490   1.450   5.681   3.910
 3197SOL    HW210491   1.560   5.562   3.928
 3198SOL     OW10492   6.423   2.098   6.544
 3198SOL    HW110493   6.401   2.120   6.639
 3198SOL    HW210494   6.390   2.006   6.523
 3199SOL     OW10495   4.617   2.585   2.064
 3199SOL    HW110496   4.551   2.539   2.004
 3199SOL    HW210497   4.688   2.520   2.091
 3200SOL     OW10498   6.915   1.601   1.538
 3200SOL    HW110499   6.987   1.633   1.600
 3200SOL    HW210500   6.866   1.679   1.500
 3201SOL     OW10501   5.452   4.432   4.282
 3201SOL    HW110502   5.360   4.411   4.313
 3201SOL    HW210503   5.450   4.512   4.221
 3202SOL     OW10504   1.651   4.953   1.755
 3202SOL    HW110505   1.566   5.006   1.749
 3202SOL    HW210506   1.642   4.870   1.699
 3203SOL     OW10507   6.020   0.972   1.266
 3203SOL    HW110508   5.929   0.945   1.235
 3203SOL    HW210509   6.025   1.072   1.274
 3204SOL     OW10510   5.113   6.144   1.448
 3204SOL    HW110511   5.193   6.203   1.442
 3204SOL    HW210512   5.142   6.048   1.453
 3205SOL     OW10513   0.347   4.010   6.623
 3205SOL    HW110514   0.344   4.024   6.722
 3205SOL    HW210515   0.359   4.098   6.577
 3206SOL     OW10516   6.590   0.148   6.266
 3206SOL    HW110517   6.670   0.125   6.322
 3206SOL    HW210518   6.611   0.226   6.208
 3207SOL     OW10519   0.637   1.271   6.663
 3207SOL    HW110520   0.603   1.200   6.602
 3207SOL    HW210521   0.736   1.278   6.653
 3208SOL     OW10522   4.731   6.163   5.521
 3208SOL    HW110523   4.818   6.171   5.570
 3208SOL    HW210524   4.746   6.180   5.423
 3209SOL     OW10525   2.843   5.936   3.385
 3209SOL    HW110526   2.874   5.910   3.476
 3209SOL    HW210527   2.895   5.884   3.317
 3210SOL     OW10528   0.844   3.209   1.839
 3210SOL    HW110529   0.744   3.206   1.837
 3210SOL    HW210530   0.880   3.176   1.751
 3211SOL     OW10531   2.262   4.330   0.469
 3211SOL    HW110532   2.328   4.405   0.461
 3211SOL    HW210533   2.311   4.246   0.491
 3212SOL     OW10534   3.775   1.183   6.689
 3212SOL    HW110535   3.842   1.254   6.711
 3212SOL    HW210536   3.689   1.204   6.736
 3213SOL     OW10537   5.739   4.630   2.921
 3213SOL    HW110538   5.672   4.657   2.990
 3213SOL    HW210539   5.734   4.530   2.908
 3214SOL     OW10540   4.508   6.348   0.315
 3214SOL    HW110541   4.564   6.425   0.344
 3214SOL    HW210542   4.493   6.353   0.216
 3215SOL     OW10543   6.880   3.622   1.055
 3215SOL    HW110544   6.784   3.645   1.075
 3215SOL    HW210545   6.893   3.619   0.956
 3216SOL     OW10546   5.549   5.225   2.268
 3216SOL    HW110547   5.503   5.212   2.356
 3216SOL    HW210548   5.633   5.277   2.282
 3217SOL     OW10549   1.365   4.561   2.977
 3217SOL    HW110550   1.342   4.645   2.928
 3217SOL    HW210551   1.462   4.541   2.964
 3218SOL     OW10552   4.518   6.141   3.225
 3218SOL    HW110553   4.608   6.098   3.236
 3218SOL    HW210554   4.463   6.127   3.307
 3219SOL     OW10555   0.377   0.318   3.599
 3219SOL    HW110556   0.365   0.273   3.511
 3219SOL    HW210557   0.423   0.406   3.586
 3220SOL     OW10558   6.519   5.355   5.874
 3220SOL    HW110559   6.471   5.301   5.944
 3220SOL    HW210560   6.464   5.358   5.791
 3221SOL     OW10561   3.414   6.010   2.299
 3221SOL    HW110562   3.328   5.978   2.262
 3221SOL    HW210563   3.484   6.011   2.227
 3222SOL     OW10564   4.710   1.901   3.375
 3222SOL    HW110565   4.613   1.913   3.394
 3222SOL    HW210566   4.726   1.907   3.276
 3223SOL     OW10567   1.865   5.503   6.555
 3223SOL    HW110568   1.774   5.504   6.515
 3223SOL    HW210569   1.859   5.476   6.651
 3224SOL     OW10570   4.566   4.954   6.348
 3224SOL    HW110571   4.492   4.920   6.290
 3224SOL    HW210572   4.615   5.027   6.300
 3225SOL     OW10573   4.275   2.206   5.949
 3225SOL    HW110574   4.185   2.249   5.948
 3225SOL    HW210575   4.346   2.276   5.935
 3226SOL     OW10576   2.431   1.606   4.486
 3226SOL    HW110577   2.471   1.586   4.576
 3226SOL    HW210578   2.333   1.588   4.489
 3227SOL     OW10579   3.132   2.194   6.533
 3227SOL    HW110580   3.218   2.183   6.584
 3227SOL    HW210581   3.066   2.244   6.589
 3228SOL     OW10582   5.275   3.303   4.229
 3228SOL    HW110583   5.276   3.320   4.131
 3228SOL    HW210584   5.252   3.208   4.247
 3229SOL     OW10585   3.027   1.341   5.616
 3229SOL    HW110586   2.928   1.358   5.621
 3229SOL    HW210587   3.075   1.427   5.599
 3230SOL     OW10588   0.593   2.518   3.929
 3230SOL    HW110589   0.649   2.563   3.859
 3230SOL    HW210590   0.496   2.531   3.907
 3231SOL     OW10591   4.124   5.669   1.811
 3231SOL    HW110592   4.049   5.733   1.793
 3231SOL    HW210593   4.172   5.697   1.895
 3232SOL     OW10594   4.631   5.328   4.664
 3232SOL    HW110595   4.664   5.411   4.709
 3232SOL    HW210596   4.607   5.259   4.733
 3233SOL     OW10597   1.257   3.602   1.157
 3233SOL    HW110598   1.172   3.554   1.135
 3233SOL    HW210599   1.325   3.536   1.189
 3234SOL     OW10600   6.893   2.205   0.414
 3234SOL    HW110601   6.820   2.263   0.379
 3234SOL    HW210602   6.858   2.151   0.491
 3235SOL     OW10603   5.793   6.211   2.083
 3235SOL    HW110604   5.737   6.236   2.163
 3235SOL    HW210605   5.861   6.144   2.110
 3236SOL     OW10606   1.577   3.070   1.526
 3236SOL    HW110607   1.487   3.056   1.568
 3236SOL    HW210608   1.570   3.060   1.427
 3237SOL     OW10609   5.005   0.568   3.577
 3237SOL    HW110610   5.055   0.508   3.639
 3237SOL    HW210611   5.040   0.661   3.585
 3238SOL     OW10612   0.090   5.338   6.635
 3238SOL    HW110613   0.059   5.430   6.659
 3238SOL    HW210614   0.054   5.312   6.546
 3239SOL     OW10615   5.993   1.278   0.910
 3239SOL    HW110616   6.011   1.371   0.878
 3239SOL    HW210617   5.993   1.276   1.010
 3240SOL     OW10618   0.678   6.677   5.089
 3240SOL    HW110619   0.720   6.763   5.116
 3240SOL    HW210620   0.709   6.604   5.150
 3241SOL     OW10621   4.977   1.344   4.206
 3241SOL    HW110622   5.019   1.255   4.225
 3241SOL    HW210623   5.048   1.414   4.205
 3242SOL     OW10624   3.474   4.754   0.740
 3242SOL    HW110625   3.464   4.662   0.702
 3242SOL    HW210626   3.427   4.759   0.828
 3243SOL     OW10627   5.744   5.117   0.017
 3243SOL    HW110628   5.825   5.072   0.054
 3243SOL    HW210629   5.708   5.064   6.966
 3244SOL     OW10630   5.154   5.487   6.323
 3244SOL    HW110631   5.158   5.579   6.361
 3244SOL    HW210632   5.083   5.435   6.370
 3245SOL     OW10633   4.553   2.607   6.067
 3245SOL    HW110634   4.642   2.588   6.027
 3245SOL    HW210635   4.481   2.573   6.007
 3246SOL     OW10636   5.962   0.650   3.241
 3246SOL    HW110637   5.887   0.709   3.272
 3246SOL    HW210638   5.934   0.555   3.249
 3247SOL     OW10639   0.124   4.938   2.620
 3247SOL    HW110640   0.182   4.885   2.559
 3247SOL    HW210641   0.036   4.954   2.576
 3248SOL     OW10642   5.827   3.677   2.065
 3248SOL    HW110643   5.817   3.776   2.075
 3248SOL    HW210644   5.738   3.637   2.045
 3249SOL     OW10645   4.173   4.701   5.871
 3249SOL    HW110646   4.115   4.689   5.791
 3249SOL    HW210647   4.194   4.611   5.910
 3250SOL     OW10648   5.563   6.915   3.363
 3250SOL    HW110649   5.482   6.858   3.376
 3250SOL    HW210650   5.578   6.929   3.266
 3251SOL     OW10651   4.072   1.492   2.641
 3251SOL    HW110652   4.009   1.429   2.595
 3251SOL    HW210653   4.024   1.535   2.718
 3252SOL     OW10654   3.567   1.078   2.210
 3252SOL    HW110655   3.666   1.067   2.211
 3252SOL    HW210656   3.538   1.121   2.125
 3253SOL     OW10657   4.861   2.833   2.706
 3253SOL    HW110658   4.768   2.801   2.686
 3253SOL    HW210659   4.861   2.933   2.712
 3254SOL     OW10660   3.900   4.979   4.579
 3254SOL    HW110661   3.855   4.972   4.490
 3254SOL    HW210662   3.834   5.011   4.647
 3255SOL     OW10663   4.400   5.330   1.019
 3255SOL    HW110664   4.446   5.317   0.931
 3255SOL    HW210665   4.463   5.371   1.085
 3256SOL     OW10666   5.574   0.249   6.419
 3256SOL    HW110667   5.478   0.251   6.392
 3256SOL    HW210668   5.586   0.186   6.496
 3257SOL     OW10669   1.065   2.203   0.871
 3257SOL    HW110670   1.118   2.232   0.951
 3257SOL    HW210671   0.970   2.188   0.897
 3258SOL     OW10672   4.391   6.271   2.053
 3258SOL    HW110673   4.436   6.360   2.064
 3258SOL    HW210674   4.459   6.200   2.039
 3259SOL     OW10675   4.159   5.989   4.381
 3259SOL    HW110676   4.073   5.943   4.405
 3259SOL    HW210677   4.235   5.944   4.428
 3260SOL     OW10678   2.060   2.422   1.250
 3260SOL    HW110679   2.002   2.489   1.204
 3260SOL    HW210680   2.136   2.396   1.189
 3261SOL     OW10681   4.042   6.095   0.452
 3261SOL    HW110682   4.112   6.127   0.388
 3261SOL    HW210683   3.966   6.054   0.401
 3262SOL     OW10684   3.773   1.814   3.050
 3262SOL    HW110685   3.679   1.845   3.033
 3262SOL    HW210686   3.837   1.877   3.005
 3263SOL     OW10687   4.849   0.226   3.332
 3263SOL    HW110688   4.888   0.317   3.342
 3263SOL    HW210689   4.894   0.178   3.257
 3264SOL     OW10690   0.771   5.200   6.742
 3264SOL    HW110691   0.786   5.129   6.811
 3264SOL    HW210692   0.744   5.285   6.788
 3265SOL     OW10693   4.048   1.969   6.396
 3265SOL    HW110694   3.971   1.975   6.460
 3265SOL    HW210695   4.053   2.053   6.342
 3266SOL     OW10696   0.129   2.455   0.557
 3266SOL    HW110697   0.111   2.528   0.623
 3266SOL    HW210698   0.103   2.367   0.597
 3267SOL     OW10699   3.801   2.386   1.020
 3267SOL    HW110700   3.796   2.485   1.008
 3267SOL    HW210701   3.761   2.340   0.940
 3268SOL     OW10702   1.344   3.863   6.497
 3268SOL    HW110703   1.429   3.844   6.448
 3268SOL    HW210704   1.341   3.960   6.522
 3269SOL     OW10705   4.504   4.681   1.933
 3269SOL    HW110706   4.431   4.747   1.948
 3269SOL    HW210707   4.510   4.621   2.013
 3270SOL     OW10708   0.457   5.656   4.489
 3270SOL    HW110709   0.447   5.755   4.501
 3270SOL    HW210710   0.369   5.617   4.464
 3271SOL     OW10711   5.526   2.275   2.742
 3271SOL    HW110712   5.598   2.325   2.695
 3271SOL    HW210713   5.450   2.337   2.761
 3272SOL     OW10714   3.583   5.592   0.623
 3272SOL    HW110715   3.658   5.592   0.689
 3272SOL    HW210716   3.496   5.605   0.672
 3273SOL     OW10717   0.670   6.590   1.743
 3273SOL    HW110718   0.661   6.557   1.649
 3273SOL    HW210719   0.646   6.517   1.806
 3274SOL     OW10720   4.230   2.274   0.060
 3274SOL    HW110721   4.245   2.364   0.021
 3274SOL    HW210722   4.175   2.219   7.024
 3275SOL     OW10723   1.570   6.980   6.746
 3275SOL    HW110724   1.567   0.021   6.821
 3275SOL    HW210725   1.664   6.974   6.711
 3276SOL     OW10726   3.124   4.720   6.703
 3276SOL    HW110727   3.117   4.627   6.740
 3276SOL    HW210728   3.173   4.778   6.768
 3277SOL     OW10729   5.946   0.373   6.498
 3277SOL    HW110730   5.971   0.309   6.426
 3277SOL    HW210731   5.861   0.421   6.473
 3278SOL     OW10732   0.059   1.161   5.291
 3278SOL    HW110733   0.032   1.212   5.373
 3278SOL    HW210734   0.106   1.077   5.318
 3279SOL     OW10735   0.187   0.471   0.668
 3279SOL    HW110736   0.113   0.531   0.639
 3279SOL    HW210737   0.272   0.501   0.624
 3280SOL     OW10738   2.370   5.103   6.111
 3280SOL    HW110739   2.389   5.198   6.136
 3280SOL    HW210740   2.454   5.050   6.118
 3281SOL     OW10741   2.023   5.880   1.124
 3281SOL    HW110742   2.112   5.837   1.109
 3281SOL    HW210743   2.025   5.932   1.209
 3282SOL     OW10744   2.626   5.907   4.266
 3282SOL    HW110745   2.677   5.829   4.229
 3282SOL    HW210746   2.625   5.981   4.199
 3283SOL     OW10747   3.117   1.886   2.445
 3283SOL    HW110748   3.111   1.863   2.543
 3283SOL    HW210749   3.167   1.815   2.397
 3284SOL     OW10750   6.512   6.704   0.095
 3284SOL    HW110751   6.594   6.719   0.039
 3284SOL    HW210752   6.521   6.754   0.181
 3285SOL     OW10753   6.880   2.608   3.091
 3285SOL    HW110754   6.870   2.512   3.116
 3285SOL    HW210755   6.974   2.624   3.060
 3286SOL     OW10756   4.125   3.365   3.569
 3286SOL    HW110757   4.129   3.357   3.668
 3286SOL    HW210758   4.091   3.456   3.544
 3287SOL     OW10759   0.772   5.591   0.227
 3287SOL    HW110760   0.777   5.534   0.309
 3287SOL    HW210761   0.856   5.643   0.216
 3288SOL     OW10762   0.347   5.957   7.013
 3288SOL    HW110763   0.353   6.056   7.021
 3288SOL    HW210764   0.372   5.929   6.921
 3289SOL     OW10765   1.202   6.806   5.485
 3289SOL    HW110766   1.190   6.794   5.584
 3289SOL    HW210767   1.251   6.891   5.468
 3290SOL     OW10768   0.474   6.780   1.703
 3290SOL    HW110769   0.417   6.802   1.782
 3290SOL    HW210770   0.558   6.735   1.734
 3291SOL     OW10771   1.247   6.485   6.703
 3291SOL    HW110772   1.221   6.563   6.646
 3291SOL    HW210773   1.339   6.455   6.678
 3292SOL     OW10774   0.540   1.484   6.819
 3292SOL    HW110775   0.549   1.416   6.747
 3292SOL    HW210776   0.446   1.484   6.854
 3293SOL     OW10777   6.828   2.079   3.167
 3293SOL    HW110778   6.802   2.028   3.085
 3293SOL    HW210779   6.908   2.036   3.209
 3294SOL     OW10780   6.889   0.377   6.332
 3294SOL    HW110781   6.813   0.394   6.269
 3294SOL    HW210782   6.964   0.335   6.282
 3295SOL     OW10783   2.647   2.028   1.095
 3295SOL    HW110784   2.655   1.971   1.177
 3295SOL    HW210785   2.600   2.113   1.117
 3296SOL     OW10786   2.614   6.866   1.292
 3296SOL    HW110787   2.652   6.891   1.381
 3296SOL    HW210788   2.518   6.840   1.302
 3297SOL     OW10789   2.788   1.766   4.930
 3297SOL    HW110790   2.743   1.852   4.953
 3297SOL    HW210791   2.752   1.693   4.987
 3298SOL     OW10792   6.234   3.166   2.878
 3298SOL    HW110793   6.188   3.190   2.793
 3298SOL    HW210794   6.307   3.231   2.897
 3299SOL     OW10795   2.221   0.298   3.793
 3299SOL    HW110796   2.314   0.329   3.774
 3299SOL    HW210797   2.213   0.200   3.775
 3300SOL     OW10798   0.032   0.735   6.225
 3300SOL    HW110799   7.018   0.675   6.156
 3300SOL    HW210800   0.118   0.772   6.191
 3301SOL     OW10801   1.644   3.756   3.829
 3301SOL    HW110802   1.732   3.732   3.787
 3301SOL    HW210803   1.639   3.855   3.842
 3302SOL     OW10804   1.061   4.767   4.588
 3302SOL    HW110805   0.996   4.766   4.513
 3302SOL    HW210806   1.067   4.859   4.627
 3303SOL     OW10807   3.291   3.250   2.337
 3303SOL    HW110808   3.233   3.331   2.338
 3303SOL    HW210809   3.298   3.215   2.243
 3304SOL     OW10810   1.030   5.140   3.452
 3304SOL    HW110811   1.113   5.149   3.507
 3304SOL    HW210812   0.950   5.151   3.512
 3305SOL     OW10813   2.405   1.382   2.488
 3305SOL    HW110814   2.486   1.326   2.508
 3305SOL    HW210815   2.350   1.337   2.417
 3306SOL     OW10816   2.356   4.234   2.944
 3306SOL    HW110817   2.309   4.268   2.862
 3306SOL    HW210818   2.372   4.136   2.934
 3307SOL     OW10819   6.986   5.736   6.777
 3307SOL    HW110820   6.937   5.818   6.749
 3307SOL    HW210821   6.945   5.656   6.734
 3308SOL     OW10822   4.342   5.690   0.221
 3308SOL    HW110823   4.293   5.773   0.194
 3308SOL    HW210824   4.404   5.663   0.148
 3309SOL     OW10825   0.686   5.208   2.743
 3309SOL    HW110826   0.685   5.239   2.647
 3309SOL    HW210827   0.658   5.112   2.746
 3310SOL     OW10828   0.226   3.800   2.957
 3310SOL    HW110829   0.138   3.838   2.929
 3310SOL    HW210830   0.257   3.735   2.888
 3311SOL     OW10831   2.156   5.328   0.867
 3311SOL    HW110832   2.132   5.414   0.822
 3311SOL    HW210833   2.206   5.270   0.802
 3312SOL     OW10834   2.926   4.051   6.227
 3312SOL    HW110835   2.912   3.956   6.201
 3312SOL    HW210836   2.895   4.065   6.321
 3313SOL     OW10837   1.306   5.505   3.370
 3313SOL    HW110838   1.224   5.521   3.425
 3313SOL    HW210839   1.281   5.502   3.273
 3314SOL     OW10840   1.967   2.807   4.684
 3314SOL    HW110841   1.933   2.862   4.607
 3314SOL    HW210842   2.032   2.740   4.650
 3315SOL     OW10843   0.133   2.785   4.210
 3315SOL    HW110844   0.103   2.860   4.152
 3315SOL    HW210845   0.172   2.821   4.295
 3316SOL     OW10846   4.022   1.495   5.797
 3316SOL    HW110847   4.095   1.427   5.793
 3316SOL    HW210848   4.032   1.549   5.880
 3317SOL     OW10849   4.563   2.735   1.786
 3317SOL    HW110850   4.560   2.819   1.841
 3317SOL    HW210851   4.653   2.692   1.797
 3318SOL     OW10852   2.551   6.851   6.741
 3318SOL    HW110853   2.613   6.867   6.818
 3318SOL    HW210854   2.596   6.876   6.655
 3319SOL     OW10855   6.581   6.645   3.515
 3319SOL    HW110856   6.511   6.695   3.566
 3319SOL    HW210857   6.654   6.709   3.488
 3320SOL     OW10858   5.684   1.142   5.333
 3320SOL    HW110859   5.734   1.063   5.369
 3320SOL    HW210860   5.655   1.200   5.409
 3321SOL     OW10861   3.118   2.977   2.327
 3321SOL    HW110862   3.045   2.969   2.395
 3321SOL    HW210863   3.206   2.981   2.375
 3322SOL     OW10864   4.757   2.307   1.233
 3322SOL    HW110865   4.831   2.257   1.278
 3322SOL    HW210866   4.783   2.402   1.221
 3323SOL     OW10867   2.209   4.019   0.130
 3323SOL    HW110868   2.301   3.986   0.151
 3323SOL    HW210869   2.165   3.956   0.067
 3324SOL     OW10870   1.117   4.196   0.442
 3324SOL    HW110871   1.209   4.207   0.405
 3324SOL    HW210872   1.123   4.187   0.542
 3325SOL     OW10873   2.648   3.048   0.241
 3325SOL    HW110874   2.569   2.990   0.224
 3325SOL    HW210875   2.725   3.016   0.186
 3326SOL     OW10876   5.713   1.682   1.508
 3326SOL    HW110877   5.698   1.643   1.418
 3326SOL    HW210878   5.677   1.776   1.510
 3327SOL     OW10879   2.314   6.285   1.212
 3327SOL    HW110880   2.356   6.367   1.251
 3327SOL    HW210881   2.284   6.304   1.119
 3328SOL     OW10882   4.584   1.782   1.932
 3328SOL    HW110883   4.565   1.872   1.972
 3328SOL    HW210884   4.629   1.794   1.843
 3329SOL     OW10885   4.265   0.303   5.008
 3329SOL    HW110886   4.303   0.290   5.100
 3329SOL    HW210887   4.186   0.244   4.996
 3330SOL     OW10888   5.959   6.812   2.173
 3330SOL    HW110889   6.017   6.750   2.226
 3330SOL    HW210890   5.869   6.770   2.159
 3331SOL     OW10891   1.434   3.411   3.217
 3331SOL    HW110892   1.524   3.444   3.186
 3331SOL    HW210893   1.441   3.380   3.312
 3332SOL     OW10894   5.700   4.379   0.694
 3332SOL    HW110895   5.742   4.361   0.606
 3332SOL    HW210896   5.644   4.301   0.721
 3333SOL     OW10897   3.767   3.769   6.989
 3333SOL    HW110898   3.747   3.866   6.994
 3333SOL    HW210899   3.866   3.756   6.977
 3334SOL     OW10900   1.417   2.835   1.979
 3334SOL    HW110901   1.511   2.801   1.979
 3334SOL    HW210902   1.355   2.764   2.012
 3335SOL     OW10903   3.811   5.027   5.604
 3335SOL    HW110904   3.866   5.081   5.667
 3335SOL    HW210905   3.753   4.964   5.656
 3336SOL     OW10906   2.267   0.066   4.287
 3336SOL    HW110907   2.246   7.002   4.249
 3336SOL    HW210908   2.359   0.094   4.259
 3337SOL     OW10909   3.726   2.890   2.468
 3337SOL    HW110910   3.655   2.858   2.531
 3337SOL    HW210911   3.782   2.959   2.514
 3338SOL     OW10912   0.845   2.423   1.668
 3338SOL    HW110913   0.870   2.483   1.593
 3338SOL    HW210914   0.754   2.447   1.702
 3339SOL     OW10915   1.722   0.066   5.506
 3339SOL    HW110916   1.813   0.103   5.523
 3339SOL    HW210917   1.677   0.044   5.592
 3340SOL     OW10918   4.732   0.605   4.230
 3340SOL    HW110919   4.802   0.600   4.301
 3340SOL    HW210920   4.699   0.699   4.221
 3341SOL     OW10921   2.496   4.593   3.067
 3341SOL    HW110922   2.480   4.502   3.105
 3341SOL    HW210923   2.534   4.584   2.974
 3342SOL     OW10924   6.549   0.642   2.958
 3342SOL    HW110925   6.533   0.598   2.870
 3342SOL    HW210926   6.498   0.728   2.963
 3343SOL     OW10927   4.981   5.643   6.157
 3343SOL    HW110928   4.908   5.611   6.217
 3343SOL    HW210929   5.040   5.707   6.207
 3344SOL     OW10930   6.143   3.076   3.118
 3344SOL    HW110931   6.162   3.102   3.023
 3344SOL    HW210932   6.096   2.987   3.119
 3345SOL     OW10933   0.775   3.807   6.823
 3345SOL    HW110934   0.709   3.781   6.893
 3345SOL    HW210935   0.762   3.902   6.798
 3346SOL     OW10936   2.216   1.132   7.006
 3346SOL    HW110937   2.286   1.071   0.016
 3346SOL    HW210938   2.237   1.227   0.005
 3347SOL     OW10939   1.437   2.504   6.085
 3347SOL    HW110940   1.421   2.547   6.173
 3347SOL    HW210941   1.462   2.573   6.017
 3348SOL     OW10942   4.051   4.240   6.361
 3348SOL    HW110943   3.966   4.214   6.316
 3348SOL    HW210944   4.106   4.297   6.300
 3349SOL     OW10945   2.116   4.490   3.823
 3349SOL    HW110946   2.200   4.436   3.829
 3349SOL    HW210947   2.053   4.447   3.759
 3350SOL     OW10948   0.959   4.162   5.695
 3350SOL    HW110949   1.018   4.202   5.625
 3350SOL    HW210950   1.000   4.077   5.729
 3351SOL     OW10951   5.736   0.910   1.418
 3351SOL    HW110952   5.702   0.998   1.385
 3351SOL    HW210953   5.762   0.918   1.514
 3352SOL     OW10954   5.421   2.849   0.477
 3352SOL    HW110955   5.496   2.890   0.530
 3352SOL    HW210956   5.448   2.843   0.381
 3353SOL     OW10957   1.838   0.047   1.011
 3353SOL    HW110958   1.898   0.006   0.942
 3353SOL    HW210959   1.780   7.002   1.050
 3354SOL     OW10960   4.362   3.282   5.425
 3354SOL    HW110961   4.301   3.206   5.445
 3354SOL    HW210962   4.336   3.361   5.480
 3355SOL     OW10963   2.301   1.761   5.836
 3355SOL    HW110964   2.311   1.796   5.929
 3355SOL    HW210965   2.264   1.668   5.839
 3356SOL     OW10966   0.942   6.985   6.292
 3356SOL    HW110967   0.990   0.008   6.365
 3356SOL    HW210968   0.929   0.020   6.213
 3357SOL     OW10969   3.330   4.010   1.610
 3357SOL    HW110970   3.338   4.020   1.709
 3357SOL    HW210971   3.357   3.917   1.584
 3358SOL     OW10972   6.062   1.281   3.234
 3358SOL    HW110973   6.018   1.250   3.149
 3358SOL    HW210974   6.161   1.276   3.225
 3359SOL     OW10975   0.298   5.050   3.699
 3359SOL    HW110976   0.286   5.099   3.785
 3359SOL    HW210977   0.364   5.098   3.642
 3360SOL     OW10978   0.823   2.139   6.765
 3360SOL    HW110979   0.811   2.148   6.864
 3360SOL    HW210980   0.920   2.149   6.743
 3361SOL     OW10981   0.762   0.513   4.400
 3361SOL    HW110982   0.721   0.444   4.459
 3361SOL    HW210983   0.827   0.568   4.453
 3362SOL     OW10984   4.099   1.630   3.710
 3362SOL    HW110985   4.172   1.698   3.723
 3362SOL    HW210986   4.023   1.672   3.660
 3363SOL     OW10987   6.893   3.011   2.037
 3363SOL    HW110988   6.819   3.030   1.972
 3363SOL    HW210989   6.926   2.918   2.022
 3364SOL     OW10990   1.348   4.380   1.963
 3364SOL    HW110991   1.262   4.330   1.959
 3364SOL    HW210992   1.417   4.323   2.008
 3365SOL     OW10993   2.013   2.891   4.231
 3365SOL    HW110994   2.022   2.793   4.249
 3365SOL    HW210995   2.063   2.915   4.148
 3366SOL     OW10996   6.564   4.043   4.149
 3366SOL    HW110997   6.524   4.135   4.154
 3366SOL    HW210998   6.595   4.026   4.055
 3367SOL     OW10999   3.252   3.562   4.318
 3367SOL    HW111000   3.216   3.588   4.407
 3367SOL    HW211001   3.227   3.467   4.298
 3368SOL     OW11002   1.088   6.254   6.723
 3368SOL    HW111003   1.128   6.344   6.739
 3368SOL    HW211004   1.010   6.241   6.784
 3369SOL     OW11005   4.694   1.824   1.684
 3369SOL    HW111006   4.647   1.783   1.606
 3369SOL    HW211007   4.660   1.917   1.698
 3370SOL     OW11008   5.913   6.557   1.926
 3370SOL    HW111009   5.912   6.461   1.897
 3370SOL    HW211010   5.982   6.569   1.998
 3371SOL     OW11011   2.079   3.666   2.062
 3371SOL    HW111012   2.109   3.734   1.996
 3371SOL    HW211013   2.120   3.578   2.041
 3372SOL     OW11014   6.771   2.624   0.840
 3372SOL    HW111015   6.807   2.715   0.822
 3372SOL    HW211016   6.775   2.569   0.756
 3373SOL     OW11017   0.883   1.677   2.246
 3373SOL    HW111018   0.914   1.718   2.332
 3373SOL    HW211019   0.907   1.737   2.170
 3374SOL     OW11020   0.757   0.021   3.606
 3374SOL    HW111021   0.814   0.097   3.575
 3374SOL    HW211022   0.809   6.989   3.668
 3375SOL     OW11023   6.928   4.662   0.459
 3375SOL    HW111024   0.000   4.643   0.455
 3375SOL    HW211025   6.880   4.580   0.491
 3376SOL     OW11026   2.951   3.451   5.569
 3376SOL    HW111027   2.963   3.548   5.546
 3376SOL    HW211028   2.894   3.407   5.500
 3377SOL     OW11029   6.652   5.505   4.231
 3377SOL    HW111030   6.613   5.523   4.321
 3377SOL    HW211031   6.673   5.407   4.222
 3378SOL     OW11032   0.619   6.775   6.480
 3378SOL    HW111033   0.541   6.827   6.516
 3378SOL    HW211034   0.625   6.790   6.381
 3379SOL     OW11035   0.933   2.975   4.897
 3379SOL    HW111036   0.910   3.008   4.805
 3379SOL    HW211037   1.004   2.904   4.890
 3380SOL     OW11038   4.012   5.134   5.746
 3380SOL    HW111039   4.070   5.054   5.733
 3380SOL    HW211040   4.065   5.207   5.789
 3381SOL     OW11041   0.407   2.613   1.671
 3381SOL    HW111042   0.336   2.592   1.604
 3381SOL    HW211043   0.385   2.567   1.758
 3382SOL     OW11044   0.005   3.143   0.959
 3382SOL    HW111045   6.947   3.190   0.987
 3382SOL    HW211046   7.022   3.045   0.980
 3383SOL     OW11047   3.359   4.897   0.215
 3383SOL    HW111048   3.418   4.828   0.174
 3383SOL    HW211049   3.415   4.965   0.263
 3384SOL     OW11050   2.671   4.602   1.085
 3384SOL    HW111051   2.689   4.566   0.994
 3384SOL    HW211052   2.572   4.613   1.098
 3385SOL     OW11053   6.887   2.992   3.729
 3385SOL    HW111054   6.979   2.972   3.764
 3385SOL    HW211055   6.894   3.031   3.637
 3386SOL     OW11056   6.524   4.716   0.151
 3386SOL    HW111057   6.519   4.616   0.150
 3386SOL    HW211058   6.522   4.748   0.246
 3387SOL     OW11059   4.997   0.986   3.004
 3387SOL    HW111060   4.920   1.002   2.942
 3387SOL    HW211061   5.030   0.893   2.993
 3388SOL     OW11062   4.998   4.676   1.299
 3388SOL    HW111063   5.022   4.676   1.396
 3388SOL    HW211064   4.906   4.636   1.288
 3389SOL     OW11065   6.246   5.747   6.997
 3389SOL    HW111066   6.327   5.804   7.003
 3389SOL    HW211067   6.172   5.788   0.025
 3390SOL     OW11068   4.045   6.539   6.102
 3390SOL    HW111069   3.948   6.554   6.119
 3390SOL    HW211070   4.057   6.459   6.042
 3391SOL     OW11071   5.419   2.314   3.444
 3391SOL    HW111072   5.452   2.307   3.350
 3391SOL    HW211073   5.374   2.229   3.471
 3392SOL     OW11074   3.288   6.892   4.453
 3392SOL    HW111075   3.348   6.815   4.435
 3392SOL    HW211076   3.230   6.910   4.373
 3393SOL     OW11077   5.495   6.873   0.256
 3393SOL    HW111078   5.579   6.830   0.287
 3393SOL    HW211079   5.517   6.956   0.205
 3394SOL     OW11080   3.651   5.282   1.018
 3394SOL    HW111081   3.712   5.215   1.061
 3394SOL    HW211082   3.588   5.235   0.957
 3395SOL     OW11083   4.566   1.359   3.543
 3395SOL    HW111084   4.515   1.352   3.457
 3395SOL    HW211085   4.534   1.289   3.606
 3396SOL     OW11086   5.143   0.627   3.940
 3396SOL    HW111087   5.136   0.546   3.883
 3396SOL    HW211088   5.051   0.665   3.955
 3397SOL     OW11089   2.272   6.055   5.924
 3397SOL    HW111090   2.309   6.057   6.017
 3397SOL    HW211091   2.174   6.031   5.928
 3398SOL     OW11092   0.638   1.200   5.576
 3398SOL    HW111093   0.588   1.188   5.662
 3398SOL    HW211094   0.586   1.259   5.515
 3399SOL     OW11095   6.994   4.989   2.947
 3399SOL    HW111096   6.963   4.894   2.946
 3399SOL    HW211097   0.055   4.996   2.899
 3400SOL     OW11098   5.929   3.571   6.423
 3400SOL    HW111099   5.833   3.595   6.416
 3400SOL    HW211100   5.948   3.535   6.514
 3401SOL     OW11101   6.573   3.803   6.241
 3401SOL    HW111102   6.504   3.746   6.196
 3401SOL    HW211103   6.539   3.830   6.331
 3402SOL     OW11104   6.852   5.524   0.910
 3402SOL    HW111105   6.818   5.535   1.003
 3402SOL    HW211106   6.952   5.522   0.912
 3403SOL     OW11107   4.678   5.677   6.416
 3403SOL    HW111108   4.671   5.776   6.425
 3403SOL    HW211109   4.591   5.640   6.383
 3404SOL     OW11110   5.395   2.945   6.399
 3404SOL    HW111111   5.474   3.005   6.413
 3404SOL    HW211112   5.313   2.990   6.435
 3405SOL     OW11113   5.742   5.451   6.055
 3405SOL    HW111114   5.811   5.424   5.989
 3405SOL    HW211115   5.657   5.475   6.007
 3406SOL     OW11116   2.136   3.445   2.290
 3406SOL    HW111117   2.135   3.450   2.190
 3406SOL    HW211118   2.198   3.515   2.326
 3407SOL     OW11119   2.162   4.533   0.972
 3407SOL    HW111120   2.160   4.433   0.981
 3407SOL    HW211121   2.069   4.568   0.966
 3408SOL     OW11122   4.649   2.441   4.122
 3408SOL    HW111123   4.749   2.450   4.129
 3408SOL    HW211124   4.605   2.520   4.165
 3409SOL     OW11125   3.455   6.496   0.456
 3409SOL    HW111126   3.444   6.574   0.518
 3409SOL    HW211127   3.454   6.411   0.509
 3410SOL     OW11128   5.724   6.556   2.794
 3410SOL    HW111129   5.741   6.639   2.742
 3410SOL    HW211130   5.802   6.538   2.854
 3411SOL     OW11131   0.207   2.759   0.370
 3411SOL    HW111132   0.126   2.700   0.366
 3411SOL    HW211133   0.238   2.780   0.277
 3412SOL     OW11134   5.398   3.542   1.528
 3412SOL    HW111135   5.490   3.509   1.548
 3412SOL    HW211136   5.354   3.481   1.462
 3413SOL     OW11137   6.346   1.840   6.575
 3413SOL    HW111138   6.410   1.773   6.613
 3413SOL    HW211139   6.263   1.842   6.631
 3414SOL     OW11140   3.751   2.379   6.059
 3414SOL    HW111141   3.767   2.287   6.023
 3414SOL    HW211142   3.653   2.397   6.063
 3415SOL     OW11143   1.674   2.298   4.060
 3415SOL    HW111144   1.591   2.304   4.116
 3415SOL    HW211145   1.716   2.208   4.072
 3416SOL     OW11146   6.461   0.104   0.315
 3416SOL    HW111147   6.377   0.062   0.280
 3416SOL    HW211148   6.441   0.197   0.346
 3417SOL     OW11149   0.265   7.017   2.521
 3417SOL    HW111150   0.243   6.942   2.583
 3417SOL    HW211151   0.191   0.002   2.454
 3418SOL     OW11152   3.754   5.530   3.137
 3418SOL    HW111153   3.709   5.458   3.190
 3418SOL    HW211154   3.805   5.589   3.199
 3419SOL     OW11155   4.173   5.734   5.907
 3419SOL    HW111156   4.082   5.775   5.922
 3419SOL    HW211157   4.162   5.641   5.872
 3420SOL     OW11158   4.781   2.875   3.607
 3420SOL    HW111159   4.780   2.796   3.668
 3420SOL    HW211160   4.709   2.939   3.634
 3421SOL     OW11161   5.409   1.498   3.368
 3421SOL    HW111162   5.346   1.535   3.437
 3421SOL    HW211163   5.356   1.450   3.298
 3422SOL     OW11164   2.253   0.327   7.012
 3422SOL    HW111165   2.281   0.378   6.931
 3422SOL    HW211166   2.314   0.250   0.001
 3423SOL     OW11167   0.848   4.296   5.917
 3423SOL    HW111168   0.874   4.270   5.824
 3423SOL    HW211169   0.893   4.383   5.941
 3424SOL     OW11170   3.829   0.093   1.522
 3424SOL    HW111171   3.878   0.179   1.532
 3424SOL    HW211172   3.850   0.033   1.599
 3425SOL     OW11173   4.683   4.686   1.712
 3425SOL    HW111174   4.695   4.591   1.682
 3425SOL    HW211175   4.623   4.688   1.792
 3426SOL     OW11176   5.276   3.503   0.685
 3426SOL    HW111177   5.258   3.467   0.593
 3426SOL    HW211178   5.326   3.590   0.677
 3427SOL     OW11179   1.079   2.414   2.172
 3427SOL    HW111180   1.177   2.398   2.174
 3427SOL    HW211181   1.051   2.446   2.082
 3428SOL     OW11182   5.037   4.770   5.723
 3428SOL    HW111183   4.976   4.845   5.702
 3428SOL    HW211184   5.131   4.804   5.726
 3429SOL     OW11185   0.645   1.104   1.300
 3429SOL    HW111186   0.707   1.174   1.263
 3429SOL    HW211187   0.551   1.130   1.280
 3430SOL     OW11188   1.957   4.671   5.960
 3430SOL    HW111189   1.916   4.710   5.878
 3430SOL    HW211190   2.056   4.665   5.948
 3431SOL     OW11191   1.954   0.047   2.241
 3431SOL    HW111192   1.958   0.132   2.294
 3431SOL    HW211193   1.861   0.035   2.205
 3432SOL     OW11194   2.468   4.611   6.338
 3432SOL    HW111195   2.531   4.655   6.274
 3432SOL    HW211196   2.518   4.582   6.420
 3433SOL     OW11197   2.049   1.004   6.545
 3433SOL    HW111198   2.126   0.940   6.537
 3433SOL    HW211199   2.076   1.081   6.602
 3434SOL     OW11200   2.770   2.176   1.886
 3434SOL    HW111201   2.752   2.176   1.787
 3434SOL    HW211202   2.847   2.235   1.906
 3435SOL     OW11203   2.482   0.819   0.395
 3435SOL    HW111204   2.562   0.779   0.352
 3435SOL    HW211205   2.508   0.899   0.448
 3436SOL     OW11206   4.114   5.313   0.044
 3436SOL    HW111207   4.134   5.337   0.139
 3436SOL    HW211208   4.058   5.230   0.042
 3437SOL     OW11209   1.472   6.676   5.651
 3437SOL    HW111210   1.427   6.612   5.589
 3437SOL    HW211211   1.541   6.628   5.704
 3438SOL     OW11212   0.649   3.654   1.658
 3438SOL    HW111213   0.569   3.594   1.664
 3438SOL    HW211214   0.681   3.676   1.751
 3439SOL     OW11215   2.660   6.102   3.210
 3439SOL    HW111216   2.730   6.059   3.267
 3439SOL    HW211217   2.701   6.180   3.161
 3440SOL     OW11218   3.997   3.339   4.674
 3440SOL    HW111219   4.023   3.330   4.770
 3440SOL    HW211220   4.024   3.430   4.641
 3441SOL     OW11221   0.106   6.305   6.362
 3441SOL    HW111222   0.048   6.225   6.347
 3441SOL    HW211223   0.149   6.332   6.276
 3442SOL     OW11224   3.325   3.730   1.283
 3442SOL    HW111225   3.284   3.660   1.341
 3442SOL    HW211226   3.254   3.792   1.249
 3443SOL     OW11227   3.513   5.723   2.722
 3443SOL    HW111228   3.481   5.803   2.670
 3443SOL    HW211229   3.449   5.647   2.709
 3444SOL     OW11230   5.330   4.471   1.601
 3444SOL    HW111231   5.423   4.435   1.607
 3444SOL    HW211232   5.325   4.561   1.646
 3445SOL     OW11233   6.890   4.974   4.140
 3445SOL    HW111234   6.938   5.051   4.098
 3445SOL    HW211235   6.939   4.945   4.222
 3446SOL     OW11236   5.515   0.376   1.732
 3446SOL    HW111237   5.549   0.406   1.821
 3446SOL    HW211238   5.480   0.282   1.739
 3447SOL     OW11239   5.429   0.401   0.238
 3447SOL    HW111240   5.406   0.327   0.300
 3447SOL    HW211241   5.408   0.374   0.144
 3448SOL     OW11242   2.123   6.491   5.668
 3448SOL    HW111243   2.180   6.529   5.595
 3448SOL    HW211244   2.044   6.551   5.683
 3449SOL     OW11245   5.512   5.172   5.227
 3449SOL    HW111246   5.483   5.191   5.321
 3449SOL    HW211247   5.609   5.147   5.227
 3450SOL     OW11248   1.547   0.727   6.411
 3450SOL    HW111249   1.640   0.692   6.406
 3450SOL    HW211250   1.542   0.800   6.479
 3451SOL     OW11251   1.301   5.701   0.448
 3451SOL    HW111252   1.386   5.659   0.479
 3451SOL    HW211253   1.311   5.800   0.443
 3452SOL     OW11254   5.568   0.814   6.096
 3452SOL    HW111255   5.583   0.717   6.115
 3452SOL    HW211256   5.479   0.842   6.132
 3453SOL     OW11257   5.088   6.511   6.069
 3453SOL    HW111258   5.041   6.597   6.093
 3453SOL    HW211259   5.140   6.524   5.985
 3454SOL     OW11260   1.482   3.038   3.393
 3454SOL    HW111261   1.484   2.944   3.360
 3454SOL    HW211262   1.519   3.043   3.486
 3455SOL     OW11263   2.013   2.220   4.572
 3455SOL    HW111264   2.025   2.271   4.657
 3455SOL    HW211265   2.102   2.193   4.535
 3456SOL     OW11266   4.409   4.511   2.140
 3456SOL    HW111267   4.443   4.420   2.116
 3456SOL    HW211268   4.419   4.525   2.238
 3457SOL     OW11269   3.642   5.236   5.041
 3457SOL    HW111270   3.662   5.326   5.080
 3457SOL    HW211271   3.697   5.166   5.088
 3458SOL     OW11272   4.222   2.276   2.290
 3458SOL    HW111273   4.176   2.285   2.202
 3458SOL    HW211274   4.305   2.332   2.290
 3459SOL     OW11275   4.902   1.720   3.515
 3459SOL    HW111276   4.883   1.622   3.529
 3459SOL    HW211277   4.818   1.767   3.489
 3460SOL     OW11278   3.374   1.683   5.636
 3460SOL    HW111279   3.410   1.776   5.632
 3460SOL    HW211280   3.449   1.618   5.643
 3461SOL     OW11281   5.330   4.969   6.843
 3461SOL    HW111282   5.257   4.940   6.781
 3461SOL    HW211283   5.294   5.041   6.904
 3462SOL     OW11284   1.549   4.017   6.024
 3462SOL    HW111285   1.519   4.090   5.964
 3462SOL    HW211286   1.632   3.975   5.987
 3463SOL     OW11287   0.640   3.703   0.890
 3463SOL    HW111288   0.540   3.713   0.887
 3463SOL    HW211289   0.683   3.792   0.871
 3464SOL     OW11290   0.138   4.781   6.324
 3464SOL    HW111291   0.138   4.751   6.229
 3464SOL    HW211292   0.046   4.809   6.350
 3465SOL     OW11293   1.973   1.948   1.611
 3465SOL    HW111294   1.977   1.874   1.679
 3465SOL    HW211295   1.897   1.931   1.548
 3466SOL     OW11296   6.752   5.563   5.931
 3466SOL    HW111297   6.740   5.476   5.978
 3466SOL    HW211298   6.841   5.601   5.953
 3467SOL     OW11299   2.455   1.937   6.571
 3467SOL    HW111300   2.499   1.894   6.650
 3467SOL    HW211301   2.363   1.967   6.596
 3468SOL     OW11302   2.817   5.468   3.111
 3468SOL    HW111303   2.724   5.453   3.145
 3468SOL    HW211304   2.820   5.555   3.061
 3469SOL     OW11305   6.441   2.457   4.434
 3469SOL    HW111306   6.355   2.456   4.382
 3469SOL    HW211307   6.449   2.372   4.486
 3470SOL     OW11308   0.732   5.474   1.387
 3470SOL    HW111309   0.777   5.384   1.383
 3470SOL    HW211310   0.771   5.528   1.461
 3471SOL     OW11311   4.079   5.338   5.329
 3471SOL    HW111312   4.037   5.407   5.271
 3471SOL    HW211313   4.075   5.367   5.425
 3472SOL     OW11314   2.199   1.428   4.245
 3472SOL    HW111315   2.246   1.340   4.255
 3472SOL    HW211316   2.185   1.468   4.336
 3473SOL     OW11317   5.519   1.777   5.780
 3473SOL    HW111318   5.573   1.693   5.787
 3473SOL    HW211319   5.548   1.842   5.850
 3474SOL     OW11320   3.089   5.059   1.818
 3474SOL    HW111321   3.185   5.067   1.843
 3474SOL    HW211322   3.065   4.962   1.808
 3475SOL     OW11323   0.975   6.664   3.699
 3475SOL    HW111324   0.998   6.668   3.796
 3475SOL    HW211325   1.034   6.727   3.648
 3476SOL     OW11326   3.748   0.584   5.034
 3476SOL    HW111327   3.677   0.654   5.044
 3476SOL    HW211328   3.835   0.628   5.012
 3477SOL     OW11329   3.083   5.404   1.002
 3477SOL    HW111330   3.070   5.463   1.082
 3477SOL    HW211331   3.018   5.430   0.931
 3478SOL     OW11332   2.145   6.192   5.681
 3478SOL    HW111333   2.095   6.278   5.676
 3478SOL    HW211334   2.181   6.180   5.774
 3479SOL     OW11335   0.734   0.291   2.714
 3479SOL    HW111336   0.661   0.261   2.652
 3479SOL    HW211337   0.712   0.263   2.808
 3480SOL     OW11338   7.005   1.531   4.302
 3480SOL    HW111339   6.959   1.458   4.352
 3480SOL    HW211340   0.065   1.497   4.265
 3481SOL     OW11341   4.340   6.991   6.164
 3481SOL    HW111342   4.417   7.023   6.108
 3481SOL    HW211343   4.303   6.908   6.124
 3482SOL     OW11344   5.999   1.300   1.535
 3482SOL    HW111345   6.078   1.238   1.531
 3482SOL    HW211346   6.032   1.394   1.548
 3483SOL     OW11347   2.581   0.462   1.093
 3483SOL    HW111348   2.609   0.368   1.113
 3483SOL    HW211349   2.510   0.461   1.023
 3484SOL     OW11350   3.146   3.120   3.323
 3484SOL    HW111351   3.191   3.065   3.393
 3484SOL    HW211352   3.154   3.074   3.235
 3485SOL     OW11353   1.980   1.470   4.727
 3485SOL    HW111354   1.912   1.397   4.725
 3485SOL    HW211355   1.964   1.529   4.806
 3486SOL     OW11356   3.875   1.502   2.106
 3486SOL    HW111357   3.873   1.402   2.095
 3486SOL    HW211358   3.882   1.524   2.203
 3487SOL     OW11359   5.810   2.075   6.615
 3487SOL    HW111360   5.777   2.150   6.558
 3487SOL    HW211361   5.848   2.003   6.556
 3488SOL     OW11362   6.732   3.348   3.767
 3488SOL    HW111363   6.816   3.302   3.794
 3488SOL    HW211364   6.670   3.284   3.722
 3489SOL     OW11365   3.218   6.779   0.654
 3489SOL    HW111366   3.274   6.795   0.573
 3489SOL    HW211367   3.269   6.722   0.718
 3490SOL     OW11368   4.794   4.051   0.604
 3490SOL    HW111369   4.819   3.972   0.661
 3490SOL    HW211370   4.748   4.019   0.522
 3491SOL     OW11371   6.887   3.115   5.508
 3491SOL    HW111372   6.849   3.024   5.526
 3491SOL    HW211373   6.879   3.135   5.410
 3492SOL     OW11374   0.922   5.606   6.895
 3492SOL    HW111375   0.869   5.522   6.903
 3492SOL    HW211376   1.011   5.595   6.939
 3493SOL     OW11377   6.115   4.964   0.932
 3493SOL    HW111378   6.106   5.028   0.855
 3493SOL    HW211379   6.146   4.875   0.898
 3494SOL     OW11380   3.830   6.983   0.614
 3494SOL    HW111381   3.822   6.895   0.662
 3494SOL    HW211382   3.911   0.006   0.646
 3495SOL     OW11383   4.039   4.712   1.894
 3495SOL    HW111384   3.952   4.750   1.926
 3495SOL    HW211385   4.022   4.635   1.833
 3496SOL     OW11386   1.323   2.792   1.351
 3496SOL    HW111387   1.267   2.739   1.286
 3496SOL    HW211388   1.317   2.750   1.441
 3497SOL     OW11389   4.351   0.647   3.173
 3497SOL    HW111390   4.398   0.645   3.085
 3497SOL    HW211391   4.382   0.570   3.229
 3498SOL     OW11392   2.953   1.682   1.123
 3498SOL    HW111393   3.042   1.645   1.096
 3498SOL    HW211394   2.965   1.749   1.197
 3499SOL     OW11395   6.921   3.475   4.455
 3499SOL    HW111396   6.829   3.456   4.419
 3499SOL    HW211397   6.920   3.563   4.502
 3500SOL     OW11398   6.364   4.476   6.114
 3500SOL    HW111399   6.386   4.448   6.208
 3500SOL    HW211400   6.266   4.463   6.097
 3501SOL     OW11401   0.767   4.620   5.019
 3501SOL    HW111402   0.729   4.708   5.047
 3501SOL    HW211403   0.844   4.634   4.958
 3502SOL     OW11404   0.289   2.151   1.870
 3502SOL    HW111405   0.300   2.198   1.958
 3502SOL    HW211406   0.327   2.059   1.876
 3503SOL     OW11407   4.857   5.866   5.474
 3503SOL    HW111408   4.931   5.844   5.537
 3503SOL    HW211409   4.896   5.899   5.388
 3504SOL     OW11410   2.797   3.615   1.384
 3504SOL    HW111411   2.797   3.688   1.315
 3504SOL    HW211412   2.882   3.619   1.437
 3505SOL     OW11413   5.019   5.792   5.048
 3505SOL    HW111414   4.925   5.789   5.014
 3505SOL    HW211415   5.075   5.846   4.986
 3506SOL     OW11416   4.052   6.039   4.718
 3506SOL    HW111417   4.026   5.980   4.641
 3506SOL    HW211418   4.004   6.126   4.711
 3507SOL     OW11419   1.182   0.812   6.547
 3507SOL    HW111420   1.249   0.867   6.597
 3507SOL    HW211421   1.144   0.866   6.472
 3508SOL     OW11422   5.072   2.367   0.035
 3508SOL    HW111423   5.122   2.313   0.103
 3508SOL    HW211424   4.977   2.336   0.033
 3509SOL     OW11425   5.932   6.200   6.881
 3509SOL    HW111426   5.919   6.256   6.799
 3509SOL    HW211427   6.022   6.158   6.879
 3510SOL     OW11428   1.574   2.364   1.874
 3510SOL    HW111429   1.575   2.391   1.778
 3510SOL    HW211430   1.667   2.346   1.905
 3511SOL     OW11431   1.589   3.419   6.934
 3511SOL    HW111432   1.689   3.422   6.940
 3511SOL    HW211433   1.556   3.329   6.961
 3512SOL     OW11434   1.056   3.709   0.565
 3512SOL    HW111435   0.996   3.716   0.485
 3512SOL    HW211436   1.151   3.720   0.536
 3513SOL     OW11437   6.672   4.160   0.942
 3513SOL    HW111438   6.606   4.125   0.876
 3513SOL    HW211439   6.737   4.220   0.897
 3514SOL     OW11440   0.612   6.557   1.499
 3514SOL    HW111441   0.518   6.567   1.530
 3514SOL    HW211442   0.618   6.576   1.401
 3515SOL     OW11443   3.426   5.908   2.554
 3515SOL    HW111444   3.327   5.903   2.562
 3515SOL    HW211445   3.451   5.906   2.457
 3516SOL     OW11446   3.336   0.438   0.674
 3516SOL    HW111447   3.291   0.439   0.763
 3516SOL    HW211448   3.273   0.471   0.604
 3517SOL     OW11449   0.720   1.526   0.396
 3517SOL    HW111450   0.694   1.485   0.308
 3517SOL    HW211451   0.770   1.611   0.380
 3518SOL     OW11452   5.150   3.714   6.271
 3518SOL    HW111453   5.218   3.748   6.206
 3518SOL    HW211454   5.077   3.667   6.221
 3519SOL     OW11455   0.771   6.424   6.672
 3519SOL    HW111456   0.817   6.412   6.760
 3519SOL    HW211457   0.672   6.416   6.684
 3520SOL     OW11458   4.176   4.448   1.091
 3520SOL    HW111459   4.189   4.350   1.078
 3520SOL    HW211460   4.091   4.477   1.047
 3521SOL     OW11461   5.736   2.891   1.597
 3521SOL    HW111462   5.728   2.800   1.557
 3521SOL    HW211463   5.763   2.956   1.527
 3522SOL     OW11464   2.732   5.241   1.962
 3522SOL    HW111465   2.776   5.222   2.050
 3522SOL    HW211466   2.788   5.202   1.888
 3523SOL     OW11467   3.166   4.711   5.264
 3523SOL    HW111468   3.091   4.647   5.250
 3523SOL    HW211469   3.169   4.777   5.188
 3524SOL     OW11470   2.820   0.497   0.892
 3524SOL    HW111471   2.735   0.466   0.935
 3524SOL    HW211472   2.886   0.521   0.963
 3525SOL     OW11473   0.161   3.114   1.698
 3525SOL    HW111474   0.167   3.032   1.756
 3525SOL    HW211475   0.112   3.186   1.747
 3526SOL     OW11476   1.068   0.578   3.324
 3526SOL    HW111477   0.994   0.607   3.264
 3526SOL    HW211478   1.036   0.576   3.418
 3527SOL     OW11479   5.191   2.661   6.359
 3527SOL    HW111480   5.209   2.738   6.298
 3527SOL    HW211481   5.143   2.693   6.440
 3528SOL     OW11482   0.857   5.809   2.657
 3528SOL    HW111483   0.878   5.837   2.750
 3528SOL    HW211484   0.764   5.771   2.654
 3529SOL     OW11485   4.313   6.800   5.588
 3529SOL    HW111486   4.387   6.865   5.572
 3529SOL    HW211487   4.262   6.787   5.503
 3530SOL     OW11488   2.829   5.919   2.420
 3530SOL    HW111489   2.898   5.939   2.350
 3530SOL    HW211490   2.868   5.856   2.488
 3531SOL     OW11491   5.232   4.010   0.409
 3531SOL    HW111492   5.171   3.943   0.452
 3531SOL    HW211493   5.179   4.073   0.353
 3532SOL     OW11494   2.399   0.941   0.091
 3532SOL    HW111495   2.422   0.910   0.183
 3532SOL    HW211496   2.445   0.882   0.024
 3533SOL     OW11497   1.122   1.917   2.927
 3533SOL    HW111498   1.193   1.937   2.859
 3533SOL    HW211499   1.047   1.983   2.917
 3534SOL     OW11500   6.258   1.412   5.385
 3534SOL    HW111501   6.162   1.439   5.387
 3534SOL    HW211502   6.295   1.427   5.293
 3535SOL     OW11503   6.387   5.369   6.699
 3535SOL    HW111504   6.328   5.439   6.740
 3535SOL    HW211505   6.469   5.358   6.755
 3536SOL     OW11506   1.568   3.125   3.126
 3536SOL    HW111507   1.653   3.177   3.128
 3536SOL    HW211508   1.535   3.112   3.220
 3537SOL     OW11509   2.666   5.784   1.028
 3537SOL    HW111510   2.628   5.743   1.110
 3537SOL    HW211511   2.677   5.715   0.957
 3538SOL     OW11512   3.054   6.721   3.286
 3538SOL    HW111513   3.141   6.699   3.329
 3538SOL    HW211514   3.023   6.811   3.316
 3539SOL     OW11515   5.526   4.060   5.749
 3539SOL    HW111516   5.528   3.963   5.772
 3539SOL    HW211517   5.551   4.073   5.654
 3540SOL     OW11518   2.103   3.323   6.847
 3540SOL    HW111519   2.136   3.318   6.753
 3540SOL    HW211520   2.130   3.241   6.897
 3541SOL     OW11521   2.469   3.104   0.875
 3541SOL    HW111522   2.393   3.163   0.901
 3541SOL    HW211523   2.497   3.125   0.782
 3542SOL     OW11524   5.845   2.892   6.937
 3542SOL    HW111525   5.895   2.860   7.018
 3542SOL    HW211526   5.808   2.813   6.889
 3543SOL     OW11527   1.813   3.259   3.146
 3543SOL    HW111528   1.889   3.295   3.092
 3543SOL    HW211529   1.754   3.334   3.175
 3544SOL     OW11530   3.252   3.995   6.486
 3544SOL    HW111531   3.299   4.038   6.563
 3544SOL    HW211532   3.154   3.989   6.506
 3545SOL     OW11533   3.245   5.222   0.467
 3545SOL    HW111534   3.337   5.256   0.447
 3545SOL    HW211535   3.252   5.144   0.530
 3546SOL     OW11536   6.658   3.857   3.455
 3546SOL    HW111537   6.605   3.886   3.374
 3546SOL    HW211538   6.741   3.810   3.425
 3547SOL     OW11539   6.823   3.636   4.948
 3547SOL    HW111540   6.915   3.650   4.910
 3547SOL    HW211541   6.830   3.578   5.029
 3548SOL     OW11542   4.661   1.662   6.147
 3548SOL    HW111543   4.586   1.613   6.103
 3548SOL    HW211544   4.638   1.759   6.153
 3549SOL     OW11545   1.897   6.026   6.281
 3549SOL    HW111546   1.975   5.965   6.267
 3549SOL    HW211547   1.877   6.032   6.378
 3550SOL     OW11548   4.621   2.013   5.085
 3550SOL    HW111549   4.713   2.052   5.089
 3550SOL    HW211550   4.625   1.917   5.112
 3551SOL     OW11551   3.736   1.807   5.473
 3551SOL    HW111552   3.674   1.883   5.456
 3551SOL    HW211553   3.769   1.770   5.386
 3552SOL     OW11554   6.741   5.572   1.161
 3552SOL    HW111555   6.819   5.631   1.181
 3552SOL    HW211556   6.659   5.609   1.205
 3553SOL     OW11557   3.448   6.365   6.092
 3553SOL    HW111558   3.525   6.386   6.031
 3553SOL    HW211559   3.363   6.396   6.049
 3554SOL     OW11560   3.890   3.790   0.995
 3554SOL    HW111561   3.916   3.867   1.053
 3554SOL    HW211562   3.823   3.733   1.044
 3555SOL     OW11563   1.460   2.340   4.255
 3555SOL    HW111564   1.427   2.254   4.215
 3555SOL    HW211565   1.393   2.374   4.321
 3556SOL     OW11566   3.719   1.373   4.691
 3556SOL    HW111567   3.717   1.278   4.658
 3556SOL    HW211568   3.705   1.374   4.790
 3557SOL     OW11569   0.306   0.571   2.799
 3557SOL    HW111570   0.406   0.565   2.810
 3557SOL    HW211571   0.265   0.483   2.824
 3558SOL     OW11572   2.503   6.284   0.526
 3558SOL    HW111573   2.495   6.196   0.480
 3558SOL    HW211574   2.512   6.357   0.457
 3559SOL     OW11575   3.368   6.393   4.316
 3559SOL    HW111576   3.272   6.404   4.340
 3559SOL    HW211577   3.405   6.313   4.364
 3560SOL     OW11578   1.863   4.733   4.829
 3560SOL    HW111579   1.775   4.758   4.868
 3560SOL    HW211580   1.933   4.735   4.900
 3561SOL     OW11581   5.956   4.388   4.939
 3561SOL    HW111582   5.966   4.417   5.034
 3561SOL    HW211583   5.870   4.338   4.928
 3562SOL     OW11584   2.553   1.622   4.722
 3562SOL    HW111585   2.648   1.623   4.690
 3562SOL    HW211586   2.531   1.531   4.757
 3563SOL     OW11587   6.231   2.337   5.870
 3563SOL    HW111588   6.268   2.253   5.831
 3563SOL    HW211589   6.141   2.356   5.831
 3564SOL     OW11590   0.489   4.754   2.961
 3564SOL    HW111591   0.485   4.784   3.056
 3564SOL    HW211592   0.542   4.669   2.955
 3565SOL     OW11593   3.453   4.852   3.041
 3565SOL    HW111594   3.385   4.877   3.110
 3565SOL    HW211595   3.409   4.850   2.951
 3566SOL     OW11596   0.035   1.013   5.013
 3566SOL    HW111597   0.042   1.073   5.092
 3566SOL    HW211598   0.121   1.012   4.963
 3567SOL     OW11599   0.381   3.611   6.199
 3567SOL    HW111600   0.417   3.518   6.198
 3567SOL    HW211601   0.353   3.636   6.292
 3568SOL     OW11602   6.704   4.393   5.624
 3568SOL    HW111603   6.608   4.401   5.648
 3568SOL    HW211604   6.736   4.301   5.645
 3569SOL     OW11605   2.494   2.032   5.818
 3569SOL    HW111606   2.411   2.064   5.772
 3569SOL    HW211607   2.470   1.996   5.908
 3570SOL     OW11608   5.519   0.408   5.220
 3570SOL    HW111609   5.474   0.474   5.281
 3570SOL    HW211610   5.611   0.390   5.254
 3571SOL     OW11611   0.087   6.025   0.076
 3571SOL    HW111612   0.038   6.046   7.017
 3571SOL    HW211613   0.177   5.988   0.054
 3572SOL     OW11614   5.530   3.884   3.926
 3572SOL    HW111615   5.482   3.896   3.840
 3572SOL    HW211616   5.468   3.901   4.002
 3573SOL     OW11617   0.762   3.830   4.443
 3573SOL    HW111618   0.754   3.927   4.463
 3573SOL    HW211619   0.691   3.803   4.378
 3574SOL     OW11620   0.458   4.808   0.290
 3574SOL    HW111621   0.384   4.865   0.253
 3574SOL    HW211622   0.527   4.793   0.218
 3575SOL     OW11623   6.322   5.009   3.198
 3575SOL    HW111624   6.416   5.006   3.232
 3575SOL    HW211625   6.318   4.969   3.107
 3576SOL     OW11626   1.433   1.598   5.580
 3576SOL    HW111627   1.340   1.637   5.578
 3576SOL    HW211628   1.466   1.595   5.674
 3577SOL     OW11629   1.274   2.342   6.470
 3577SOL    HW111630   1.295   2.421   6.412
 3577SOL    HW211631   1.280   2.368   6.566
 3578SOL     OW11632   4.148   3.379   6.855
 3578SOL    HW111633   4.069   3.330   6.818
 3578SOL    HW211634   4.117   3.459   6.906
 3579SOL     OW11635   6.564   3.963   4.948
 3579SOL    HW111636   6.643   4.025   4.951
 3579SOL    HW211637   6.555   3.926   4.855
 3580SOL     OW11638   6.065   1.863   1.430
 3580SOL    HW111639   6.163   1.885   1.437
 3580SOL    HW211640   6.052   1.764   1.440
 3581SOL     OW11641   6.922   0.583   3.390
 3581SOL    HW111642   6.953   0.662   3.337
 3581SOL    HW211643   6.867   0.615   3.468
 3582SOL     OW11644   0.411   2.055   6.089
 3582SOL    HW111645   0.442   1.965   6.059
 3582SOL    HW211646   0.371   2.049   6.180
 3583SOL     OW11647   0.871   4.210   6.937
 3583SOL    HW111648   0.924   4.188   7.020
 3583SOL    HW211649   0.814   4.290   6.954
 3584SOL     OW11650   6.116   6.314   6.249
 3584SOL    HW111651   6.054   6.236   6.246
 3584SOL    HW211652   6.083   6.380   6.317
 3585SOL     OW11653   3.062   5.115   5.223
 3585SOL    HW111654   3.010   5.162   5.152
 3585SOL    HW211655   3.108   5.035   5.185
 3586SOL     OW11656   6.446   3.139   5.549
 3586SOL    HW111657   6.386   3.218   5.536
 3586SOL    HW211658   6.504   3.155   5.629
 3587SOL     OW11659   2.962   6.210   0.575
 3587SOL    HW111660   2.935   6.295   0.529
 3587SOL    HW211661   3.059   6.192   0.558
 3588SOL     OW11662   1.449   2.334   5.700
 3588SOL    HW111663   1.425   2.431   5.708
 3588SOL    HW211664   1.389   2.290   5.633
 3589SOL     OW11665   3.265   0.821   4.764
 3589SOL    HW111666   3.208   0.896   4.732
 3589SOL    HW211667   3.360   0.852   4.771
 3590SOL     OW11668   0.339   4.383   6.389
 3590SOL    HW111669   0.401   4.407   6.315
 3590SOL    HW211670   0.246   4.412   6.366
 3591SOL     OW11671   5.662   3.091   7.012
 3591SOL    HW111672   5.652   3.160   6.941
 3591SOL    HW211673   5.730   3.023   6.983
 3592SOL     OW11674   5.334   3.469   3.622
 3592SOL    HW111675   5.303   3.382   3.584
 3592SOL    HW211676   5.433   3.469   3.631
 3593SOL     OW11677   2.570   6.402   4.334
 3593SOL    HW111678   2.611   6.475   4.280
 3593SOL    HW211679   2.478   6.381   4.298
 3594SOL     OW11680   3.865   1.058   2.978
 3594SOL    HW111681   3.950   1.031   2.934
 3594SOL    HW211682   3.852   1.157   2.967
 3595SOL     OW11683   2.533   5.923   5.378
 3595SOL    HW111684   2.440   5.959   5.390
 3595SOL    HW211685   2.548   5.902   5.281
 3596SOL     OW11686   6.316   1.506   2.529
 3596SOL    HW111687   6.242   1.555   2.575
 3596SOL    HW211688   6.288   1.411   2.512
 3597SOL     OW11689   2.973   6.051   4.560
 3597SOL    HW111690   2.883   6.011   4.578
 3597SOL    HW211691   2.995   6.117   4.631
 3598SOL     OW11692   1.041   0.749   5.678
 3598SOL    HW111693   1.078   0.820   5.738
 3598SOL    HW211694   0.942   0.758   5.671
 3599SOL     OW11695   0.927   2.132   5.636
 3599SOL    HW111696   0.949   2.063   5.568
 3599SOL    HW211697   0.831   2.123   5.662
 3600SOL     OW11698   0.057   3.254   0.367
 3600SOL    HW111699   0.020   3.176   0.317
 3600SOL    HW211700   7.009   3.320   0.385
 3601SOL     OW11701   0.043   4.015   0.604
 3601SOL    HW111702   0.142   4.030   0.612
 3601SOL    HW211703   0.026   3.937   0.544
 3602SOL     OW11704   2.044   1.254   0.936
 3602SOL    HW111705   2.132   1.300   0.945
 3602SOL    HW211706   2.053   1.158   0.963
 3603SOL     OW11707   3.814   6.025   4.129
 3603SOL    HW111708   3.839   6.118   4.100
 3603SOL    HW211709   3.738   5.991   4.074
 3604SOL     OW11710   6.707   3.768   3.713
 3604SOL    HW111711   6.695   3.827   3.633
 3604SOL    HW211712   6.669   3.812   3.794
 3605SOL     OW11713   6.104   4.541   5.944
 3605SOL    HW111714   6.048   4.616   5.909
 3605SOL    HW211715   6.051   4.486   6.009
 3606SOL     OW11716   6.778   4.820   5.871
 3606SOL    HW111717   6.797   4.789   5.964
 3606SOL    HW211718   6.696   4.775   5.837
 3607SOL     OW11719   4.993   6.875   0.841
 3607SOL    HW111720   4.983   6.975   0.844
 3607SOL    HW211721   5.089   6.852   0.821
 3608SOL     OW11722   6.501   1.657   1.871
 3608SOL    HW111723   6.523   1.753   1.851
 3608SOL    HW211724   6.411   1.651   1.914
 3609SOL     OW11725   6.728   1.126   4.481
 3609SOL    HW111726   6.634   1.155   4.459
 3609SOL    HW211727   6.725   1.064   4.560
 3610SOL     OW11728   1.093   0.558   5.376
 3610SOL    HW111729   1.009   0.602   5.407
 3610SOL    HW211730   1.164   0.569   5.446
 3611SOL     OW11731   3.758   4.809   5.393
 3611SOL    HW111732   3.836   4.872   5.399
 3611SOL    HW211733   3.673   4.860   5.402
 3612SOL     OW11734   0.150   6.898   5.999
 3612SOL    HW111735   0.088   6.893   6.077
 3612SOL    HW211736   0.152   6.992   5.963
 3613SOL     OW11737   5.510   4.858   0.865
 3613SOL    HW111738   5.608   4.853   0.887
 3613SOL    HW211739   5.499   4.877   0.768
 3614SOL     OW11740   3.865   3.216   3.771
 3614SOL    HW111741   3.792   3.148   3.764
 3614SOL    HW211742   3.938   3.192   3.707
 3615SOL     OW11743   5.876   6.418   6.150
 3615SOL    HW111744   5.962   6.469   6.150
 3615SOL    HW211745   5.815   6.453   6.221
 3616SOL     OW11746   6.722   2.033   6.259
 3616SOL    HW111747   6.810   2.009   6.301
 3616SOL    HW211748   6.652   1.969   6.291
 3617SOL     OW11749   5.575   1.771   6.202
 3617SOL    HW111750   5.488   1.807   6.233
 3617SOL    HW211751   5.642   1.846   6.197
 3618SOL     OW11752   1.662   2.018   5.165
 3618SOL    HW111753   1.737   2.081   5.186
 3618SOL    HW211754   1.680   1.929   5.206
 3619SOL     OW11755   6.600   1.797   3.704
 3619SOL    HW111756   6.549   1.868   3.657
 3619SOL    HW211757   6.688   1.782   3.658
 3620SOL     OW11758   6.230   6.336   5.973
 3620SOL    HW111759   6.289   6.417   5.986
 3620SOL    HW211760   6.159   6.335   6.042
 3621SOL     OW11761   2.726   2.565   6.179
 3621SOL    HW111762   2.812   2.533   6.218
 3621SOL    HW211763   2.657   2.492   6.185
 3622SOL     OW11764   2.135   2.160   3.233
 3622SOL    HW111765   2.210   2.135   3.172
 3622SOL    HW211766   2.054   2.108   3.209
 3623SOL     OW11767   6.078   5.571   4.006
 3623SOL    HW111768   6.079   5.671   4.008
 3623SOL    HW211769   6.109   5.535   4.093
 3624SOL     OW11770   2.727   6.321   2.348
 3624SOL    HW111771   2.757   6.416   2.336
 3624SOL    HW211772   2.666   6.296   2.273
 3625SOL     OW11773   6.100   3.240   6.903
 3625SOL    HW111774   6.033   3.181   6.857
 3625SOL    HW211775   6.127   3.313   6.840
 3626SOL     OW11776   1.445   4.078   5.368
 3626SOL    HW111777   1.472   4.093   5.272
 3626SOL    HW211778   1.526   4.087   5.426
 3627SOL     OW11779   4.110   3.377   3.294
 3627SOL    HW111780   4.070   3.290   3.264
 3627SOL    HW211781   4.114   3.379   3.394
 3628SOL     OW11782   2.456   6.684   1.822
 3628SOL    HW111783   2.370   6.677   1.871
 3628SOL    HW211784   2.484   6.779   1.814
 3629SOL     OW11785   6.200   2.175   4.802
 3629SOL    HW111786   6.295   2.162   4.831
 3629SOL    HW211787   6.145   2.098   4.833
 3630SOL     OW11788   5.700   3.024   3.850
 3630SOL    HW111789   5.657   3.055   3.935
 3630SOL    HW211790   5.799   3.020   3.862
 3631SOL     OW11791   1.935   0.344   4.055
 3631SOL    HW111792   1.911   0.424   4.110
 3631SOL    HW211793   1.853   0.309   4.010
 3632SOL     OW11794   5.256   0.471   0.747
 3632SOL    HW111795   5.221   0.430   0.831
 3632SOL    HW211796   5.183   0.522   0.702
 3633SOL     OW11797   2.888   2.100   5.928
 3633SOL    HW111798   2.948   2.142   5.996
 3633SOL    HW211799   2.824   2.169   5.894
 3634SOL     OW11800   0.793   5.582   5.067
 3634SOL    HW111801   0.884   5.594   5.027
 3634SOL    HW211802   0.730   5.549   4.996
 3635SOL     OW11803   2.802   0.321   5.466
 3635SOL    HW111804   2.804   0.228   5.431
 3635SOL    HW211805   2.863   0.379   5.412
 3636SOL     OW11806   1.085   6.249   6.119
 3636SOL    HW111807   1.162   6.264   6.181
 3636SOL    HW211808   1.113   6.185   6.047
 3637SOL     OW11809   6.546   1.656   1.315
 3637SOL    HW111810   6.488   1.575   1.328
 3637SOL    HW211811   6.504   1.717   1.248
 3638SOL     OW11812   6.961   4.959   4.502
 3638SOL    HW111813   6.885   4.933   4.562
 3638SOL    HW211814   6.971   4.890   4.429
 3639SOL     OW11815   4.209   4.184   1.087
 3639SOL    HW111816   4.255   4.131   1.159
 3639SOL    HW211817   4.274   4.204   1.014
 3640SOL     OW11818   3.477   6.957   6.774
 3640SOL    HW111819   3.424   6.883   6.815
 3640SOL    HW211820   3.573   6.947   6.800
 3641SOL     OW11821   4.843   2.513   4.603
 3641SOL    HW111822   4.796   2.600   4.592
 3641SOL    HW211823   4.848   2.466   4.515
 3642SOL     OW11824   4.885   1.368   6.240
 3642SOL    HW111825   4.793   1.331   6.243
 3642SOL    HW211826   4.885   1.454   6.189
 3643SOL     OW11827   2.498   5.737   4.914
 3643SOL    HW111828   2.476   5.705   4.822
 3643SOL    HW211829   2.496   5.659   4.977
 3644SOL     OW11830   0.133   1.334   1.475
 3644SOL    HW111831   0.176   1.254   1.433
 3644SOL    HW211832   0.064   1.304   1.541
 3645SOL     OW11833   5.873   1.099   3.835
 3645SOL    HW111834   5.833   1.170   3.777
 3645SOL    HW211835   5.804   1.030   3.856
 3646SOL     OW11836   6.661   5.081   6.440
 3646SOL    HW111837   6.739   5.097   6.502
 3646SOL    HW211838   6.655   4.984   6.418
 3647SOL     OW11839   2.189   3.921   0.787
 3647SOL    HW111840   2.188   3.858   0.708
 3647SOL    HW211841   2.264   3.896   0.848
 3648SOL     OW11842   3.264   5.595   2.943
 3648SOL    HW111843   3.322   5.518   2.918
 3648SOL    HW211844   3.320   5.672   2.972
 3649SOL     OW11845   4.777   2.919   1.684
 3649SOL    HW111846   4.712   2.939   1.758
 3649SOL    HW211847   4.867   2.903   1.722
 3650SOL     OW11848   0.206   5.442   0.026
 3650SOL    HW111849   0.220   5.513   0.095
 3650SOL    HW211850   0.265   5.462   6.973
 3651SOL     OW11851   0.459   5.468   2.757
 3651SOL    HW111852   0.414   5.381   2.779
 3651SOL    HW211853   0.552   5.467   2.794
 3652SOL     OW11854   5.692   6.313   3.226
 3652SOL    HW111855   5.605   6.321   3.275
 3652SOL    HW211856   5.696   6.225   3.180
 3653SOL     OW11857   6.516   0.645   3.592
 3653SOL    HW111858   6.573   0.685   3.520
 3653SOL    HW211859   6.467   0.718   3.640
 3654SOL     OW11860   1.902   6.911   0.215
 3654SOL    HW111861   1.820   6.929   0.268
 3654SOL    HW211862   1.962   6.849   0.266
 3655SOL     OW11863   1.138   7.009   3.502
 3655SOL    HW111864   1.093   6.921   3.487
 3655SOL    HW211865   1.228   6.995   3.543
 3656SOL     OW11866   1.492   3.330   1.987
 3656SOL    HW111867   1.521   3.401   1.923
 3656SOL    HW211868   1.528   3.241   1.957
 3657SOL     OW11869   5.008   5.849   5.998
 3657SOL    HW111870   4.940   5.920   6.017
 3657SOL    HW211871   4.979   5.764   6.042
 3658SOL     OW11872   1.087   5.912   3.311
 3658SOL    HW111873   1.164   5.942   3.368
 3658SOL    HW211874   1.001   5.938   3.355
 3659SOL     OW11875   3.119   3.277   5.999
 3659SOL    HW111876   3.104   3.273   5.900
 3659SOL    HW211877   3.199   3.222   6.022
 3660SOL     OW11878   4.906   6.827   2.195
 3660SOL    HW111879   4.889   6.753   2.260
 3660SOL    HW211880   4.885   6.796   2.103
 3661SOL     OW11881   4.642   1.864   6.484
 3661SOL    HW111882   4.614   1.865   6.580
 3661SOL    HW211883   4.569   1.824   6.429
 3662SOL     OW11884   4.176   1.064   3.736
 3662SOL    HW111885   4.087   1.103   3.713
 3662SOL    HW211886   4.245   1.137   3.738
 3663SOL     OW11887   1.860   1.370   0.684
 3663SOL    HW111888   1.776   1.420   0.664
 3663SOL    HW211889   1.912   1.418   0.754
 3664SOL     OW11890   4.885   2.564   1.200
 3664SOL    HW111891   4.892   2.659   1.170
 3664SOL    HW211892   4.976   2.529   1.222
 3665SOL     OW11893   0.497   5.748   5.374
 3665SOL    HW111894   0.457   5.774   5.286
 3665SOL    HW211895   0.437   5.778   5.448
 3666SOL     OW11896   1.772   4.221   2.679
 3666SOL    HW111897   1.852   4.249   2.732
 3666SOL    HW211898   1.770   4.272   2.593
 3667SOL     OW11899   6.423   0.366   0.722
 3667SOL    HW111900   6.366   0.448   0.713
 3667SOL    HW211901   6.479   0.373   0.804
 3668SOL     OW11902   1.738   0.500   1.778
 3668SOL    HW111903   1.826   0.489   1.825
 3668SOL    HW211904   1.751   0.556   1.696
 3669SOL     OW11905   6.088   0.762   4.617
 3669SOL    HW111906   6.033   0.838   4.654
 3669SOL    HW211907   6.050   0.675   4.649
 3670SOL     OW11908   2.069   4.340   0.656
 3670SOL    HW111909   2.141   4.332   0.586
 3670SOL    HW211910   2.052   4.250   0.695
 3671SOL     OW11911   6.382   0.155   4.097
 3671SOL    HW111912   6.421   0.175   4.007
 3671SOL    HW211913   6.433   0.205   4.167
 3672SOL     OW11914   5.599   1.455   1.291
 3672SOL    HW111915   5.536   1.393   1.338
 3672SOL    HW211916   5.648   1.404   1.220
 3673SOL     OW11917   3.284   0.223   5.738
 3673SOL    HW111918   3.223   0.269   5.674
 3673SOL    HW211919   3.250   0.237   5.831
 3674SOL     OW11920   0.601   0.494   5.470
 3674SOL    HW111921   0.589   0.519   5.566
 3674SOL    HW211922   0.538   0.547   5.413
 3675SOL     OW11923   2.169   3.179   5.172
 3675SOL    HW111924   2.268   3.178   5.175
 3675SOL    HW211925   2.136   3.095   5.127
 3676SOL     OW11926   4.468   4.994   4.634
 3676SOL    HW111927   4.512   5.040   4.711
 3676SOL    HW211928   4.535   4.936   4.588
 3677SOL     OW11929   1.091   6.384   2.855
 3677SOL    HW111930   1.019   6.338   2.908
 3677SOL    HW211931   1.096   6.343   2.764
 3678SOL     OW11932   1.050   3.682   3.954
 3678SOL    HW111933   1.125   3.628   3.916
 3678SOL    HW211934   1.074   3.713   4.046
 3679SOL     OW11935   1.452   0.665   3.492
 3679SOL    HW111936   1.411   0.585   3.450
 3679SOL    HW211937   1.417   0.748   3.448
 3680SOL     OW11938   5.540   2.519   3.578
 3680SOL    HW111939   5.508   2.450   3.513
 3680SOL    HW211940   5.487   2.512   3.663
 3681SOL     OW11941   0.755   0.670   5.000
 3681SOL    HW111942   0.675   0.725   4.981
 3681SOL    HW211943   0.727   0.576   5.020
 3682SOL     OW11944   5.879   2.447   6.674
 3682SOL    HW111945   5.830   2.376   6.623
 3682SOL    HW211946   5.940   2.496   6.613
 3683SOL     OW11947   0.305   6.799   4.283
 3683SOL    HW111948   0.371   6.738   4.328
 3683SOL    HW211949   0.218   6.793   4.331
 3684SOL     OW11950   1.645   3.681   0.004
 3684SOL    HW111951   1.665   3.729   6.944
 3684SOL    HW211952   1.631   3.584   7.011
 3685SOL     OW11953   6.377   6.357   6.330
 3685SOL    HW111954   6.409   6.389   6.420
 3685SOL    HW211955   6.278   6.344   6.333
 3686SOL     OW11956   6.264   5.554   3.623
 3686SOL    HW111957   6.255   5.596   3.533
 3686SOL    HW211958   6.269   5.626   3.693
 3687SOL     OW11959   3.677   6.280   5.683
 3687SOL    HW111960   3.637   6.189   5.683
 3687SOL    HW211961   3.735   6.292   5.602
 3688SOL     OW11962   1.146   3.693   6.578
 3688SOL    HW111963   1.204   3.764   6.538
 3688SOL    HW211964   1.120   3.627   6.508
 3689SOL     OW11965   1.348   0.336   6.670
 3689SOL    HW111966   1.422   0.396   6.701
 3689SOL    HW211967   1.291   0.385   6.604
 3690SOL     OW11968   4.335   0.236   6.655
 3690SOL    HW111969   4.272   0.266   6.584
 3690SOL    HW211970   4.299   0.155   6.700
 3691SOL     OW11971   2.551   2.638   0.100
 3691SOL    HW111972   2.566   2.579   0.179
 3691SOL    HW211973   2.453   2.639   0.079
 3692SOL     OW11974   1.054   5.970   4.989
 3692SOL    HW111975   1.149   5.998   4.997
 3692SOL    HW211976   0.998   6.021   5.055
 3693SOL     OW11977   1.984   2.748   2.476
 3693SOL    HW111978   2.060   2.813   2.471
 3693SOL    HW211979   2.017   2.662   2.514
 3694SOL     OW11980   0.731   5.653   3.031
 3694SOL    HW111981   0.749   5.742   2.989
 3694SOL    HW211982   0.722   5.584   2.959
 3695SOL     OW11983   6.752   2.879   2.626
 3695SOL    HW111984   6.657   2.878   2.657
 3695SOL    HW211985   6.780   2.786   2.602
 3696SOL     OW11986   3.419   5.763   5.219
 3696SOL    HW111987   3.403   5.849   5.266
 3696SOL    HW211988   3.341   5.702   5.233
 3697SOL     OW11989   0.133   5.878   3.594
 3697SOL    HW111990   0.152   5.793   3.543
 3697SOL    HW211991   0.061   5.861   3.660
 3698SOL     OW11992   2.883   6.270   4.787
 3698SOL    HW111993   2.857   6.275   4.884
 3698SOL    HW211994   2.831   6.197   4.743
 3699SOL     OW11995   6.704   3.486   2.956
 3699SOL    HW111996   6.789   3.434   2.945
 3699SOL    HW211997   6.628   3.435   2.918
 3700SOL     OW11998   0.013   6.999   4.662
 3700SOL    HW111999   7.005   0.061   4.696
 3700SOL    HW212000   7.021   6.992   4.563
 3701SOL     OW12001   0.908   0.715   3.733
 3701SOL    HW112002   0.829   0.768   3.763
 3701SOL    HW212003   0.934   0.651   3.805
 3702SOL     OW12004   4.546   0.182   2.051
 3702SOL    HW112005   4.500   0.149   2.133
 3702SOL    HW212006   4.626   0.126   2.032
 3703SOL     OW12007   4.663   2.912   6.539
 3703SOL    HW112008   4.733   2.865   6.486
 3703SOL    HW212009   4.696   3.002   6.566
 3704SOL     OW12010   2.915   0.419   1.429
 3704SOL    HW112011   2.915   0.369   1.343
 3704SOL    HW212012   2.895   0.357   1.504
 3705SOL     OW12013   5.459   6.271   3.660
 3705SOL    HW112014   5.525   6.209   3.702
 3705SOL    HW212015   5.372   6.223   3.645
 3706SOL     OW12016   1.002   3.458   4.580
 3706SOL    HW112017   1.048   3.538   4.618
 3706SOL    HW212018   1.045   3.375   4.617
 3707SOL     OW12019   6.113   3.576   5.098
 3707SOL    HW112020   6.144   3.587   5.193
 3707SOL    HW212021   6.014   3.590   5.094
 3708SOL     OW12022   6.300   0.744   6.371
 3708SOL    HW112023   6.225   0.680   6.385
 3708SOL    HW212024   6.271   0.836   6.398
 3709SOL     OW12025   3.961   0.942   0.305
 3709SOL    HW112026   3.984   0.865   0.245
 3709SOL    HW212027   3.915   0.908   0.387
 3710SOL     OW12028   6.812   6.134   0.453
 3710SOL    HW112029   6.868   6.095   0.380
 3710SOL    HW212030   6.778   6.224   0.425
 3711SOL     OW12031   6.971   6.580   2.064
 3711SOL    HW112032   6.940   6.515   2.134
 3711SOL    HW212033   0.028   6.545   2.021
 3712SOL     OW12034   6.667   6.154   0.054
 3712SOL    HW112035   6.672   6.091   0.132
 3712SOL    HW212036   6.663   6.248   0.088
 3713SOL     OW12037   1.335   5.946   4.366
 3713SOL    HW112038   1.318   6.044   4.372
 3713SOL    HW212039   1.327   5.905   4.456
 3714SOL     OW12040   4.775   5.559   5.284
 3714SOL    HW112041   4.868   5.525   5.295
 3714SOL    HW212042   4.766   5.604   5.195
 3715SOL     OW12043   6.050   4.250   3.848
 3715SOL    HW112044   6.089   4.159   3.836
 3715SOL    HW212045   5.995   4.273   3.768
 3716SOL     OW12046   6.242   7.002   5.315
 3716SOL    HW112047   6.320   0.019   5.362
 3716SOL    HW212048   6.276   6.939   5.245
 3717SOL     OW12049   5.615   5.460   6.470
 3717SOL    HW112050   5.699   5.441   6.419
 3717SOL    HW212051   5.537   5.459   6.408
 3718SOL     OW12052   2.230   0.382   5.515
 3718SOL    HW112053   2.301   0.349   5.453
 3718SOL    HW212054   2.259   0.370   5.609
 3719SOL     OW12055   5.619   4.460   0.967
 3719SOL    HW112056   5.623   4.418   0.876
 3719SOL    HW212057   5.525   4.486   0.988
 3720SOL     OW12058   6.018   2.486   5.738
 3720SOL    HW112059   6.097   2.529   5.781
 3720SOL    HW212060   5.936   2.504   5.792
 3721SOL     OW12061   5.365   4.441   1.116
 3721SOL    HW112062   5.284   4.384   1.098
 3721SOL    HW212063   5.350   4.496   1.198
 3722SOL     OW12064   6.669   7.016   2.770
 3722SOL    HW112065   6.599   6.949   2.744
 3722SOL    HW212066   6.745   7.013   2.704
 3723SOL     OW12067   6.143   6.241   1.523
 3723SOL    HW112068   6.243   6.243   1.529
 3723SOL    HW212069   6.108   6.335   1.529
 3724SOL     OW12070   2.116   5.314   6.676
 3724SOL    HW112071   2.131   5.218   6.702
 3724SOL    HW212072   2.021   5.326   6.645
 3725SOL     OW12073   5.335   6.092   0.158
 3725SOL    HW112074   5.397   6.014   0.154
 3725SOL    HW212075   5.385   6.173   0.189
 3726SOL     OW12076   6.453   4.918   0.661
 3726SOL    HW112077   6.465   4.922   0.760
 3726SOL    HW212078   6.373   4.972   0.635
 3727SOL     OW12079   6.839   2.861   5.838
 3727SOL    HW112080   6.851   2.769   5.874
 3727SOL    HW212081   6.866   2.864   5.742
 3728SOL     OW12082   1.509   3.799   0.214
 3728SOL    HW112083   1.548   3.731   0.151
 3728SOL    HW212084   1.409   3.796   0.206
 3729SOL     OW12085   1.537   2.121   3.554
 3729SOL    HW112086   1.610   2.104   3.488
 3729SOL    HW212087   1.565   2.086   3.644
 3730SOL     OW12088   2.767   5.241   6.472
 3730SOL    HW112089   2.849   5.273   6.520
 3730SOL    HW212090   2.707   5.193   6.537
 3731SOL     OW12091   4.347   0.105   0.882
 3731SOL    HW112092   4.432   0.149   0.910
 3731SOL    HW212093   4.347   0.009   0.912
 3732SOL     OW12094   1.638   2.508   6.746
 3732SOL    HW112095   1.608   2.445   6.673
 3732SOL    HW212096   1.668   2.455   6.825
 3733SOL     OW12097   1.301   3.048   1.583
 3733SOL    HW112098   1.261   3.008   1.500
 3733SOL    HW212099   1.289   2.985   1.660
 3734SOL     OW12100   4.473   1.624   1.708
 3734SOL    HW112101   4.499   1.658   1.799
 3734SOL    HW212102   4.528   1.543   1.686
 3735SOL     OW12103   1.845   1.351   3.823
 3735SOL    HW112104   1.930   1.311   3.788
 3735SOL    HW212105   1.796   1.396   3.748
 3736SOL     OW12106   0.044   3.369   1.483
 3736SOL    HW112107   0.097   3.285   1.476
 3736SOL    HW212108   6.975   3.351   1.455
 3737SOL     OW12109   5.268   0.233   2.818
 3737SOL    HW112110   5.196   0.299   2.794
 3737SOL    HW212111   5.256   0.206   2.914
 3738SOL     OW12112   6.751   6.267   2.697
 3738SOL    HW112113   6.677   6.321   2.659
 3738SOL    HW212114   6.807   6.230   2.623
 3739SOL     OW12115   2.244   4.981   1.595
 3739SOL    HW112116   2.202   5.050   1.654
 3739SOL    HW212117   2.340   4.970   1.620
 3740SOL     OW12118   4.432   0.263   0.189
 3740SOL    HW112119   4.521   0.219   0.177
 3740SOL    HW212120   4.445   0.362   0.198
 3741SOL     OW12121   4.780   3.193   1.516
 3741SOL    HW112122   4.758   3.234   1.427
 3741SOL    HW212123   4.704   3.134   1.545
 3742SOL     OW12124   2.350   2.382   6.032
 3742SOL    HW112125   2.395   2.434   5.960
 3742SOL    HW212126   2.268   2.338   5.995
 3743SOL     OW12127   5.789   4.264   1.118
 3743SOL    HW112128   5.723   4.193   1.144
 3743SOL    HW212129   5.747   4.325   1.050
 3744SOL     OW12130   0.610   5.731   2.723
 3744SOL    HW112131   0.591   5.669   2.799
 3744SOL    HW212132   0.573   5.822   2.745
 3745SOL     OW12133   3.649   5.394   1.876
 3745SOL    HW112134   3.693   5.329   1.938
 3745SOL    HW212135   3.718   5.435   1.816
 3746SOL     OW12136   4.617   1.699   2.560
 3746SOL    HW112137   4.599   1.795   2.583
 3746SOL    HW212138   4.600   1.685   2.463
 3747SOL     OW12139   3.474   6.891   6.081
 3747SOL    HW112140   3.555   6.911   6.135
 3747SOL    HW212141   3.400   6.953   6.107
 3748SOL     OW12142   4.984   0.865   1.799
 3748SOL    HW112143   4.920   0.790   1.815
 3748SOL    HW212144   5.048   0.839   1.726
 3749SOL     OW12145   1.502   6.589   3.964
 3749SOL    HW112146   1.564   6.617   4.037
 3749SOL    HW212147   1.518   6.645   3.883
 3750SOL     OW12148   2.089   4.310   0.214
 3750SOL    HW112149   2.145   4.310   0.297
 3750SOL    HW212150   2.118   4.385   0.154
 3751SOL     OW12151   6.501   3.519   2.242
 3751SOL    HW112152   6.574   3.566   2.192
 3751SOL    HW212153   6.445   3.587   2.290
 3752SOL     OW12154   4.760   0.795   5.749
 3752SOL    HW112155   4.768   0.829   5.843
 3752SOL    HW212156   4.831   0.726   5.733
 3753SOL     OW12157   6.396   0.207   5.075
 3753SOL    HW112158   6.389   0.119   5.027
 3753SOL    HW212159   6.421   0.190   5.170
 3754SOL     OW12160   2.811   0.597   2.115
 3754SOL    HW112161   2.716   0.614   2.088
 3754SOL    HW212162   2.813   0.531   2.190
 3755SOL     OW12163   3.484   5.593   4.814
 3755SOL    HW112164   3.453   5.684   4.788
 3755SOL    HW212165   3.577   5.599   4.852
 3756SOL     OW12166   3.323   5.539   6.429
 3756SOL    HW112167   3.225   5.554   6.444
 3756SOL    HW212168   3.350   5.453   6.473
 3757SOL     OW12169   6.442   5.353   1.830
 3757SOL    HW112170   6.531   5.322   1.796
 3757SOL    HW212171   6.452   5.388   1.923
 3758SOL     OW12172   1.762   1.240   4.793
 3758SOL    HW112173   1.843   1.185   4.775
 3758SOL    HW212174   1.705   1.244   4.711
 3759SOL     OW12175   4.548   0.789   5.141
 3759SOL    HW112176   4.640   0.773   5.107
 3759SOL    HW212177   4.551   0.847   5.222
 3760SOL     OW12178   0.553   0.799   3.164
 3760SOL    HW112179   0.498   0.856   3.104
 3760SOL    HW212180   0.594   0.856   3.236
 3761SOL     OW12181   6.775   0.960   4.689
 3761SOL    HW112182   6.797   0.994   4.780
 3761SOL    HW212183   6.701   0.892   4.696
 3762SOL     OW12184   1.413   4.379   1.683
 3762SOL    HW112185   1.369   4.385   1.772
 3762SOL    HW212186   1.424   4.470   1.644
 3763SOL     OW12187   6.621   3.998   0.723
 3763SOL    HW112188   6.714   4.001   0.758
 3763SOL    HW212189   6.623   3.997   0.623
 3764SOL     OW12190   1.920   6.971   2.922
 3764SOL    HW112191   1.829   6.930   2.919
 3764SOL    HW212192   1.955   6.980   2.829
 3765SOL     OW12193   6.212   1.643   1.320
 3765SOL    HW112194   6.282   1.591   1.368
 3765SOL    HW212195   6.123   1.599   1.331
 3766SOL     OW12196   2.054   1.958   4.462
 3766SOL    HW112197   2.144   1.926   4.491
 3766SOL    HW212198   2.014   2.013   4.536
 3767SOL     OW12199   3.400   4.277   6.420
 3767SOL    HW112200   3.334   4.206   6.394
 3767SOL    HW212201   3.365   4.326   6.500
 3768SOL     OW12202   1.100   0.849   4.775
 3768SOL    HW112203   1.171   0.807   4.719
 3768SOL    HW212204   1.109   0.819   4.869
 3769SOL     OW12205   5.806   5.794   5.367
 3769SOL    HW112206   5.800   5.893   5.353
 3769SOL    HW212207   5.869   5.755   5.300
 3770SOL     OW12208   1.107   0.989   6.965
 3770SOL    HW112209   1.051   1.069   6.945
 3770SOL    HW212210   1.204   1.011   6.950
 3771SOL     OW12211   5.582   4.269   6.572
 3771SOL    HW112212   5.577   4.190   6.512
 3771SOL    HW212213   5.648   4.252   6.645
 3772SOL     OW12214   0.980   6.856   0.578
 3772SOL    HW112215   0.995   6.902   0.491
 3772SOL    HW212216   1.052   6.881   0.642
 3773SOL     OW12217   5.765   3.501   5.730
 3773SOL    HW112218   5.754   3.403   5.711
 3773SOL    HW212219   5.792   3.513   5.825
 3774SOL     OW12220   5.688   5.373   1.918
 3774SOL    HW112221   5.684   5.472   1.929
 3774SOL    HW212222   5.605   5.332   1.956
 3775SOL     OW12223   4.027   4.774   3.822
 3775SOL    HW112224   4.053   4.768   3.726
 3775SOL    HW212225   3.928   4.792   3.829
 3776SOL     OW12226   3.692   2.782   6.357
 3776SOL    HW112227   3.659   2.761   6.265
 3776SOL    HW212228   3.645   2.862   6.393
 3777SOL     OW12229   2.613   5.839   3.617
 3777SOL    HW112230   2.572   5.826   3.527
 3777SOL    HW212231   2.660   5.927   3.619
 3778SOL     OW12232   2.246   6.303   3.501
 3778SOL    HW112233   2.278   6.356   3.580
 3778SOL    HW212234   2.159   6.259   3.525
 3779SOL     OW12235   0.392   4.758   0.890
 3779SOL    HW112236   0.366   4.710   0.974
 3779SOL    HW212237   0.333   4.727   0.815
 3780SOL     OW12238   0.120   3.211   3.698
 3780SOL    HW112239   0.090   3.253   3.784
 3780SOL    HW212240   0.140   3.114   3.712
 3781SOL     OW12241   0.804   6.786   4.142
 3781SOL    HW112242   0.753   6.862   4.102
 3781SOL    HW212243   0.758   6.756   4.226
 3782SOL     OW12244   3.571   6.586   2.526
 3782SOL    HW112245   3.523   6.674   2.531
 3782SOL    HW212246   3.629   6.575   2.607
 3783SOL     OW12247   6.463   5.416   4.452
 3783SOL    HW112248   6.492   5.349   4.384
 3783SOL    HW212249   6.422   5.369   4.530
 3784SOL     OW12250   5.443   2.660   2.348
 3784SOL    HW112251   5.344   2.653   2.363
 3784SOL    HW212252   5.472   2.754   2.364
 3785SOL     OW12253   1.096   2.933   5.148
 3785SOL    HW112254   1.060   2.993   5.076
 3785SOL    HW212255   1.188   2.963   5.173
 3786SOL     OW12256   2.120   3.466   2.622
 3786SOL    HW112257   2.164   3.462   2.532
 3786SOL    HW212258   2.087   3.375   2.647
 3787SOL     OW12259   5.506   0.375   2.732
 3787SOL    HW112260   5.480   0.451   2.672
 3787SOL    HW212261   5.424   0.323   2.755
 3788SOL     OW12262   6.195   5.009   5.026
 3788SOL    HW112263   6.145   5.049   5.102
 3788SOL    HW212264   6.155   5.040   4.940
 3789SOL     OW12265   6.991   3.868   2.971
 3789SOL    HW112266   6.905   3.912   2.947
 3789SOL    HW212267   6.976   3.770   2.984
 3790SOL     OW12268   1.297   5.209   6.452
 3790SOL    HW112269   1.334   5.201   6.359
 3790SOL    HW212270   1.198   5.216   6.448
 3791SOL     OW12271   5.169   1.991   6.988
 3791SOL    HW112272   5.081   2.034   6.964
 3791SOL    HW212273   5.190   1.920   6.921
 3792SOL     OW12274   1.232   1.585   4.384
 3792SOL    HW112275   1.233   1.658   4.315
 3792SOL    HW212276   1.212   1.625   4.474
 3793SOL     OW12277   5.550   6.466   1.378
 3793SOL    HW112278   5.622   6.460   1.309
 3793SOL    HW212279   5.583   6.519   1.456
 3794SOL     OW12280   1.741   3.210   1.699
 3794SOL    HW112281   1.814   3.260   1.653
 3794SOL    HW212282   1.675   3.177   1.631
 3795SOL     OW12283   3.231   5.159   1.370
 3795SOL    HW112284   3.281   5.241   1.344
 3795SOL    HW212285   3.134   5.180   1.379
 3796SOL     OW12286   4.120   2.062   1.075
 3796SOL    HW112287   4.118   1.966   1.104
 3796SOL    HW212288   4.191   2.074   1.006
 3797SOL     OW12289   0.775   4.096   3.542
 3797SOL    HW112290   0.861   4.142   3.521
 3797SOL    HW212291   0.698   4.157   3.521
 3798SOL     OW12292   3.211   6.604   2.160
 3798SOL    HW112293   3.164   6.686   2.192
 3798SOL    HW212294   3.282   6.578   2.226
 3799SOL     OW12295   0.032   2.642   3.688
 3799SOL    HW112296   0.071   2.732   3.668
 3799SOL    HW212297   0.074   2.574   3.627
 3800SOL     OW12298   5.520   2.312   3.938
 3800SOL    HW112299   5.455   2.271   4.002
 3800SOL    HW212300   5.503   2.411   3.932
 3801SOL     OW12301   5.439   6.782   1.727
 3801SOL    HW112302   5.358   6.817   1.680
 3801SOL    HW212303   5.441   6.818   1.821
 3802SOL     OW12304   6.936   1.483   2.519
 3802SOL    HW112305   7.004   1.518   2.455
 3802SOL    HW212306   6.923   1.549   2.593
 3803SOL     OW12307   4.110   3.716   3.877
 3803SOL    HW112308   4.196   3.762   3.853
 3803SOL    HW212309   4.126   3.618   3.883
 3804SOL     OW12310   3.557   1.590   4.310
 3804SOL    HW112311   3.597   1.520   4.252
 3804SOL    HW212312   3.577   1.680   4.273
 3805SOL     OW12313   1.876   2.524   1.698
 3805SOL    HW112314   1.938   2.595   1.665
 3805SOL    HW212315   1.874   2.448   1.633
 3806SOL     OW12316   3.469   3.540   6.290
 3806SOL    HW112317   3.558   3.501   6.312
 3806SOL    HW212318   3.482   3.631   6.251
 3807SOL     OW12319   1.793   4.093   3.588
 3807SOL    HW112320   1.778   4.083   3.489
 3807SOL    HW212321   1.877   4.046   3.614
 3808SOL     OW12322   4.522   0.572   6.409
 3808SOL    HW112323   4.498   0.622   6.326
 3808SOL    HW212324   4.440   0.558   6.465
 3809SOL     OW12325   5.794   2.450   1.931
 3809SOL    HW112326   5.853   2.495   1.863
 3809SOL    HW212327   5.798   2.501   2.017
 3810SOL     OW12328   6.852   2.691   3.383
 3810SOL    HW112329   6.857   2.648   3.292
 3810SOL    HW212330   6.935   2.742   3.400
 3811SOL     OW12331   6.848   6.065   4.512
 3811SOL    HW112332   6.920   6.073   4.443
 3811SOL    HW212333   6.769   6.018   4.472
 3812SOL     OW12334   3.360   4.850   5.972
 3812SOL    HW112335   3.410   4.936   5.959
 3812SOL    HW212336   3.312   4.826   5.888
 3813SOL     OW12337   5.949   3.929   1.062
 3813SOL    HW112338   5.980   3.834   1.067
 3813SOL    HW212339   5.882   3.946   1.135
 3814SOL     OW12340   0.284   0.160   3.952
 3814SOL    HW112341   0.373   0.175   3.908
 3814SOL    HW212342   0.220   0.121   3.886
 3815SOL     OW12343   4.340   2.610   0.991
 3815SOL    HW112344   4.327   2.672   0.913
 3815SOL    HW212345   4.391   2.657   1.063
 3816SOL     OW12346   0.919   5.561   5.482
 3816SOL    HW112347   0.971   5.494   5.429
 3816SOL    HW212348   0.849   5.514   5.536
 3817SOL     OW12349   5.158   3.346   1.911
 3817SOL    HW112350   5.161   3.273   1.843
 3817SOL    HW212351   5.078   3.334   1.970
 3818SOL     OW12352   0.036   0.840   0.912
 3818SOL    HW112353   0.078   0.758   0.951
 3818SOL    HW212354   0.107   0.896   0.869
 3819SOL     OW12355   6.096   4.212   2.310
 3819SOL    HW112356   6.039   4.294   2.318
 3819SOL    HW212357   6.190   4.233   2.337
 3820SOL     OW12358   6.353   6.495   3.448
 3820SOL    HW112359   6.433   6.552   3.468
 3820SOL    HW212360   6.382   6.401   3.433
 3821SOL     OW12361   1.226   1.441   1.863
 3821SOL    HW112362   1.305   1.420   1.804
 3821SOL    HW212363   1.156   1.371   1.850
 3822SOL     OW12364   2.355   0.004   6.328
 3822SOL    HW112365   2.304   6.958   6.374
 3822SOL    HW212366   2.445   6.995   6.301
 3823SOL     OW12367   4.353   3.848   6.699
 3823SOL    HW112368   4.349   3.790   6.781
 3823SOL    HW212369   4.366   3.790   6.619
 3824SOL     OW12370   0.625   2.407   0.564
 3824SOL    HW112371   0.548   2.470   0.575
 3824SOL    HW212372   0.590   2.314   0.554
 3825SOL     OW12373   1.040   4.118   0.686
 3825SOL    HW112374   1.082   4.030   0.707
 3825SOL    HW212375   1.018   4.165   0.771
 3826SOL     OW12376   0.025   3.697   1.382
 3826SOL    HW112377   0.056   3.607   1.412
 3826SOL    HW212378   0.072   3.722   1.297
 3827SOL     OW12379   0.708   0.671   1.392
 3827SOL    HW112380   0.777   0.703   1.328
 3827SOL    HW212381   0.713   0.571   1.400
 3828SOL     OW12382   3.887   3.548   4.430
 3828SOL    HW112383   3.943   3.587   4.357
 3828SOL    HW212384   3.924   3.574   4.519
 3829SOL     OW12385   0.660   5.222   1.883
 3829SOL    HW112386   0.706   5.308   1.859
 3829SOL    HW212387   0.588   5.204   1.815
 3830SOL     OW12388   0.580   1.272   5.850
 3830SOL    HW112389   0.641   1.339   5.891
 3830SOL    HW212390   0.559   1.201   5.917
 3831SOL     OW12391   4.413   2.270   2.693
 3831SOL    HW112392   4.457   2.225   2.771
 3831SOL    HW212393   4.371   2.202   2.634
 3832SOL     OW12394   6.855   0.675   2.428
 3832SOL    HW112395   6.904   0.663   2.515
 3832SOL    HW212396   6.919   0.708   2.359
 3833SOL     OW12397   0.917   6.161   6.514
 3833SOL    HW112398   0.923   6.245   6.568
 3833SOL    HW212399   0.852   6.174   6.439
 3834SOL     OW12400   3.836   4.357   1.112
 3834SOL    HW112401   3.738   4.376   1.101
 3834SOL    HW212402   3.886   4.392   1.033
 3835SOL     OW12403   3.850   6.255   5.465
 3835SOL    HW112404   3.896   6.227   5.549
 3835SOL    HW212405   3.916   6.295   5.402
 3836SOL     OW12406   6.977   4.866   5.670
 3836SOL    HW112407   6.888   4.886   5.711
 3836SOL    HW212408   0.009   4.819   5.737
 3837SOL     OW12409   4.345   5.113   5.518
 3837SOL    HW112410   4.291   5.041   5.563
 3837SOL    HW212411   4.341   5.100   5.419
 3838SOL     OW12412   1.008   2.587   3.469
 3838SOL    HW112413   1.040   2.668   3.518
 3838SOL    HW212414   1.045   2.504   3.512
 3839SOL     OW12415   4.909   1.643   2.875
 3839SOL    HW112416   4.967   1.721   2.850
 3839SOL    HW212417   4.882   1.594   2.792
 3840SOL     OW12418   3.322   1.781   6.764
 3840SOL    HW112419   3.276   1.693   6.751
 3840SOL    HW212420   3.346   1.820   6.675
 3841SOL     OW12421   0.904   3.569   4.322
 3841SOL    HW112422   0.833   3.629   4.360
 3841SOL    HW212423   0.951   3.523   4.397
 3842SOL     OW12424   2.234   2.845   3.320
 3842SOL    HW112425   2.264   2.855   3.415
 3842SOL    HW212426   2.187   2.929   3.292
 3843SOL     OW12427   5.428   3.347   2.344
 3843SOL    HW112428   5.510   3.296   2.370
 3843SOL    HW212429   5.410   3.333   2.247
 3844SOL     OW12430   1.430   3.434   6.128
 3844SOL    HW112431   1.442   3.450   6.031
 3844SOL    HW212432   1.464   3.512   6.180
 3845SOL     OW12433   2.453   5.381   6.099
 3845SOL    HW112434   2.502   5.383   6.012
 3845SOL    HW212435   2.515   5.410   6.172
 3846SOL     OW12436   0.863   4.237   3.909
 3846SOL    HW112437   0.895   4.147   3.878
 3846SOL    HW212438   0.763   4.238   3.909
 3847SOL     OW12439   5.213   3.032   4.378
 3847SOL    HW112440   5.164   3.017   4.292
 3847SOL    HW212441   5.149   3.029   4.454
 3848SOL     OW12442   4.873   3.874   2.850
 3848SOL    HW112443   4.885   3.835   2.941
 3848SOL    HW212444   4.957   3.923   2.823
 3849SOL     OW12445   1.269   1.121   6.049
 3849SOL    HW112446   1.250   1.043   5.990
 3849SOL    HW212447   1.213   1.199   6.019
 3850SOL     OW12448   2.877   2.887   1.653
 3850SOL    HW112449   2.783   2.867   1.680
 3850SOL    HW212450   2.940   2.837   1.713
 3851SOL     OW12451   0.056   4.786   3.838
 3851SOL    HW112452   0.078   4.786   3.740
 3851SOL    HW212453   0.011   4.873   3.862
 3852SOL     OW12454   3.740   5.954   3.856
 3852SOL    HW112455   3.838   5.939   3.873
 3852SOL    HW212456   3.722   6.052   3.848
 3853SOL     OW12457   1.068   3.515   3.471
 3853SOL    HW112458   0.991   3.579   3.474
 3853SOL    HW212459   1.035   3.422   3.490
 3854SOL     OW12460   1.165   2.449   2.556
 3854SOL    HW112461   1.108   2.459   2.474
 3854SOL    HW212462   1.125   2.379   2.616
 3855SOL     OW12463   4.445   6.153   6.447
 3855SOL    HW112464   4.359   6.163   6.497
 3855SOL    HW212465   4.436   6.195   6.357
 3856SOL     OW12466   0.347   0.618   6.250
 3856SOL    HW112467   0.315   0.610   6.344
 3856SOL    HW212468   0.419   0.551   6.233
 3857SOL     OW12469   0.761   6.009   6.704
 3857SOL    HW112470   0.836   6.028   6.640
 3857SOL    HW212471   0.700   5.940   6.664
 3858SOL     OW12472   3.299   1.152   6.042
 3858SOL    HW112473   3.203   1.124   6.050
 3858SOL    HW212474   3.347   1.131   6.127
 3859SOL     OW12475   6.632   0.974   1.818
 3859SOL    HW112476   6.724   0.966   1.855
 3859SOL    HW212477   6.581   0.890   1.836
 3860SOL     OW12478   1.668   1.612   4.344
 3860SOL    HW112479   1.608   1.622   4.423
 3860SOL    HW212480   1.613   1.592   4.263
 3861SOL     OW12481   4.400   5.405   4.020
 3861SOL    HW112482   4.355   5.493   4.010
 3861SOL    HW212483   4.332   5.335   4.042
 3862SOL     OW12484   0.357   1.016   4.315
 3862SOL    HW112485   0.391   0.937   4.366
 3862SOL    HW212486   0.409   1.097   4.343
 3863SOL     OW12487   5.955   2.012   6.931
 3863SOL    HW112488   5.975   2.029   0.002
 3863SOL    HW212489   5.857   2.018   6.916
 3864SOL     OW12490   1.866   0.432   5.687
 3864SOL    HW112491   1.900   0.422   5.593
 3864SOL    HW212492   1.943   0.424   5.751
 3865SOL     OW12493   4.009   1.002   1.207
 3865SOL    HW112494   4.073   1.061   1.256
 3865SOL    HW212495   4.004   0.913   1.254
 3866SOL     OW12496   3.877   0.565   0.458
 3866SOL    HW112497   3.879   0.645   0.518
 3866SOL    HW212498   3.925   0.489   0.502
 3867SOL     OW12499   0.409   5.494   3.118
 3867SOL    HW112500   0.323   5.449   3.097
 3867SOL    HW212501   0.482   5.426   3.126
 3868SOL     OW12502   3.173   0.534   0.471
 3868SOL    HW112503   3.104   0.605   0.456
 3868SOL    HW212504   3.128   0.446   0.485
 3869SOL     OW12505   6.156   3.102   4.870
 3869SOL    HW112506   6.208   3.150   4.799
 3869SOL    HW212507   6.208   3.023   4.901
 3870SOL     OW12508   6.793   6.727   0.483
 3870SOL    HW112509   6.846   6.752   0.402
 3870SOL    HW212510   6.825   6.639   0.518
 3871SOL     OW12511   3.895   0.941   3.236
 3871SOL    HW112512   3.894   0.984   3.146
 3871SOL    HW212513   3.976   0.881   3.244
 3872SOL     OW12514   3.147   3.103   4.381
 3872SOL    HW112515   3.207   3.036   4.425
 3872SOL    HW212516   3.081   3.138   4.448
 3873SOL     OW12517   6.151   4.151   1.084
 3873SOL    HW112518   6.238   4.125   1.042
 3873SOL    HW212519   6.100   4.069   1.110
 3874SOL     OW12520   4.372   6.136   0.444
 3874SOL    HW112521   4.350   6.145   0.541
 3874SOL    HW212522   4.413   6.221   0.411
 3875SOL     OW12523   2.084   3.209   2.440
 3875SOL    HW112524   2.117   3.268   2.366
 3875SOL    HW212525   2.127   3.235   2.526
 3876SOL     OW12526   3.366   5.383   0.992
 3876SOL    HW112527   3.278   5.374   1.039
 3876SOL    HW212528   3.364   5.461   0.930
 3877SOL     OW12529   6.110   2.379   1.324
 3877SOL    HW112530   6.177   2.452   1.310
 3877SOL    HW212531   6.144   2.294   1.285
 3878SOL     OW12532   3.806   6.611   4.909
 3878SOL    HW112533   3.720   6.570   4.880
 3878SOL    HW212534   3.868   6.618   4.831
 3879SOL     OW12535   5.988   5.032   1.145
 3879SOL    HW112536   6.040   5.000   1.065
 3879SOL    HW212537   5.915   5.093   1.115
 3880SOL     OW12538   5.413   4.722   4.175
 3880SOL    HW112539   5.479   4.760   4.111
 3880SOL    HW212540   5.365   4.796   4.221
 3881SOL     OW12541   1.235   2.930   1.809
 3881SOL    HW112542   1.208   3.024   1.827
 3881SOL    HW212543   1.303   2.902   1.877
 3882SOL     OW12544   1.144   1.759   6.148
 3882SOL    HW112545   1.230   1.797   6.114
 3882SOL    HW212546   1.122   1.675   6.099
 3883SOL     OW12547   4.539   1.183   2.403
 3883SOL    HW112548   4.518   1.250   2.474
 3883SOL    HW212549   4.571   1.231   2.321
 3884SOL     OW12550   1.255   5.805   2.343
 3884SOL    HW112551   1.291   5.888   2.386
 3884SOL    HW212552   1.165   5.823   2.305
 3885SOL     OW12553   5.904   5.968   2.573
 3885SOL    HW112554   6.000   5.990   2.589
 3885SOL    HW212555   5.890   5.869   2.586
 3886SOL     OW12556   5.672   5.508   5.118
 3886SOL    HW112557   5.637   5.474   5.205
 3886SOL    HW212558   5.753   5.565   5.134
 3887SOL     OW12559   0.859   0.521   7.023
 3887SOL    HW112560   0.844   0.490   6.929
 3887SOL    HW212561   0.938   0.582   0.000
 3888SOL     OW12562   6.901   0.568   4.782
 3888SOL    HW112563   6.959   0.645   4.756
 3888SOL    HW212564   6.823   0.563   4.721
 3889SOL     OW12565   0.378   4.015   0.336
 3889SOL    HW112566   0.411   3.982   0.425
 3889SOL    HW212567   0.325   4.099   0.349
 3890SOL     OW12568   6.333   4.978   3.518
 3890SOL    HW112569   6.393   5.057   3.533
 3890SOL    HW212570   6.248   5.010   3.476
 3891SOL     OW12571   5.599   4.140   4.358
 3891SOL    HW112572   5.537   4.214   4.383
 3891SOL    HW212573   5.651   4.166   4.276
 3892SOL     OW12574   0.102   1.967   1.469
 3892SOL    HW112575   0.107   1.893   1.536
 3892SOL    HW212576   0.159   1.943   1.389
 3893SOL     OW12577   4.436   4.137   0.615
 3893SOL    HW112578   4.415   4.190   0.533
 3893SOL    HW212579   4.460   4.043   0.588
 3894SOL     OW12580   4.480   0.741   0.766
 3894SOL    HW112581   4.524   0.737   0.677
 3894SOL    HW212582   4.386   0.773   0.755
 3895SOL     OW12583   1.748   0.833   5.084
 3895SOL    HW112584   1.681   0.890   5.131
 3895SOL    HW212585   1.828   0.820   5.143
 3896SOL     OW12586   0.193   1.202   5.706
 3896SOL    HW112587   0.203   1.287   5.654
 3896SOL    HW212588   0.272   1.143   5.689
 3897SOL     OW12589   3.720   5.606   2.580
 3897SOL    HW112590   3.666   5.656   2.647
 3897SOL    HW212591   3.810   5.584   2.619
 3898SOL     OW12592   2.684   3.544   5.675
 3898SOL    HW112593   2.744   3.464   5.662
 3898SOL    HW212594   2.736   3.618   5.718
 3899SOL     OW12595   5.071   6.908   5.020
 3899SOL    HW112596   4.977   6.874   5.018
 3899SOL    HW212597   5.108   6.896   5.113
 3900SOL     OW12598   5.293   2.834   3.992
 3900SOL    HW112599   5.366   2.871   4.049
 3900SOL    HW212600   5.326   2.825   3.898
 3901SOL     OW12601   2.448   0.265   5.391
 3901SOL    HW112602   2.442   0.187   5.329
 3901SOL    HW212603   2.486   0.343   5.342
 3902SOL     OW12604   5.715   3.262   1.722
 3902SOL    HW112605   5.647   3.194   1.751
 3902SOL    HW212606   5.800   3.247   1.773
 3903SOL     OW12607   3.615   6.113   6.183
 3903SOL    HW112608   3.585   6.195   6.134
 3903SOL    HW212609   3.538   6.050   6.193
 3904SOL     OW12610   2.619   1.246   5.278
 3904SOL    HW112611   2.590   1.305   5.353
 3904SOL    HW212612   2.713   1.268   5.253
 3905SOL     OW12613   0.378   6.884   6.472
 3905SOL    HW112614   0.330   6.897   6.559
 3905SOL    HW212615   0.391   6.972   6.428
 3906SOL     OW12616   4.859   5.360   6.067
 3906SOL    HW112617   4.847   5.418   6.147
 3906SOL    HW212618   4.797   5.281   6.074
 3907SOL     OW12619   6.085   0.338   4.393
 3907SOL    HW112620   6.126   0.248   4.410
 3907SOL    HW212621   6.147   0.410   4.424
 3908SOL     OW12622   1.622   2.491   0.569
 3908SOL    HW112623   1.709   2.489   0.618
 3908SOL    HW212624   1.549   2.517   0.632
 3909SOL     OW12625   0.134   5.385   5.477
 3909SOL    HW112626   0.079   5.340   5.546
 3909SOL    HW212627   0.132   5.331   5.392
 3910SOL     OW12628   3.153   3.190   1.757
 3910SOL    HW112629   3.098   3.180   1.674
 3910SOL    HW212630   3.168   3.101   1.799
 3911SOL     OW12631   5.092   1.194   6.687
 3911SOL    HW112632   5.027   1.162   6.755
 3911SOL    HW212633   5.095   1.129   6.611
 3912SOL     OW12634   4.408   0.522   5.509
 3912SOL    HW112635   4.351   0.470   5.572
 3912SOL    HW212636   4.416   0.472   5.422
 3913SOL     OW12637   1.674   6.835   6.024
 3913SOL    HW112638   1.623   6.808   6.105
 3913SOL    HW212639   1.638   6.785   5.945
 3914SOL     OW12640   3.578   1.385   0.739
 3914SOL    HW112641   3.572   1.474   0.784
 3914SOL    HW212642   3.642   1.327   0.788
 3915SOL     OW12643   3.881   5.013   2.221
 3915SOL    HW112644   3.855   4.958   2.141
 3915SOL    HW212645   3.851   4.967   2.304
 3916SOL     OW12646   1.977   6.226   3.575
 3916SOL    HW112647   1.940   6.312   3.609
 3916SOL    HW212648   1.915   6.187   3.507
 3917SOL     OW12649   6.849   5.691   0.441
 3917SOL    HW112650   6.798   5.704   0.356
 3917SOL    HW212651   6.802   5.737   0.516
 3918SOL     OW12652   4.795   6.518   2.060
 3918SOL    HW112653   4.789   6.610   2.021
 3918SOL    HW212654   4.774   6.450   1.989
 3919SOL     OW12655   2.199   6.203   6.220
 3919SOL    HW112656   2.166   6.181   6.312
 3919SOL    HW212657   2.275   6.143   6.195
 3920SOL     OW12658   3.271   2.783   0.835
 3920SOL    HW112659   3.238   2.832   0.754
 3920SOL    HW212660   3.286   2.687   0.813
 3921SOL     OW12661   0.119   3.546   1.721
 3921SOL    HW112662   0.091   3.482   1.649
 3921SOL    HW212663   0.041   3.562   1.782
 3922SOL     OW12664   5.915   4.016   1.792
 3922SOL    HW112665   5.899   4.050   1.699
 3922SOL    HW212666   5.838   3.958   1.820
 3923SOL     OW12667   7.005   2.257   6.381
 3923SOL    HW112668   0.052   2.286   6.444
 3923SOL    HW212669   6.951   2.336   6.354
 3924SOL     OW12670   0.396   5.117   3.415
 3924SOL    HW112671   0.428   5.032   3.457
 3924SOL    HW212672   0.473   5.166   3.376
 3925SOL     OW12673   3.064   4.864   0.448
 3925SOL    HW112674   3.049   4.902   0.357
 3925SOL    HW212675   2.988   4.804   0.473
 3926SOL     OW12676   6.869   6.004   3.112
 3926SOL    HW112677   6.778   6.003   3.069
 3926SOL    HW212678   6.882   6.092   3.159
 3927SOL     OW12679   6.391   3.119   3.296
 3927SOL    HW112680   6.343   3.164   3.372
 3927SOL    HW212681   6.324   3.083   3.231
 3928SOL     OW12682   2.992   6.518   5.606
 3928SOL    HW112683   2.923   6.529   5.677
 3928SOL    HW212684   2.984   6.427   5.565
 3929SOL     OW12685   6.962   1.277   5.517
 3929SOL    HW112686   6.936   1.246   5.609
 3929SOL    HW212687   6.945   1.375   5.509
 3930SOL     OW12688   2.313   1.778   3.675
 3930SOL    HW112689   2.259   1.746   3.596
 3930SOL    HW212690   2.306   1.711   3.749
 3931SOL     OW12691   1.536   1.787   2.355
 3931SOL    HW112692   1.437   1.780   2.360
 3931SOL    HW212693   1.570   1.840   2.432
 3932SOL     OW12694   1.514   4.250   2.427
 3932SOL    HW112695   1.494   4.159   2.389
 3932SOL    HW212696   1.510   4.245   2.527
 3933SOL     OW12697   1.683   6.609   0.269
 3933SOL    HW112698   1.670   6.523   0.320
 3933SOL    HW212699   1.703   6.588   0.174
 3934SOL     OW12700   0.238   0.950   0.747
 3934SOL    HW112701   0.322   0.897   0.764
 3934SOL    HW212702   0.238   1.031   0.806
 3935SOL     OW12703   2.469   0.221   6.832
 3935SOL    HW112704   2.430   0.313   6.824
 3935SOL    HW212705   2.397   0.153   6.815
 3936SOL     OW12706   6.666   4.961   5.415
 3936SOL    HW112707   6.572   4.979   5.445
 3936SOL    HW212708   6.727   5.030   5.453
 3937SOL     OW12709   6.676   0.857   2.648
 3937SOL    HW112710   6.711   0.950   2.648
 3937SOL    HW212711   6.750   0.793   2.667
 3938SOL     OW12712   0.458   1.535   4.078
 3938SOL    HW112713   0.450   1.456   4.139
 3938SOL    HW212714   0.452   1.505   3.983
 3939SOL     OW12715   2.743   1.750   2.089
 3939SOL    HW112716   2.731   1.708   2.000
 3939SOL    HW212717   2.655   1.782   2.124
 3940SOL     OW12718   4.296   5.095   2.051
 3940SOL    HW112719   4.262   5.059   2.138
 3940SOL    HW212720   4.341   5.183   2.066
 3941SOL     OW12721   4.977   2.196   6.666
 3941SOL    HW112722   4.936   2.166   6.579
 3941SOL    HW212723   4.947   2.135   6.739
 3942SOL     OW12724   0.201   0.266   6.569
 3942SOL    HW112725   0.280   0.233   6.518
 3942SOL    HW212726   0.169   0.352   6.530
 3943SOL     OW12727   0.584   3.880   2.951
 3943SOL    HW112728   0.545   3.921   2.869
 3943SOL    HW212729   0.521   3.894   3.028
 3944SOL     OW12730   5.116   3.291   4.695
 3944SOL    HW112731   5.031   3.343   4.696
 3944SOL    HW212732   5.193   3.353   4.707
 3945SOL     OW12733   0.948   2.352   1.935
 3945SOL    HW112734   0.901   2.375   1.850
 3945SOL    HW212735   0.915   2.265   1.970
 3946SOL     OW12736   5.546   5.910   6.262
 3946SOL    HW112737   5.645   5.915   6.281
 3946SOL    HW212738   5.508   5.830   6.308
 3947SOL     OW12739   5.903   5.220   0.937
 3947SOL    HW112740   5.951   5.275   1.005
 3947SOL    HW212741   5.809   5.204   0.968
 3948SOL     OW12742   0.680   5.814   1.692
 3948SOL    HW112743   0.610   5.746   1.713
 3948SOL    HW212744   0.692   5.875   1.770
 3949SOL     OW12745   5.693   0.543   3.128
 3949SOL    HW112746   5.745   0.591   3.057
 3949SOL    HW212747   5.630   0.479   3.085
 3950SOL     OW12748   2.290   3.767   1.683
 3950SOL    HW112749   2.291   3.783   1.782
 3950SOL    HW212750   2.341   3.684   1.663
 3951SOL     OW12751   6.314   6.730   0.407
 3951SOL    HW112752   6.370   6.672   0.467
 3951SOL    HW212753   6.373   6.798   0.363
 3952SOL     OW12754   6.312   3.855   2.598
 3952SOL    HW112755   6.325   3.816   2.689
 3952SOL    HW212756   6.400   3.862   2.552
 3953SOL     OW12757   3.980   4.234   1.341
 3953SOL    HW112758   4.071   4.267   1.366
 3953SOL    HW212759   3.956   4.269   1.251
 3954SOL     OW12760   5.260   5.250   5.099
 3954SOL    HW112761   5.212   5.230   5.184
 3954SOL    HW212762   5.358   5.256   5.116
 3955SOL     OW12763   2.995   5.240   6.247
 3955SOL    HW112764   2.933   5.279   6.180
 3955SOL    HW212765   2.947   5.225   6.333
 3956SOL     OW12766   0.174   0.794   3.058
 3956SOL    HW112767   0.187   0.845   3.143
 3956SOL    HW212768   0.090   0.741   3.064
 3957SOL     OW12769   4.672   6.265   3.686
 3957SOL    HW112770   4.714   6.257   3.776
 3957SOL    HW212771   4.631   6.178   3.660
 3958SOL     OW12772   5.561   0.490   5.648
 3958SOL    HW112773   5.638   0.438   5.685
 3958SOL    HW212774   5.575   0.588   5.665
 3959SOL     OW12775   4.168   6.504   0.911
 3959SOL    HW112776   4.206   6.444   0.981
 3959SOL    HW212777   4.142   6.449   0.831
 3960SOL     OW12778   4.646   1.327   6.893
 3960SOL    HW112779   4.621   1.418   6.926
 3960SOL    HW212780   4.610   1.314   6.801
 3961SOL     OW12781   5.266   2.223   2.586
 3961SOL    HW112782   5.347   2.171   2.613
 3961SOL    HW212783   5.242   2.287   2.660
 3962SOL     OW12784   2.509   4.748   6.824
 3962SOL    HW112785   2.589   4.735   6.765
 3962SOL    HW212786   2.534   4.727   6.919
 3963SOL     OW12787   4.636   4.849   4.207
 3963SOL    HW112788   4.656   4.823   4.113
 3963SOL    HW212789   4.721   4.853   4.259
 3964SOL     OW12790   3.803   5.143   3.610
 3964SOL    HW112791   3.881   5.189   3.569
 3964SOL    HW212792   3.719   5.178   3.568
 3965SOL     OW12793   4.802   3.248   6.063
 3965SOL    HW112794   4.840   3.156   6.071
 3965SOL    HW212795   4.705   3.246   6.088
 3966SOL     OW12796   5.010   5.798   0.715
 3966SOL    HW112797   4.994   5.773   0.619
 3966SOL    HW212798   5.105   5.827   0.726
 3967SOL     OW12799   1.544   3.783   2.037
 3967SOL    HW112800   1.479   3.734   1.979
 3967SOL    HW212801   1.637   3.752   2.018
 3968SOL     OW12802   4.852   0.394   1.005
 3968SOL    HW112803   4.832   0.394   1.104
 3968SOL    HW212804   4.790   0.458   0.959
 3969SOL     OW12805   1.474   3.787   2.493
 3969SOL    HW112806   1.509   3.728   2.420
 3969SOL    HW212807   1.485   3.742   2.581
 3970SOL     OW12808   5.838   5.942   3.844
 3970SOL    HW112809   5.828   6.017   3.778
 3970SOL    HW212810   5.933   5.915   3.849
 3971SOL     OW12811   2.527   5.015   1.666
 3971SOL    HW112812   2.491   5.107   1.678
 3971SOL    HW212813   2.569   4.984   1.752
 3972SOL     OW12814   0.972   5.127   0.390
 3972SOL    HW112815   1.012   5.131   0.299
 3972SOL    HW212816   1.044   5.144   0.458
 3973SOL     OW12817   1.035   4.919   5.850
 3973SOL    HW112818   1.005   4.872   5.768
 3973SOL    HW212819   1.079   5.005   5.825
 3974SOL     OW12820   1.509   0.909   4.510
 3974SOL    HW112821   1.486   1.004   4.489
 3974SOL    HW212822   1.602   0.890   4.479
 3975SOL     OW12823   6.098   0.717   4.972
 3975SOL    HW112824   6.191   0.717   5.011
 3975SOL    HW212825   6.032   0.700   5.045
 3976SOL     OW12826   1.323   6.537   1.493
 3976SOL    HW112827   1.263   6.545   1.572
 3976SOL    HW212828   1.410   6.582   1.514
 3977SOL     OW12829   2.837   4.307   5.417
 3977SOL    HW112830   2.841   4.283   5.514
 3977SOL    HW212831   2.928   4.301   5.377
 3978SOL     OW12832   5.642   5.964   4.924
 3978SOL    HW112833   5.604   5.891   4.980
 3978SOL    HW212834   5.735   5.940   4.895
 3979SOL     OW12835   3.153   5.711   0.308
 3979SOL    HW112836   3.136   5.728   0.210
 3979SOL    HW212837   3.152   5.612   0.324
 3980SOL     OW12838   0.174   5.475   0.470
 3980SOL    HW112839   0.074   5.473   0.468
 3980SOL    HW212840   0.207   5.408   0.537
 3981SOL     OW12841   2.146   1.052   0.378
 3981SOL    HW112842   2.183   1.142   0.401
 3981SOL    HW212843   2.078   1.060   0.306
 3982SOL     OW12844   1.936   0.103   4.300
 3982SOL    HW112845   1.915   0.066   4.391
 3982SOL    HW212846   1.923   0.031   4.231
 3983SOL     OW12847   5.088   5.218   4.491
 3983SOL    HW112848   5.147   5.174   4.559
 3983SOL    HW212849   5.098   5.318   4.498
 3984SOL     OW12850   6.720   1.123   2.708
 3984SOL    HW112851   6.811   1.150   2.741
 3984SOL    HW212852   6.698   1.176   2.626
 3985SOL     OW12853   3.597   4.464   6.759
 3985SOL    HW112854   3.628   4.375   6.727
 3985SOL    HW212855   3.526   4.499   6.698
 3986SOL     OW12856   6.415   1.872   3.134
 3986SOL    HW112857   6.380   1.963   3.109
 3986SOL    HW212858   6.354   1.831   3.201
 3987SOL     OW12859   3.140   5.414   3.632
 3987SOL    HW112860   3.081   5.368   3.698
 3987SOL    HW212861   3.206   5.471   3.681
 3988SOL     OW12862   4.474   4.199   0.102
 3988SOL    HW112863   4.482   4.105   0.069
 3988SOL    HW212864   4.487   4.263   0.027
 3989SOL     OW12865   6.739   2.729   6.830
 3989SOL    HW112866   6.721   2.731   6.732
 3989SOL    HW212867   6.664   2.683   6.878
 3990SOL     OW12868   5.196   2.102   3.267
 3990SOL    HW112869   5.129   2.059   3.327
 3990SOL    HW212870   5.159   2.189   3.234
 3991SOL     OW12871   5.708   0.879   2.356
 3991SOL    HW112872   5.696   0.944   2.431
 3991SOL    HW212873   5.642   0.900   2.283
 3992SOL     OW12874   3.941   2.587   6.864
 3992SOL    HW112875   4.034   2.624   6.856
 3992SOL    HW212876   3.935   2.501   6.814
 3993SOL     OW12877   1.057   1.338   2.823
 3993SOL    HW112878   1.144   1.301   2.791
 3993SOL    HW212879   1.073   1.419   2.879
 3994SOL     OW12880   0.843   0.744   6.033
 3994SOL    HW112881   0.844   0.837   5.997
 3994SOL    HW212882   0.865   0.746   6.131
 3995SOL     OW12883   2.083   3.676   5.359
 3995SOL    HW112884   2.046   3.651   5.449
 3995SOL    HW212885   2.175   3.712   5.370
 3996SOL     OW12886   1.101   0.986   3.951
 3996SOL    HW112887   1.190   0.973   3.907
 3996SOL    HW212888   1.092   0.923   4.027
 3997SOL     OW12889   4.982   1.007   3.750
 3997SOL    HW112890   5.057   1.044   3.806
 3997SOL    HW212891   4.947   1.079   3.690
 3998SOL     OW12892   4.178   1.311   4.029
 3998SOL    HW112893   4.237   1.347   3.957
 3998SOL    HW212894   4.093   1.276   3.988
 3999SOL     OW12895   5.802   3.353   3.833
 3999SOL    HW112896   5.876   3.365   3.900
 3999SOL    HW212897   5.831   3.291   3.761
 4000SOL     OW12898   3.350   5.825   3.033
 4000SOL    HW112899   3.273   5.879   3.066
 4000SOL    HW212900   3.411   5.883   2.978
 4001SOL     OW12901   2.572   2.235   4.003
 4001SOL    HW112902   2.603   2.285   3.922
 4001SOL    HW212903   2.628   2.154   4.016
 4002SOL     OW12904   2.978   3.338   0.859
 4002SOL    HW112905   2.896   3.330   0.914
 4002SOL    HW212906   2.982   3.263   0.793
 4003SOL     OW12907   2.862   6.206   3.876
 4003SOL    HW112908   2.917   6.288   3.883
 4003SOL    HW212909   2.906   6.132   3.927
 4004SOL     OW12910   5.093   1.724   4.609
 4004SOL    HW112911   5.016   1.726   4.673
 4004SOL    HW212912   5.163   1.661   4.643
 4005SOL     OW12913   4.398   5.497   0.414
 4005SOL    HW112914   4.442   5.423   0.363
 4005SOL    HW212915   4.364   5.565   0.350
 4006SOL     OW12916   3.643   5.326   3.355
 4006SOL    HW112917   3.697   5.384   3.416
 4006SOL    HW212918   3.587   5.264   3.410
 4007SOL     OW12919   0.509   2.613   0.813
 4007SOL    HW112920   0.554   2.695   0.780
 4007SOL    HW212921   0.467   2.565   0.736
 4008SOL     OW12922   3.068   1.893   3.848
 4008SOL    HW112923   3.104   1.900   3.941
 4008SOL    HW212924   3.067   1.797   3.821
 4009SOL     OW12925   5.503   3.382   1.300
 4009SOL    HW112926   5.405   3.390   1.287
 4009SOL    HW212927   5.523   3.306   1.362
 4010SOL     OW12928   2.645   3.056   1.456
 4010SOL    HW112929   2.662   3.114   1.377
 4010SOL    HW212930   2.573   3.096   1.513
 4011SOL     OW12931   0.431   0.787   2.468
 4011SOL    HW112932   0.456   0.796   2.372
 4011SOL    HW212933   0.447   0.693   2.498
 4012SOL     OW12934   4.399   5.730   1.408
 4012SOL    HW112935   4.453   5.651   1.437
 4012SOL    HW212936   4.406   5.741   1.309
 4013SOL     OW12937   2.556   0.236   5.641
 4013SOL    HW112938   2.643   0.284   5.656
 4013SOL    HW212939   2.524   0.252   5.548
 4014SOL     OW12940   4.934   6.127   3.007
 4014SOL    HW112941   4.886   6.214   2.995
 4014SOL    HW212942   4.931   6.076   2.921
 4015SOL     OW12943   5.136   5.406   6.067
 4015SOL    HW112944   5.139   5.459   6.152
 4015SOL    HW212945   5.042   5.376   6.050
 4016SOL     OW12946   2.456   5.807   6.375
 4016SOL    HW112947   2.486   5.864   6.452
 4016SOL    HW212948   2.480   5.711   6.394
 4017SOL     OW12949   0.457   5.918   0.617
 4017SOL    HW112950   0.535   5.917   0.554
 4017SOL    HW212951   0.375   5.888   0.569
 4018SOL     OW12952   5.247   6.155   3.355
 4018SOL    HW112953   5.175   6.195   3.412
 4018SOL    HW212954   5.219   6.065   3.323
 4019SOL     OW12955   5.968   3.530   2.684
 4019SOL    HW112956   6.037   3.477   2.733
 4019SOL    HW212957   5.934   3.604   2.743
 4020SOL     OW12958   5.021   1.988   5.718
 4020SOL    HW112959   4.999   2.062   5.782
 4020SOL    HW212960   5.063   2.027   5.635
 4021SOL     OW12961   3.667   4.208   6.456
 4021SOL    HW112962   3.694   4.182   6.363
 4021SOL    HW212963   3.570   4.232   6.456
 4022SOL     OW12964   4.175   0.700   6.945
 4022SOL    HW112965   4.273   0.685   6.952
 4022SOL    HW212966   4.132   0.623   6.897
 4023SOL     OW12967   6.331   1.796   4.694
 4023SOL    HW112968   6.410   1.855   4.705
 4023SOL    HW212969   6.296   1.770   4.785
 4024SOL     OW12970   3.596   6.034   3.005
 4024SOL    HW112971   3.633   5.944   2.981
 4024SOL    HW212972   3.606   6.096   2.927
 4025SOL     OW12973   1.085   6.107   3.718
 4025SOL    HW112974   1.164   6.100   3.657
 4025SOL    HW212975   1.021   6.174   3.681
 4026SOL     OW12976   6.024   5.837   4.263
 4026SOL    HW112977   5.936   5.808   4.226
 4026SOL    HW212978   6.033   5.805   4.358
 4027SOL     OW12979   3.639   4.144   1.907
 4027SOL    HW112980   3.731   4.107   1.898
 4027SOL    HW212981   3.630   4.225   1.849
 4028SOL     OW12982   1.077   1.828   3.919
 4028SOL    HW112983   0.992   1.877   3.934
 4028SOL    HW212984   1.081   1.796   3.825
 4029SOL     OW12985   1.865   4.461   6.800
 4029SOL    HW112986   1.953   4.508   6.802
 4029SOL    HW212987   1.796   4.518   6.844
 4030SOL     OW12988   1.261   2.033   6.002
 4030SOL    HW112989   1.319   2.112   6.021
 4030SOL    HW212990   1.172   2.045   6.045
 4031SOL     OW12991   4.971   5.760   3.336
 4031SOL    HW112992   5.062   5.798   3.315
 4031SOL    HW212993   4.959   5.755   3.435
 4032SOL     OW12994   6.234   6.944   3.039
 4032SOL    HW112995   6.276   6.870   2.986
 4032SOL    HW212996   6.305   7.000   3.081
 4033SOL     OW12997   3.624   3.056   3.809
 4033SOL    HW112998   3.639   2.993   3.733
 4033SOL    HW212999   3.550   3.118   3.786
 4034SOL     OW13000   5.437   1.145   5.226
 4034SOL    HW113001   5.369   1.117   5.294
 4034SOL    HW213002   5.529   1.130   5.262
 4035SOL     OW13003   6.876   3.919   1.313
 4035SOL    HW113004   6.955   3.973   1.341
 4035SOL    HW213005   6.891   3.823   1.334
 4036SOL     OW13006   5.715   6.722   2.088
 4036SOL    HW113007   5.634   6.668   2.062
 4036SOL    HW213008   5.745   6.776   2.010
 4037SOL     OW13009   2.380   2.539   0.317
 4037SOL    HW113010   2.372   2.496   0.407
 4037SOL    HW213011   2.352   2.635   0.324
 4038SOL     OW13012   4.828   4.894   2.163
 4038SOL    HW113013   4.830   4.934   2.072
 4038SOL    HW213014   4.816   4.795   2.155
 4039SOL     OW13015   4.800   5.295   1.031
 4039SOL    HW113016   4.730   5.240   1.077
 4039SOL    HW213017   4.832   5.367   1.093
 4040SOL     OW13018   2.664   6.623   0.186
 4040SOL    HW113019   2.687   6.656   0.095
 4040SOL    HW213020   2.713   6.678   0.254
 4041SOL     OW13021   1.680   6.401   2.384
 4041SOL    HW113022   1.768   6.431   2.421
 4041SOL    HW213023   1.607   6.428   2.447
 4042SOL     OW13024   6.198   4.565   2.456
 4042SOL    HW113025   6.170   4.527   2.545
 4042SOL    HW213026   6.276   4.626   2.469
 4043SOL     OW13027   5.849   2.248   3.692
 4043SOL    HW113028   5.844   2.345   3.719
 4043SOL    HW213029   5.944   2.223   3.675
 4044SOL     OW13030   6.277   0.338   4.809
 4044SOL    HW113031   6.199   0.300   4.860
 4044SOL    HW213032   6.357   0.342   4.870
 4045SOL     OW13033   2.672   4.279   5.893
 4045SOL    HW113034   2.607   4.284   5.817
 4045SOL    HW213035   2.657   4.356   5.955
 4046SOL     OW13036   0.924   1.717   2.976
 4046SOL    HW113037   0.832   1.750   2.957
 4046SOL    HW213038   0.990   1.789   2.958
 4047SOL     OW13039   2.615   3.676   0.809
 4047SOL    HW113040   2.636   3.673   0.907
 4047SOL    HW213041   2.553   3.601   0.786
 4048SOL     OW13042   5.661   0.940   1.736
 4048SOL    HW113043   5.718   0.908   1.812
 4048SOL    HW213044   5.683   1.035   1.715
 4049SOL     OW13045   6.690   6.473   6.813
 4049SOL    HW113046   6.696   6.376   6.834
 4049SOL    HW213047   6.781   6.508   6.790
 4050SOL     OW13048   1.752   6.575   6.738
 4050SOL    HW113049   1.811   6.649   6.706
 4050SOL    HW213050   1.784   6.488   6.701
 4051SOL     OW13051   2.723   3.955   0.297
 4051SOL    HW113052   2.807   4.001   0.327
 4051SOL    HW213053   2.675   3.916   0.376
 4052SOL     OW13054   1.389   0.086   1.031
 4052SOL    HW113055   1.422   0.181   1.034
 4052SOL    HW213056   1.336   0.068   1.114
 4053SOL     OW13057   3.136   5.024   4.000
 4053SOL    HW113058   3.222   5.027   4.052
 4053SOL    HW213059   3.092   4.935   4.012
 4054SOL     OW13060   2.989   3.110   0.713
 4054SOL    HW113061   2.976   3.089   0.616
 4054SOL    HW213062   2.985   3.026   0.767
 4055SOL     OW13063   2.524   3.261   6.100
 4055SOL    HW113064   2.612   3.259   6.146
 4055SOL    HW213065   2.495   3.167   6.079
 4056SOL     OW13066   4.559   3.177   6.761
 4056SOL    HW113067   4.588   3.146   6.851
 4056SOL    HW213068   4.512   3.265   6.769
 4057SOL     OW13069   5.607   3.343   0.916
 4057SOL    HW113070   5.512   3.362   0.891
 4057SOL    HW213071   5.662   3.425   0.900
 4058SOL     OW13072   2.216   1.284   4.754
 4058SOL    HW113073   2.130   1.334   4.749
 4058SOL    HW213074   2.290   1.346   4.777
 4059SOL     OW13075   2.224   2.106   3.499
 4059SOL    HW113076   2.188   2.152   3.418
 4059SOL    HW213077   2.183   2.015   3.507
 4060SOL     OW13078   3.689   5.081   4.751
 4060SOL    HW113079   3.617   5.150   4.758
 4060SOL    HW213080   3.706   5.041   4.841
 4061SOL     OW13081   3.371   4.524   1.634
 4061SOL    HW113082   3.359   4.424   1.634
 4061SOL    HW213083   3.431   4.550   1.709
 4062SOL     OW13084   4.430   1.298   3.309
 4062SOL    HW113085   4.358   1.279   3.242
 4062SOL    HW213086   4.519   1.287   3.266
 4063SOL     OW13087   4.315   6.333   6.233
 4063SOL    HW113088   4.291   6.273   6.157
 4063SOL    HW213089   4.341   6.423   6.199
 4064SOL     OW13090   2.449   6.868   2.544
 4064SOL    HW113091   2.393   6.944   2.511
 4064SOL    HW213092   2.398   6.782   2.534
 4065SOL     OW13093   0.585   7.021   0.574
 4065SOL    HW113094   0.559   6.925   0.575
 4065SOL    HW213095   0.617   0.022   0.664
 4066SOL     OW13096   5.603   4.915   1.665
 4066SOL    HW113097   5.686   4.862   1.683
 4066SOL    HW213098   5.587   4.978   1.740
 4067SOL     OW13099   5.311   1.851   3.275
 4067SOL    HW113100   5.257   1.935   3.276
 4067SOL    HW213101   5.301   1.805   3.187
 4068SOL     OW13102   4.630   0.324   5.132
 4068SOL    HW113103   4.687   0.377   5.195
 4068SOL    HW213104   4.689   0.265   5.076
 4069SOL     OW13105   4.643   4.233   0.780
 4069SOL    HW113106   4.690   4.158   0.734
 4069SOL    HW213107   4.549   4.240   0.746
 4070SOL     OW13108   1.553   3.337   2.543
 4070SOL    HW113109   1.538   3.362   2.448
 4070SOL    HW213110   1.573   3.239   2.549
 4071SOL     OW13111   1.381   0.694   5.300
 4071SOL    HW113112   1.403   0.625   5.231
 4071SOL    HW213113   1.348   0.650   5.383
 4072SOL     OW13114   1.787   6.692   4.369
 4072SOL    HW113115   1.881   6.724   4.369
 4072SOL    HW213116   1.740   6.727   4.450
 4073SOL     OW13117   1.782   5.773   5.634
 4073SOL    HW113118   1.770   5.674   5.626
 4073SOL    HW213119   1.838   5.805   5.557
 4074SOL     OW13120   0.132   2.873   1.919
 4074SOL    HW113121   0.113   2.938   1.992
 4074SOL    HW213122   0.216   2.822   1.940
 4075SOL     OW13123   4.585   2.031   2.344
 4075SOL    HW113124   4.583   2.108   2.280
 4075SOL    HW213125   4.645   1.960   2.308
 4076SOL     OW13126   2.362   4.238   5.271
 4076SOL    HW113127   2.445   4.293   5.268
 4076SOL    HW213128   2.378   4.150   5.228
 4077SOL     OW13129   2.903   6.777   0.650
 4077SOL    HW113130   2.848   6.851   0.689
 4077SOL    HW213131   2.995   6.780   0.689
 4078SOL     OW13132   6.399   4.879   1.935
 4078SOL    HW113133   6.301   4.861   1.940
 4078SOL    HW213134   6.420   4.966   1.979
 4079SOL     OW13135   1.325   0.468   3.338
 4079SOL    HW113136   1.375   0.502   3.259
 4079SOL    HW213137   1.228   0.489   3.329
 4080SOL     OW13138   2.963   4.058   0.420
 4080SOL    HW113139   2.940   4.117   0.497
 4080SOL    HW213140   3.011   3.977   0.454
 4081SOL     OW13141   2.421   0.790   5.185
 4081SOL    HW113142   2.336   0.828   5.150
 4081SOL    HW213143   2.451   0.714   5.127
 4082SOL     OW13144   1.013   2.006   6.093
 4082SOL    HW113145   1.058   1.919   6.116
 4082SOL    HW213146   0.919   1.988   6.062
 4083SOL     OW13147   6.013   4.587   3.106
 4083SOL    HW113148   5.944   4.571   3.176
 4083SOL    HW213149   6.082   4.650   3.141
 4084SOL     OW13150   4.893   3.003   3.197
 4084SOL    HW113151   4.887   2.904   3.210
 4084SOL    HW213152   4.895   3.048   3.287
 4085SOL     OW13153   2.470   5.610   1.173
 4085SOL    HW113154   2.559   5.594   1.217
 4085SOL    HW213155   2.423   5.523   1.161
 4086SOL     OW13156   0.109   5.192   6.972
 4086SOL    HW113157   0.151   5.185   6.882
 4086SOL    HW213158   0.133   5.281   7.013
 4087SOL     OW13159   3.301   0.343   2.914
 4087SOL    HW113160   3.228   0.410   2.901
 4087SOL    HW213161   3.388   0.390   2.925
 4088SOL     OW13162   6.251   1.041   5.781
 4088SOL    HW113163   6.216   1.133   5.765
 4088SOL    HW213164   6.350   1.046   5.800
 4089SOL     OW13165   6.836   5.654   4.407
 4089SOL    HW113166   6.868   5.615   4.320
 4089SOL    HW213167   6.850   5.588   4.480
 4090SOL     OW13168   2.144   6.868   5.009
 4090SOL    HW113169   2.082   6.945   5.002
 4090SOL    HW213170   2.103   6.787   4.967
 4091SOL     OW13171   0.922   5.016   0.885
 4091SOL    HW113172   0.856   5.089   0.865
 4091SOL    HW213173   1.011   5.040   0.846
 4092SOL     OW13174   4.830   3.066   4.806
 4092SOL    HW113175   4.805   2.970   4.802
 4092SOL    HW213176   4.845   3.101   4.714
 4093SOL     OW13177   6.256   5.562   1.740
 4093SOL    HW113178   6.169   5.542   1.784
 4093SOL    HW213179   6.320   5.487   1.756
 4094SOL     OW13180   0.428   4.617   6.695
 4094SOL    HW113181   0.411   4.667   6.611
 4094SOL    HW213182   0.502   4.661   6.746
 4095SOL     OW13183   0.373   3.381   0.022
 4095SOL    HW113184   0.353   3.422   6.959
 4095SOL    HW213185   0.447   3.433   0.065
 4096SOL     OW13186   2.348   1.247   6.603
 4096SOL    HW113187   2.266   1.277   6.556
 4096SOL    HW213188   2.401   1.327   6.632
 4097SOL     OW13189   6.174   4.335   5.244
 4097SOL    HW113190   6.151   4.255   5.298
 4097SOL    HW213191   6.093   4.391   5.231
 4098SOL     OW13192   1.991   3.287   1.595
 4098SOL    HW113193   2.084   3.267   1.628
 4098SOL    HW213194   1.996   3.350   1.518
 4099SOL     OW13195   4.333   5.067   0.048
 4099SOL    HW113196   4.328   5.154   7.024
 4099SOL    HW213197   4.318   5.084   0.146
 4100SOL     OW13198   0.955   1.085   3.648
 4100SOL    HW113199   0.983   0.994   3.677
 4100SOL    HW213200   0.904   1.129   3.722
 4101SOL     OW13201   6.513   0.582   6.310
 4101SOL    HW113202   6.444   0.653   6.324
 4101SOL    HW213203   6.603   0.618   6.336
 4102SOL     OW13204   2.067   0.769   0.365
 4102SOL    HW113205   2.149   0.714   0.377
 4102SOL    HW213206   2.094   0.866   0.356
 4103SOL     OW13207   7.003   6.813   2.189
 4103SOL    HW113208   6.987   6.718   2.163
 4103SOL    HW213209   6.974   6.873   2.115
 4104SOL     OW13210   0.079   5.594   2.745
 4104SOL    HW113211   0.168   5.639   2.752
 4104SOL    HW213212   0.080   5.509   2.797
 4105SOL     OW13213   4.756   1.241   1.536
 4105SOL    HW113214   4.822   1.307   1.500
 4105SOL    HW213215   4.804   1.156   1.559
 4106SOL     OW13216   6.922   2.281   4.306
 4106SOL    HW113217   6.840   2.307   4.357
 4106SOL    HW213218   6.898   2.217   4.234
 4107SOL     OW13219   0.284   6.294   6.577
 4107SOL    HW113220   0.217   6.289   6.503
 4107SOL    HW213221   0.247   6.250   6.659
 4108SOL     OW13222   0.581   5.644   3.651
 4108SOL    HW113223   0.530   5.558   3.642
 4108SOL    HW213224   0.529   5.708   3.708
 4109SOL     OW13225   6.091   5.410   3.782
 4109SOL    HW113226   6.093   5.479   3.854
 4109SOL    HW213227   6.152   5.439   3.707
 4110SOL     OW13228   4.651   2.875   6.896
 4110SOL    HW113229   4.654   2.868   6.797
 4110SOL    HW213230   4.632   2.785   6.936
 4111SOL     OW13231   6.202   5.462   6.505
 4111SOL    HW113232   6.279   5.403   6.528
 4111SOL    HW213233   6.121   5.434   6.557
 4112SOL     OW13234   4.845   6.506   4.825
 4112SOL    HW113235   4.902   6.425   4.812
 4112SOL    HW213236   4.895   6.587   4.794
 4113SOL     OW13237   3.998   5.110   4.896
 4113SOL    HW113238   4.043   5.181   4.841
 4113SOL    HW213239   3.925   5.152   4.951
 4114SOL     OW13240   6.316   1.685   3.560
 4114SOL    HW113241   6.356   1.638   3.638
 4114SOL    HW213242   6.327   1.783   3.570
 4115SOL     OW13243   2.893   4.771   3.327
 4115SOL    HW113244   2.807   4.724   3.346
 4115SOL    HW213245   2.905   4.846   3.393
 4116SOL     OW13246   5.421   2.103   3.057
 4116SOL    HW113247   5.457   2.188   3.096
 4116SOL    HW213248   5.360   2.059   3.123
 4117SOL     OW13249   1.456   2.129   2.465
 4117SOL    HW113250   1.448   2.226   2.489
 4117SOL    HW213251   1.551   2.108   2.443
 4118SOL     OW13252   6.103   6.384   6.664
 4118SOL    HW113253   6.199   6.409   6.674
 4118SOL    HW213254   6.096   6.295   6.620
 4119SOL     OW13255   2.737   0.693   3.622
 4119SOL    HW113256   2.827   0.723   3.589
 4119SOL    HW213257   2.733   0.593   3.620
 4120SOL     OW13258   3.630   1.377   6.396
 4120SOL    HW113259   3.697   1.302   6.402
 4120SOL    HW213260   3.617   1.402   6.300
 4121SOL     OW13261   6.901   6.169   2.210
 4121SOL    HW113262   6.939   6.081   2.182
 4121SOL    HW213263   6.821   6.191   2.154
 4122SOL     OW13264   0.319   5.662   4.766
 4122SOL    HW113265   0.228   5.654   4.725
 4122SOL    HW213266   0.367   5.740   4.725
 4123SOL     OW13267   3.820   5.398   4.683
 4123SOL    HW113268   3.914   5.377   4.710
 4123SOL    HW213269   3.800   5.352   4.597
 4124SOL     OW13270   6.423   6.413   1.260
 4124SOL    HW113271   6.451   6.508   1.248
 4124SOL    HW213272   6.338   6.396   1.210
 4125SOL     OW13273   5.015   2.584   2.971
 4125SOL    HW113274   5.109   2.567   2.942
 4125SOL    HW213275   4.957   2.508   2.942
 4126SOL     OW13276   1.538   3.083   2.254
 4126SOL    HW113277   1.478   3.161   2.233
 4126SOL    HW213278   1.486   3.014   2.303
 4127SOL     OW13279   4.152   2.012   4.174
 4127SOL    HW113280   4.137   1.918   4.204
 4127SOL    HW213281   4.139   2.075   4.251
 4128SOL     OW13282   0.525   3.140   1.898
 4128SOL    HW113283   0.555   3.093   1.981
 4128SOL    HW213284   0.538   3.081   1.819
 4129SOL     OW13285   3.305   2.502   0.740
 4129SOL    HW113286   3.238   2.464   0.803
 4129SOL    HW213287   3.265   2.509   0.649
 4130SOL     OW13288   6.209   2.795   0.687
 4130SOL    HW113289   6.130   2.827   0.634
 4130SOL    HW213290   6.289   2.789   0.627
 4131SOL     OW13291   5.914   0.711   2.676
 4131SOL    HW113292   5.875   0.799   2.705
 4131SOL    HW213293   5.975   0.677   2.747
 4132SOL     OW13294   5.986   4.415   4.071
 4132SOL    HW113295   5.925   4.416   4.150
 4132SOL    HW213296   5.990   4.322   4.033
 4133SOL     OW13297   5.315   6.320   1.135
 4133SOL    HW113298   5.399   6.278   1.102
 4133SOL    HW213299   5.258   6.347   1.057
 4134SOL     OW13300   2.166   3.527   1.109
 4134SOL    HW113301   2.088   3.552   1.052
 4134SOL    HW213302   2.144   3.446   1.163
 4135SOL     OW13303   0.589   1.835   2.366
 4135SOL    HW113304   0.574   1.736   2.363
 4135SOL    HW213305   0.501   1.882   2.354
 4136SOL     OW13306   0.856   3.583   1.467
 4136SOL    HW113307   0.872   3.675   1.429
 4136SOL    HW213308   0.780   3.586   1.531
 4137SOL     OW13309   1.630   2.845   6.957
 4137SOL    HW113310   1.554   2.807   6.904
 4137SOL    HW213311   1.631   2.944   6.947
 4138SOL     OW13312   3.839   5.104   1.162
 4138SOL    HW113313   3.876   5.026   1.111
 4138SOL    HW213314   3.912   5.150   1.211
 4139SOL     OW13315   1.412   2.282   3.780
 4139SOL    HW113316   1.420   2.298   3.681
 4139SOL    HW213317   1.340   2.340   3.817
 4140SOL     OW13318   3.160   2.107   3.729
 4140SOL    HW113319   3.142   2.179   3.795
 4140SOL    HW213320   3.113   2.024   3.756
 4141SOL     OW13321   4.858   6.961   6.500
 4141SOL    HW113322   4.920   6.887   6.472
 4141SOL    HW213323   4.900   7.013   6.575
 4142SOL     OW13324   6.837   3.696   1.833
 4142SOL    HW113325   6.845   3.781   1.885
 4142SOL    HW213326   6.820   3.718   1.737
 4143SOL     OW13327   5.781   3.152   0.713
 4143SOL    HW113328   5.846   3.087   0.674
 4143SOL    HW213329   5.803   3.168   0.809
 4144SOL     OW13330   5.410   1.542   0.851
 4144SOL    HW113331   5.416   1.442   0.848
 4144SOL    HW213332   5.502   1.581   0.841
 4145SOL     OW13333   1.149   6.142   0.519
 4145SOL    HW113334   1.189   6.205   0.453
 4145SOL    HW213335   1.049   6.145   0.510
 4146SOL     OW13336   6.085   6.711   4.125
 4146SOL    HW113337   6.002   6.765   4.111
 4146SOL    HW213338   6.165   6.771   4.121
 4147SOL     OW13339   5.756   4.491   6.154
 4147SOL    HW113340   5.749   4.585   6.120
 4147SOL    HW213341   5.714   4.485   6.244
 4148SOL     OW13342   3.072   7.021   5.578
 4148SOL    HW113343   3.007   7.018   5.501
 4148SOL    HW213344   3.143   6.952   5.564
 4149SOL     OW13345   1.058   2.677   0.873
 4149SOL    HW113346   1.028   2.610   0.804
 4149SOL    HW213347   1.152   2.704   0.855
 4150SOL     OW13348   6.538   2.823   5.520
 4150SOL    HW113349   6.528   2.889   5.595
 4150SOL    HW213350   6.475   2.746   5.535
 4151SOL     OW13351   2.132   0.217   4.978
 4151SOL    HW113352   2.215   0.236   4.925
 4151SOL    HW213353   2.057   0.193   4.916
 4152SOL     OW13354   3.779   5.508   1.675
 4152SOL    HW113355   3.869   5.503   1.632
 4152SOL    HW213356   3.709   5.478   1.610
 4153SOL     OW13357   6.684   5.064   1.100
 4153SOL    HW113358   6.641   4.980   1.134
 4153SOL    HW213359   6.623   5.109   1.036
 4154SOL     OW13360   0.061   5.849   3.079
 4154SOL    HW113361   0.087   5.802   3.163
 4154SOL    HW213362   7.005   5.905   3.095
 4155SOL     OW13363   6.616   2.088   1.407
 4155SOL    HW113364   6.565   2.170   1.431
 4155SOL    HW213365   6.641   2.039   1.490
 4156SOL     OW13366   6.326   5.304   4.982
 4156SOL    HW113367   6.240   5.258   4.959
 4156SOL    HW213368   6.388   5.239   5.027
 4157SOL     OW13369   6.296   5.962   2.333
 4157SOL    HW113370   6.231   5.960   2.409
 4157SOL    HW213371   6.383   5.999   2.364
 4158SOL     OW13372   1.776   2.829   1.424
 4158SOL    HW113373   1.864   2.812   1.467
 4158SOL    HW213374   1.707   2.845   1.495
 4159SOL     OW13375   2.994   1.946   2.922
 4159SOL    HW113376   2.933   1.872   2.953
 4159SOL    HW213377   2.962   2.033   2.959
 4160SOL     OW13378   6.081   0.097   6.747
 4160SOL    HW113379   6.179   0.112   6.733
 4160SOL    HW213380   6.051   0.143   6.830
 4161SOL     OW13381   2.132   2.158   1.553
 4161SOL    HW113382   2.095   2.069   1.582
 4161SOL    HW213383   2.176   2.202   1.631
 4162SOL     OW13384   6.232   5.796   0.892
 4162SOL    HW113385   6.208   5.832   0.983
 4162SOL    HW213386   6.270   5.704   0.902
 4163SOL     OW13387   5.530   1.157   2.791
 4163SOL    HW113388   5.448   1.104   2.812
 4163SOL    HW213389   5.534   1.174   2.692
 4164SOL     OW13390   0.136   6.785   5.675
 4164SOL    HW113391   0.227   6.814   5.702
 4164SOL    HW213392   0.097   6.726   5.746
 4165SOL     OW13393   4.469   0.222   5.626
 4165SOL    HW113394   4.384   0.253   5.668
 4165SOL    HW213395   4.449   0.176   5.540
 4166SOL     OW13396   6.476   0.621   1.344
 4166SOL    HW113397   6.402   0.673   1.302
 4166SOL    HW213398   6.476   0.528   1.308
 4167SOL     OW13399   2.434   4.861   5.838
 4167SOL    HW113400   2.387   4.856   5.750
 4167SOL    HW213401   2.504   4.932   5.835
 4168SOL     OW13402   0.281   4.282   0.375
 4168SOL    HW113403   0.324   4.349   0.315
 4168SOL    HW213404   0.281   4.317   0.469
 4169SOL     OW13405   6.272   3.986   4.980
 4169SOL    HW113406   6.365   3.948   4.979
 4169SOL    HW213407   6.272   4.073   4.930
 4170SOL     OW13408   4.954   3.021   5.046
 4170SOL    HW113409   4.926   3.052   4.955
 4170SOL    HW213410   4.987   3.099   5.099
 4171SOL     OW13411   1.343   4.865   1.114
 4171SOL    HW113412   1.358   4.883   1.016
 4171SOL    HW213413   1.284   4.936   1.152
 4172SOL     OW13414   2.879   2.792   0.796
 4172SOL    HW113415   2.787   2.809   0.830
 4172SOL    HW213416   2.945   2.840   0.853
 4173SOL     OW13417   4.608   2.753   5.676
 4173SOL    HW113418   4.581   2.678   5.616
 4173SOL    HW213419   4.545   2.829   5.664
 4174SOL     OW13420   4.724   1.442   2.912
 4174SOL    HW113421   4.705   1.390   2.996
 4174SOL    HW213422   4.768   1.528   2.936
 4175SOL     OW13423   1.419   4.615   5.417
 4175SOL    HW113424   1.429   4.539   5.353
 4175SOL    HW213425   1.449   4.586   5.508
 4176SOL     OW13426   4.578   6.625   0.890
 4176SOL    HW113427   4.668   6.660   0.918
 4176SOL    HW213428   4.527   6.595   0.970
 4177SOL     OW13429   5.359   4.866   4.543
 4177SOL    HW113430   5.432   4.803   4.518
 4177SOL    HW213431   5.313   4.833   4.626
 4178SOL     OW13432   4.635   0.096   2.924
 4178SOL    HW113433   4.707   0.136   2.867
 4178SOL    HW213434   4.621   0.001   2.899
 4179SOL     OW13435   5.926   4.327   3.575
 4179SOL    HW113436   5.939   4.425   3.560
 4179SOL    HW213437   5.830   4.304   3.563
 4180SOL     OW13438   5.105   3.199   0.970
 4180SOL    HW113439   5.015   3.231   0.999
 4180SOL    HW213440   5.116   3.103   0.996
 4181SOL     OW13441   5.470   1.188   6.531
 4181SOL    HW113442   5.433   1.219   6.619
 4181SOL    HW213443   5.436   1.248   6.458
 4182SOL     OW13444   0.234   5.527   3.665
 4182SOL    HW113445   0.240   5.595   3.592
 4182SOL    HW213446   0.303   5.456   3.649
 4183SOL     OW13447   2.884   0.570   0.626
 4183SOL    HW113448   2.895   0.518   0.711
 4183SOL    HW213449   2.791   0.607   0.622
 4184SOL     OW13450   3.908   0.208   2.245
 4184SOL    HW113451   3.879   0.134   2.185
 4184SOL    HW213452   3.845   0.285   2.237
 4185SOL     OW13453   0.482   4.086   2.778
 4185SOL    HW113454   0.486   4.186   2.784
 4185SOL    HW213455   0.564   4.052   2.733
 4186SOL     OW13456   2.882   5.885   6.099
 4186SOL    HW113457   2.803   5.831   6.127
 4186SOL    HW213458   2.934   5.914   6.180
 4187SOL     OW13459   2.805   3.486   0.156
 4187SOL    HW113460   2.886   3.475   0.097
 4187SOL    HW213461   2.834   3.491   0.251
 4188SOL     OW13462   5.337   0.635   5.276
 4188SOL    HW113463   5.267   0.586   5.224
 4188SOL    HW213464   5.355   0.723   5.233
 4189SOL     OW13465   3.503   5.034   3.920
 4189SOL    HW113466   3.449   5.072   3.845
 4189SOL    HW213467   3.516   5.103   3.991
 4190SOL     OW13468   0.599   6.610   0.780
 4190SOL    HW113469   0.647   6.528   0.811
 4190SOL    HW213470   0.650   6.652   0.704
 4191SOL     OW13471   5.414   3.755   5.569
 4191SOL    HW113472   5.354   3.747   5.490
 4191SOL    HW213473   5.509   3.736   5.542
 4192SOL     OW13474   1.637   1.448   1.798
 4192SOL    HW113475   1.551   1.417   1.759
 4192SOL    HW213476   1.645   1.547   1.786
 4193SOL     OW13477   5.460   0.829   0.392
 4193SOL    HW113478   5.434   0.908   0.447
 4193SOL    HW213479   5.474   0.750   0.452
 4194SOL     OW13480   5.026   0.321   4.428
 4194SOL    HW113481   4.993   0.401   4.378
 4194SOL    HW213482   4.948   0.264   4.454
 4195SOL     OW13483   4.032   5.276   1.414
 4195SOL    HW113484   4.103   5.266   1.344
 4195SOL    HW213485   4.025   5.371   1.441
 4196SOL     OW13486   0.152   2.260   2.701
 4196SOL    HW113487   0.233   2.313   2.728
 4196SOL    HW213488   0.088   2.255   2.778
 4197SOL     OW13489   4.212   4.948   5.692
 4197SOL    HW113490   4.214   4.856   5.652
 4197SOL    HW213491   4.286   4.957   5.758
 4198SOL     OW13492   6.989   1.235   1.688
 4198SOL    HW113493   7.016   1.288   1.768
 4198SOL    HW213494   6.991   1.137   1.711
 4199SOL     OW13495   1.234   2.194   5.557
 4199SOL    HW113496   1.249   2.111   5.504
 4199SOL    HW213497   1.136   2.207   5.571
 4200SOL     OW13498   2.922   0.599   5.775
 4200SOL    HW113499   2.966   0.652   5.847
 4200SOL    HW213500   2.968   0.616   5.688
 4201SOL     OW13501   6.104   0.123   3.224
 4201SOL    HW113502   6.137   0.034   3.193
 4201SOL    HW213503   6.143   0.144   3.314
 4202SOL     OW13504   2.760   5.283   6.801
 4202SOL    HW113505   2.674   5.246   6.766
 4202SOL    HW213506   2.826   5.208   6.814
 4203SOL     OW13507   5.260   4.183   0.754
 4203SOL    HW113508   5.176   4.225   0.790
 4203SOL    HW213509   5.245   4.086   0.740
 4204SOL     OW13510   3.910   3.592   5.373
 4204SOL    HW113511   3.968   3.654   5.320
 4204SOL    HW213512   3.854   3.537   5.310
 4205SOL     OW13513   4.146   6.091   5.138
 4205SOL    HW113514   4.058   6.127   5.170
 4205SOL    HW213515   4.183   6.029   5.206
 4206SOL     OW13516   6.582   1.866   5.010
 4206SOL    HW113517   6.649   1.811   5.059
 4206SOL    HW213518   6.583   1.841   4.913
 4207SOL     OW13519   2.053   2.973   1.732
 4207SOL    HW113520   2.114   3.046   1.765
 4207SOL    HW213521   2.033   2.988   1.635
 4208SOL     OW13522   0.260   3.697   5.740
 4208SOL    HW113523   0.309   3.619   5.779
 4208SOL    HW213524   0.197   3.734   5.807
 4209SOL     OW13525   0.182   6.472   3.088
 4209SOL    HW113526   0.103   6.487   3.147
 4209SOL    HW213527   0.264   6.463   3.144
 4210SOL     OW13528   4.136   3.329   2.987
 4210SOL    HW113529   4.096   3.245   3.022
 4210SOL    HW213530   4.155   3.391   3.063
 4211SOL     OW13531   3.284   1.058   5.239
 4211SOL    HW113532   3.234   1.114   5.305
 4211SOL    HW213533   3.313   1.114   5.162
 4212SOL     OW13534   6.809   2.066   3.614
 4212SOL    HW113535   6.738   2.090   3.547
 4212SOL    HW213536   6.832   1.969   3.604
 4213SOL     OW13537   3.060   0.304   2.660
 4213SOL    HW113538   3.154   0.337   2.669
 4213SOL    HW213539   3.009   0.329   2.742
 4214SOL     OW13540   0.660   5.901   5.145
 4214SOL    HW113541   0.633   5.847   5.066
 4214SOL    HW213542   0.704   5.842   5.213
 4215SOL     OW13543   4.796   6.902   5.042
 4215SOL    HW113544   4.780   6.983   4.986
 4215SOL    HW213545   4.709   6.855   5.058
 4216SOL     OW13546   1.211   0.936   2.255
 4216SOL    HW113547   1.248   1.007   2.196
 4216SOL    HW213548   1.287   0.883   2.295
 4217SOL     OW13549   1.407   0.788   2.578
 4217SOL    HW113550   1.419   0.695   2.614
 4217SOL    HW213551   1.442   0.793   2.485
 4218SOL     OW13552   3.340   0.232   1.458
 4218SOL    HW113553   3.352   0.323   1.497
 4218SOL    HW213554   3.420   0.208   1.403
 4219SOL     OW13555   4.318   5.817   4.530
 4219SOL    HW113556   4.372   5.743   4.571
 4219SOL    HW213557   4.331   5.901   4.584
 4220SOL     OW13558   6.021   3.489   2.004
 4220SOL    HW113559   5.954   3.562   2.020
 4220SOL    HW213560   6.110   3.518   2.039
 4221SOL     OW13561   6.277   4.638   5.733
 4221SOL    HW113562   6.295   4.736   5.731
 4221SOL    HW213563   6.245   4.612   5.824
 4222SOL     OW13564   6.453   0.828   3.224
 4222SOL    HW113565   6.419   0.898   3.287
 4222SOL    HW213566   6.445   0.861   3.130
 4223SOL     OW13567   4.108   3.701   0.856
 4223SOL    HW113568   4.134   3.777   0.797
 4223SOL    HW213569   4.026   3.726   0.908
 4224SOL     OW13570   5.461   5.289   4.681
 4224SOL    HW113571   5.379   5.232   4.683
 4224SOL    HW213572   5.467   5.336   4.592
 4225SOL     OW13573   2.005   2.343   4.813
 4225SOL    HW113574   2.048   2.411   4.874
 4225SOL    HW213575   2.005   2.254   4.858
 4226SOL     OW13576   0.846   5.894   2.917
 4226SOL    HW113577   0.935   5.913   2.958
 4226SOL    HW213578   0.787   5.975   2.926
 4227SOL     OW13579   4.189   5.826   1.583
 4227SOL    HW113580   4.252   5.780   1.520
 4227SOL    HW213581   4.174   5.767   1.662
 4228SOL     OW13582   0.357   6.356   5.707
 4228SOL    HW113583   0.394   6.427   5.648
 4228SOL    HW213584   0.297   6.396   5.776
 4229SOL     OW13585   5.043   5.820   5.696
 4229SOL    HW113586   5.076   5.837   5.789
 4229SOL    HW213587   4.989   5.735   5.695
 4230SOL     OW13588   1.917   6.665   3.115
 4230SOL    HW113589   1.928   6.582   3.060
 4230SOL    HW213590   1.978   6.661   3.194
 4231SOL     OW13591   5.239   6.832   6.002
 4231SOL    HW113592   5.266   6.904   5.939
 4231SOL    HW213593   5.315   6.768   6.015
 4232SOL     OW13594   1.479   4.221   3.739
 4232SOL    HW113595   1.456   4.313   3.706
 4232SOL    HW213596   1.506   4.164   3.661
 4233SOL     OW13597   6.836   0.741   5.481
 4233SOL    HW113598   6.803   0.751   5.387
 4233SOL    HW213599   6.766   0.697   5.537
 4234SOL     OW13600   2.146   5.136   5.346
 4234SOL    HW113601   2.214   5.109   5.278
 4234SOL    HW213602   2.163   5.087   5.432
 4235SOL     OW13603   6.830   4.369   5.927
 4235SOL    HW113604   6.911   4.337   5.976
 4235SOL    HW213605   6.853   4.452   5.876
 4236SOL     OW13606   6.597   4.670   2.059
 4236SOL    HW113607   6.508   4.703   2.028
 4236SOL    HW213608   6.597   4.570   2.060
 4237SOL     OW13609   6.502   4.951   3.812
 4237SOL    HW113610   6.503   4.940   3.713
 4237SOL    HW213611   6.584   4.908   3.851
 4238SOL     OW13612   1.372   6.763   2.825
 4238SOL    HW113613   1.353   6.854   2.789
 4238SOL    HW213614   1.414   6.771   2.916
 4239SOL     OW13615   5.028   1.493   3.129
 4239SOL    HW113616   5.058   1.565   3.193
 4239SOL    HW213617   5.012   1.534   3.039
 4240SOL     OW13618   2.022   5.599   0.499
 4240SOL    HW113619   1.985   5.648   0.420
 4240SOL    HW213620   1.961   5.524   0.524
 4241SOL     OW13621   5.848   1.119   0.708
 4241SOL    HW113622   5.895   1.174   0.777
 4241SOL    HW213623   5.756   1.155   0.694
 4242SOL     OW13624   3.170   2.129   4.053
 4242SOL    HW113625   3.233   2.062   4.015
 4242SOL    HW213626   3.171   2.123   4.153
 4243SOL     OW13627   5.778   2.266   3.344
 4243SOL    HW113628   5.819   2.357   3.346
 4243SOL    HW213629   5.756   2.237   3.437
 4244SOL     OW13630   4.240   4.380   1.381
 4244SOL    HW113631   4.239   4.475   1.349
 4244SOL    HW213632   4.332   4.342   1.367
 4245SOL     OW13633   6.345   2.004   6.246
 4245SOL    HW113634   6.354   2.081   6.309
 4245SOL    HW213635   6.258   1.958   6.262
 4246SOL     OW13636   6.457   4.033   2.911
 4246SOL    HW113637   6.550   4.036   2.947
 4246SOL    HW213638   6.414   4.122   2.921
 4247SOL     OW13639   2.331   6.410   3.736
 4247SOL    HW113640   2.288   6.334   3.785
 4247SOL    HW213641   2.427   6.418   3.765
 4248SOL     OW13642   3.123   1.596   4.307
 4248SOL    HW113643   3.181   1.676   4.310
 4248SOL    HW213644   3.036   1.620   4.263
 4249SOL     OW13645   6.604   2.930   5.197
 4249SOL    HW113646   6.618   2.969   5.106
 4249SOL    HW213647   6.674   2.861   5.214
 4250SOL     OW13648   0.096   4.462   2.791
 4250SOL    HW113649   7.025   4.469   2.766
 4250SOL    HW213650   0.104   4.423   2.883
 4251SOL     OW13651   5.796   4.664   0.887
 4251SOL    HW113652   5.733   4.588   0.902
 4251SOL    HW213653   5.887   4.629   0.868
 4252SOL     OW13654   5.914   6.650   5.226
 4252SOL    HW113655   5.874   6.665   5.316
 4252SOL    HW213656   5.897   6.730   5.168
 4253SOL     OW13657   3.266   6.412   1.004
 4253SOL    HW113658   3.257   6.510   1.016
 4253SOL    HW213659   3.222   6.384   0.919
 4254SOL     OW13660   0.954   2.759   2.329
 4254SOL    HW113661   0.998   2.764   2.240
 4254SOL    HW213662   0.993   2.684   2.382
 4255SOL     OW13663   5.604   3.459   3.626
 4255SOL    HW113664   5.632   3.554   3.611
 4255SOL    HW213665   5.675   3.410   3.677
 4256SOL     OW13666   1.430   6.878   0.892
 4256SOL    HW113667   1.372   6.801   0.917
 4256SOL    HW213668   1.411   6.956   0.953
 4257SOL     OW13669   3.215   0.419   4.435
 4257SOL    HW113670   3.250   0.327   4.449
 4257SOL    HW213671   3.269   0.465   4.364
 4258SOL     OW13672   5.815   6.446   1.236
 4258SOL    HW113673   5.888   6.486   1.292
 4258SOL    HW213674   5.776   6.368   1.285
 4259SOL     OW13675   2.854   1.180   0.177
 4259SOL    HW113676   2.896   1.107   0.230
 4259SOL    HW213677   2.856   1.156   0.080
 4260SOL     OW13678   4.845   0.015   6.024
 4260SOL    HW113679   4.906   0.082   6.066
 4260SOL    HW213680   4.827   0.042   5.930
 4261SOL     OW13681   2.254   0.282   2.263
 4261SOL    HW113682   2.199   0.316   2.187
 4261SOL    HW213683   2.210   0.306   2.349
 4262SOL     OW13684   0.301   4.358   5.845
 4262SOL    HW113685   0.303   4.262   5.817
 4262SOL    HW213686   0.390   4.401   5.827
 4263SOL     OW13687   3.268   6.581   3.403
 4263SOL    HW113688   3.192   6.516   3.409
 4263SOL    HW213689   3.292   6.596   3.308
 4264SOL     OW13690   7.011   1.959   2.653
 4264SOL    HW113691   6.965   1.971   2.565
 4264SOL    HW213692   0.047   2.036   2.669
 4265SOL     OW13693   5.670   1.333   0.695
 4265SOL    HW113694   5.685   1.428   0.722
 4265SOL    HW213695   5.592   1.295   0.745
 4266SOL     OW13696   1.830   5.328   0.299
 4266SOL    HW113697   1.828   5.254   0.366
 4266SOL    HW213698   1.748   5.384   0.308
 4267SOL     OW13699   1.726   3.329   5.202
 4267SOL    HW113700   1.732   3.325   5.102
 4267SOL    HW213701   1.639   3.371   5.228
 4268SOL     OW13702   1.268   6.588   6.249
 4268SOL    HW113703   1.179   6.626   6.275
 4268SOL    HW213704   1.261   6.488   6.245
 4269SOL     OW13705   2.142   0.893   1.447
 4269SOL    HW113706   2.147   0.854   1.539
 4269SOL    HW213707   2.055   0.940   1.436
 4270SOL     OW13708   3.100   3.036   4.745
 4270SOL    HW113709   3.026   2.977   4.776
 4270SOL    HW213710   3.183   2.982   4.732
 4271SOL     OW13711   0.431   0.315   6.805
 4271SOL    HW113712   0.377   0.398   6.818
 4271SOL    HW213713   0.371   0.235   6.814
 4272SOL     OW13714   0.710   3.740   5.084
 4272SOL    HW113715   0.690   3.733   4.986
 4272SOL    HW213716   0.650   3.809   5.125
 4273SOL     OW13717   4.788   6.156   4.997
 4273SOL    HW113718   4.878   6.200   5.002
 4273SOL    HW213719   4.795   6.074   4.940
 4274SOL     OW13720   2.110   6.860   2.439
 4274SOL    HW113721   2.127   6.801   2.359
 4274SOL    HW213722   2.164   6.827   2.516
 4275SOL     OW13723   6.550   1.445   5.111
 4275SOL    HW113724   6.550   1.345   5.112
 4275SOL    HW213725   6.596   1.480   5.193
 4276SOL     OW13726   1.345   4.434   4.015
 4276SOL    HW113727   1.398   4.455   4.097
 4276SOL    HW213728   1.370   4.498   3.942
 4277SOL     OW13729   6.172   5.158   4.096
 4277SOL    HW113730   6.226   5.075   4.081
 4277SOL    HW213731   6.234   5.234   4.116
 4278SOL     OW13732   0.479   0.575   4.347
 4278SOL    HW113733   0.579   0.571   4.348
 4278SOL    HW213734   0.443   0.493   4.303
 4279SOL     OW13735   3.266   6.894   5.154
 4279SOL    HW113736   3.173   6.918   5.125
 4279SOL    HW213737   3.323   6.976   5.153
 4280SOL     OW13738   5.471   0.825   5.426
 4280SOL    HW113739   5.549   0.768   5.453
 4280SOL    HW213740   5.403   0.768   5.379
 4281SOL     OW13741   1.786   5.063   4.279
 4281SOL    HW113742   1.802   5.147   4.228
 4281SOL    HW213743   1.754   4.992   4.217
 4282SOL     OW13744   3.595   3.080   0.146
 4282SOL    HW113745   3.677   3.069   0.202
 4282SOL    HW213746   3.583   2.999   0.088
 4283SOL     OW13747   2.286   1.131   3.845
 4283SOL    HW113748   2.365   1.193   3.849
 4283SOL    HW213749   2.315   1.043   3.808
 4284SOL     OW13750   4.698   5.795   1.544
 4284SOL    HW113751   4.726   5.881   1.501
 4284SOL    HW213752   4.602   5.777   1.525
 4285SOL     OW13753   1.043   0.462   5.695
 4285SOL    HW113754   0.981   0.421   5.628
 4285SOL    HW213755   1.027   0.561   5.700
 4286SOL     OW13756   4.885   5.675   6.834
 4286SOL    HW113757   4.921   5.633   6.917
 4286SOL    HW213758   4.959   5.684   6.767
 4287SOL     OW13759   5.783   1.242   6.902
 4287SOL    HW113760   5.780   1.161   6.960
 4287SOL    HW213761   5.765   1.216   6.807
 4288SOL     OW13762   1.075   6.017   3.056
 4288SOL    HW113763   1.057   5.965   3.140
 4288SOL    HW213764   1.174   6.034   3.049
 4289SOL     OW13765   6.223   3.206   0.901
 4289SOL    HW113766   6.215   3.147   0.982
 4289SOL    HW213767   6.148   3.272   0.901
 4290SOL     OW13768   2.920   7.020   2.521
 4290SOL    HW113769   2.835   6.978   2.554
 4290SOL    HW213770   2.998   6.966   2.553
 4291SOL     OW13771   4.156   3.756   1.362
 4291SOL    HW113772   4.223   3.709   1.419
 4291SOL    HW213773   4.203   3.802   1.286
 4292SOL     OW13774   6.278   4.359   6.552
 4292SOL    HW113775   6.258   4.262   6.542
 4292SOL    HW213776   6.193   4.408   6.575
 4293SOL     OW13777   0.548   2.831   0.392
 4293SOL    HW113778   0.516   2.832   0.298
 4293SOL    HW213779   0.543   2.924   0.430
 4294SOL     OW13780   3.518   2.286   6.862
 4294SOL    HW113781   3.489   2.382   6.871
 4294SOL    HW213782   3.497   2.254   6.770
 4295SOL     OW13783   3.676   6.257   4.755
 4295SOL    HW113784   3.693   6.232   4.660
 4295SOL    HW213785   3.634   6.348   4.759
 4296SOL     OW13786   3.783   1.141   0.522
 4296SOL    HW113787   3.723   1.082   0.576
 4296SOL    HW213788   3.735   1.168   0.438
 4297SOL     OW13789   5.584   0.885   6.534
 4297SOL    HW113790   5.515   0.955   6.517
 4297SOL    HW213791   5.543   0.808   6.582
 4298SOL     OW13792   3.048   5.896   6.379
 4298SOL    HW113793   3.065   5.800   6.399
 4298SOL    HW213794   2.959   5.922   6.415
 4299SOL     OW13795   0.416   2.870   0.133
 4299SOL    HW113796   0.381   2.914   0.051
 4299SOL    HW213797   0.374   2.779   0.143
 4300SOL     OW13798   3.643   0.839   0.390
 4300SOL    HW113799   3.661   0.756   0.336
 4300SOL    HW213800   3.588   0.815   0.470
 4301SOL     OW13801   3.247   1.607   1.096
 4301SOL    HW113802   3.243   1.534   1.027
 4301SOL    HW213803   3.286   1.689   1.054
 4302SOL     OW13804   1.072   6.883   5.207
 4302SOL    HW113805   1.133   6.890   5.285
 4302SOL    HW213806   0.985   6.842   5.236
 4303SOL     OW13807   5.561   4.872   3.995
 4303SOL    HW113808   5.633   4.921   3.946
 4303SOL    HW213809   5.475   4.923   3.989
 4304SOL     OW13810   2.961   3.821   4.169
 4304SOL    HW113811   3.007   3.847   4.254
 4304SOL    HW213812   3.018   3.848   4.091
 4305SOL     OW13813   6.395   1.051   4.203
 4305SOL    HW113814   6.306   1.006   4.193
 4305SOL    HW213815   6.395   1.136   4.150
 4306SOL     OW13816   6.245   3.717   6.753
 4306SOL    HW113817   6.316   3.701   6.822
 4306SOL    HW213818   6.247   3.813   6.726
 4307SOL     OW13819   5.132   3.292   6.473
 4307SOL    HW113820   5.212   3.349   6.452
 4307SOL    HW213821   5.066   3.347   6.525
 4308SOL     OW13822   5.368   5.682   6.326
 4308SOL    HW113823   5.405   5.601   6.280
 4308SOL    HW213824   5.382   5.673   6.425
 4309SOL     OW13825   1.225   1.328   0.118
 4309SOL    HW113826   1.305   1.269   0.127
 4309SOL    HW213827   1.154   1.280   0.065
 4310SOL     OW13828   1.752   2.366   2.902
 4310SOL    HW113829   1.667   2.381   2.851
 4310SOL    HW213830   1.752   2.423   2.984
 4311SOL     OW13831   1.748   5.646   3.281
 4311SOL    HW113832   1.807   5.727   3.289
 4311SOL    HW213833   1.749   5.596   3.368
 4312SOL     OW13834   1.123   5.036   0.669
 4312SOL    HW113835   1.098   4.983   0.588
 4312SOL    HW213836   1.145   5.130   0.641
 4313SOL     OW13837   4.949   1.423   1.460
 4313SOL    HW113838   5.042   1.389   1.475
 4313SOL    HW213839   4.943   1.519   1.486
 4314SOL     OW13840   5.775   1.321   4.235
 4314SOL    HW113841   5.861   1.304   4.187
 4314SOL    HW213842   5.794   1.362   4.324
 4315SOL     OW13843   2.856   0.255   1.635
 4315SOL    HW113844   2.784   0.310   1.678
 4315SOL    HW213845   2.917   0.220   1.706
 4316SOL     OW13846   5.126   0.346   0.951
 4316SOL    HW113847   5.164   0.356   1.043
 4316SOL    HW213848   5.030   0.376   0.951
 4317SOL     OW13849   4.146   1.533   4.787
 4317SOL    HW113850   4.243   1.554   4.801
 4317SOL    HW213851   4.098   1.540   4.874
 4318SOL     OW13852   1.069   3.076   3.776
 4318SOL    HW113853   1.035   3.170   3.779
 4318SOL    HW213854   1.112   3.053   3.863
 4319SOL     OW13855   2.450   2.839   0.265
 4319SOL    HW113856   2.475   2.777   0.191
 4319SOL    HW213857   2.357   2.873   0.251
 4320SOL     OW13858   0.559   6.068   2.208
 4320SOL    HW113859   0.554   6.167   2.213
 4320SOL    HW213860   0.623   6.034   2.277
 4321SOL     OW13861   6.985   0.298   4.238
 4321SOL    HW113862   0.041   0.350   4.212
 4321SOL    HW213863   6.918   0.360   4.278
 4322SOL     OW13864   6.074   2.154   6.558
 4322SOL    HW113865   6.093   2.095   6.637
 4322SOL    HW213866   5.976   2.173   6.555
 4323SOL     OW13867   4.999   3.870   1.437
 4323SOL    HW113868   5.017   3.773   1.456
 4323SOL    HW213869   4.905   3.881   1.404
 4324SOL     OW13870   5.793   3.933   6.372
 4324SOL    HW113871   5.770   3.883   6.289
 4324SOL    HW213872   5.741   4.018   6.375
 4325SOL     OW13873   1.939   0.712   0.813
 4325SOL    HW113874   2.015   0.735   0.752
 4325SOL    HW213875   1.862   0.773   0.794
 4326SOL     OW13876   5.493   2.886   4.601
 4326SOL    HW113877   5.491   2.985   4.614
 4326SOL    HW213878   5.560   2.863   4.530
 4327SOL     OW13879   6.195   5.379   2.227
 4327SOL    HW113880   6.106   5.353   2.190
 4327SOL    HW213881   6.227   5.308   2.290
 4328SOL     OW13882   4.250   3.883   6.216
 4328SOL    HW113883   4.189   3.804   6.204
 4328SOL    HW213884   4.225   3.933   6.298
 4329SOL     OW13885   4.313   1.423   6.504
 4329SOL    HW113886   4.226   1.435   6.553
 4329SOL    HW213887   4.340   1.326   6.507
 4330SOL     OW13888   2.908   0.517   4.709
 4330SOL    HW113889   2.952   0.447   4.765
 4330SOL    HW213890   2.913   0.605   4.755
 4331SOL     OW13891   4.672   3.226   0.911
 4331SOL    HW113892   4.762   3.246   0.950
 4331SOL    HW213893   4.633   3.309   0.872
 4332SOL     OW13894   5.509   4.789   2.371
 4332SOL    HW113895   5.461   4.706   2.399
 4332SOL    HW213896   5.446   4.850   2.323
 4333SOL     OW13897   4.149   0.714   5.463
 4333SOL    HW113898   4.139   0.803   5.507
 4333SOL    HW213899   4.168   0.645   5.533
 4334SOL     OW13900   1.716   1.926   2.610
 4334SOL    HW113901   1.743   1.995   2.543
 4334SOL    HW213902   1.794   1.904   2.669
 4335SOL     OW13903   3.158   3.772   3.664
 4335SOL    HW113904   3.176   3.856   3.613
 4335SOL    HW213905   3.235   3.753   3.725
 4336SOL     OW13906   1.026   6.619   5.990
 4336SOL    HW113907   1.082   6.693   6.026
 4336SOL    HW213908   1.072   6.532   6.006
 4337SOL     OW13909   0.867   4.427   0.576
 4337SOL    HW113910   0.850   4.335   0.540
 4337SOL    HW213911   0.964   4.448   0.570
 4338SOL     OW13912   4.926   5.632   4.120
 4338SOL    HW113913   4.827   5.619   4.115
 4338SOL    HW213914   4.946   5.728   4.142
 4339SOL     OW13915   6.508   3.625   5.202
 4339SOL    HW113916   6.599   3.598   5.172
 4339SOL    HW213917   6.450   3.544   5.210
 4340SOL     OW13918   6.054   4.265   1.844
 4340SOL    HW113919   5.999   4.182   1.846
 4340SOL    HW213920   6.026   4.321   1.765
 4341SOL     OW13921   0.632   5.721   2.065
 4341SOL    HW113922   0.653   5.807   2.019
 4341SOL    HW213923   0.596   5.656   1.998
 4342SOL     OW13924   6.512   3.884   3.889
 4342SOL    HW113925   6.479   3.790   3.892
 4342SOL    HW213926   6.448   3.944   3.937
 4343SOL     OW13927   2.306   6.432   6.113
 4343SOL    HW113928   2.405   6.423   6.125
 4343SOL    HW213929   2.261   6.352   6.152
 4344SOL     OW13930   1.771   5.121   3.083
 4344SOL    HW113931   1.712   5.148   3.007
 4344SOL    HW213932   1.813   5.203   3.123
 4345SOL     OW13933   1.957   3.027   5.585
 4345SOL    HW113934   2.055   3.017   5.603
 4345SOL    HW213935   1.943   3.101   5.518
 4346SOL     OW13936   1.796   3.259   2.186
 4346SOL    HW113937   1.703   3.296   2.176
 4346SOL    HW213938   1.828   3.274   2.279
 4347SOL     OW13939   5.763   6.804   2.673
 4347SOL    HW113940   5.690   6.870   2.688
 4347SOL    HW213941   5.766   6.779   2.576
 4348SOL     OW13942   0.131   3.993   3.185
 4348SOL    HW113943   0.065   3.941   3.130
 4348SOL    HW213944   0.196   4.039   3.124
 4349SOL     OW13945   6.556   2.376   2.695
 4349SOL    HW113946   6.568   2.277   2.685
 4349SOL    HW213947   6.542   2.399   2.791
 4350SOL     OW13948   5.053   2.169   3.737
 4350SOL    HW113949   5.145   2.162   3.700
 4350SOL    HW213950   5.031   2.265   3.755
 4351SOL     OW13951   2.329   6.784   1.342
 4351SOL    HW113952   2.283   6.820   1.261
 4351SOL    HW213953   2.296   6.833   1.423
 4352SOL     OW13954   0.577   2.406   2.294
 4352SOL    HW113955   0.642   2.330   2.297
 4352SOL    HW213956   0.585   2.461   2.377
 4353SOL     OW13957   3.488   3.994   0.174
 4353SOL    HW113958   3.562   4.006   0.108
 4353SOL    HW213959   3.525   3.999   0.267
 4354SOL     OW13960   2.549   6.602   5.484
 4354SOL    HW113961   2.522   6.511   5.514
 4354SOL    HW213962   2.561   6.602   5.384
 4355SOL     OW13963   3.407   0.513   2.261
 4355SOL    HW113964   3.429   0.589   2.201
 4355SOL    HW213965   3.319   0.472   2.234
 4356SOL     OW13966   4.904   4.302   1.432
 4356SOL    HW113967   4.826   4.346   1.477
 4356SOL    HW213968   4.956   4.249   1.499
 4357SOL     OW13969   6.136   0.657   0.155
 4357SOL    HW113970   6.064   0.667   0.086
 4357SOL    HW213971   6.222   0.631   0.110
 4358SOL     OW13972   6.974   5.762   0.043
 4358SOL    HW113973   6.986   5.764   6.970
 4358SOL    HW213974   0.027   5.804   0.088
 4359SOL     OW13975   1.813   2.207   6.156
 4359SOL    HW113976   1.871   2.135   6.119
 4359SOL    HW213977   1.808   2.283   6.092
 4360SOL     OW13978   1.389   2.405   3.046
 4360SOL    HW113979   1.439   2.319   3.033
 4360SOL    HW213980   1.321   2.393   3.119
 4361SOL     OW13981   3.071   2.773   1.419
 4361SOL    HW113982   3.079   2.679   1.451
 4361SOL    HW213983   2.974   2.798   1.414
 4362SOL     OW13984   6.441   4.099   3.567
 4362SOL    HW113985   6.431   4.127   3.662
 4362SOL    HW213986   6.376   4.149   3.510
 4363SOL     OW13987   5.494   2.620   6.835
 4363SOL    HW113988   5.499   2.523   6.855
 4363SOL    HW213989   5.429   2.635   6.759
 4364SOL     OW13990   3.613   3.700   5.753
 4364SOL    HW113991   3.555   3.779   5.774
 4364SOL    HW213992   3.637   3.653   5.838
 4365SOL     OW13993   2.143   2.513   1.967
 4365SOL    HW113994   2.178   2.606   1.953
 4365SOL    HW213995   2.044   2.516   1.976
 4366SOL     OW13996   5.662   6.175   0.497
 4366SOL    HW113997   5.638   6.116   0.420
 4366SOL    HW213998   5.584   6.232   0.521
 4367SOL     OW13999   2.094   4.749   4.594
 4367SOL    HW114000   2.074   4.834   4.545
 4367SOL    HW214001   2.091   4.766   4.692
 4368SOL     OW14002   3.833   4.729   1.309
 4368SOL    HW114003   3.770   4.661   1.271
 4368SOL    HW214004   3.854   4.797   1.239
 4369SOL     OW14005   3.797   5.443   3.730
 4369SOL    HW114006   3.806   5.344   3.742
 4369SOL    HW214007   3.866   5.490   3.786
 4370SOL     OW14008   4.626   4.876   2.797
 4370SOL    HW114009   4.596   4.781   2.792
 4370SOL    HW214010   4.560   4.930   2.848
 4371SOL     OW14011   0.399   1.157   1.528
 4371SOL    HW114012   0.383   1.064   1.561
 4371SOL    HW214013   0.403   1.157   1.428
 4372SOL     OW14014   4.366   0.966   3.365
 4372SOL    HW114015   4.293   1.033   3.375
 4372SOL    HW214016   4.388   0.957   3.268
 4373SOL     OW14017   0.276   2.055   6.545
 4373SOL    HW114018   0.234   2.007   6.468
 4373SOL    HW214019   0.371   2.025   6.555
 4374SOL     OW14020   0.928   1.833   1.778
 4374SOL    HW114021   0.944   1.752   1.722
 4374SOL    HW214022   0.990   1.906   1.749
 4375SOL     OW14023   3.767   1.036   3.465
 4375SOL    HW114024   3.675   1.007   3.490
 4375SOL    HW214025   3.788   1.004   3.373
 4376SOL     OW14026   6.146   6.771   3.226
 4376SOL    HW114027   6.163   6.825   3.144
 4376SOL    HW214028   6.234   6.746   3.268
 4377SOL     OW14029   5.455   4.071   6.946
 4377SOL    HW114030   5.501   4.000   6.894
 4377SOL    HW214031   5.480   4.064   0.016
 4378SOL     OW14032   1.987   1.414   2.657
 4378SOL    HW114033   1.950   1.451   2.572
 4378SOL    HW214034   2.083   1.390   2.644
 4379SOL     OW14035   2.007   0.661   2.636
 4379SOL    HW114036   2.010   0.621   2.728
 4379SOL    HW214037   2.100   0.681   2.605
 4380SOL     OW14038   1.585   0.346   2.576
 4380SOL    HW114039   1.671   0.397   2.584
 4380SOL    HW214040   1.599   0.253   2.612
 4381SOL     OW14041   0.363   6.402   5.335
 4381SOL    HW114042   0.293   6.469   5.358
 4381SOL    HW214043   0.328   6.310   5.349
 4382SOL     OW14044   0.986   3.382   5.306
 4382SOL    HW114045   0.971   3.312   5.376
 4382SOL    HW214046   0.906   3.442   5.300
 4383SOL     OW14047   0.569   3.359   6.455
 4383SOL    HW114048   0.625   3.333   6.376
 4383SOL    HW214049   0.628   3.402   6.524
 4384SOL     OW14050   6.432   0.427   4.585
 4384SOL    HW114051   6.376   0.387   4.657
 4384SOL    HW214052   6.374   0.476   4.520
 4385SOL     OW14053   4.562   2.710   5.020
 4385SOL    HW114054   4.507   2.789   4.992
 4385SOL    HW214055   4.545   2.689   5.116
 4386SOL     OW14056   1.714   3.824   5.271
 4386SOL    HW114057   1.760   3.800   5.186
 4386SOL    HW214058   1.616   3.834   5.255
 4387SOL     OW14059   6.633   2.234   1.834
 4387SOL    HW114060   6.669   2.326   1.848
 4387SOL    HW214061   6.699   2.180   1.781
 4388SOL     OW14062   3.747   2.136   5.960
 4388SOL    HW114063   3.843   2.110   5.970
 4388SOL    HW214064   3.695   2.060   5.921
 4389SOL     OW14065   0.014   3.864   1.024
 4389SOL    HW114066   6.995   3.776   1.042
 4389SOL    HW214067   0.082   3.882   1.095
 4390SOL     OW14068   4.180   6.721   1.294
 4390SOL    HW114069   4.251   6.773   1.342
 4390SOL    HW214070   4.171   6.631   1.336
 4391SOL     OW14071   2.659   5.067   7.021
 4391SOL    HW114072   2.738   5.086   6.964
 4391SOL    HW214073   2.675   4.984   0.048
 4392SOL     OW14074   1.207   2.312   5.025
 4392SOL    HW114075   1.297   2.291   5.062
 4392SOL    HW214076   1.216   2.341   4.930
 4393SOL     OW14077   6.320   0.897   1.558
 4393SOL    HW114078   6.233   0.859   1.526
 4393SOL    HW214079   6.378   0.823   1.592
 4394SOL     OW14080   6.884   5.717   2.485
 4394SOL    HW114081   6.797   5.669   2.468
 4394SOL    HW214082   6.905   5.715   2.582
 4395SOL     OW14083   2.030   0.688   1.871
 4395SOL    HW114084   2.013   0.598   1.831
 4395SOL    HW214085   2.009   0.685   1.969
 4396SOL     OW14086   1.986   1.831   3.982
 4396SOL    HW114087   1.993   1.740   4.022
 4396SOL    HW214088   1.996   1.825   3.883
 4397SOL     OW14089   1.831   2.605   4.445
 4397SOL    HW114090   1.793   2.524   4.401
 4397SOL    HW214091   1.915   2.582   4.493
 4398SOL     OW14092   1.472   3.416   5.859
 4398SOL    HW114093   1.481   3.511   5.829
 4398SOL    HW214094   1.544   3.361   5.818
 4399SOL     OW14095   3.586   6.225   2.301
 4399SOL    HW114096   3.518   6.157   2.328
 4399SOL    HW214097   3.678   6.186   2.308
 4400SOL     OW14098   2.224   6.803   4.196
 4400SOL    HW114099   2.257   6.714   4.227
 4400SOL    HW214100   2.233   6.808   4.096
 4401SOL     OW14101   3.367   6.699   5.375
 4401SOL    HW114102   3.331   6.702   5.468
 4401SOL    HW214103   3.350   6.787   5.330
 4402SOL     OW14104   1.293   0.104   2.784
 4402SOL    HW114105   1.354   0.150   2.849
 4402SOL    HW214106   1.346   0.067   2.709
 4403SOL     OW14107   1.525   6.303   6.963
 4403SOL    HW114108   1.500   6.400   6.960
 4403SOL    HW214109   1.454   6.248   6.919
 4404SOL     OW14110   1.004   6.366   5.399
 4404SOL    HW114111   0.996   6.465   5.384
 4404SOL    HW214112   1.090   6.347   5.448
 4405SOL     OW14113   1.684   4.801   2.030
 4405SOL    HW114114   1.624   4.721   2.038
 4405SOL    HW214115   1.678   4.837   1.937
 4406SOL     OW14116   6.824   2.941   0.812
 4406SOL    HW114117   6.864   2.989   0.734
 4406SOL    HW214118   6.728   2.968   0.822
 4407SOL     OW14119   0.192   5.174   1.808
 4407SOL    HW114120   0.101   5.134   1.820
 4407SOL    HW214121   0.247   5.156   1.889
 4408SOL     OW14122   2.349   0.112   0.137
 4408SOL    HW114123   2.360   0.025   0.088
 4408SOL    HW214124   2.330   0.094   0.233
 4409SOL     OW14125   4.400   1.587   1.304
 4409SOL    HW114126   4.465   1.511   1.295
 4409SOL    HW214127   4.356   1.605   1.216
 4410SOL     OW14128   0.550   5.493   0.082
 4410SOL    HW114129   0.623   5.526   0.141
 4410SOL    HW214130   0.461   5.517   0.121
 4411SOL     OW14131   3.814   4.329   5.371
 4411SOL    HW114132   3.890   4.294   5.426
 4411SOL    HW214133   3.844   4.409   5.320
 4412SOL     OW14134   4.615   6.428   4.068
 4412SOL    HW114135   4.711   6.425   4.041
 4412SOL    HW214136   4.594   6.351   4.127
 4413SOL     OW14137   5.663   5.309   3.777
 4413SOL    HW114138   5.755   5.349   3.785
 4413SOL    HW214139   5.637   5.305   3.680
 4414SOL     OW14140   3.384   5.811   1.246
 4414SOL    HW114141   3.400   5.722   1.289
 4414SOL    HW214142   3.420   5.810   1.153
 4415SOL     OW14143   4.516   3.267   0.674
 4415SOL    HW114144   4.460   3.189   0.702
 4415SOL    HW214145   4.479   3.350   0.714
 4416SOL     OW14146   4.589   1.896   3.698
 4416SOL    HW114147   4.539   1.971   3.655
 4416SOL    HW214148   4.687   1.916   3.695
 4417SOL     OW14149   5.707   3.754   3.494
 4417SOL    HW114150   5.748   3.812   3.564
 4417SOL    HW214151   5.764   3.757   3.412
 4418SOL     OW14152   6.132   1.920   2.811
 4418SOL    HW114153   6.069   1.988   2.849
 4418SOL    HW214154   6.193   1.888   2.883
 4419SOL     OW14155   6.009   0.087   5.759
 4419SOL    HW114156   6.027   0.017   5.689
 4419SOL    HW214157   5.911   0.092   5.777
 4420SOL     OW14158   4.122   1.578   1.976
 4420SOL    HW114159   4.135   1.668   2.017
 4420SOL    HW214160   4.055   1.527   2.030
 4421SOL     OW14161   1.783   1.483   5.309
 4421SOL    HW114162   1.779   1.564   5.250
 4421SOL    HW214163   1.878   1.461   5.329
 4422SOL     OW14164   1.118   4.669   6.465
 4422SOL    HW114165   1.035   4.683   6.411
 4422SOL    HW214166   1.130   4.572   6.483
 4423SOL     OW14167   0.238   4.090   5.746
 4423SOL    HW114168   0.147   4.128   5.730
 4423SOL    HW214169   0.278   4.063   5.659
 4424SOL     OW14170   5.168   6.913   4.580
 4424SOL    HW114171   5.252   6.905   4.632
 4424SOL    HW214172   5.101   6.846   4.613
 4425SOL     OW14173   1.938   4.778   0.455
 4425SOL    HW114174   1.906   4.683   0.459
 4425SOL    HW214175   2.037   4.780   0.473
 4426SOL     OW14176   0.888   1.744   4.291
 4426SOL    HW114177   0.922   1.833   4.261
 4426SOL    HW214178   0.790   1.737   4.269
 4427SOL     OW14179   5.580   6.962   3.028
 4427SOL    HW114180   5.557   6.875   2.983
 4427SOL    HW214181   5.678   6.979   3.018
 4428SOL     OW14182   4.205   0.774   4.250
 4428SOL    HW114183   4.267   0.714   4.199
 4428SOL    HW214184   4.187   0.856   4.195
 4429SOL     OW14185   3.211   7.010   2.540
 4429SOL    HW114186   3.286   6.980   2.482
 4429SOL    HW214187   3.179   0.074   2.511
 4430SOL     OW14188   4.991   4.464   5.043
 4430SOL    HW114189   4.980   4.397   4.970
 4430SOL    HW214190   5.086   4.496   5.045
 4431SOL     OW14191   2.933   0.835   3.512
 4431SOL    HW114192   2.965   0.846   3.418
 4431SOL    HW214193   2.856   0.896   3.528
 4432SOL     OW14194   2.716   3.365   6.465
 4432SOL    HW114195   2.799   3.409   6.498
 4432SOL    HW214196   2.657   3.432   6.420
 4433SOL     OW14197   6.753   2.757   4.310
 4433SOL    HW114198   6.681   2.751   4.240
 4433SOL    HW214199   6.758   2.850   4.345
 4434SOL     OW14200   5.328   1.700   3.021
 4434SOL    HW114201   5.423   1.689   3.051
 4434SOL    HW214202   5.305   1.625   2.959
 4435SOL     OW14203   4.223   3.621   1.116
 4435SOL    HW114204   4.139   3.581   1.153
 4435SOL    HW214205   4.203   3.671   1.032
 4436SOL     OW14206   4.106   1.231   1.354
 4436SOL    HW114207   4.121   1.306   1.291
 4436SOL    HW214208   4.076   1.267   1.443
 4437SOL     OW14209   0.906   3.153   2.951
 4437SOL    HW114210   0.929   3.173   3.046
 4437SOL    HW214211   0.932   3.230   2.893
 4438SOL     OW14212   4.648   6.690   6.038
 4438SOL    HW114213   4.562   6.642   6.054
 4438SOL    HW214214   4.632   6.788   6.044
 4439SOL     OW14215   0.111   4.662   1.823
 4439SOL    HW114216   0.088   4.674   1.920
 4439SOL    HW214217   0.176   4.587   1.813
 4440SOL     OW14218   2.342   5.080   0.788
 4440SOL    HW114219   2.307   4.998   0.834
 4440SOL    HW214220   2.398   5.133   0.851
 4441SOL     OW14221   0.220   1.357   1.082
 4441SOL    HW114222   0.146   1.328   1.143
 4441SOL    HW214223   0.207   1.453   1.057
 4442SOL     OW14224   1.208   5.696   4.698
 4442SOL    HW114225   1.123   5.644   4.706
 4442SOL    HW214226   1.266   5.677   4.777
 4443SOL     OW14227   1.273   3.276   5.538
 4443SOL    HW114228   1.316   3.358   5.575
 4443SOL    HW214229   1.174   3.285   5.546
 4444SOL     OW14230   4.581   3.430   0.185
 4444SOL    HW114231   4.580   3.477   0.097
 4444SOL    HW214232   4.538   3.340   0.176
 4445SOL     OW14233   1.310   6.188   6.895
 4445SOL    HW114234   1.238   6.204   6.827
 4445SOL    HW214235   1.304   6.093   6.928
 4446SOL     OW14236   5.656   2.054   0.448
 4446SOL    HW114237   5.703   1.971   0.477
 4446SOL    HW214238   5.642   2.052   0.349
 4447SOL     OW14239   6.065   3.837   4.843
 4447SOL    HW114240   6.099   3.746   4.821
 4447SOL    HW214241   6.141   3.895   4.871
 4448SOL     OW14242   2.703   6.302   0.727
 4448SOL    HW114243   2.643   6.273   0.652
 4448SOL    HW214244   2.798   6.280   0.704
 4449SOL     OW14245   5.037   0.850   6.139
 4449SOL    HW114246   5.087   0.936   6.153
 4449SOL    HW214247   5.086   0.775   6.184
 4450SOL     OW14248   2.923   2.052   6.740
 4450SOL    HW114249   2.976   2.124   6.696
 4450SOL    HW214250   2.826   2.065   6.719
 4451SOL     OW14251   4.543   5.136   5.198
 4451SOL    HW114252   4.498   5.223   5.219
 4451SOL    HW214253   4.478   5.061   5.214
 4452SOL     OW14254   5.813   5.788   4.107
 4452SOL    HW114255   5.856   5.786   4.017
 4452SOL    HW214256   5.719   5.821   4.099
 4453SOL     OW14257   1.202   2.726   1.600
 4453SOL    HW114258   1.176   2.796   1.666
 4453SOL    HW214259   1.217   2.639   1.647
 4454SOL     OW14260   1.641   1.633   0.090
 4454SOL    HW114261   1.659   1.598   7.024
 4454SOL    HW214262   1.580   1.570   0.138
 4455SOL     OW14263   5.539   6.165   5.493
 4455SOL    HW114264   5.491   6.091   5.540
 4455SOL    HW214265   5.570   6.232   5.560
 4456SOL     OW14266   2.527   5.919   2.759
 4456SOL    HW114267   2.464   5.930   2.836
 4456SOL    HW214268   2.475   5.914   2.673
 4457SOL     OW14269   3.601   1.811   3.630
 4457SOL    HW114270   3.593   1.722   3.585
 4457SOL    HW214271   3.509   1.845   3.652
 4458SOL     OW14272   2.357   3.434   1.392
 4458SOL    HW114273   2.280   3.487   1.427
 4458SOL    HW214274   2.340   3.337   1.407
 4459SOL     OW14275   4.004   2.162   4.400
 4459SOL    HW114276   3.998   2.163   4.500
 4459SOL    HW214277   3.914   2.145   4.361
 4460SOL     OW14278   0.510   2.690   6.636
 4460SOL    HW114279   0.578   2.660   6.703
 4460SOL    HW214280   0.467   2.610   6.594
 4461SOL     OW14281   2.069   0.734   1.084
 4461SOL    HW114282   2.037   0.752   0.991
 4461SOL    HW214283   1.999   0.682   1.133
 4462SOL     OW14284   5.797   4.423   1.886
 4462SOL    HW114285   5.897   4.422   1.889
 4462SOL    HW214286   5.766   4.381   1.801
 4463SOL     OW14287   4.880   1.354   1.183
 4463SOL    HW114288   4.826   1.275   1.212
 4463SOL    HW214289   4.941   1.382   1.257
 4464SOL     OW14290   0.364   6.188   0.663
 4464SOL    HW114291   0.414   6.103   0.648
 4464SOL    HW214292   0.279   6.186   0.611
 4465SOL     OW14293   2.304   5.027   0.523
 4465SOL    HW114294   2.217   5.053   0.482
 4465SOL    HW214295   2.311   5.067   0.615
 4466SOL     OW14296   1.219   1.772   2.673
 4466SOL    HW114297   1.290   1.701   2.677
 4466SOL    HW214298   1.256   1.858   2.710
 4467SOL     OW14299   2.386   5.229   3.321
 4467SOL    HW114300   2.428   5.160   3.263
 4467SOL    HW214301   2.302   5.263   3.279
 4468SOL     OW14302   2.074   4.160   1.050
 4468SOL    HW114303   2.028   4.232   1.103
 4468SOL    HW214304   2.031   4.152   0.960
 4469SOL     OW14305   3.045   0.925   1.174
 4469SOL    HW114306   3.106   0.909   1.097
 4469SOL    HW214307   3.050   0.847   1.237
 4470SOL     OW14308   1.018   1.705   2.510
 4470SOL    HW114309   1.084   1.751   2.570
 4470SOL    HW214310   1.000   1.613   2.544
 4471SOL     OW14311   1.368   2.958   6.777
 4471SOL    HW114312   1.389   2.981   6.682
 4471SOL    HW214313   1.355   2.859   6.785
 4472SOL     OW14314   0.362   1.950   1.145
 4472SOL    HW114315   0.406   1.860   1.144
 4472SOL    HW214316   0.390   2.000   1.227
 4473SOL     OW14317   5.558   2.677   4.201
 4473SOL    HW114318   5.502   2.602   4.165
 4473SOL    HW214319   5.498   2.751   4.232
 4474SOL     OW14320   3.166   6.616   1.498
 4474SOL    HW114321   3.207   6.704   1.475
 4474SOL    HW214322   3.107   6.627   1.578
 4475SOL     OW14323   1.319   3.702   1.906
 4475SOL    HW114324   1.272   3.614   1.907
 4475SOL    HW214325   1.304   3.748   1.818
 4476SOL     OW14326   6.440   0.519   3.870
 4476SOL    HW114327   6.457   0.612   3.838
 4476SOL    HW214328   6.395   0.523   3.960
 4477SOL     OW14329   1.597   0.760   5.553
 4477SOL    HW114330   1.559   0.670   5.535
 4477SOL    HW214331   1.601   0.775   5.652
 4478SOL     OW14332   2.429   0.073   2.234
 4478SOL    HW114333   2.361   0.147   2.237
 4478SOL    HW214334   2.488   0.085   2.154
 4479SOL     OW14335   0.781   2.152   1.653
 4479SOL    HW114336   0.817   2.245   1.642
 4479SOL    HW214337   0.720   2.130   1.577
 4480SOL     OW14338   0.222   4.516   5.002
 4480SOL    HW114339   0.212   4.507   5.102
 4480SOL    HW214340   0.308   4.476   4.973
 4481SOL     OW14341   2.267   5.034   4.860
 4481SOL    HW114342   2.298   5.122   4.823
 4481SOL    HW214343   2.178   5.011   4.820
 4482SOL     OW14344   2.339   2.721   5.559
 4482SOL    HW114345   2.368   2.743   5.465
 4482SOL    HW214346   2.406   2.757   5.624
 4483SOL     OW14347   0.049   2.537   1.994
 4483SOL    HW114348   0.005   2.626   1.984
 4483SOL    HW214349   0.082   2.527   2.088
 4484SOL     OW14350   2.577   2.293   6.943
 4484SOL    HW114351   2.558   2.268   0.011
 4484SOL    HW214352   2.496   2.275   6.887
 4485SOL     OW14353   5.401   2.757   5.100
 4485SOL    HW114354   5.378   2.804   5.014
 4485SOL    HW214355   5.474   2.691   5.083
 4486SOL     OW14356   6.105   5.155   4.816
 4486SOL    HW114357   6.034   5.204   4.868
 4486SOL    HW214358   6.063   5.112   4.736
 4487SOL     OW14359   2.962   3.339   0.419
 4487SOL    HW114360   2.955   3.434   0.450
 4487SOL    HW214361   2.875   3.292   0.435
 4488SOL     OW14362   1.257   3.469   4.859
 4488SOL    HW114363   1.199   3.396   4.895
 4488SOL    HW214364   1.338   3.429   4.816
 4489SOL     OW14365   4.834   5.470   4.961
 4489SOL    HW114366   4.775   5.536   5.007
 4489SOL    HW214367   4.926   5.475   4.999
 4490SOL     OW14368   5.359   1.739   1.808
 4490SOL    HW114369   5.447   1.708   1.771
 4490SOL    HW214370   5.323   1.812   1.750
 4491SOL     OW14371   0.230   3.451   3.377
 4491SOL    HW114372   0.280   3.366   3.367
 4491SOL    HW214373   0.279   3.512   3.440
 4492SOL     OW14374   6.195   3.353   1.739
 4492SOL    HW114375   6.200   3.253   1.730
 4492SOL    HW214376   6.266   3.385   1.801
 4493SOL     OW14377   5.007   6.302   4.985
 4493SOL    HW114378   5.067   6.313   4.906
 4493SOL    HW214379   5.016   6.381   5.045
 4494SOL     OW14380   0.844   1.010   5.881
 4494SOL    HW114381   0.788   1.076   5.930
 4494SOL    HW214382   0.913   1.058   5.827
 4495SOL     OW14383   4.761   6.794   3.500
 4495SOL    HW114384   4.701   6.714   3.502
 4495SOL    HW214385   4.777   6.821   3.406
 4496SOL     OW14386   5.201   6.088   0.828
 4496SOL    HW114387   5.196   6.177   0.875
 4496SOL    HW214388   5.269   6.031   0.874
 4497SOL     OW14389   4.234   2.344   6.595
 4497SOL    HW114390   4.306   2.301   6.650
 4497SOL    HW214391   4.178   2.403   6.653
 4498SOL     OW14392   6.757   4.772   6.613
 4498SOL    HW114393   6.720   4.680   6.596
 4498SOL    HW214394   6.834   4.765   6.677
 4499SOL     OW14395   6.185   2.811   3.572
 4499SOL    HW114396   6.112   2.827   3.506
 4499SOL    HW214397   6.272   2.798   3.524
 4500SOL     OW14398   3.950   4.157   6.816
 4500SOL    HW114399   4.001   4.229   6.767
 4500SOL    HW214400   4.002   4.071   6.811
 4501SOL     OW14401   6.544   3.243   3.116
 4501SOL    HW114402   6.507   3.202   3.199
 4501SOL    HW214403   6.613   3.182   3.076
 4502SOL     OW14404   1.247   3.696   0.203
 4502SOL    HW114405   1.248   3.657   0.111
 4502SOL    HW214406   1.156   3.684   0.243
 4503SOL     OW14407   3.759   6.807   1.938
 4503SOL    HW114408   3.790   6.713   1.953
 4503SOL    HW214409   3.660   6.811   1.952
 4504SOL     OW14410   6.259   1.697   4.353
 4504SOL    HW114411   6.197   1.630   4.395
 4504SOL    HW214412   6.314   1.653   4.283
 4505SOL     OW14413   6.539   4.818   1.691
 4505SOL    HW114414   6.489   4.834   1.776
 4505SOL    HW214415   6.621   4.763   1.710
 4506SOL     OW14416   5.018   2.429   3.768
 4506SOL    HW114417   5.093   2.487   3.802
 4506SOL    HW214418   4.948   2.487   3.726
 4507SOL     OW14419   0.285   3.479   3.960
 4507SOL    HW114420   0.220   3.442   4.027
 4507SOL    HW214421   0.236   3.542   3.899
 4508SOL     OW14422   1.148   4.888   0.386
 4508SOL    HW114423   1.060   4.863   0.346
 4508SOL    HW214424   1.219   4.883   0.316
 4509SOL     OW14425   4.831   2.005   2.943
 4509SOL    HW114426   4.812   2.002   3.041
 4509SOL    HW214427   4.914   1.953   2.923
 4510SOL     OW14428   4.731   1.005   4.585
 4510SOL    HW114429   4.770   0.924   4.628
 4510SOL    HW214430   4.804   1.065   4.553
 4511SOL     OW14431   6.294   3.640   0.552
 4511SOL    HW114432   6.316   3.572   0.621
 4511SOL    HW214433   6.252   3.596   0.473
 4512SOL     OW14434   3.256   1.513   6.001
 4512SOL    HW114435   3.228   1.568   5.923
 4512SOL    HW214436   3.353   1.490   5.993
 4513SOL     OW14437   1.105   5.552   6.573
 4513SOL    HW114438   1.137   5.630   6.626
 4513SOL    HW214439   1.127   5.566   6.476
 4514SOL     OW14440   3.602   2.680   6.106
 4514SOL    HW114441   3.553   2.690   6.020
 4514SOL    HW214442   3.570   2.598   6.153
 4515SOL     OW14443   5.773   2.298   5.687
 4515SOL    HW114444   5.675   2.306   5.668
 4515SOL    HW214445   5.823   2.365   5.632
 4516SOL     OW14446   2.364   0.318   6.160
 4516SOL    HW114447   2.335   0.244   6.099
 4516SOL    HW214448   2.291   0.386   6.167
 4517SOL     OW14449   4.614   7.020   6.784
 4517SOL    HW114450   4.665   6.987   6.863
 4517SOL    HW214451   4.542   6.954   6.762
 4518SOL     OW14452   0.619   6.798   1.283
 4518SOL    HW114453   0.694   6.852   1.320
 4518SOL    HW214454   0.651   6.746   1.204
 4519SOL     OW14455   4.973   6.768   0.016
 4519SOL    HW114456   5.031   6.770   0.098
 4519SOL    HW214457   4.950   6.673   7.021
 4520SOL     OW14458   3.981   5.899   6.030
 4520SOL    HW114459   3.993   5.943   6.119
 4520SOL    HW214460   3.906   5.833   6.035
 4521SOL     OW14461   5.039   1.968   4.799
 4521SOL    HW114462   5.113   1.973   4.731
 4521SOL    HW214463   4.959   2.018   4.764
 4522SOL     OW14464   5.706   4.352   2.830
 4522SOL    HW114465   5.705   4.330   2.733
 4522SOL    HW214466   5.623   4.317   2.874
 4523SOL     OW14467   1.218   3.949   0.067
 4523SOL    HW114468   1.301   3.973   0.015
 4523SOL    HW214469   1.236   3.868   0.122
 4524SOL     OW14470   6.054   3.188   2.594
 4524SOL    HW114471   6.060   3.105   2.538
 4524SOL    HW214472   6.116   3.257   2.557
 4525SOL     OW14473   3.566   1.934   5.870
 4525SOL    HW114474   3.507   1.986   5.932
 4525SOL    HW214475   3.565   1.837   5.896
 4526SOL     OW14476   6.742   0.274   6.902
 4526SOL    HW114477   6.692   0.361   6.899
 4526SOL    HW214478   6.838   0.291   6.922
 4527SOL     OW14479   6.276   7.021   2.733
 4527SOL    HW114480   6.313   6.956   2.799
 4527SOL    HW214481   6.177   7.010   2.727
 4528SOL     OW14482   3.965   0.623   6.379
 4528SOL    HW114483   3.934   0.698   6.320
 4528SOL    HW214484   3.902   0.613   6.456
 4529SOL     OW14485   2.256   1.416   5.675
 4529SOL    HW114486   2.261   1.440   5.772
 4529SOL    HW214487   2.191   1.342   5.662
 4530SOL     OW14488   2.124   5.979   3.315
 4530SOL    HW114489   2.216   5.987   3.277
 4530SOL    HW214490   2.130   5.968   3.414
 4531SOL     OW14491   1.190   3.585   6.152
 4531SOL    HW114492   1.202   3.606   6.055
 4531SOL    HW214493   1.266   3.528   6.183
 4532SOL     OW14494   5.662   0.838   2.879
 4532SOL    HW114495   5.652   0.864   2.975
 4532SOL    HW214496   5.731   0.896   2.835
 4533SOL     OW14497   1.812   0.989   3.342
 4533SOL    HW114498   1.832   0.922   3.270
 4533SOL    HW214499   1.713   0.993   3.356
 4534SOL     OW14500   4.656   2.372   5.134
 4534SOL    HW114501   4.734   2.323   5.096
 4534SOL    HW214502   4.590   2.393   5.062
 4535SOL     OW14503   3.928   1.537   1.751
 4535SOL    HW114504   4.005   1.542   1.815
 4535SOL    HW214505   3.843   1.526   1.803
 4536SOL     OW14506   2.977   2.028   4.580
 4536SOL    HW114507   3.064   2.073   4.559
 4536SOL    HW214508   2.903   2.073   4.530
 4537SOL     OW14509   4.100   3.489   1.933
 4537SOL    HW114510   4.084   3.395   1.901
 4537SOL    HW214511   4.168   3.533   1.875
 4538SOL     OW14512   2.662   1.004   2.798
 4538SOL    HW114513   2.613   0.928   2.756
 4538SOL    HW214514   2.759   0.981   2.806
 4539SOL     OW14515   2.255   5.788   4.473
 4539SOL    HW114516   2.293   5.871   4.433
 4539SOL    HW214517   2.328   5.736   4.518
 4540SOL     OW14518   2.396   1.148   0.865
 4540SOL    HW114519   2.370   1.073   0.925
 4540SOL    HW214520   2.481   1.189   0.898
 4541SOL     OW14521   5.587   1.445   0.006
 4541SOL    HW114522   5.654   1.427   6.959
 4541SOL    HW214523   5.571   1.361   0.058
 4542SOL     OW14524   6.939   1.938   1.190
 4542SOL    HW114525   6.848   1.976   1.177
 4542SOL    HW214526   7.008   2.010   1.179
 4543SOL     OW14527   4.983   2.085   0.965
 4543SOL    HW114528   5.066   2.087   1.022
 4543SOL    HW214529   4.981   2.166   0.906
 4544SOL     OW14530   3.685   4.923   0.352
 4544SOL    HW114531   3.699   4.867   0.434
 4544SOL    HW214532   3.663   4.863   0.275
 4545SOL     OW14533   0.096   3.666   5.448
 4545SOL    HW114534   0.194   3.682   5.464
 4545SOL    HW214535   0.045   3.749   5.467
 4546SOL     OW14536   2.741   0.218   5.084
 4546SOL    HW114537   2.732   0.292   5.151
 4546SOL    HW214538   2.804   0.149   5.120
 4547SOL     OW14539   6.389   1.600   0.374
 4547SOL    HW114540   6.482   1.595   0.411
 4547SOL    HW214541   6.327   1.551   0.435
 4548SOL     OW14542   2.792   2.358   3.294
 4548SOL    HW114543   2.856   2.292   3.253
 4548SOL    HW214544   2.776   2.333   3.390
 4549SOL     OW14545   4.923   4.129   2.268
 4549SOL    HW114546   4.867   4.097   2.344
 4549SOL    HW214547   5.020   4.125   2.293
 4550SOL     OW14548   1.085   4.449   3.283
 4550SOL    HW114549   1.107   4.397   3.201
 4550SOL    HW214550   1.123   4.541   3.277
 4551SOL     OW14551   1.003   3.775   5.147
 4551SOL    HW114552   1.041   3.834   5.076
 4551SOL    HW214553   0.904   3.769   5.137
 4552SOL     OW14554   5.510   2.365   1.060
 4552SOL    HW114555   5.540   2.297   0.993
 4552SOL    HW214556   5.469   2.443   1.013
 4553SOL     OW14557   5.305   4.333   6.596
 4553SOL    HW114558   5.275   4.262   6.659
 4553SOL    HW214559   5.403   4.326   6.580
 4554SOL     OW14560   0.039   0.023   1.779
 4554SOL    HW114561   6.974   0.003   1.743
 4554SOL    HW214562   0.039   0.114   1.819
 4555SOL     OW14563   1.365   0.999   6.357
 4555SOL    HW114564   1.447   1.055   6.346
 4555SOL    HW214565   1.386   0.904   6.336
 4556SOL     OW14566   6.427   3.233   4.985
 4556SOL    HW114567   6.451   3.327   4.959
 4556SOL    HW214568   6.509   3.175   4.981
 4557SOL     OW14569   5.586   5.245   4.141
 4557SOL    HW114570   5.546   5.219   4.053
 4557SOL    HW214571   5.619   5.339   4.136
 4558SOL     OW14572   6.464   3.533   4.531
 4558SOL    HW114573   6.495   3.473   4.605
 4558SOL    HW214574   6.535   3.601   4.511
 4559SOL     OW14575   6.948   3.585   2.673
 4559SOL    HW114576   7.014   3.514   2.697
 4559SOL    HW214577   6.980   3.673   2.707
 4560SOL     OW14578   6.257   4.355   2.027
 4560SOL    HW114579   6.178   4.343   1.967
 4560SOL    HW214580   6.231   4.411   2.106
 4561SOL     OW14581   3.873   1.730   3.590
 4561SOL    HW114582   3.775   1.735   3.611
 4561SOL    HW214583   3.895   1.795   3.517
 4562SOL     OW14584   1.769   0.352   0.240
 4562SOL    HW114585   1.680   0.316   0.268
 4562SOL    HW214586   1.809   0.293   0.170
 4563SOL     OW14587   6.794   3.601   0.760
 4563SOL    HW114588   6.783   3.516   0.707
 4563SOL    HW214589   6.865   3.657   0.719
 4564SOL     OW14590   6.482   5.663   2.117
 4564SOL    HW114591   6.539   5.726   2.170
 4564SOL    HW214592   6.386   5.691   2.123
 4565SOL     OW14593   1.230   1.342   4.503
 4565SOL    HW114594   1.229   1.429   4.453
 4565SOL    HW214595   1.280   1.274   4.449
 4566SOL     OW14596   0.226   3.608   1.194
 4566SOL    HW114597   0.192   3.522   1.156
 4566SOL    HW214598   0.255   3.595   1.288
 4567SOL     OW14599   0.136   1.221   6.833
 4567SOL    HW114600   0.164   1.161   6.907
 4567SOL    HW214601   0.149   1.175   6.745
 4568SOL     OW14602   1.243   3.593   5.363
 4568SOL    HW114603   1.147   3.580   5.388
 4568SOL    HW214604   1.252   3.593   5.264
 4569SOL     OW14605   3.097   0.494   3.016
 4569SOL    HW114606   3.007   0.487   3.058
 4569SOL    HW214607   3.165   0.517   3.086
 4570SOL     OW14608   6.211   6.208   2.021
 4570SOL    HW114609   6.204   6.176   1.926
 4570SOL    HW214610   6.249   6.300   2.023
 4571SOL     OW14611   4.336   3.017   6.744
 4571SOL    HW114612   4.336   2.922   6.711
 4571SOL    HW214613   4.427   3.041   6.778
 4572SOL     OW14614   2.391   1.021   6.757
 4572SOL    HW114615   2.311   0.999   6.811
 4572SOL    HW214616   2.372   1.100   6.698
 4573SOL     OW14617   0.504   6.890   0.155
 4573SOL    HW114618   0.520   6.915   0.059
 4573SOL    HW214619   0.437   6.952   0.196
 4574SOL     OW14620   5.438   4.219   0.226
 4574SOL    HW114621   5.370   4.161   0.271
 4574SOL    HW214622   5.530   4.187   0.249
 4575SOL     OW14623   5.661   0.266   4.900
 4575SOL    HW114624   5.702   0.287   4.811
 4575SOL    HW214625   5.563   0.287   4.897
 4576SOL     OW14626   2.692   4.833   5.457
 4576SOL    HW114627   2.624   4.800   5.393
 4576SOL    HW214628   2.760   4.762   5.474
 4577SOL     OW14629   1.559   2.607   3.045
 4577SOL    HW114630   1.488   2.539   3.030
 4577SOL    HW214631   1.637   2.564   3.091
 4578SOL     OW14632   0.955   1.481   4.218
 4578SOL    HW114633   1.053   1.462   4.225
 4578SOL    HW214634   0.939   1.577   4.244
 4579SOL     OW14635   4.661   0.881   2.115
 4579SOL    HW114636   4.696   0.789   2.100
 4579SOL    HW214637   4.683   0.910   2.208
 4580SOL     OW14638   5.765   3.941   1.260
 4580SOL    HW114639   5.724   3.854   1.287
 4580SOL    HW214640   5.693   4.008   1.243
 4581SOL     OW14641   3.042   6.394   2.360
 4581SOL    HW114642   2.950   6.428   2.380
 4581SOL    HW214643   3.074   6.434   2.274
 4582SOL     OW14644   5.118   0.990   3.266
 4582SOL    HW114645   5.156   0.898   3.278
 4582SOL    HW214646   5.078   0.997   3.175
 4583SOL     OW14647   2.959   1.398   6.678
 4583SOL    HW114648   2.977   1.300   6.673
 4583SOL    HW214649   2.940   1.434   6.587
 4584SOL     OW14650   1.557   6.024   5.015
 4584SOL    HW114651   1.552   6.115   4.974
 4584SOL    HW214652   1.590   5.958   4.948
 4585SOL     OW14653   2.141   4.384   3.302
 4585SOL    HW114654   2.083   4.302   3.300
 4585SOL    HW214655   2.184   4.392   3.392
 4586SOL     OW14656   4.722   3.905   0.363
 4586SOL    HW114657   4.781   3.828   0.340
 4586SOL    HW214658   4.627   3.882   0.343
 4587SOL     OW14659   3.731   3.345   4.291
 4587SOL    HW114660   3.667   3.315   4.220
 4587SOL    HW214661   3.821   3.362   4.249
 4588SOL     OW14662   3.292   3.057   6.016
 4588SOL    HW114663   3.375   3.005   6.038
 4588SOL    HW214664   3.263   3.035   5.923
 4589SOL     OW14665   5.395   6.951   1.946
 4589SOL    HW114666   5.329   6.912   2.010
 4589SOL    HW214667   5.453   7.017   1.993
 4590SOL     OW14668   3.886   5.620   1.130
 4590SOL    HW114669   3.930   5.622   1.040
 4590SOL    HW214670   3.955   5.635   1.201
 4591SOL     OW14671   1.652   0.607   4.984
 4591SOL    HW114672   1.570   0.579   5.035
 4591SOL    HW214673   1.681   0.697   5.016
 4592SOL     OW14674   3.563   1.339   3.236
 4592SOL    HW114675   3.561   1.433   3.202
 4592SOL    HW214676   3.495   1.329   3.308
 4593SOL     OW14677   6.210   6.144   1.760
 4593SOL    HW114678   6.189   6.046   1.762
 4593SOL    HW214679   6.177   6.183   1.675
 4594SOL     OW14680   4.104   0.717   2.829
 4594SOL    HW114681   4.052   0.736   2.746
 4594SOL    HW214682   4.097   0.620   2.851
 4595SOL     OW14683   4.482   3.001   5.642
 4595SOL    HW114684   4.560   3.003   5.579
 4595SOL    HW214685   4.499   3.062   5.719
 4596SOL     OW14686   6.351   0.523   2.346
 4596SOL    HW114687   6.444   0.550   2.372
 4596SOL    HW214688   6.321   0.447   2.404
 4597SOL     OW14689   2.656   5.747   6.199
 4597SOL    HW114690   2.682   5.657   6.231
 4597SOL    HW214691   2.600   5.793   6.269
 4598SOL     OW14692   1.586   5.664   1.151
 4598SOL    HW114693   1.630   5.747   1.185
 4598SOL    HW214694   1.573   5.671   1.052
 4599SOL     OW14695   1.515   4.788   1.340
 4599SOL    HW114696   1.458   4.830   1.411
 4599SOL    HW214697   1.482   4.815   1.250
 4600SOL     OW14698   0.196   0.187   5.236
 4600SOL    HW114699   0.140   0.124   5.290
 4600SOL    HW214700   0.269   0.136   5.192
 4601SOL     OW14701   0.618   1.738   5.255
 4601SOL    HW114702   0.559   1.707   5.329
 4601SOL    HW214703   0.669   1.661   5.218
 4602SOL     OW14704   3.114   6.669   6.991
 4602SOL    HW114705   3.064   6.724   6.924
 4602SOL    HW214706   3.205   6.708   7.005
 4603SOL     OW14707   3.149   5.436   0.706
 4603SOL    HW114708   3.191   5.521   0.739
 4603SOL    HW214709   3.193   5.408   0.621
 4604SOL     OW14710   5.002   0.370   6.408
 4604SOL    HW114711   5.050   0.451   6.376
 4604SOL    HW214712   4.912   0.396   6.442
 4605SOL     OW14713   2.738   0.044   1.497
 4605SOL    HW114714   2.813   0.024   1.435
 4605SOL    HW214715   2.763   0.120   1.556
 4606SOL     OW14716   0.098   0.197   2.644
 4606SOL    HW114717   0.006   0.159   2.641
 4606SOL    HW214718   0.165   0.124   2.633
 4607SOL     OW14719   1.800   3.574   2.931
 4607SOL    HW114720   1.829   3.670   2.919
 4607SOL    HW214721   1.774   3.536   2.843
 4608SOL     OW14722   6.833   4.081   3.193
 4608SOL    HW114723   6.879   3.996   3.220
 4608SOL    HW214724   6.791   4.068   3.103
 4609SOL     OW14725   5.028   4.832   0.142
 4609SOL    HW114726   5.006   4.777   0.222
 4609SOL    HW214727   5.118   4.874   0.154
 4610SOL     OW14728   4.442   1.899   6.971
 4610SOL    HW114729   4.343   1.910   6.974
 4610SOL    HW214730   4.471   1.846   0.025
 4611SOL     OW14731   0.664   0.451   6.464
 4611SOL    HW114732   0.736   0.433   6.530
 4611SOL    HW214733   0.592   0.382   6.473
 4612SOL     OW14734   2.796   6.748   1.582
 4612SOL    HW114735   2.709   6.712   1.548
 4612SOL    HW214736   2.855   6.672   1.607
 4613SOL     OW14737   1.715   5.628   2.690
 4613SOL    HW114738   1.653   5.594   2.620
 4613SOL    HW214739   1.750   5.718   2.663
 4614SOL     OW14740   6.109   3.083   3.646
 4614SOL    HW114741   6.105   2.988   3.615
 4614SOL    HW214742   6.118   3.085   3.746
 4615SOL     OW14743   1.467   1.065   0.975
 4615SOL    HW114744   1.496   1.085   0.882
 4615SOL    HW214745   1.547   1.043   1.032
 4616SOL     OW14746   6.015   1.840   4.279
 4616SOL    HW114747   5.981   1.934   4.277
 4616SOL    HW214748   6.081   1.830   4.354
 4617SOL     OW14749   1.788   2.308   2.089
 4617SOL    HW114750   1.851   2.344   2.158
 4617SOL    HW214751   1.704   2.279   2.134
 4618SOL     OW14752   2.102   3.010   5.890
 4618SOL    HW114753   2.159   3.050   5.962
 4618SOL    HW214754   2.157   3.001   5.807
 4619SOL     OW14755   3.226   6.613   3.852
 4619SOL    HW114756   3.192   6.596   3.945
 4619SOL    HW214757   3.153   6.596   3.786
 4620SOL     OW14758   0.815   4.358   1.485
 4620SOL    HW114759   0.741   4.424   1.472
 4620SOL    HW214760   0.810   4.287   1.415
 4621SOL     OW14761   5.305   0.982   2.382
 4621SOL    HW114762   5.369   1.035   2.326
 4621SOL    HW214763   5.214   0.985   2.339
 4622SOL     OW14764   3.397   5.151   0.867
 4622SOL    HW114765   3.371   5.232   0.919
 4622SOL    HW214766   3.322   5.124   0.807
 4623SOL     OW14767   3.919   5.321   0.912
 4623SOL    HW114768   3.827   5.334   0.950
 4623SOL    HW214769   3.986   5.320   0.987
 4624SOL     OW14770   3.509   1.093   3.084
 4624SOL    HW114771   3.488   1.134   2.995
 4624SOL    HW214772   3.566   1.156   3.137
 4625SOL     OW14773   1.962   5.558   2.087
 4625SOL    HW114774   2.050   5.516   2.111
 4625SOL    HW214775   1.947   5.639   2.143
 4626SOL     OW14776   4.161   4.341   1.628
 4626SOL    HW114777   4.247   4.363   1.673
 4626SOL    HW214778   4.165   4.369   1.532
 4627SOL     OW14779   1.062   5.695   5.007
 4627SOL    HW114780   1.098   5.675   5.098
 4627SOL    HW214781   1.071   5.793   4.988
 4628SOL     OW14782   4.448   4.591   4.704
 4628SOL    HW114783   4.376   4.651   4.668
 4628SOL    HW214784   4.424   4.564   4.798
 4629SOL     OW14785   2.230   4.734   6.005
 4629SOL    HW114786   2.255   4.649   6.052
 4629SOL    HW214787   2.312   4.778   5.969
 4630SOL     OW14788   2.334   5.130   2.374
 4630SOL    HW114789   2.292   5.055   2.425
 4630SOL    HW214790   2.309   5.217   2.416
 4631SOL     OW14791   0.875   6.419   3.831
 4631SOL    HW114792   0.812   6.471   3.889
 4631SOL    HW214793   0.938   6.482   3.786
 4632SOL     OW14794   2.582   5.029   3.178
 4632SOL    HW114795   2.654   5.008   3.112
 4632SOL    HW214796   2.492   5.015   3.137
 4633SOL     OW14797   5.684   1.039   4.668
 4633SOL    HW114798   5.713   1.068   4.577
 4633SOL    HW214799   5.642   0.948   4.662
 4634SOL     OW14800   2.418   3.746   5.320
 4634SOL    HW114801   2.513   3.729   5.347
 4634SOL    HW214802   2.409   3.840   5.286
 4635SOL     OW14803   4.415   4.442   1.738
 4635SOL    HW114804   4.431   4.351   1.776
 4635SOL    HW214805   4.427   4.511   1.809
 4636SOL     OW14806   2.160   4.700   0.229
 4636SOL    HW114807   2.200   4.699   0.320
 4636SOL    HW214808   2.159   4.794   0.194
 4637SOL     OW14809   0.947   6.682   0.794
 4637SOL    HW114810   0.988   6.592   0.810
 4637SOL    HW214811   0.963   6.709   0.699
 4638SOL     OW14812   3.862   5.971   6.551
 4638SOL    HW114813   3.860   5.875   6.580
 4638SOL    HW214814   3.939   6.017   6.595
 4639SOL     OW14815   2.595   2.790   6.259
 4639SOL    HW114816   2.593   2.847   6.341
 4639SOL    HW214817   2.649   2.707   6.277
 4640SOL     OW14818   6.262   3.202   4.442
 4640SOL    HW114819   6.167   3.177   4.461
 4640SOL    HW214820   6.264   3.293   4.400
 4641SOL     OW14821   2.246   0.349   4.062
 4641SOL    HW114822   2.283   0.442   4.061
 4641SOL    HW214823   2.215   0.324   3.970
 4642SOL     OW14824   1.615   6.626   2.784
 4642SOL    HW114825   1.703   6.673   2.794
 4642SOL    HW214826   1.540   6.691   2.796
 4643SOL     OW14827   6.836   2.482   0.638
 4643SOL    HW114828   6.916   2.541   0.645
 4643SOL    HW214829   6.803   2.483   0.544
 4644SOL     OW14830   0.534   0.558   5.743
 4644SOL    HW114831   0.449   0.560   5.690
 4644SOL    HW214832   0.533   0.632   5.811
 4645SOL     OW14833   2.003   1.151   4.477
 4645SOL    HW114834   1.936   1.206   4.427
 4645SOL    HW214835   2.095   1.188   4.463
 4646SOL     OW14836   2.421   5.027   3.707
 4646SOL    HW114837   2.358   5.103   3.725
 4646SOL    HW214838   2.382   4.967   3.637
 4647SOL     OW14839   1.415   0.284   2.960
 4647SOL    HW114840   1.340   0.346   2.984
 4647SOL    HW214841   1.502   0.325   2.988
 4648SOL     OW14842   2.469   0.775   4.360
 4648SOL    HW114843   2.503   0.796   4.452
 4648SOL    HW214844   2.379   0.733   4.367
 4649SOL     OW14845   6.166   0.863   0.534
 4649SOL    HW114846   6.212   0.943   0.572
 4649SOL    HW214847   6.155   0.874   0.436
 4650SOL     OW14848   4.492   4.996   1.825
 4650SOL    HW114849   4.483   5.058   1.903
 4650SOL    HW214850   4.411   4.938   1.818
 4651SOL     OW14851   5.986   3.475   6.688
 4651SOL    HW114852   5.915   3.500   6.754
 4651SOL    HW214853   6.076   3.480   6.731
 4652SOL     OW14854   6.143   6.557   4.795
 4652SOL    HW114855   6.239   6.553   4.766
 4652SOL    HW214856   6.138   6.543   4.894
 4653SOL     OW14857   4.994   5.820   0.423
 4653SOL    HW114858   4.895   5.812   0.415
 4653SOL    HW214859   5.020   5.916   0.416
 4654SOL     OW14860   0.644   5.961   5.837
 4654SOL    HW114861   0.617   6.035   5.898
 4654SOL    HW214862   0.562   5.915   5.802
 4655SOL     OW14863   5.049   4.057   1.650
 4655SOL    HW114864   5.143   4.026   1.658
 4655SOL    HW214865   5.001   4.000   1.583
 4656SOL     OW14866   1.089   0.695   1.593
 4656SOL    HW114867   1.137   0.624   1.541
 4656SOL    HW214868   1.143   0.780   1.592
 4657SOL     OW14869   4.773   5.332   1.776
 4657SOL    HW114870   4.781   5.313   1.678
 4657SOL    HW214871   4.724   5.419   1.789
 4658SOL     OW14872   3.035   1.813   5.037
 4658SOL    HW114873   3.073   1.896   4.996
 4658SOL    HW214874   2.943   1.798   5.001
 4659SOL     OW14875   2.327   4.241   0.012
 4659SOL    HW114876   2.270   4.171   0.054
 4659SOL    HW214877   2.288   4.332   0.030
 4660SOL     OW14878   1.359   6.436   4.138
 4660SOL    HW114879   1.418   6.484   4.074
 4660SOL    HW214880   1.325   6.500   4.207
 4661SOL     OW14881   2.302   4.867   5.578
 4661SOL    HW114882   2.300   4.838   5.482
 4661SOL    HW214883   2.231   4.935   5.594
 4662SOL     OW14884   3.057   0.281   5.607
 4662SOL    HW114885   2.975   0.319   5.648
 4662SOL    HW214886   3.046   0.182   5.595
 4663SOL     OW14887   0.480   0.290   0.853
 4663SOL    HW114888   0.571   0.259   0.882
 4663SOL    HW214889   0.456   0.246   0.767
 4664SOL     OW14890   0.442   0.605   0.495
 4664SOL    HW114891   0.419   0.526   0.438
 4664SOL    HW214892   0.534   0.637   0.471
 4665SOL     OW14893   2.520   6.982   5.949
 4665SOL    HW114894   2.544   7.024   5.861
 4665SOL    HW214895   2.425   6.951   5.946
 4666SOL     OW14896   2.188   2.071   6.586
 4666SOL    HW114897   2.174   2.024   6.499
 4666SOL    HW214898   2.147   2.163   6.581
 4667SOL     OW14899   6.522   3.936   1.722
 4667SOL    HW114900   6.446   4.001   1.734
 4667SOL    HW214901   6.539   3.923   1.624
 4668SOL     OW14902   4.920   1.503   4.502
 4668SOL    HW114903   5.000   1.520   4.445
 4668SOL    HW214904   4.933   1.545   4.592
 4669SOL     OW14905   5.248   0.291   6.077
 4669SOL    HW114906   5.245   0.387   6.049
 4669SOL    HW214907   5.252   0.233   5.995
 4670SOL     OW14908   1.020   2.883   6.566
 4670SOL    HW114909   1.079   2.961   6.547
 4670SOL    HW214910   0.945   2.911   6.626
 4671SOL     OW14911   1.124   3.130   6.555
 4671SOL    HW114912   1.200   3.192   6.576
 4671SOL    HW214913   1.045   3.184   6.527
 4672SOL     OW14914   3.884   4.750   6.353
 4672SOL    HW114915   3.983   4.764   6.342
 4672SOL    HW214916   3.868   4.666   6.404
 4673SOL     OW14917   4.810   6.855   0.322
 4673SOL    HW114918   4.859   6.883   0.240
 4673SOL    HW214919   4.723   6.903   0.327
 4674SOL     OW14920   5.495   1.754   0.501
 4674SOL    HW114921   5.463   1.801   0.419
 4674SOL    HW214922   5.495   1.655   0.486
 4675SOL     OW14923   3.523   0.569   6.618
 4675SOL    HW114924   3.427   0.546   6.607
 4675SOL    HW214925   3.569   0.497   6.671
 4676SOL     OW14926   0.414   0.007   5.137
 4676SOL    HW114927   0.367   6.945   5.126
 4676SOL    HW214928   0.468   0.027   5.055
 4677SOL     OW14929   2.937   0.330   6.840
 4677SOL    HW114930   2.888   0.396   6.898
 4677SOL    HW214931   2.885   0.245   6.837
 4678SOL     OW14932   1.975   4.988   2.225
 4678SOL    HW114933   2.045   5.051   2.193
 4678SOL    HW214934   1.969   4.910   2.163
 4679SOL     OW14935   3.834   1.466   6.795
 4679SOL    HW114936   3.771   1.516   6.737
 4679SOL    HW214937   3.801   1.468   6.890
 4680SOL     OW14938   2.201   6.954   2.148
 4680SOL    HW114939   2.120   6.996   2.189
 4680SOL    HW214940   2.283   7.000   2.183
 4681SOL     OW14941   6.464   5.955   4.856
 4681SOL    HW114942   6.470   5.942   4.757
 4681SOL    HW214943   6.368   5.951   4.884
 4682SOL     OW14944   4.545   4.851   7.016
 4682SOL    HW114945   4.463   4.907   7.006
 4682SOL    HW214946   4.530   4.783   0.062
 4683SOL     OW14947   5.186   4.714   2.356
 4683SOL    HW114948   5.165   4.632   2.303
 4683SOL    HW214949   5.210   4.688   2.450
 4684SOL     OW14950   0.018   2.093   4.528
 4684SOL    HW114951   0.037   1.999   4.501
 4684SOL    HW214952   6.995   2.140   4.454
 4685SOL     OW14953   0.063   5.635   4.680
 4685SOL    HW114954   0.045   5.546   4.721
 4685SOL    HW214955   0.066   5.626   4.580
 4686SOL     OW14956   4.915   5.919   0.137
 4686SOL    HW114957   4.980   5.849   0.166
 4686SOL    HW214958   4.921   5.931   0.038
 4687SOL     OW14959   6.436   5.050   5.155
 4687SOL    HW114960   6.342   5.038   5.122
 4687SOL    HW214961   6.435   5.106   5.238
 4688SOL     OW14962   0.046   2.810   6.088
 4688SOL    HW114963   0.005   2.883   6.034
 4688SOL    HW214964   0.119   2.847   6.145
 4689SOL     OW14965   5.572   0.607   6.632
 4689SOL    HW114966   5.473   0.608   6.617
 4689SOL    HW214967   5.592   0.561   6.718
 4690SOL     OW14968   0.847   1.657   6.912
 4690SOL    HW114969   0.766   1.710   6.886
 4690SOL    HW214970   0.929   1.712   6.899
 4691SOL     OW14971   3.062   4.063   2.007
 4691SOL    HW114972   3.055   4.011   1.921
 4691SOL    HW214973   3.084   4.158   1.987
 4692SOL     OW14974   6.725   5.258   2.405
 4692SOL    HW114975   6.632   5.290   2.424
 4692SOL    HW214976   6.755   5.293   2.317
 4693SOL     OW14977   0.776   0.937   4.022
 4693SOL    HW114978   0.724   0.973   4.099
 4693SOL    HW214979   0.865   0.904   4.054
 4694SOL     OW14980   2.635   0.594   0.280
 4694SOL    HW114981   2.549   0.566   0.237
 4694SOL    HW214982   2.682   0.513   0.315
 4695SOL     OW14983   3.377   3.519   1.821
 4695SOL    HW114984   3.372   3.439   1.762
 4695SOL    HW214985   3.466   3.564   1.810
 4696SOL     OW14986   0.762   4.677   5.906
 4696SOL    HW114987   0.848   4.629   5.924
 4696SOL    HW214988   0.760   4.762   5.959
 4697SOL     OW14989   1.671   3.475   0.726
 4697SOL    HW114990   1.717   3.505   0.643
 4697SOL    HW214991   1.579   3.514   0.730
 4698SOL     OW14992   4.882   5.330   3.161
 4698SOL    HW114993   4.872   5.232   3.172
 4698SOL    HW214994   4.808   5.377   3.210
 4699SOL     OW14995   1.238   6.869   2.133
 4699SOL    HW114996   1.295   6.801   2.086
 4699SOL    HW214997   1.163   6.822   2.180
 4700SOL     OW14998   5.489   1.762   2.137
 4700SOL    HW114999   5.476   1.841   2.077
 4700SOL    HW215000   5.575   1.772   2.187
 4701SOL     OW15001   1.339   2.300   0.194
 4701SOL    HW115002   1.420   2.278   0.247
 4701SOL    HW215003   1.343   2.255   0.105
 4702SOL     OW15004   5.221   4.906   6.600
 4702SOL    HW115005   5.239   4.988   6.546
 4702SOL    HW215006   5.239   4.825   6.545
 4703SOL     OW15007   0.660   2.525   2.533
 4703SOL    HW115008   0.704   2.466   2.600
 4703SOL    HW215009   0.653   2.618   2.570
 4704SOL     OW15010   6.917   6.516   0.701
 4704SOL    HW115011   6.992   6.451   0.708
 4704SOL    HW215012   6.839   6.472   0.655
 4705SOL     OW15013   3.820   3.760   2.818
 4705SOL    HW115014   3.811   3.770   2.719
 4705SOL    HW215015   3.916   3.742   2.841
 4706SOL     OW15016   4.255   6.435   6.501
 4706SOL    HW115017   4.309   6.400   6.425
 4706SOL    HW215018   4.201   6.514   6.471
 4707SOL     OW15019   2.165   5.954   0.651
 4707SOL    HW115020   2.239   6.021   0.659
 4707SOL    HW215021   2.179   5.880   0.716
 4708SOL     OW15022   1.771   2.728   0.165
 4708SOL    HW115023   1.699   2.668   0.200
 4708SOL    HW215024   1.753   2.749   0.069
 4709SOL     OW15025   3.826   5.148   5.216
 4709SOL    HW115026   3.896   5.088   5.254
 4709SOL    HW215027   3.800   5.216   5.285
 4710SOL     OW15028   4.222   1.324   5.729
 4710SOL    HW115029   4.215   1.283   5.638
 4710SOL    HW215030   4.310   1.371   5.738
 4711SOL     OW15031   5.013   0.734   2.587
 4711SOL    HW115032   5.031   0.648   2.635
 4711SOL    HW215033   5.091   0.796   2.600
 4712SOL     OW15034   2.504   4.804   0.828
 4712SOL    HW115035   2.571   4.838   0.894
 4712SOL    HW215036   2.413   4.831   0.857
 4713SOL     OW15037   2.647   4.038   1.202
 4713SOL    HW115038   2.596   4.075   1.125
 4713SOL    HW215039   2.584   4.000   1.269
 4714SOL     OW15040   2.391   1.963   6.948
 4714SOL    HW115041   2.373   2.051   6.903
 4714SOL    HW215042   2.480   1.928   6.918
 4715SOL     OW15043   6.839   3.730   1.570
 4715SOL    HW115044   6.780   3.649   1.565
 4715SOL    HW215045   6.906   3.727   1.495
 4716SOL     OW15046   3.751   5.399   6.461
 4716SOL    HW115047   3.753   5.454   6.378
 4716SOL    HW215048   3.809   5.319   6.450
 4717SOL     OW15049   1.356   6.249   2.804
 4717SOL    HW115050   1.348   6.214   2.897
 4717SOL    HW215051   1.270   6.291   2.776
 4718SOL     OW15052   5.276   1.676   6.495
 4718SOL    HW115053   5.333   1.604   6.534
 4718SOL    HW215054   5.197   1.636   6.449
 4719SOL     OW15055   4.973   3.358   2.637
 4719SOL    HW115056   4.939   3.450   2.656
 4719SOL    HW215057   5.030   3.359   2.555
 4720SOL     OW15058   2.645   6.383   5.678
 4720SOL    HW115059   2.719   6.319   5.657
 4720SOL    HW215060   2.557   6.337   5.667
 4721SOL     OW15061   6.460   1.980   1.957
 4721SOL    HW115062   6.501   2.067   1.930
 4721SOL    HW215063   6.519   1.935   2.025
 4722SOL     OW15064   1.394   5.944   7.001
 4722SOL    HW115065   1.336   5.971   0.052
 4722SOL    HW215066   1.463   5.879   0.006
 4723SOL     OW15067   1.722   5.193   5.252
 4723SOL    HW115068   1.783   5.114   5.255
 4723SOL    HW215069   1.771   5.272   5.217
 4724SOL     OW15070   4.912   5.921   2.734
 4724SOL    HW115071   4.918   5.840   2.792
 4724SOL    HW215072   4.961   5.905   2.648
 4725SOL     OW15073   5.446   6.482   2.523
 4725SOL    HW115074   5.478   6.576   2.515
 4725SOL    HW215075   5.522   6.423   2.552
 4726SOL     OW15076   1.883   3.805   6.427
 4726SOL    HW115077   1.862   3.716   6.468
 4726SOL    HW215078   1.913   3.868   6.499
 4727SOL     OW15079   7.008   6.131   6.868
 4727SOL    HW115080   6.965   6.076   6.796
 4727SOL    HW215081   6.952   6.211   6.886
 4728SOL     OW15082   4.727   1.625   1.304
 4728SOL    HW115083   4.820   1.654   1.279
 4728SOL    HW215084   4.680   1.701   1.348
 4729SOL     OW15085   2.608   1.181   2.555
 4729SOL    HW115086   2.677   1.185   2.483
 4729SOL    HW215087   2.641   1.123   2.630
 4730SOL     OW15088   2.222   5.891   5.118
 4730SOL    HW115089   2.163   5.823   5.077
 4730SOL    HW215090   2.314   5.885   5.078
 4731SOL     OW15091   4.978   0.181   6.188
 4731SOL    HW115092   5.009   0.268   6.150
 4731SOL    HW215093   4.925   0.198   6.271
 4732SOL     OW15094   6.845   3.422   6.623
 4732SOL    HW115095   6.941   3.399   6.641
 4732SOL    HW215096   6.809   3.360   6.553
 4733SOL     OW15097   0.626   4.525   2.919
 4733SOL    HW115098   0.716   4.492   2.946
 4733SOL    HW215099   0.601   4.486   2.831
 4734SOL     OW15100   5.220   3.460   6.789
 4734SOL    HW115101   5.246   3.380   6.736
 4734SOL    HW215102   5.121   3.457   6.806
 4735SOL     OW15103   0.653   5.302   3.891
 4735SOL    HW115104   0.642   5.361   3.971
 4735SOL    HW215105   0.701   5.219   3.917
 4736SOL     OW15106   0.462   1.454   6.503
 4736SOL    HW115107   0.527   1.389   6.544
 4736SOL    HW215108   0.449   1.432   6.407
 4737SOL     OW15109   1.607   5.613   2.029
 4737SOL    HW115110   1.669   5.691   2.022
 4737SOL    HW215111   1.622   5.551   1.952
 4738SOL     OW15112   0.242   6.110   2.803
 4738SOL    HW115113   0.260   6.200   2.842
 4738SOL    HW215114   0.144   6.103   2.780
 4739SOL     OW15115   4.249   6.579   2.713
 4739SOL    HW115116   4.349   6.581   2.716
 4739SOL    HW215117   4.218   6.487   2.689
 4740SOL     OW15118   0.152   1.422   2.095
 4740SOL    HW115119   0.066   1.394   2.053
 4740SOL    HW215120   0.209   1.468   2.026
 4741SOL     OW15121   3.288   2.356   1.744
 4741SOL    HW115122   3.372   2.301   1.748
 4741SOL    HW215123   3.312   2.453   1.745
 4742SOL     OW15124   1.941   6.525   6.411
 4742SOL    HW115125   1.912   6.455   6.345
 4742SOL    HW215126   1.931   6.489   6.504
 4743SOL     OW15127   2.066   3.219   2.719
 4743SOL    HW115128   2.106   3.150   2.779
 4743SOL    HW215129   1.971   3.234   2.742
 4744SOL     OW15130   2.181   5.134   1.315
 4744SOL    HW115131   2.132   5.144   1.228
 4744SOL    HW215132   2.250   5.205   1.324
 4745SOL     OW15133   3.215   4.024   0.218
 4745SOL    HW115134   3.310   4.015   0.250
 4745SOL    HW215135   3.168   4.094   0.272
 4746SOL     OW15136   4.482   6.452   3.832
 4746SOL    HW115137   4.528   6.476   3.918
 4746SOL    HW215138   4.545   6.400   3.775
 4747SOL     OW15139   1.382   3.546   0.735
 4747SOL    HW115140   1.337   3.489   0.803
 4747SOL    HW215141   1.408   3.633   0.777
 4748SOL     OW15142   1.151   6.969   1.515
 4748SOL    HW115143   1.216   6.906   1.557
 4748SOL    HW215144   1.059   6.953   1.553
 4749SOL     OW15145   1.949   6.732   6.242
 4749SOL    HW115146   1.967   6.669   6.317
 4749SOL    HW215147   1.968   6.687   6.155
 4750SOL     OW15148   6.253   3.884   5.262
 4750SOL    HW115149   6.272   3.885   5.164
 4750SOL    HW215150   6.188   3.957   5.284
 4751SOL     OW15151   4.686   2.605   3.121
 4751SOL    HW115152   4.617   2.592   3.192
 4751SOL    HW215153   4.762   2.659   3.158
 4752SOL     OW15154   4.732   0.562   0.337
 4752SOL    HW115155   4.749   0.645   0.285
 4752SOL    HW215156   4.816   0.508   0.343
 4753SOL     OW15157   0.865   0.080   4.009
 4753SOL    HW115158   0.937   0.033   4.060
 4753SOL    HW215159   0.906   0.144   3.944
 4754SOL     OW15160   5.030   3.531   4.913
 4754SOL    HW115161   4.950   3.559   4.966
 4754SOL    HW215162   5.064   3.444   4.948
 4755SOL     OW15163   2.428   0.424   0.869
 4755SOL    HW115164   2.410   0.522   0.857
 4755SOL    HW215165   2.342   0.373   0.862
 4756SOL     OW15166   6.628   4.023   5.841
 4756SOL    HW115167   6.705   4.021   5.905
 4756SOL    HW215168   6.542   4.013   5.891
 4757SOL     OW15169   1.774   2.545   1.325
 4757SOL    HW115170   1.795   2.642   1.338
 4757SOL    HW215171   1.796   2.495   1.408
 4758SOL     OW15172   1.157   6.875   2.986
 4758SOL    HW115173   1.098   6.807   2.943
 4758SOL    HW215174   1.118   6.966   2.974
 4759SOL     OW15175   0.649   5.701   6.806
 4759SOL    HW115176   0.655   5.751   6.893
 4759SOL    HW215177   0.553   5.696   6.778
 4760SOL     OW15178   1.118   0.893   0.791
 4760SOL    HW115179   1.039   0.951   0.775
 4760SOL    HW215180   1.179   0.897   0.712
 4761SOL     OW15181   1.397   0.495   0.526
 4761SOL    HW115182   1.330   0.499   0.601
 4761SOL    HW215183   1.474   0.555   0.548
 4762SOL     OW15184   1.610   5.940   2.326
 4762SOL    HW115185   1.584   5.844   2.323
 4762SOL    HW215186   1.531   5.997   2.301
 4763SOL     OW15187   5.011   0.325   2.455
 4763SOL    HW115188   5.085   0.362   2.511
 4763SOL    HW215189   4.983   0.393   2.387
 4764SOL     OW15190   4.621   3.339   5.356
 4764SOL    HW115191   4.626   3.409   5.284
 4764SOL    HW215192   4.525   3.312   5.369
 4765SOL     OW15193   3.680   0.937   6.207
 4765SOL    HW115194   3.710   0.842   6.213
 4765SOL    HW215195   3.740   0.988   6.145
 4766SOL     OW15196   6.318   6.139   4.494
 4766SOL    HW115197   6.378   6.215   4.519
 4766SOL    HW215198   6.236   6.175   4.448
 4767SOL     OW15199   2.696   5.242   5.662
 4767SOL    HW115200   2.779   5.195   5.691
 4767SOL    HW215201   2.626   5.174   5.640
 4768SOL     OW15202   4.013   3.708   6.313
 4768SOL    HW115203   4.069   3.695   6.395
 4768SOL    HW215204   3.971   3.622   6.287
 4769SOL     OW15205   3.399   5.788   0.002
 4769SOL    HW115206   3.456   5.858   0.046
 4769SOL    HW215207   3.385   5.812   6.932
 4770SOL     OW15208   6.615   1.813   4.744
 4770SOL    HW115209   6.683   1.886   4.740
 4770SOL    HW215210   6.647   1.736   4.689
 4771SOL     OW15211   2.419   6.345   5.512
 4771SOL    HW115212   2.330   6.317   5.549
 4771SOL    HW215213   2.470   6.263   5.485
 4772SOL     OW15214   2.749   5.223   0.948
 4772SOL    HW115215   2.758   5.259   0.855
 4772SOL    HW215216   2.804   5.140   0.957
 4773SOL     OW15217   0.908   5.629   4.075
 4773SOL    HW115218   0.844   5.689   4.123
 4773SOL    HW215219   0.958   5.682   4.007
 4774SOL     OW15220   1.435   3.965   1.309
 4774SOL    HW115221   1.440   4.059   1.341
 4774SOL    HW215222   1.411   3.964   1.211
 4775SOL     OW15223   4.549   6.798   4.365
 4775SOL    HW115224   4.647   6.802   4.385
 4775SOL    HW215225   4.532   6.728   4.295
 4776SOL     OW15226   0.937   1.084   4.764
 4776SOL    HW115227   0.970   0.993   4.740
 4776SOL    HW215228   0.972   1.151   4.698
 4777SOL     OW15229   1.744   5.827   0.923
 4777SOL    HW115230   1.662   5.811   0.868
 4777SOL    HW215231   1.795   5.904   0.884
 4778SOL     OW15232   0.459   2.851   4.612
 4778SOL    HW115233   0.551   2.891   4.607
 4778SOL    HW215234   0.463   2.766   4.664
 4779SOL     OW15235   5.552   6.311   4.184
 4779SOL    HW115236   5.481   6.381   4.186
 4779SOL    HW215237   5.635   6.347   4.227
 4780SOL     OW15238   5.958   2.565   6.185
 4780SOL    HW115239   6.025   2.618   6.133
 4780SOL    HW215240   5.982   2.468   6.179
 4781SOL     OW15241   3.109   5.421   2.561
 4781SOL    HW115242   3.182   5.357   2.586
 4781SOL    HW215243   3.031   5.408   2.621
 4782SOL     OW15244   6.210   6.071   5.952
 4782SOL    HW115245   6.155   6.045   6.031
 4782SOL    HW215246   6.198   6.169   5.933
 4783SOL     OW15247   6.170   3.603   0.222
 4783SOL    HW115248   6.245   3.641   0.166
 4783SOL    HW215249   6.159   3.506   0.201
 4784SOL     OW15250   5.830   1.796   5.984
 4784SOL    HW115251   5.798   1.873   6.038
 4784SOL    HW215252   5.862   1.828   5.895
 4785SOL     OW15253   0.106   6.513   2.458
 4785SOL    HW115254   0.174   6.495   2.387
 4785SOL    HW215255   0.133   6.467   2.543
 4786SOL     OW15256   2.789   6.981   0.173
 4786SOL    HW115257   2.805   6.972   0.075
 4786SOL    HW215258   2.854   6.923   0.223
 4787SOL     OW15259   4.232   2.002   3.871
 4787SOL    HW115260   4.156   2.042   3.819
 4787SOL    HW215261   4.195   1.944   3.944
 4788SOL     OW15262   6.107   6.089   0.225
 4788SOL    HW115263   6.206   6.076   0.222
 4788SOL    HW215264   6.075   6.076   0.319
 4789SOL     OW15265   5.248   1.394   1.769
 4789SOL    HW115266   5.265   1.467   1.835
 4789SOL    HW215267   5.150   1.390   1.748
 4790SOL     OW15268   5.053   1.710   5.684
 4790SOL    HW115269   5.148   1.726   5.658
 4790SOL    HW215270   5.012   1.796   5.715
 4791SOL     OW15271   0.558   2.795   1.524
 4791SOL    HW115272   0.574   2.887   1.558
 4791SOL    HW215273   0.490   2.749   1.580
 4792SOL     OW15274   2.021   4.317   4.224
 4792SOL    HW115275   1.958   4.287   4.295
 4792SOL    HW215276   2.085   4.383   4.262
 4793SOL     OW15277   1.800   3.540   5.413
 4793SOL    HW115278   1.833   3.493   5.330
 4793SOL    HW215279   1.804   3.639   5.399
 4794SOL     OW15280   4.458   6.749   3.857
 4794SOL    HW115281   4.442   6.654   3.829
 4794SOL    HW215282   4.539   6.753   3.915
 4795SOL     OW15283   0.054   1.682   4.846
 4795SOL    HW115284   7.008   1.617   4.872
 4795SOL    HW215285   0.015   1.773   4.834
 4796SOL     OW15286   3.552   0.239   6.114
 4796SOL    HW115287   3.541   0.320   6.056
 4796SOL    HW215288   3.473   0.232   6.175
 4797SOL     OW15289   0.679   5.519   4.333
 4797SOL    HW115290   0.749   5.568   4.385
 4797SOL    HW215291   0.592   5.522   4.384
 4798SOL     OW15292   6.192   5.169   6.237
 4798SOL    HW115293   6.119   5.230   6.268
 4798SOL    HW215294   6.223   5.113   6.314
 4799SOL     OW15295   4.264   1.446   6.937
 4799SOL    HW115296   4.219   1.458   6.849
 4799SOL    HW215297   4.196   1.421   7.006
 4800SOL     OW15298   1.668   4.620   6.882
 4800SOL    HW115299   1.585   4.604   6.828
 4800SOL    HW215300   1.645   4.672   6.963
 4801SOL     OW15301   3.853   3.023   0.293
 4801SOL    HW115302   3.902   3.108   0.311
 4801SOL    HW215303   3.908   2.945   0.324
 4802SOL     OW15304   6.703   6.468   1.738
 4802SOL    HW115305   6.616   6.491   1.782
 4802SOL    HW215306   6.686   6.442   1.643
 4803SOL     OW15307   5.931   4.634   1.282
 4803SOL    HW115308   5.999   4.566   1.254
 4803SOL    HW215309   5.885   4.670   1.200
 4804SOL     OW15310   5.766   0.934   1.092
 4804SOL    HW115311   5.718   0.887   1.167
 4804SOL    HW215312   5.705   0.940   1.013
 4805SOL     OW15313   6.962   1.136   2.190
 4805SOL    HW115314   6.953   1.173   2.282
 4805SOL    HW215315   0.008   1.067   2.188
 4806SOL     OW15316   1.074   4.042   3.168
 4806SOL    HW115317   1.023   4.073   3.087
 4806SOL    HW215318   1.167   4.078   3.164
 4807SOL     OW15319   1.839   3.588   6.700
 4807SOL    HW115320   1.867   3.536   6.781
 4807SOL    HW215321   1.920   3.609   6.645
 4808SOL     OW15322   3.888   5.218   0.563
 4808SOL    HW115323   3.950   5.287   0.600
 4808SOL    HW215324   3.842   5.171   0.638
 4809SOL     OW15325   3.654   4.351   1.707
 4809SOL    HW115326   3.688   4.360   1.613
 4809SOL    HW215327   3.641   4.441   1.747
 4810SOL     OW15328   1.227   4.232   3.907
 4810SOL    HW115329   1.217   4.250   3.809
 4810SOL    HW215330   1.305   4.284   3.943
 4811SOL     OW15331   3.964   4.033   4.451
 4811SOL    HW115332   4.034   3.961   4.447
 4811SOL    HW215333   3.874   3.991   4.464
 4812SOL     OW15334   0.634   0.069   1.710
 4812SOL    HW115335   0.572   0.110   1.642
 4812SOL    HW215336   0.642   6.997   1.691
 4813SOL     OW15337   5.822   2.112   5.873
 4813SOL    HW115338   5.797   2.183   5.807
 4813SOL    HW215339   5.892   2.147   5.935
 4814SOL     OW15340   0.140   3.229   2.260
 4814SOL    HW115341   0.086   3.276   2.330
 4814SOL    HW215342   0.181   3.297   2.199
 4815SOL     OW15343   5.249   4.626   2.599
 4815SOL    HW115344   5.216   4.661   2.687
 4815SOL    HW215345   5.313   4.551   2.616
 4816SOL     OW15346   2.329   6.517   1.352
 4816SOL    HW115347   2.252   6.482   1.404
 4816SOL    HW215348   2.319   6.616   1.339
 4817SOL     OW15349   3.490   1.094   1.731
 4817SOL    HW115350   3.565   1.102   1.665
 4817SOL    HW215351   3.454   1.000   1.728
 4818SOL     OW15352   1.436   1.145   4.378
 4818SOL    HW115353   1.508   1.143   4.309
 4818SOL    HW215354   1.347   1.128   4.335
 4819SOL     OW15355   3.077   1.912   1.815
 4819SOL    HW115356   3.095   2.007   1.842
 4819SOL    HW215357   3.071   1.855   1.896
 4820SOL     OW15358   6.396   2.592   1.217
 4820SOL    HW115359   6.383   2.600   1.118
 4820SOL    HW215360   6.435   2.503   1.239
 4821SOL     OW15361   6.166   5.948   1.120
 4821SOL    HW115362   6.172   6.028   1.060
 4821SOL    HW215363   6.212   5.967   1.206
 4822SOL     OW15364   1.853   3.348   3.725
 4822SOL    HW115365   1.757   3.356   3.696
 4822SOL    HW215366   1.870   3.254   3.755
 4823SOL     OW15367   6.997   0.687   3.686
 4823SOL    HW115368   7.014   0.642   3.774
 4823SOL    HW215369   7.016   0.623   3.612
 4824SOL     OW15370   5.636   1.745   4.087
 4824SOL    HW115371   5.539   1.721   4.093
 4824SOL    HW215372   5.650   1.833   4.133
 4825SOL     OW15373   2.281   2.617   3.975
 4825SOL    HW115374   2.207   2.636   4.038
 4825SOL    HW215375   2.247   2.621   3.881
 4826SOL     OW15376   0.550   6.975   0.912
 4826SOL    HW115377   0.649   6.989   0.906
 4826SOL    HW215378   0.509   0.020   0.968
 4827SOL     OW15379   6.122   0.519   1.700
 4827SOL    HW115380   6.034   0.565   1.684
 4827SOL    HW215381   6.115   0.463   1.783
 4828SOL     OW15382   6.088   3.630   1.741
 4828SOL    HW115383   6.091   3.688   1.823
 4828SOL    HW215384   6.102   3.535   1.767
 4829SOL     OW15385   3.636   6.940   6.511
 4829SOL    HW115386   3.593   0.004   6.516
 4829SOL    HW215387   3.625   6.894   6.599
 4830SOL     OW15388   5.259   5.439   3.987
 4830SOL    HW115389   5.225   5.417   4.078
 4830SOL    HW215390   5.333   5.375   3.963
 4831SOL     OW15391   6.550   5.749   5.752
 4831SOL    HW115392   6.568   5.705   5.664
 4831SOL    HW215393   6.618   5.717   5.819
 4832SOL     OW15394   2.847   2.638   6.571
 4832SOL    HW115395   2.860   2.584   6.655
 4832SOL    HW215396   2.755   2.620   6.535
 4833SOL     OW15397   4.788   1.775   3.106
 4833SOL    HW115398   4.690   1.756   3.101
 4833SOL    HW215399   4.834   1.736   3.026
 4834SOL     OW15400   3.369   0.536   0.273
 4834SOL    HW115401   3.304   0.541   0.349
 4834SOL    HW215402   3.326   0.491   0.195
 4835SOL     OW15403   1.719   0.354   6.861
 4835SOL    HW115404   1.811   0.324   6.836
 4835SOL    HW215405   1.668   0.278   6.901
 4836SOL     OW15406   4.638   2.668   3.520
 4836SOL    HW115407   4.711   2.599   3.520
 4836SOL    HW215408   4.679   2.758   3.509
 4837SOL     OW15409   3.464   2.807   1.909
 4837SOL    HW115410   3.480   2.896   1.866
 4837SOL    HW215411   3.381   2.811   1.963
 4838SOL     OW15412   2.500   5.207   2.165
 4838SOL    HW115413   2.586   5.157   2.153
 4838SOL    HW215414   2.453   5.173   2.247
 4839SOL     OW15415   1.364   3.585   5.609
 4839SOL    HW115416   1.336   3.600   5.514
 4839SOL    HW215417   1.463   3.592   5.616
 4840SOL     OW15418   6.992   0.557   5.985
 4840SOL    HW115419   0.028   0.526   5.912
 4840SOL    HW215420   6.899   0.562   5.950
 4841SOL     OW15421   3.431   5.780   1.801
 4841SOL    HW115422   3.432   5.702   1.739
 4841SOL    HW215423   3.524   5.815   1.812
 4842SOL     OW15424   3.296   4.750   1.768
 4842SOL    HW115425   3.200   4.776   1.777
 4842SOL    HW215426   3.304   4.669   1.710
 4843SOL     OW15427   6.381   4.071   0.390
 4843SOL    HW115428   6.457   4.011   0.412
 4843SOL    HW215429   6.299   4.041   0.439
 4844SOL     OW15430   6.816   4.032   6.057
 4844SOL    HW115431   6.902   4.082   6.071
 4844SOL    HW215432   6.827   3.937   6.088
 4845SOL     OW15433   6.677   5.875   4.367
 4845SOL    HW115434   6.711   5.888   4.273
 4845SOL    HW215435   6.736   5.811   4.415
 4846SOL     OW15436   6.745   3.551   2.079
 4846SOL    HW115437   6.802   3.513   2.153
 4846SOL    HW215438   6.805   3.584   2.006
 4847SOL     OW15439   3.204   1.736   5.838
 4847SOL    HW115440   3.269   1.734   5.762
 4847SOL    HW215441   3.133   1.804   5.820
 4848SOL     OW15442   1.588   1.225   4.581
 4848SOL    HW115443   1.667   1.251   4.525
 4848SOL    HW215444   1.506   1.225   4.525
 4849SOL     OW15445   0.907   6.710   0.079
 4849SOL    HW115446   0.919   6.685   0.176
 4849SOL    HW215447   0.990   6.756   0.046
 4850SOL     OW15448   4.302   1.161   2.242
 4850SOL    HW115449   4.293   1.250   2.198
 4850SOL    HW215450   4.380   1.162   2.304
 4851SOL     OW15451   3.664   5.533   5.433
 4851SOL    HW115452   3.705   5.442   5.444
 4851SOL    HW215453   3.574   5.534   5.477
 4852SOL     OW15454   1.059   0.072   6.525
 4852SOL    HW115455   1.140   0.092   6.580
 4852SOL    HW215456   0.977   0.089   6.579
 4853SOL     OW15457   2.982   0.959   2.458
 4853SOL    HW115458   3.044   1.005   2.522
 4853SOL    HW215459   3.036   0.908   2.391
 4854SOL     OW15460   5.313   6.206   2.676
 4854SOL    HW115461   5.360   6.128   2.635
 4854SOL    HW215462   5.315   6.283   2.613
 4855SOL     OW15463   5.896   2.602   2.362
 4855SOL    HW115464   5.953   2.542   2.307
 4855SOL    HW215465   5.946   2.686   2.383
 4856SOL     OW15466   1.549   3.971   2.293
 4856SOL    HW115467   1.614   3.939   2.225
 4856SOL    HW215468   1.542   3.904   2.367
 4857SOL     OW15469   1.789   2.186   5.660
 4857SOL    HW115470   1.732   2.205   5.740
 4857SOL    HW215471   1.743   2.219   5.578
 4858SOL     OW15472   2.004   1.006   4.710
 4858SOL    HW115473   2.080   1.051   4.756
 4858SOL    HW215474   1.990   1.047   4.620
 4859SOL     OW15475   0.995   0.820   4.160
 4859SOL    HW115476   1.018   0.728   4.128
 4859SOL    HW215477   0.975   0.818   4.258
 4860SOL     OW15478   3.386   4.891   2.058
 4860SOL    HW115479   3.451   4.832   2.011
 4860SOL    HW215480   3.294   4.851   2.052
 4861SOL     OW15481   4.995   5.560   0.026
 4861SOL    HW115482   4.933   5.575   0.103
 4861SOL    HW215483   5.090   5.570   0.057
 4862SOL     OW15484   2.979   4.857   4.898
 4862SOL    HW115485   2.936   4.944   4.924
 4862SOL    HW215486   2.936   4.782   4.948
 4863SOL     OW15487   5.831   4.755   0.598
 4863SOL    HW115488   5.798   4.719   0.511
 4863SOL    HW215489   5.790   4.703   0.673
 4864SOL     OW15490   3.798   1.094   4.214
 4864SOL    HW115491   3.779   1.173   4.273
 4864SOL    HW215492   3.867   1.037   4.258
 4865SOL     OW15493   1.614   0.779   5.862
 4865SOL    HW115494   1.617   0.871   5.900
 4865SOL    HW215495   1.675   0.719   5.913
 4866SOL     OW15496   6.524   3.579   1.124
 4866SOL    HW115497   6.532   3.658   1.063
 4866SOL    HW215498   6.447   3.593   1.186
 4867SOL     OW15499   4.339   5.694   2.886
 4867SOL    HW115500   4.267   5.762   2.869
 4867SOL    HW215501   4.308   5.604   2.855
 4868SOL     OW15502   6.265   4.892   2.919
 4868SOL    HW115503   6.263   4.804   2.870
 4868SOL    HW215504   6.186   4.947   2.891
 4869SOL     OW15505   2.077   1.625   1.362
 4869SOL    HW115506   2.133   1.701   1.329
 4869SOL    HW215507   2.017   1.593   1.289
 4870SOL     OW15508   0.950   6.138   1.521
 4870SOL    HW115509   1.006   6.079   1.579
 4870SOL    HW215510   0.868   6.166   1.570
 4871SOL     OW15511   0.287   0.661   3.825
 4871SOL    HW115512   0.270   0.578   3.773
 4871SOL    HW215513   0.384   0.665   3.851
 4872SOL     OW15514   6.374   6.943   3.439
 4872SOL    HW115515   6.328   7.024   3.477
 4872SOL    HW215516   6.357   6.864   3.499
 4873SOL     OW15517   6.368   5.710   4.434
 4873SOL    HW115518   6.419   5.655   4.499
 4873SOL    HW215519   6.342   5.797   4.476
 4874SOL     OW15520   4.922   3.695   2.398
 4874SOL    HW115521   4.902   3.649   2.311
 4874SOL    HW215522   5.008   3.745   2.390
 4875SOL     OW15523   6.450   1.063   0.286
 4875SOL    HW115524   6.532   1.121   0.287
 4875SOL    HW215525   6.418   1.053   0.192
 4876SOL     OW15526   6.972   1.539   3.497
 4876SOL    HW115527   7.008   1.449   3.471
 4876SOL    HW215528   7.013   1.610   3.439
 4877SOL     OW15529   0.693   1.971   5.416
 4877SOL    HW115530   0.672   1.897   5.352
 4877SOL    HW215531   0.784   2.009   5.394
 4878SOL     OW15532   6.357   1.065   2.005
 4878SOL    HW115533   6.421   1.127   1.959
 4878SOL    HW215534   6.302   1.017   1.936
 4879SOL     OW15535   4.367   2.151   1.846
 4879SOL    HW115536   4.391   2.193   1.759
 4879SOL    HW215537   4.275   2.113   1.841
 4880SOL     OW15538   6.117   3.349   0.125
 4880SOL    HW115539   6.130   3.304   0.037
 4880SOL    HW215540   6.037   3.311   0.171
 4881SOL     OW15541   1.771   1.334   0.410
 4881SOL    HW115542   1.684   1.382   0.420
 4881SOL    HW215543   1.814   1.322   0.499
 4882SOL     OW15544   4.292   1.119   5.370
 4882SOL    HW115545   4.200   1.089   5.345
 4882SOL    HW215546   4.299   1.219   5.361
 4883SOL     OW15547   4.936   4.145   1.209
 4883SOL    HW115548   4.931   4.211   1.284
 4883SOL    HW215549   4.843   4.120   1.180
 4884SOL     OW15550   2.922   5.251   1.726
 4884SOL    HW115551   2.969   5.337   1.710
 4884SOL    HW215552   2.985   5.185   1.767
 4885SOL     OW15553   1.983   5.437   1.356
 4885SOL    HW115554   2.061   5.455   1.296
 4885SOL    HW215555   2.000   5.353   1.409
 4886SOL     OW15556   2.797   6.310   1.285
 4886SOL    HW115557   2.725   6.346   1.344
 4886SOL    HW215558   2.856   6.385   1.255
 4887SOL     OW15559   0.009   6.494   1.439
 4887SOL    HW115560   0.005   6.555   1.518
 4887SOL    HW215561   0.021   6.547   1.356
 4888SOL     OW15562   2.783   0.178   3.346
 4888SOL    HW115563   2.750   0.084   3.355
 4888SOL    HW215564   2.864   0.190   3.402
 4889SOL     OW15565   6.666   2.121   5.060
 4889SOL    HW115566   6.610   2.048   5.019
 4889SOL    HW215567   6.706   2.088   5.145
 4890SOL     OW15568   6.924   1.906   5.488
 4890SOL    HW115569   7.003   1.910   5.549
 4890SOL    HW215570   6.849   1.859   5.534
 4891SOL     OW15571   2.282   5.426   0.067
 4891SOL    HW115572   2.365   5.374   0.087
 4891SOL    HW215573   2.295   5.477   7.008
 4892SOL     OW15574   4.551   5.603   2.149
 4892SOL    HW115575   4.493   5.522   2.156
 4892SOL    HW215576   4.502   5.683   2.185
 4893SOL     OW15577   6.173   3.407   2.472
 4893SOL    HW115578   6.221   3.411   2.384
 4893SOL    HW215579   6.090   3.462   2.467
 4894SOL     OW15580   3.800   0.613   2.741
 4894SOL    HW115581   3.772   0.708   2.732
 4894SOL    HW215582   3.885   0.598   2.690
 4895SOL     OW15583   0.669   4.699   3.930
 4895SOL    HW115584   0.678   4.629   3.858
 4895SOL    HW215585   0.625   4.780   3.892
 4896SOL     OW15586   2.366   4.620   2.301
 4896SOL    HW115587   2.368   4.521   2.312
 4896SOL    HW215588   2.390   4.664   2.387
 4897SOL     OW15589   1.779   5.737   4.977
 4897SOL    HW115590   1.721   5.656   4.986
 4897SOL    HW215591   1.740   5.798   4.907
 4898SOL     OW15592   3.617   1.171   4.905
 4898SOL    HW115593   3.560   1.098   4.869
 4898SOL    HW215594   3.563   1.228   4.968
 4899SOL     OW15595   5.555   5.197   2.898
 4899SOL    HW115596   5.616   5.121   2.922
 4899SOL    HW215597   5.572   5.225   2.803
 4900SOL     OW15598   3.617   5.828   5.043
 4900SOL    HW115599   3.564   5.796   5.121
 4900SOL    HW215600   3.569   5.805   4.958
 4901SOL     OW15601   2.544   1.867   5.589
 4901SOL    HW115602   2.533   1.918   5.674
 4901SOL    HW215603   2.470   1.801   5.579
 4902SOL     OW15604   0.906   1.393   4.883
 4902SOL    HW115605   0.932   1.344   4.800
 4902SOL    HW215606   0.806   1.394   4.891
 4903SOL     OW15607   4.425   5.848   0.455
 4903SOL    HW115608   4.399   5.942   0.435
 4903SOL    HW215609   4.367   5.786   0.403
 4904SOL     OW15610   1.965   0.189   5.503
 4904SOL    HW115611   1.989   0.204   5.408
 4904SOL    HW215612   2.045   0.202   5.561
 4905SOL     OW15613   3.592   0.791   3.759
 4905SOL    HW115614   3.519   0.807   3.825
 4905SOL    HW215615   3.568   0.713   3.701
 4906SOL     OW15616   4.833   2.063   6.436
 4906SOL    HW115617   4.909   2.020   6.387
 4906SOL    HW215618   4.771   1.992   6.469
 4907SOL     OW15619   4.963   0.193   1.290
 4907SOL    HW115620   4.948   0.094   1.299
 4907SOL    HW215621   5.057   0.209   1.259
 4908SOL     OW15622   5.629   6.479   6.761
 4908SOL    HW115623   5.609   6.519   6.850
 4908SOL    HW215624   5.577   6.526   6.690
 4909SOL     OW15625   0.122   5.457   3.270
 4909SOL    HW115626   0.025   5.443   3.293
 4909SOL    HW215627   0.131   5.469   3.171
 4910SOL     OW15628   5.515   0.529   4.504
 4910SOL    HW115629   5.581   0.474   4.453
 4910SOL    HW215630   5.425   0.522   4.461
 4911SOL     OW15631   1.692   3.704   3.392
 4911SOL    HW115632   1.790   3.723   3.401
 4911SOL    HW215633   1.642   3.749   3.466
 4912SOL     OW15634   5.576   1.988   5.979
 4912SOL    HW115635   5.641   2.035   5.919
 4912SOL    HW215636   5.612   1.986   6.072
 4913SOL     OW15637   4.293   3.496   5.575
 4913SOL    HW115638   4.235   3.572   5.544
 4913SOL    HW215639   4.387   3.527   5.584
 4914SOL     OW15640   4.562   6.754   5.151
 4914SOL    HW115641   4.555   6.704   5.065
 4914SOL    HW215642   4.585   6.690   5.224
 4915SOL     OW15643   2.296   6.221   5.053
 4915SOL    HW115644   2.369   6.155   5.036
 4915SOL    HW215645   2.319   6.277   5.133
 4916SOL     OW15646   0.816   1.154   3.874
 4916SOL    HW115647   0.831   1.245   3.911
 4916SOL    HW215648   0.818   1.087   3.948
 4917SOL     OW15649   3.386   5.573   1.403
 4917SOL    HW115650   3.363   5.562   1.500
 4917SOL    HW215651   3.347   5.497   1.351
 4918SOL     OW15652   5.624   6.647   1.605
 4918SOL    HW115653   5.681   6.712   1.555
 4918SOL    HW215654   5.563   6.696   1.666
 4919SOL     OW15655   2.894   3.323   1.960
 4919SOL    HW115656   2.954   3.247   1.986
 4919SOL    HW215657   2.808   3.316   2.010
 4920SOL     OW15658   5.421   0.039   4.858
 4920SOL    HW115659   5.339   0.086   4.888
 4920SOL    HW215660   5.451   7.001   4.929
 4921SOL     OW15661   1.460   5.322   0.092
 4921SOL    HW115662   1.446   5.390   0.020
 4921SOL    HW215663   1.519   5.248   0.057
 4922SOL     OW15664   2.921   2.281   4.338
 4922SOL    HW115665   2.842   2.327   4.297
 4922SOL    HW215666   2.976   2.237   4.267
 4923SOL     OW15667   2.926   1.373   2.461
 4923SOL    HW115668   2.867   1.423   2.397
 4923SOL    HW215669   2.916   1.275   2.447
 4924SOL     OW15670   3.146   1.569   4.576
 4924SOL    HW115671   3.135   1.549   4.478
 4924SOL    HW215672   3.105   1.658   4.596
 4925SOL     OW15673   5.382   0.720   2.296
 4925SOL    HW115674   5.343   0.806   2.327
 4925SOL    HW215675   5.408   0.664   2.376
 4926SOL     OW15676   5.622   1.633   1.753
 4926SOL    HW115677   5.690   1.643   1.825
 4926SOL    HW215678   5.661   1.663   1.666
 4927SOL     OW15679   3.232   3.652   5.351
 4927SOL    HW115680   3.255   3.739   5.308
 4927SOL    HW215681   3.315   3.605   5.377
 4928SOL     OW15682   1.605   0.874   0.084
 4928SOL    HW115683   1.674   0.880   0.157
 4928SOL    HW215684   1.548   0.794   0.099
 4929SOL     OW15685   6.251   0.101   4.388
 4929SOL    HW115686   6.329   0.130   4.331
 4929SOL    HW215687   6.281   0.089   4.482
 4930SOL     OW15688   5.614   0.370   2.421
 4930SOL    HW115689   5.626   0.302   2.493
 4930SOL    HW215690   5.658   0.456   2.449
 4931SOL     OW15691   6.361   6.552   1.659
 4931SOL    HW115692   6.398   6.469   1.701
 4931SOL    HW215693   6.330   6.615   1.730
 4932SOL     OW15694   4.018   3.153   3.183
 4932SOL    HW115695   4.052   3.081   3.244
 4932SOL    HW215696   3.918   3.150   3.180
 4933SOL     OW15697   2.513   6.699   2.318
 4933SOL    HW115698   2.484   6.652   2.401
 4933SOL    HW215699   2.528   6.796   2.339
 4934SOL     OW15700   3.555   6.110   2.708
 4934SOL    HW115701   3.652   6.116   2.684
 4934SOL    HW215702   3.510   6.044   2.649
 4935SOL     OW15703   1.443   1.953   6.476
 4935SOL    HW115704   1.519   1.894   6.506
 4935SOL    HW215705   1.467   1.997   6.389
 4936SOL     OW15706   3.335   4.905   1.327
 4936SOL    HW115707   3.294   4.994   1.346
 4936SOL    HW215708   3.275   4.832   1.359
 4937SOL     OW15709   5.877   2.792   5.681
 4937SOL    HW115710   5.797   2.847   5.707
 4937SOL    HW215711   5.890   2.720   5.749
 4938SOL     OW15712   2.583   5.648   5.745
 4938SOL    HW115713   2.637   5.672   5.664
 4938SOL    HW215714   2.553   5.731   5.792
 4939SOL     OW15715   5.360   1.866   5.030
 4939SOL    HW115716   5.397   1.877   4.938
 4939SOL    HW215717   5.262   1.884   5.029
 4940SOL     OW15718   0.953   1.229   4.335
 4940SOL    HW115719   0.931   1.307   4.278
 4940SOL    HW215720   0.959   1.258   4.431
 4941SOL     OW15721   4.161   2.189   6.244
 4941SOL    HW115722   4.244   2.172   6.298
 4941SOL    HW215723   4.178   2.263   6.179
 4942SOL     OW15724   5.095   3.251   5.666
 4942SOL    HW115725   5.103   3.195   5.748
 4942SOL    HW215726   5.000   3.279   5.653
 4943SOL     OW15727   3.801   3.385   0.912
 4943SOL    HW115728   3.888   3.394   0.865
 4943SOL    HW215729   3.732   3.439   0.864
 4944SOL     OW15730   2.200   4.352   2.757
 4944SOL    HW115731   2.226   4.290   2.682
 4944SOL    HW215732   2.154   4.432   2.719
 4945SOL     OW15733   1.191   1.263   3.659
 4945SOL    HW115734   1.117   1.216   3.610
 4945SOL    HW215735   1.179   1.249   3.758
 4946SOL     OW15736   0.612   3.038   1.642
 4946SOL    HW115737   0.574   3.116   1.594
 4946SOL    HW215738   0.709   3.027   1.617
 4947SOL     OW15739   1.323   0.250   0.444
 4947SOL    HW115740   1.367   0.334   0.476
 4947SOL    HW215741   1.224   0.264   0.443
 4948SOL     OW15742   2.799   0.410   2.345
 4948SOL    HW115743   2.776   0.319   2.308
 4948SOL    HW215744   2.764   0.417   2.438
 4949SOL     OW15745   4.701   0.370   5.608
 4949SOL    HW115746   4.613   0.330   5.584
 4949SOL    HW215747   4.708   0.380   5.707
 4950SOL     OW15748   3.210   5.678   3.570
 4950SOL    HW115749   3.133   5.614   3.582
 4950SOL    HW215750   3.290   5.628   3.538
 4951SOL     OW15751   5.652   1.234   4.860
 4951SOL    HW115752   5.694   1.227   4.951
 4951SOL    HW215753   5.697   1.171   4.798
 4952SOL     OW15754   0.486   0.828   4.975
 4952SOL    HW115755   0.452   0.922   4.981
 4952SOL    HW215756   0.471   0.793   4.882
 4953SOL     OW15757   2.561   6.313   2.107
 4953SOL    HW115758   2.637   6.354   2.056
 4953SOL    HW215759   2.477   6.363   2.086
 4954SOL     OW15760   4.750   4.501   6.318
 4954SOL    HW115761   4.789   4.592   6.331
 4954SOL    HW215762   4.817   4.432   6.346
 4955SOL     OW15763   1.824   5.963   6.520
 4955SOL    HW115764   1.831   6.029   6.595
 4955SOL    HW215765   1.877   5.881   6.543
 4956SOL     OW15766   3.014   6.673   5.072
 4956SOL    HW115767   3.095   6.661   5.014
 4956SOL    HW215768   3.043   6.673   5.168
 4957SOL     OW15769   6.962   0.812   3.266
 4957SOL    HW115770   0.028   0.837   3.294
 4957SOL    HW215771   6.921   0.887   3.214
 4958SOL     OW15772   0.011   6.108   6.000
 4958SOL    HW115773   0.014   6.191   5.944
 4958SOL    HW215774   0.067   6.037   5.957
 4959SOL     OW15775   6.255   0.980   6.504
 4959SOL    HW115776   6.242   1.078   6.514
 4959SOL    HW215777   6.309   0.946   6.582
 4960SOL     OW15778   3.078   6.407   3.460
 4960SOL    HW115779   2.979   6.393   3.463
 4960SOL    HW215780   3.125   6.321   3.481
 4961SOL     OW15781   5.007   1.481   5.167
 4961SOL    HW115782   5.074   1.443   5.231
 4961SOL    HW215783   4.916   1.479   5.209
 4962SOL     OW15784   5.862   2.496   1.394
 4962SOL    HW115785   5.927   2.444   1.338
 4962SOL    HW215786   5.776   2.507   1.344
 4963SOL     OW15787   5.643   5.876   0.959
 4963SOL    HW115788   5.634   5.794   0.903
 4963SOL    HW215789   5.555   5.924   0.963
 4964SOL     OW15790   4.046   6.140   3.245
 4964SOL    HW115791   4.041   6.240   3.247
 4964SOL    HW215792   3.965   6.102   3.289
 4965SOL     OW15793   0.285   6.676   4.048
 4965SOL    HW115794   0.271   6.701   4.144
 4965SOL    HW215795   0.335   6.749   4.002
 4966SOL     OW15796   2.355   6.794   4.851
 4966SOL    HW115797   2.422   6.856   4.809
 4966SOL    HW215798   2.306   6.842   4.923
 4967SOL     OW15799   4.564   3.193   6.451
 4967SOL    HW115800   4.524   3.181   6.542
 4967SOL    HW215801   4.536   3.117   6.392
 4968SOL     OW15802   5.167   3.034   3.430
 4968SOL    HW115803   5.073   3.069   3.422
 4968SOL    HW215804   5.192   2.988   3.345
 4969SOL     OW15805   1.734   1.287   2.557
 4969SOL    HW115806   1.676   1.367   2.541
 4969SOL    HW215807   1.829   1.310   2.537
 4970SOL     OW15808   1.751   2.447   4.876
 4970SOL    HW115809   1.838   2.397   4.878
 4970SOL    HW215810   1.695   2.414   4.801
 4971SOL     OW15811   6.385   5.940   3.618
 4971SOL    HW115812   6.465   5.944   3.558
 4971SOL    HW215813   6.396   6.006   3.693
 4972SOL     OW15814   2.016   3.509   0.650
 4972SOL    HW115815   2.024   3.486   0.747
 4972SOL    HW215816   1.939   3.572   0.637
 4973SOL     OW15817   6.927   6.886   1.465
 4973SOL    HW115818   6.907   6.882   1.367
 4973SOL    HW215819   6.986   6.965   1.484
 4974SOL     OW15820   6.787   4.413   0.534
 4974SOL    HW115821   6.710   4.353   0.556
 4974SOL    HW215822   6.873   4.368   0.558
 4975SOL     OW15823   6.053   5.846   0.134
 4975SOL    HW115824   6.049   5.945   0.150
 4975SOL    HW215825   6.059   5.799   0.222
 4976SOL     OW15826   2.969   0.664   4.242
 4976SOL    HW115827   2.972   0.579   4.295
 4976SOL    HW215828   2.888   0.716   4.268
 4977SOL     OW15829   5.216   3.904   0.772
 4977SOL    HW115830   5.187   3.832   0.835
 4977SOL    HW215831   5.314   3.921   0.784
 4978SOL     OW15832   6.639   3.711   5.500
 4978SOL    HW115833   6.671   3.727   5.593
 4978SOL    HW215834   6.560   3.770   5.482
 4979SOL     OW15835   0.282   1.677   5.033
 4979SOL    HW115836   0.371   1.714   5.006
 4979SOL    HW215837   0.217   1.689   4.958
 4980SOL     OW15838   4.745   6.904   3.242
 4980SOL    HW115839   4.725   6.997   3.210
 4980SOL    HW215840   4.798   6.855   3.173
 4981SOL     OW15841   5.194   5.541   5.838
 4981SOL    HW115842   5.106   5.549   5.792
 4981SOL    HW215843   5.179   5.514   5.933
 4982SOL     OW15844   2.714   1.388   6.848
 4982SOL    HW115845   2.654   1.309   6.863
 4982SOL    HW215846   2.781   1.366   6.778
 4983SOL     OW15847   4.916   3.180   4.157
 4983SOL    HW115848   4.881   3.178   4.250
 4983SOL    HW215849   4.923   3.275   4.126
 4984SOL     OW15850   5.579   3.632   4.266
 4984SOL    HW115851   5.554   3.725   4.293
 4984SOL    HW215852   5.615   3.633   4.172
 4985SOL     OW15853   6.681   6.099   3.895
 4985SOL    HW115854   6.727   6.099   3.807
 4985SOL    HW215855   6.588   6.133   3.884
 4986SOL     OW15856   6.755   4.656   3.203
 4986SOL    HW115857   6.770   4.721   3.277
 4986SOL    HW215858   6.786   4.565   3.231
 4987SOL     OW15859   0.416   1.974   1.413
 4987SOL    HW115860   0.423   1.891   1.468
 4987SOL    HW215861   0.494   2.033   1.430
 4988SOL     OW15862   6.887   1.464   3.730
 4988SOL    HW115863   6.975   1.472   3.777
 4988SOL    HW215864   6.901   1.472   3.632
 4989SOL     OW15865   6.106   0.789   1.479
 4989SOL    HW115866   6.065   0.853   1.414
 4989SOL    HW215867   6.034   0.738   1.527
 4990SOL     OW15868   0.992   1.828   6.367
 4990SOL    HW115869   0.971   1.925   6.366
 4990SOL    HW215870   1.040   1.804   6.282
 4991SOL     OW15871   0.678   3.830   3.902
 4991SOL    HW115872   0.693   3.739   3.941
 4991SOL    HW215873   0.592   3.830   3.851
 4992SOL     OW15874   4.648   0.846   4.135
 4992SOL    HW115875   4.718   0.891   4.080
 4992SOL    HW215876   4.617   0.907   4.207
 4993SOL     OW15877   2.735   4.706   3.602
 4993SOL    HW115878   2.714   4.690   3.506
 4993SOL    HW215879   2.795   4.785   3.611
 4994SOL     OW15880   1.398   0.391   2.345
 4994SOL    HW115881   1.329   0.338   2.395
 4994SOL    HW215882   1.477   0.407   2.404
 4995SOL     OW15883   6.813   3.365   5.629
 4995SOL    HW115884   6.855   3.285   5.585
 4995SOL    HW215885   6.880   3.439   5.633
 4996SOL     OW15886   1.403   0.738   2.282
 4996SOL    HW115887   1.490   0.761   2.238
 4996SOL    HW215888   1.367   0.653   2.243
 4997SOL     OW15889   6.063   2.310   3.053
 4997SOL    HW115890   6.039   2.370   3.129
 4997SOL    HW215891   6.107   2.364   2.981
 4998SOL     OW15892   2.186   4.032   4.777
 4998SOL    HW115893   2.226   4.023   4.868
 4998SOL    HW215894   2.086   4.027   4.784
 4999SOL     OW15895   4.941   5.749   1.099
 4999SOL    HW115896   4.956   5.808   1.178
 4999SOL    HW215897   4.872   5.791   1.040
 5000SOL     OW15898   1.817   0.806   4.017
 5000SOL    HW115899   1.900   0.763   3.981
 5000SOL    HW215900   1.829   0.905   4.019
 5001SOL     OW15901   2.052   3.981   6.268
 5001SOL    HW115902   2.150   3.962   6.266
 5001SOL    HW215903   2.011   3.939   6.348
 5002SOL     OW15904   1.068   2.893   3.074
 5002SOL    HW115905   1.157   2.921   3.037
 5002SOL    HW215906   1.009   2.974   3.083
 5003SOL     OW15907   0.822   6.513   3.520
 5003SOL    HW115908   0.882   6.562   3.583
 5003SOL    HW215909   0.842   6.415   3.524
 5004SOL     OW15910   2.057   5.379   5.463
 5004SOL    HW115911   2.086   5.288   5.432
 5004SOL    HW215912   2.117   5.408   5.538
 5005SOL     OW15913   3.613   2.323   0.615
 5005SOL    HW115914   3.674   2.264   0.668
 5005SOL    HW215915   3.600   2.409   0.664
 5006SOL     OW15916   5.644   0.056   6.229
 5006SOL    HW115917   5.558   0.004   6.223
 5006SOL    HW215918   5.639   0.120   6.306
 5007SOL     OW15919   2.589   0.552   6.055
 5007SOL    HW115920   2.545   0.502   5.981
 5007SOL    HW215921   2.687   0.559   6.038
 5008SOL     OW15922   6.579   0.238   3.898
 5008SOL    HW115923   6.559   0.329   3.934
 5008SOL    HW215924   6.674   0.214   3.920
 5009SOL     OW15925   2.246   6.280   1.879
 5009SOL    HW115926   2.197   6.340   1.815
 5009SOL    HW215927   2.275   6.197   1.832
 5010SOL     OW15928   3.887   3.399   4.085
 5010SOL    HW115929   3.801   3.381   4.037
 5010SOL    HW215930   3.945   3.319   4.082
 5011SOL     OW15931   2.076   3.239   2.095
 5011SOL    HW115932   1.978   3.255   2.104
 5011SOL    HW215933   2.124   3.326   2.082
 5012SOL     OW15934   5.733   2.711   6.766
 5012SOL    HW115935   5.642   2.674   6.785
 5012SOL    HW215936   5.752   2.706   6.668
 5013SOL     OW15937   5.265   0.777   6.948
 5013SOL    HW115938   5.233   0.863   6.988
 5013SOL    HW215939   5.313   0.724   7.018
 5014SOL     OW15940   5.941   5.504   0.648
 5014SOL    HW115941   5.844   5.486   0.662
 5014SOL    HW215942   5.962   5.599   0.672
 5015SOL     OW15943   3.982   1.961   3.761
 5015SOL    HW115944   3.961   1.863   3.770
 5015SOL    HW215945   3.914   2.004   3.702
 5016SOL     OW15946   1.962   1.049   2.092
 5016SOL    HW115947   2.022   0.972   2.113
 5016SOL    HW215948   2.014   1.117   2.039
 5017SOL     OW15949   2.519   2.703   0.907
 5017SOL    HW115950   2.558   2.709   1.000
 5017SOL    HW215951   2.431   2.656   0.911
 5018SOL     OW15952   0.638   4.607   1.685
 5018SOL    HW115953   0.730   4.602   1.647
 5018SOL    HW215954   0.571   4.589   1.612
 5019SOL     OW15955   2.517   4.551   0.442
 5019SOL    HW115956   2.446   4.613   0.408
 5019SOL    HW215957   2.564   4.508   0.364
 5020SOL     OW15958   5.608   6.482   5.253
 5020SOL    HW115959   5.663   6.455   5.333
 5020SOL    HW215960   5.545   6.408   5.230
 5021SOL     OW15961   1.113   3.449   5.797
 5021SOL    HW115962   1.152   3.364   5.832
 5021SOL    HW215963   1.179   3.523   5.808
 5022SOL     OW15964   1.657   0.325   1.258
 5022SOL    HW115965   1.653   0.364   1.351
 5022SOL    HW215966   1.749   0.293   1.239
 5023SOL     OW15967   6.507   3.333   0.967
 5023SOL    HW115968   6.430   3.282   1.005
 5023SOL    HW215969   6.510   3.424   1.009
 5024SOL     OW15970   0.065   4.193   2.761
 5024SOL    HW115971   0.067   4.272   2.700
 5024SOL    HW215972   0.138   4.202   2.829
 5025SOL     OW15973   4.630   2.256   2.174
 5025SOL    HW115974   4.712   2.286   2.125
 5025SOL    HW215975   4.589   2.334   2.220
 5026SOL     OW15976   5.939   6.101   6.316
 5026SOL    HW115977   5.948   6.049   6.231
 5026SOL    HW215978   5.842   6.110   6.339
 5027SOL     OW15979   0.816   6.779   2.981
 5027SOL    HW115980   0.820   6.686   3.018
 5027SOL    HW215981   0.871   6.784   2.898
 5028SOL     OW15982   0.455   6.113   1.665
 5028SOL    HW115983   0.425   6.018   1.662
 5028SOL    HW215984   0.435   6.158   1.577
 5029SOL     OW15985   6.895   3.298   2.942
 5029SOL    HW115986   6.987   3.287   2.979
 5029SOL    HW215987   6.849   3.209   2.940
 5030SOL     OW15988   6.741   0.585   6.715
 5030SOL    HW115989   6.682   0.510   6.684
 5030SOL    HW215990   6.707   0.619   6.802
 5031SOL     OW15991   6.050   1.135   4.550
 5031SOL    HW115992   6.024   1.093   4.637
 5031SOL    HW215993   5.972   1.134   4.488
 5032SOL     OW15994   1.408   4.400   1.042
 5032SOL    HW115995   1.321   4.437   1.009
 5032SOL    HW215996   1.483   4.440   0.990
 5033SOL     OW15997   1.934   5.084   6.219
 5033SOL    HW115998   2.009   5.018   6.207
 5033SOL    HW215999   1.961   5.172   6.180
 5034SOL     OW16000   0.244   3.391   2.038
 5034SOL    HW116001   0.176   3.342   1.984
 5034SOL    HW216002   0.250   3.485   2.007
 5035SOL     OW16003   5.815   4.618   1.533
 5035SOL    HW116004   5.844   4.637   1.439
 5035SOL    HW216005   5.798   4.705   1.580
 5036SOL     OW16006   0.573   5.532   6.476
 5036SOL    HW116007   0.673   5.533   6.481
 5036SOL    HW216008   0.546   5.519   6.380
 5037SOL     OW16009   4.734   2.447   2.910
 5037SOL    HW116010   4.720   2.502   2.993
 5037SOL    HW216011   4.657   2.383   2.900
 5038SOL     OW16012   1.806   5.803   5.293
 5038SOL    HW116013   1.903   5.780   5.291
 5038SOL    HW216014   1.776   5.829   5.201
 5039SOL     OW16015   1.852   3.805   5.021
 5039SOL    HW116016   1.948   3.781   5.032
 5039SOL    HW216017   1.842   3.905   5.024
 5040SOL     OW16018   2.429   3.048   6.606
 5040SOL    HW116019   2.445   3.112   6.681
 5040SOL    HW216020   2.444   3.094   6.519
 5041SOL     OW16021   0.852   3.250   1.065
 5041SOL    HW116022   0.769   3.222   1.112
 5041SOL    HW216023   0.892   3.172   1.017
 5042SOL     OW16024   0.103   3.297   0.047
 5042SOL    HW116025   0.202   3.286   0.055
 5042SOL    HW216026   0.076   3.383   0.092
 5043SOL     OW16027   3.387   0.857   5.392
 5043SOL    HW116028   3.344   0.940   5.356
 5043SOL    HW216029   3.335   0.777   5.362
 5044SOL     OW16030   6.232   6.123   3.452
 5044SOL    HW116031   6.289   6.130   3.370
 5044SOL    HW216032   6.261   6.045   3.506
 5045SOL     OW16033   5.071   3.503   0.214
 5045SOL    HW116034   5.159   3.455   0.217
 5045SOL    HW216035   4.997   3.436   0.212
 5046SOL     OW16036   3.849   2.976   5.141
 5046SOL    HW116037   3.897   3.063   5.150
 5046SOL    HW216038   3.885   2.911   5.208
 5047SOL     OW16039   6.171   1.640   2.722
 5047SOL    HW116040   6.104   1.713   2.709
 5047SOL    HW216041   6.245   1.672   2.781
 5048SOL     OW16042   6.143   2.108   1.856
 5048SOL    HW116043   6.145   2.135   1.760
 5048SOL    HW216044   6.232   2.126   1.898
 5049SOL     OW16045   6.340   1.241   3.132
 5049SOL    HW116046   6.358   1.337   3.155
 5049SOL    HW216047   6.385   1.219   3.045
 5050SOL     OW16048   0.333   1.861   1.794
 5050SOL    HW116049   0.376   1.834   1.880
 5050SOL    HW216050   0.399   1.853   1.720
 5051SOL     OW16051   3.814   3.212   0.588
 5051SOL    HW116052   3.818   3.225   0.489
 5051SOL    HW216053   3.902   3.239   0.629
 5052SOL     OW16054   2.766   4.799   6.746
 5052SOL    HW116055   2.829   4.845   6.684
 5052SOL    HW216056   2.815   4.728   6.797
 5053SOL     OW16057   2.052   3.701   2.738
 5053SOL    HW116058   2.078   3.610   2.770
 5053SOL    HW216059   1.989   3.692   2.660
 5054SOL     OW16060   3.754   5.804   5.427
 5054SOL    HW116061   3.761   5.827   5.524
 5054SOL    HW216062   3.752   5.704   5.417
 5055SOL     OW16063   0.209   1.288   4.856
 5055SOL    HW116064   0.159   1.314   4.938
 5055SOL    HW216065   0.151   1.304   4.775
 5056SOL     OW16066   6.880   4.362   6.410
 5056SOL    HW116067   6.960   4.381   6.354
 5056SOL    HW216068   6.833   4.282   6.373
 5057SOL     OW16069   0.927   5.617   3.405
 5057SOL    HW116070   0.993   5.609   3.480
 5057SOL    HW216071   0.976   5.615   3.318
 5058SOL     OW16072   4.055   3.614   6.959
 5058SOL    HW116073   4.119   3.691   6.963
 5058SOL    HW216074   4.020   3.606   6.866
 5059SOL     OW16075   4.769   2.769   4.838
 5059SOL    HW116076   4.752   2.698   4.769
 5059SOL    HW216077   4.697   2.767   4.907
 5060SOL     OW16078   6.992   2.968   4.728
 5060SOL    HW116079   6.991   2.872   4.700
 5060SOL    HW216080   0.058   3.005   4.712
 5061SOL     OW16081   2.957   3.415   4.398
 5061SOL    HW116082   2.957   3.333   4.455
 5061SOL    HW216083   3.023   3.404   4.324
 5062SOL     OW16084   5.436   1.820   2.437
 5062SOL    HW116085   5.449   1.916   2.412
 5062SOL    HW216086   5.470   1.805   2.531
 5063SOL     OW16087   1.182   6.560   1.735
 5063SOL    HW116088   1.086   6.590   1.734
 5063SOL    HW216089   1.224   6.585   1.822
 5064SOL     OW16090   4.818   5.507   0.519
 5064SOL    HW116091   4.835   5.440   0.448
 5064SOL    HW216092   4.861   5.478   0.604
 5065SOL     OW16093   1.664   0.428   3.018
 5065SOL    HW116094   1.739   0.363   3.018
 5065SOL    HW216095   1.671   0.488   2.937
 5066SOL     OW16096   2.623   3.998   1.644
 5066SOL    HW116097   2.609   3.900   1.657
 5066SOL    HW216098   2.558   4.032   1.576
 5067SOL     OW16099   4.129   2.053   1.815
 5067SOL    HW116100   4.131   1.954   1.804
 5067SOL    HW216101   4.037   2.087   1.794
 5068SOL     OW16102   2.837   5.348   0.134
 5068SOL    HW116103   2.762   5.290   0.101
 5068SOL    HW216104   2.820   5.373   0.230
 5069SOL     OW16105   2.222   2.968   5.631
 5069SOL    HW116106   2.238   2.870   5.619
 5069SOL    HW216107   2.252   3.017   5.549
 5070SOL     OW16108   5.937   4.105   4.239
 5070SOL    HW116109   5.947   4.166   4.317
 5070SOL    HW216110   5.868   4.141   4.176
 5071SOL     OW16111   3.696   1.987   3.262
 5071SOL    HW116112   3.730   2.000   3.355
 5071SOL    HW216113   3.761   1.933   3.210
 5072SOL     OW16114   2.214   1.150   1.317
 5072SOL    HW116115   2.202   1.077   1.384
 5072SOL    HW216116   2.159   1.229   1.344
 5073SOL     OW16117   1.809   6.353   1.761
 5073SOL    HW116118   1.748   6.301   1.820
 5073SOL    HW216119   1.897   6.306   1.754
 5074SOL     OW16120   3.921   1.806   1.786
 5074SOL    HW116121   3.842   1.838   1.839
 5074SOL    HW216122   3.912   1.707   1.772
 5075SOL     OW16123   1.633   2.361   6.976
 5075SOL    HW116124   1.595   2.437   0.002
 5075SOL    HW216125   1.583   2.277   6.997
 5076SOL     OW16126   5.602   0.058   7.010
 5076SOL    HW116127   5.691   0.013   7.018
 5076SOL    HW216128   5.600   0.140   0.042
 5077SOL     OW16129   1.184   3.854   6.259
 5077SOL    HW116130   1.267   3.858   6.313
 5077SOL    HW216131   1.172   3.761   6.224
 5078SOL     OW16132   0.394   0.741   4.091
 5078SOL    HW116133   0.448   0.678   4.035
 5078SOL    HW216134   0.410   0.721   4.188
 5079SOL     OW16135   2.512   2.532   5.886
 5079SOL    HW116136   2.486   2.530   5.790
 5079SOL    HW216137   2.571   2.611   5.902
 5080SOL     OW16138   5.702   5.507   5.416
 5080SOL    HW116139   5.718   5.605   5.410
 5080SOL    HW216140   5.681   5.483   5.511
 5081SOL     OW16141   2.322   5.026   5.137
 5081SOL    HW116142   2.287   5.006   5.045
 5081SOL    HW216143   2.414   5.066   5.129
 5082SOL     OW16144   4.720   6.933   0.010
 5082SOL    HW116145   4.655   6.861   0.035
 5082SOL    HW216146   4.812   6.905   0.036
 5083SOL     OW16147   3.557   0.416   0.966
 5083SOL    HW116148   3.609   0.395   0.883
 5083SOL    HW216149   3.520   0.509   0.959
 5084SOL     OW16150   0.685   4.847   4.749
 5084SOL    HW116151   0.696   4.798   4.663
 5084SOL    HW216152   0.589   4.846   4.777
 5085SOL     OW16153   1.230   3.002   5.694
 5085SOL    HW116154   1.209   3.035   5.602
 5085SOL    HW216155   1.255   3.079   5.752
 5086SOL     OW16156   0.520   4.257   2.302
 5086SOL    HW116157   0.599   4.286   2.248
 5086SOL    HW216158   0.463   4.195   2.248
 5087SOL     OW16159   6.846   5.431   2.225
 5087SOL    HW116160   6.827   5.476   2.137
 5087SOL    HW216161   6.944   5.427   2.240
 5088SOL     OW16162   4.648   6.577   3.280
 5088SOL    HW116163   4.579   6.520   3.325
 5088SOL    HW216164   4.610   6.615   3.195
 5089SOL     OW16165   5.633   4.159   3.790
 5089SOL    HW116166   5.623   4.246   3.839
 5089SOL    HW216167   5.607   4.083   3.849
 5090SOL     OW16168   2.132   0.731   3.017
 5090SOL    HW116169   2.213   0.673   3.002
 5090SOL    HW216170   2.161   0.824   3.040
 5091SOL     OW16171   6.505   0.787   0.836
 5091SOL    HW116172   6.455   0.754   0.916
 5091SOL    HW216173   6.502   0.887   0.833
 5092SOL     OW16174   3.443   2.892   3.997
 5092SOL    HW116175   3.352   2.933   3.991
 5092SOL    HW216176   3.489   2.902   3.909
 5093SOL     OW16177   2.695   1.625   1.869
 5093SOL    HW116178   2.742   1.548   1.825
 5093SOL    HW216179   2.699   1.705   1.810
 5094SOL     OW16180   1.979   5.736   6.587
 5094SOL    HW116181   2.076   5.725   6.608
 5094SOL    HW216182   1.936   5.646   6.578
 5095SOL     OW16183   0.513   1.374   2.747
 5095SOL    HW116184   0.572   1.436   2.695
 5095SOL    HW216185   0.546   1.368   2.841
 5096SOL     OW16186   5.523   4.916   6.022
 5096SOL    HW116187   5.533   5.014   6.006
 5096SOL    HW216188   5.435   4.898   6.067
 5097SOL     OW16189   6.686   0.448   0.176
 5097SOL    HW116190   6.771   0.409   0.141
 5097SOL    HW216191   6.705   0.496   0.262
 5098SOL     OW16192   3.583   2.448   1.387
 5098SOL    HW116193   3.558   2.498   1.304
 5098SOL    HW216194   3.627   2.362   1.363
 5099SOL     OW16195   0.204   6.254   1.493
 5099SOL    HW116196   0.147   6.335   1.487
 5099SOL    HW216197   0.296   6.275   1.460
 5100SOL     OW16198   3.224   5.364   3.367
 5100SOL    HW116199   3.198   5.360   3.463
 5100SOL    HW216200   3.296   5.432   3.354
 5101SOL     OW16201   4.097   0.340   4.778
 5101SOL    HW116202   4.150   0.359   4.861
 5101SOL    HW216203   4.126   0.401   4.705
 5102SOL     OW16204   4.912   6.027   4.447
 5102SOL    HW116205   4.843   5.956   4.434
 5102SOL    HW216206   5.003   5.985   4.443
 5103SOL     OW16207   0.696   1.175   4.658
 5103SOL    HW116208   0.767   1.158   4.727
 5103SOL    HW216209   0.663   1.269   4.667
 5104SOL     OW16210   3.271   5.958   1.689
 5104SOL    HW116211   3.242   6.006   1.772
 5104SOL    HW216212   3.337   5.887   1.713
 5105SOL     OW16213   3.404   2.909   6.431
 5105SOL    HW116214   3.352   2.832   6.468
 5105SOL    HW216215   3.344   2.988   6.420
 5106SOL     OW16216   3.992   1.635   1.241
 5106SOL    HW116217   3.916   1.659   1.302
 5106SOL    HW216218   4.035   1.719   1.208
 5107SOL     OW16219   5.386   2.046   0.850
 5107SOL    HW116220   5.330   2.019   0.929
 5107SOL    HW216221   5.351   2.000   0.768
 5108SOL     OW16222   4.133   3.719   5.220
 5108SOL    HW116223   4.144   3.818   5.224
 5108SOL    HW216224   4.217   3.674   5.251
 5109SOL     OW16225   1.468   2.576   0.087
 5109SOL    HW116226   1.383   2.532   0.056
 5109SOL    HW216227   1.465   2.673   0.063
 5110SOL     OW16228   0.085   0.500   6.462
 5110SOL    HW116229   0.054   0.548   6.545
 5110SOL    HW216230   0.012   0.439   6.430
 5111SOL     OW16231   1.152   0.037   4.157
 5111SOL    HW116232   1.188   0.126   4.127
 5111SOL    HW216233   1.160   0.030   4.256
 5112SOL     OW16234   0.410   0.573   3.133
 5112SOL    HW116235   0.344   0.589   3.059
 5112SOL    HW216236   0.466   0.654   3.145
 5113SOL     OW16237   1.497   6.158   1.268
 5113SOL    HW116238   1.511   6.138   1.365
 5113SOL    HW216239   1.470   6.253   1.257
 5114SOL     OW16240   4.000   6.900   0.257
 5114SOL    HW116241   3.998   6.816   0.312
 5114SOL    HW216242   3.910   6.944   0.261
 5115SOL     OW16243   1.874   4.222   2.010
 5115SOL    HW116244   1.933   4.190   1.935
 5115SOL    HW216245   1.835   4.311   1.986
 5116SOL     OW16246   2.173   6.349   0.015
 5116SOL    HW116247   2.186   6.250   0.020
 5116SOL    HW216248   2.162   6.376   6.946
 5117SOL     OW16249   0.930   3.906   3.854
 5117SOL    HW116250   0.832   3.896   3.873
 5117SOL    HW216251   0.975   3.817   3.859
 5118SOL     OW16252   5.671   0.283   0.136
 5118SOL    HW116253   5.586   0.314   0.178
 5118SOL    HW216254   5.732   0.361   0.122
 5119SOL     OW16255   4.591   1.391   1.293
 5119SOL    HW116256   4.613   1.334   1.373
 5119SOL    HW216257   4.649   1.473   1.295
 5120SOL     OW16258   4.864   6.618   5.432
 5120SOL    HW116259   4.777   6.581   5.398
 5120SOL    HW216260   4.846   6.700   5.486
 5121SOL     OW16261   3.394   3.717   0.134
 5121SOL    HW116262   3.467   3.663   0.176
 5121SOL    HW216263   3.411   3.814   0.151
 5122SOL     OW16264   3.712   5.812   2.913
 5122SOL    HW116265   3.767   5.756   2.974
 5122SOL    HW216266   3.664   5.753   2.847
 5123SOL     OW16267   5.693   1.982   4.222
 5123SOL    HW116268   5.785   2.007   4.254
 5123SOL    HW216269   5.673   2.031   4.138
 5124SOL     OW16270   2.098   6.469   4.004
 5124SOL    HW116271   2.106   6.381   3.958
 5124SOL    HW216272   2.188   6.509   4.016
 5125SOL     OW16273   0.181   1.922   3.047
 5125SOL    HW116274   0.127   1.901   3.128
 5125SOL    HW216275   0.223   2.012   3.058
 5126SOL     OW16276   0.886   6.396   6.929
 5126SOL    HW116277   0.922   6.327   6.992
 5126SOL    HW216278   0.950   6.473   6.926
 5127SOL     OW16279   0.682   5.437   6.872
 5127SOL    HW116280   0.648   5.433   6.966
 5127SOL    HW216281   0.661   5.527   6.833
 5128SOL     OW16282   6.493   6.576   0.646
 5128SOL    HW116283   6.552   6.654   0.665
 5128SOL    HW216284   6.460   6.537   0.732
 5129SOL     OW16285   4.921   6.568   2.752
 5129SOL    HW116286   4.824   6.555   2.770
 5129SOL    HW216287   4.967   6.479   2.746
 5130SOL     OW16288   0.059   5.329   2.289
 5130SOL    HW116289   0.088   5.234   2.306
 5130SOL    HW216290   0.112   5.390   2.347
 5131SOL     OW16291   2.014   3.191   4.005
 5131SOL    HW116292   2.062   3.228   3.926
 5131SOL    HW216293   2.061   3.218   4.089
 5132SOL     OW16294   4.133   2.882   5.874
 5132SOL    HW116295   4.205   2.817   5.850
 5132SOL    HW216296   4.174   2.963   5.915
 5133SOL     OW16297   2.579   4.741   0.074
 5133SOL    HW116298   2.673   4.767   0.095
 5133SOL    HW216299   2.516   4.790   0.135
 5134SOL     OW16300   6.851   2.647   2.090
 5134SOL    HW116301   6.762   2.633   2.133
 5134SOL    HW216302   6.913   2.690   2.155
 5135SOL     OW16303   6.178   2.118   5.240
 5135SOL    HW116304   6.112   2.191   5.222
 5135SOL    HW216305   6.199   2.071   5.154
 5136SOL     OW16306   4.651   0.267   5.951
 5136SOL    HW116307   4.603   0.350   5.922
 5136SOL    HW216308   4.632   0.250   6.048
 5137SOL     OW16309   5.732   2.896   6.310
 5137SOL    HW116310   5.814   2.926   6.261
 5137SOL    HW216311   5.651   2.933   6.265
 5138SOL     OW16312   3.185   2.988   5.771
 5138SOL    HW116313   3.096   2.968   5.814
 5138SOL    HW216314   3.171   3.008   5.675
 5139SOL     OW16315   1.506   6.974   3.548
 5139SOL    HW116316   1.599   6.944   3.526
 5139SOL    HW216317   1.500   0.047   3.542
 5140SOL     OW16318   3.388   1.658   7.022
 5140SOL    HW116319   3.295   1.624   0.009
 5140SOL    HW216320   3.400   1.686   6.927
 5141SOL     OW16321   7.021   3.686   0.619
 5141SOL    HW116322   0.046   3.603   0.598
 5141SOL    HW216323   6.956   3.705   0.546
 5142SOL     OW16324   6.131   1.124   3.814
 5142SOL    HW116325   6.031   1.124   3.814
 5142SOL    HW216326   6.165   1.091   3.901
 5143SOL     OW16327   0.584   4.298   3.893
 5143SOL    HW116328   0.570   4.390   3.928
 5143SOL    HW216329   0.503   4.268   3.842
 5144SOL     OW16330   1.126   6.009   6.540
 5144SOL    HW116331   1.048   6.071   6.526
 5144SOL    HW216332   1.100   5.938   6.606
 5145SOL     OW16333   1.443   5.079   5.929
 5145SOL    HW116334   1.515   5.060   5.996
 5145SOL    HW216335   1.375   5.006   5.932
 5146SOL     OW16336   4.478   3.975   5.671
 5146SOL    HW116337   4.562   3.972   5.726
 5146SOL    HW216338   4.412   4.036   5.714
 5147SOL     OW16339   0.192   4.684   2.413
 5147SOL    HW116340   0.255   4.650   2.483
 5147SOL    HW216341   0.131   4.610   2.385
 5148SOL     OW16342   1.160   6.468   0.932
 5148SOL    HW116343   1.139   6.430   1.022
 5148SOL    HW216344   1.171   6.393   0.866
 5149SOL     OW16345   6.202   5.910   4.637
 5149SOL    HW116346   6.141   5.960   4.698
 5149SOL    HW216347   6.255   5.975   4.583
 5150SOL     OW16348   2.332   5.098   3.084
 5150SOL    HW116349   2.242   5.122   3.121
 5150SOL    HW216350   2.334   5.120   2.986
 5151SOL     OW16351   5.555   1.497   0.415
 5151SOL    HW116352   5.470   1.464   0.457
 5151SOL    HW216353   5.612   1.418   0.390
 5152SOL     OW16354   1.863   4.839   6.492
 5152SOL    HW116355   1.900   4.807   6.405
 5152SOL    HW216356   1.861   4.939   6.493
 5153SOL     OW16357   2.284   0.860   6.533
 5153SOL    HW116358   2.337   0.852   6.618
 5153SOL    HW216359   2.344   0.850   6.454
 5154SOL     OW16360   1.950   2.932   6.441
 5154SOL    HW116361   1.919   2.866   6.372
 5154SOL    HW216362   2.045   2.915   6.464
 5155SOL     OW16363   3.804   6.576   2.298
 5155SOL    HW116364   3.730   6.593   2.363
 5155SOL    HW216365   3.890   6.609   2.336
 5156SOL     OW16366   0.080   3.272   5.524
 5156SOL    HW116367   0.093   3.306   5.431
 5156SOL    HW216368   7.024   3.214   5.527
 5157SOL     OW16369   4.497   2.569   3.886
 5157SOL    HW116370   4.519   2.509   3.962
 5157SOL    HW216371   4.485   2.515   3.803
 5158SOL     OW16372   3.378   1.810   1.236
 5158SOL    HW116373   3.340   1.720   1.259
 5158SOL    HW216374   3.349   1.836   1.144
 5159SOL     OW16375   0.374   3.201   4.512
 5159SOL    HW116376   0.465   3.175   4.544
 5159SOL    HW216377   0.382   3.274   4.445
 5160SOL     OW16378   0.425   3.791   3.791
 5160SOL    HW116379   0.367   3.810   3.870
 5160SOL    HW216380   0.375   3.730   3.728
 5161SOL     OW16381   1.595   3.563   4.418
 5161SOL    HW116382   1.569   3.481   4.469
 5161SOL    HW216383   1.676   3.544   4.363
 5162SOL     OW16384   1.208   5.006   3.998
 5162SOL    HW116385   1.213   5.104   4.020
 5162SOL    HW216386   1.238   4.953   4.077
 5163SOL     OW16387   3.432   4.911   1.034
 5163SOL    HW116388   3.416   4.980   0.963
 5163SOL    HW216389   3.373   4.931   1.113
 5164SOL     OW16390   5.833   2.310   6.913
 5164SOL    HW116391   5.859   2.361   6.831
 5164SOL    HW216392   5.776   2.232   6.887
 5165SOL     OW16393   6.113   3.615   5.413
 5165SOL    HW116394   6.187   3.630   5.478
 5165SOL    HW216395   6.029   3.655   5.448
 5166SOL     OW16396   1.323   5.504   1.610
 5166SOL    HW116397   1.419   5.475   1.613
 5166SOL    HW216398   1.276   5.456   1.536
 5167SOL     OW16399   6.038   0.353   5.812
 5167SOL    HW116400   6.107   0.370   5.883
 5167SOL    HW216401   6.043   0.258   5.782
 5168SOL     OW16402   5.075   2.937   3.692
 5168SOL    HW116403   5.084   2.935   3.593
 5168SOL    HW216404   5.017   2.861   3.721
 5169SOL     OW16405   3.335   2.445   5.753
 5169SOL    HW116406   3.244   2.479   5.777
 5169SOL    HW216407   3.327   2.377   5.680
 5170SOL     OW16408   6.744   3.801   5.735
 5170SOL    HW116409   6.682   3.871   5.771
 5170SOL    HW216410   6.782   3.748   5.811
 5171SOL     OW16411   2.140   4.988   4.444
 5171SOL    HW116412   2.217   4.964   4.502
 5171SOL    HW216413   2.068   5.029   4.500
 5172SOL     OW16414   0.158   2.960   2.178
 5172SOL    HW116415   0.254   2.952   2.205
 5172SOL    HW216416   0.127   3.054   2.191
 5173SOL     OW16417   5.777   4.848   6.398
 5173SOL    HW116418   5.683   4.870   6.423
 5173SOL    HW216419   5.840   4.901   6.455
 5174SOL     OW16420   2.054   4.654   4.031
 5174SOL    HW116421   2.147   4.648   4.066
 5174SOL    HW216422   2.047   4.600   3.947
 5175SOL     OW16423   2.486   3.961   6.837
 5175SOL    HW116424   2.422   3.885   6.832
 5175SOL    HW216425   2.460   4.021   6.913
 5176SOL     OW16426   4.306   3.281   1.491
 5176SOL    HW116427   4.213   3.268   1.457
 5176SOL    HW216428   4.324   3.216   1.565
 5177SOL     OW16429   4.795   0.120   5.759
 5177SOL    HW116430   4.697   0.141   5.760
 5177SOL    HW216431   4.831   0.135   5.667
 5178SOL     OW16432   2.073   2.960   1.174
 5178SOL    HW116433   2.156   2.931   1.127
 5178SOL    HW216434   1.993   2.937   1.117
 5179SOL     OW16435   4.288   5.834   5.472
 5179SOL    HW116436   4.278   5.743   5.513
 5179SOL    HW216437   4.268   5.828   5.374
 5180SOL     OW16438   2.988   3.017   6.419
 5180SOL    HW116439   2.899   3.060   6.427
 5180SOL    HW216440   2.977   2.918   6.409
 5181SOL     OW16441   5.219   1.727   2.590
 5181SOL    HW116442   5.274   1.735   2.506
 5181SOL    HW216443   5.157   1.805   2.597
 5182SOL     OW16444   5.048   5.306   1.358
 5182SOL    HW116445   5.041   5.215   1.316
 5182SOL    HW216446   5.133   5.312   1.409
 5183SOL     OW16447   4.291   0.639   2.560
 5183SOL    HW116448   4.243   0.552   2.546
 5183SOL    HW216449   4.322   0.674   2.472
 5184SOL     OW16450   0.801   1.903   3.877
 5184SOL    HW116451   0.735   1.943   3.941
 5184SOL    HW216452   0.780   1.935   3.784
 5185SOL     OW16453   4.934   0.121   3.084
 5185SOL    HW116454   4.988   0.055   3.032
 5185SOL    HW216455   4.872   0.169   3.023
 5186SOL     OW16456   5.921   3.261   0.945
 5186SOL    HW116457   5.946   3.345   0.897
 5186SOL    HW216458   5.828   3.271   0.982
 5187SOL     OW16459   6.210   0.882   3.562
 5187SOL    HW116460   6.250   0.922   3.480
 5187SOL    HW216461   6.278   0.881   3.635
 5188SOL     OW16462   0.583   4.734   0.693
 5188SOL    HW116463   0.588   4.746   0.792
 5188SOL    HW216464   0.674   4.717   0.656
 5189SOL     OW16465   4.605   5.133   1.200
 5189SOL    HW116466   4.653   5.079   1.269
 5189SOL    HW216467   4.530   5.079   1.161
 5190SOL     OW16468   0.651   2.272   4.652
 5190SOL    HW116469   0.750   2.270   4.642
 5190SOL    HW216470   0.610   2.196   4.601
 5191SOL     OW16471   3.754   0.617   2.149
 5191SOL    HW116472   3.845   0.593   2.114
 5191SOL    HW216473   3.715   0.538   2.197
 5192SOL     OW16474   4.020   5.768   2.271
 5192SOL    HW116475   3.927   5.778   2.306
 5192SOL    HW216476   4.047   5.671   2.276
 5193SOL     OW16477   4.713   4.813   3.939
 5193SOL    HW116478   4.786   4.880   3.925
 5193SOL    HW216479   4.630   4.845   3.894
 5194SOL     OW16480   4.721   0.026   6.278
 5194SOL    HW116481   4.758   7.009   6.360
 5194SOL    HW216482   4.781   0.008   6.201
 5195SOL     OW16483   6.439   6.349   4.602
 5195SOL    HW116484   6.527   6.378   4.563
 5195SOL    HW216485   6.451   6.328   4.699
 5196SOL     OW16486   1.246   3.368   0.909
 5196SOL    HW116487   1.283   3.326   0.992
 5196SOL    HW216488   1.163   3.419   0.932
 5197SOL     OW16489   1.992   5.822   4.031
 5197SOL    HW116490   1.898   5.849   4.010
 5197SOL    HW216491   2.005   5.821   4.130
 5198SOL     OW16492   3.344   0.151   4.436
 5198SOL    HW116493   3.441   0.164   4.455
 5198SOL    HW216494   3.319   0.057   4.458
 5199SOL     OW16495   1.955   6.340   0.726
 5199SOL    HW116496   1.941   6.339   0.825
 5199SOL    HW216497   1.996   6.427   0.698
 5200SOL     OW16498   1.102   2.030   5.042
 5200SOL    HW116499   1.055   1.942   5.043
 5200SOL    HW216500   1.072   2.085   5.120
 5201SOL     OW16501   4.891   5.958   4.088
 5201SOL    HW116502   4.800   5.958   4.130
 5201SOL    HW216503   4.950   6.022   4.138
 5202SOL     OW16504   5.419   3.335   6.162
 5202SOL    HW116505   5.500   3.308   6.110
 5202SOL    HW216506   5.345   3.361   6.099
 5203SOL     OW16507   1.646   1.027   6.904
 5203SOL    HW116508   1.610   0.955   6.962
 5203SOL    HW216509   1.579   1.101   6.897
 5204SOL     OW16510   3.413   6.359   6.875
 5204SOL    HW116511   3.475   6.435   6.892
 5204SOL    HW216512   3.465   6.274   6.866
 5205SOL     OW16513   6.880   5.475   0.008
 5205SOL    HW116514   6.912   5.427   6.952
 5205SOL    HW216515   6.933   5.560   0.019
 5206SOL     OW16516   0.327   5.277   5.743
 5206SOL    HW116517   0.246   5.220   5.733
 5206SOL    HW216518   0.312   5.366   5.700
 5207SOL     OW16519   0.549   0.547   3.623
 5207SOL    HW116520   0.572   0.585   3.712
 5207SOL    HW216521   0.569   0.614   3.552
 5208SOL     OW16522   4.826   2.270   0.397
 5208SOL    HW116523   4.899   2.305   0.454
 5208SOL    HW216524   4.740   2.315   0.420
 5209SOL     OW16525   5.105   0.784   2.045
 5209SOL    HW116526   5.163   0.702   2.041
 5209SOL    HW216527   5.073   0.807   1.954
 5210SOL     OW16528   5.500   3.834   1.140
 5210SOL    HW116529   5.485   3.787   1.227
 5210SOL    HW216530   5.482   3.931   1.151
 5211SOL     OW16531   5.239   1.535   4.765
 5211SOL    HW116532   5.198   1.576   4.846
 5211SOL    HW216533   5.327   1.495   4.789
 5212SOL     OW16534   0.975   2.742   0.521
 5212SOL    HW116535   0.983   2.833   0.480
 5212SOL    HW216536   0.878   2.717   0.527
 5213SOL     OW16537   4.391   3.805   1.662
 5213SOL    HW116538   4.480   3.847   1.677
 5213SOL    HW216539   4.324   3.876   1.638
 5214SOL     OW16540   4.956   3.779   5.823
 5214SOL    HW116541   4.941   3.738   5.913
 5214SOL    HW216542   5.048   3.819   5.820
 5215SOL     OW16543   6.936   4.132   4.143
 5215SOL    HW116544   0.003   4.164   4.126
 5215SOL    HW216545   6.931   4.093   4.235
 5216SOL     OW16546   4.730   5.914   0.974
 5216SOL    HW116547   4.660   5.968   1.020
 5216SOL    HW216548   4.783   5.973   0.913
 5217SOL     OW16549   3.762   6.137   4.501
 5217SOL    HW116550   3.854   6.173   4.485
 5217SOL    HW216551   3.767   6.049   4.546
 5218SOL     OW16552   0.303   1.195   0.865
 5218SOL    HW116553   0.340   1.239   0.783
 5218SOL    HW216554   0.297   1.262   0.939
 5219SOL     OW16555   3.311   1.782   4.378
 5219SOL    HW116556   3.398   1.732   4.373
 5219SOL    HW216557   3.297   1.816   4.471
 5220SOL     OW16558   1.664   4.724   2.987
 5220SOL    HW116559   1.654   4.760   2.894
 5220SOL    HW216560   1.607   4.777   3.050
 5221SOL     OW16561   0.046   0.237   1.965
 5221SOL    HW116562   0.103   0.299   1.911
 5221SOL    HW216563   0.084   0.230   2.058
 5222SOL     OW16564   3.699   5.431   2.247
 5222SOL    HW116565   3.783   5.403   2.201
 5222SOL    HW216566   3.677   5.525   2.223
 5223SOL     OW16567   0.114   2.347   0.968
 5223SOL    HW116568   0.144   2.437   0.936
 5223SOL    HW216569   0.026   2.356   1.014
 5224SOL     OW16570   0.130   1.829   4.469
 5224SOL    HW116571   0.198   1.801   4.538
 5224SOL    HW216572   0.038   1.807   4.502
 5225SOL     OW16573   0.133   0.663   4.223
 5225SOL    HW116574   0.168   0.617   4.141
 5225SOL    HW216575   0.108   0.757   4.200
 5226SOL     OW16576   0.419   6.205   3.260
 5226SOL    HW116577   0.350   6.156   3.207
 5226SOL    HW216578   0.475   6.139   3.310
 5227SOL     OW16579   0.185   3.654   6.012
 5227SOL    HW116580   0.172   3.753   6.012
 5227SOL    HW216581   0.246   3.629   6.088
 5228SOL     OW16582   0.763   2.607   6.807
 5228SOL    HW116583   0.729   2.665   6.880
 5228SOL    HW216584   0.819   2.533   6.845
 5229SOL     OW16585   3.304   6.158   6.618
 5229SOL    HW116586   3.382   6.221   6.624
 5229SOL    HW216587   3.294   6.127   6.523
 5230SOL     OW16588   6.164   0.548   3.084
 5230SOL    HW116589   6.244   0.555   3.144
 5230SOL    HW216590   6.081   0.572   3.135
 5231SOL     OW16591   5.001   1.961   3.412
 5231SOL    HW116592   4.908   1.957   3.375
 5231SOL    HW216593   5.015   1.884   3.474
 5232SOL     OW16594   1.494   4.123   6.267
 5232SOL    HW116595   1.508   4.082   6.177
 5232SOL    HW216596   1.418   4.187   6.263
 5233SOL     OW16597   3.183   0.786   1.918
 5233SOL    HW116598   3.110   0.719   1.907
 5233SOL    HW216599   3.148   0.866   1.966
 5234SOL     OW16600   3.237   2.740   6.563
 5234SOL    HW116601   3.273   2.800   6.634
 5234SOL    HW216602   3.195   2.660   6.605
 5235SOL     OW16603   2.049   2.217   0.484
 5235SOL    HW116604   2.010   2.147   0.543
 5235SOL    HW216605   2.113   2.175   0.420
 5236SOL     OW16606   3.344   5.266   1.620
 5236SOL    HW116607   3.339   5.205   1.699
 5236SOL    HW216608   3.326   5.214   1.537
 5237SOL     OW16609   2.451   1.388   4.846
 5237SOL    HW116610   2.508   1.324   4.794
 5237SOL    HW216611   2.437   1.353   4.938
 5238SOL     OW16612   1.111   5.282   1.454
 5238SOL    HW116613   1.078   5.190   1.432
 5238SOL    HW216614   1.123   5.334   1.370
 5239SOL     OW16615   3.376   3.599   1.056
 5239SOL    HW116616   3.309   3.525   1.059
 5239SOL    HW216617   3.369   3.655   1.138
 5240SOL     OW16618   2.667   2.511   5.311
 5240SOL    HW116619   2.613   2.516   5.227
 5240SOL    HW216620   2.757   2.552   5.294
 5241SOL     OW16621   0.610   5.762   2.350
 5241SOL    HW116622   0.590   5.750   2.253
 5241SOL    HW216623   0.529   5.799   2.397
 5242SOL     OW16624   5.160   0.251   2.096
 5242SOL    HW116625   5.122   0.311   2.025
 5242SOL    HW216626   5.249   0.286   2.125
 5243SOL     OW16627   2.555   6.392   1.821
 5243SOL    HW116628   2.487   6.465   1.828
 5243SOL    HW216629   2.642   6.423   1.858
 5244SOL     OW16630   5.342   3.796   0.162
 5244SOL    HW116631   5.290   3.733   0.104
 5244SOL    HW216632   5.334   3.769   0.257
 5245SOL     OW16633   3.971   4.462   0.898
 5245SOL    HW116634   4.047   4.415   0.852
 5245SOL    HW216635   3.914   4.507   0.829
 5246SOL     OW16636   6.317   2.327   2.464
 5246SOL    HW116637   6.325   2.426   2.462
 5246SOL    HW216638   6.341   2.293   2.555
 5247SOL     OW16639   3.562   0.869   5.843
 5247SOL    HW116640   3.489   0.840   5.782
 5247SOL    HW216641   3.567   0.969   5.845
 5248SOL     OW16642   0.130   1.701   2.894
 5248SOL    HW116643   0.129   1.786   2.946
 5248SOL    HW216644   0.116   1.624   2.956
 5249SOL     OW16645   1.534   5.732   6.590
 5249SOL    HW116646   1.458   5.785   6.551
 5249SOL    HW216647   1.550   5.651   6.534
 5250SOL     OW16648   0.995   5.800   0.284
 5250SOL    HW116649   0.948   5.888   0.279
 5250SOL    HW216650   1.015   5.778   0.380
 5251SOL     OW16651   1.148   4.472   0.939
 5251SOL    HW116652   1.088   4.415   0.995
 5251SOL    HW216653   1.100   4.499   0.855
 5252SOL     OW16654   3.026   6.615   1.718
 5252SOL    HW116655   2.996   6.534   1.770
 5252SOL    HW216656   3.062   6.683   1.782
 5253SOL     OW16657   6.544   3.889   4.693
 5253SOL    HW116658   6.626   3.924   4.646
 5253SOL    HW216659   6.469   3.882   4.627
 5254SOL     OW16660   6.222   0.171   3.467
 5254SOL    HW116661   6.149   0.143   3.530
 5254SOL    HW216662   6.247   0.266   3.484
 5255SOL     OW16663   5.518   2.382   4.748
 5255SOL    HW116664   5.450   2.309   4.749
 5255SOL    HW216665   5.539   2.410   4.841
 5256SOL     OW16666   5.155   1.562   4.305
 5256SOL    HW116667   5.077   1.618   4.279
 5256SOL    HW216668   5.235   1.621   4.320
 5257SOL     OW16669   4.567   0.008   1.075
 5257SOL    HW116670   4.615   7.026   0.988
 5257SOL    HW216671   4.606   0.083   1.128
 5258SOL     OW16672   5.655   2.126   2.918
 5258SOL    HW116673   5.615   2.113   3.009
 5258SOL    HW216674   5.602   2.193   2.867
 5259SOL     OW16675   4.727   5.706   2.553
 5259SOL    HW116676   4.768   5.784   2.506
 5259SOL    HW216677   4.655   5.737   2.614
 5260SOL     OW16678   3.865   5.457   0.418
 5260SOL    HW116679   3.908   5.539   0.453
 5260SOL    HW216680   3.839   5.397   0.494
 5261SOL     OW16681   0.286   4.119   6.349
 5261SOL    HW116682   0.355   4.059   6.308
 5261SOL    HW216683   0.323   4.212   6.355
 5262SOL     OW16684   3.129   1.031   3.643
 5262SOL    HW116685   3.048   1.084   3.615
 5262SOL    HW216686   3.190   1.089   3.696
 5263SOL     OW16687   1.555   1.192   2.762
 5263SOL    HW116688   1.619   1.227   2.694
 5263SOL    HW216689   1.566   1.093   2.772
 5264SOL     OW16690   6.406   2.384   1.800
 5264SOL    HW116691   6.441   2.462   1.748
 5264SOL    HW216692   6.479   2.318   1.816
 5265SOL     OW16693   6.534   3.123   4.445
 5265SOL    HW116694   6.611   3.180   4.416
 5265SOL    HW216695   6.449   3.171   4.427
 5266SOL     OW16696   2.772   5.398   0.384
 5266SOL    HW116697   2.730   5.483   0.415
 5266SOL    HW216698   2.708   5.322   0.395
 5267SOL     OW16699   4.861   2.292   4.775
 5267SOL    HW116700   4.856   2.382   4.731
 5267SOL    HW216701   4.844   2.221   4.706
 5268SOL     OW16702   5.283   0.526   6.810
 5268SOL    HW116703   5.198   0.477   6.789
 5268SOL    HW216704   5.262   0.622   6.830
 5269SOL     OW16705   0.594   6.710   2.181
 5269SOL    HW116706   0.665   6.650   2.144
 5269SOL    HW216707   0.545   6.754   2.106
 5270SOL     OW16708   5.758   1.202   1.747
 5270SOL    HW116709   5.679   1.260   1.765
 5270SOL    HW216710   5.828   1.255   1.700
 5271SOL     OW16711   5.806   5.106   5.178
 5271SOL    HW116712   5.850   5.092   5.089
 5271SOL    HW216713   5.834   5.033   5.241
 5272SOL     OW16714   3.404   5.326   1.270
 5272SOL    HW116715   3.494   5.350   1.307
 5272SOL    HW216716   3.408   5.326   1.170
 5273SOL     OW16717   0.261   3.550   2.307
 5273SOL    HW116718   0.268   3.508   2.216
 5273SOL    HW216719   0.349   3.544   2.353
 5274SOL     OW16720   5.332   7.009   2.738
 5274SOL    HW116721   5.292   0.074   2.750
 5274SOL    HW216722   5.335   6.963   2.826
 5275SOL     OW16723   3.677   1.397   0.426
 5275SOL    HW116724   3.632   1.371   0.512
 5275SOL    HW216725   3.620   1.368   0.349
 5276SOL     OW16726   2.106   0.093   1.559
 5276SOL    HW116727   2.143   0.153   1.631
 5276SOL    HW216728   2.100   0.144   1.473
 5277SOL     OW16729   2.737   1.199   3.120
 5277SOL    HW116730   2.786   1.201   3.033
 5277SOL    HW216731   2.638   1.198   3.103
 5278SOL     OW16732   4.865   5.490   4.491
 5278SOL    HW116733   4.965   5.484   4.487
 5278SOL    HW216734   4.825   5.444   4.412
 5279SOL     OW16735   2.907   5.915   0.646
 5279SOL    HW116736   2.853   5.945   0.725
 5279SOL    HW216737   2.954   5.994   0.606
 5280SOL     OW16738   2.874   5.905   5.016
 5280SOL    HW116739   2.840   5.994   4.986
 5280SOL    HW216740   2.837   5.833   4.958
 5281SOL     OW16741   6.188   2.192   2.238
 5281SOL    HW116742   6.213   2.236   2.324
 5281SOL    HW216743   6.239   2.233   2.163
 5282SOL     OW16744   3.054   1.638   3.751
 5282SOL    HW116745   3.073   1.547   3.788
 5282SOL    HW216746   2.955   1.654   3.751
 5283SOL     OW16747   4.841   6.798   1.940
 5283SOL    HW116748   4.880   6.769   1.852
 5283SOL    HW216749   4.827   6.897   1.939
 5284SOL     OW16750   5.276   4.373   3.154
 5284SOL    HW116751   5.273   4.472   3.137
 5284SOL    HW216752   5.185   4.342   3.181
 5285SOL     OW16753   3.098   4.873   4.345
 5285SOL    HW116754   3.108   4.850   4.441
 5285SOL    HW216755   3.167   4.940   4.319
 5286SOL     OW16756   2.322   4.218   1.234
 5286SOL    HW116757   2.224   4.205   1.250
 5286SOL    HW216758   2.349   4.308   1.270
 5287SOL     OW16759   2.592   1.324   1.000
 5287SOL    HW116760   2.645   1.390   1.053
 5287SOL    HW216761   2.648   1.244   0.980
 5288SOL     OW16762   3.575   0.072   1.412
 5288SOL    HW116763   3.674   0.085   1.416
 5288SOL    HW216764   3.546   0.011   1.487
 5289SOL     OW16765   1.581   4.789   0.063
 5289SOL    HW116766   1.653   4.822   0.123
 5289SOL    HW216767   1.571   4.851   7.011
 5290SOL     OW16768   2.954   5.396   6.609
 5290SOL    HW116769   2.891   5.372   6.683
 5290SOL    HW216770   3.043   5.353   6.625
 5291SOL     OW16771   2.409   5.539   5.566
 5291SOL    HW116772   2.464   5.575   5.641
 5291SOL    HW216773   2.327   5.495   5.602
 5292SOL     OW16774   6.100   3.137   0.480
 5292SOL    HW116775   6.133   3.086   0.401
 5292SOL    HW216776   6.038   3.078   0.533
 5293SOL     OW16777   0.650   1.110   5.186
 5293SOL    HW116778   0.747   1.088   5.196
 5293SOL    HW216779   0.608   1.049   5.119
 5294SOL     OW16780   5.667   3.286   6.807
 5294SOL    HW116781   5.711   3.361   6.857
 5294SOL    HW216782   5.573   3.313   6.783
 5295SOL     OW16783   5.428   1.371   2.930
 5295SOL    HW116784   5.367   1.411   2.861
 5295SOL    HW216785   5.463   1.284   2.897
 5296SOL     OW16786   1.508   4.951   6.888
 5296SOL    HW116787   1.563   4.954   6.804
 5296SOL    HW216788   1.426   5.005   6.876
 5297SOL     OW16789   1.731   2.151   0.946
 5297SOL    HW116790   1.795   2.075   0.961
 5297SOL    HW216791   1.770   2.235   0.982
 5298SOL     OW16792   6.426   5.402   2.082
 5298SOL    HW116793   6.341   5.385   2.131
 5298SOL    HW216794   6.451   5.498   2.091
 5299SOL     OW16795   2.339   0.659   1.570
 5299SOL    HW116796   2.380   0.700   1.652
 5299SOL    HW216797   2.309   0.731   1.508
 5300SOL     OW16798   0.147   5.414   3.001
 5300SOL    HW116799   0.197   5.356   2.936
 5300SOL    HW216800   0.061   5.370   3.026
 5301SOL     OW16801   4.093   1.408   6.718
 5301SOL    HW116802   4.085   1.312   6.745
 5301SOL    HW216803   4.015   1.459   6.754
 5302SOL     OW16804   6.559   4.164   2.490
 5302SOL    HW116805   6.562   4.227   2.413
 5302SOL    HW216806   6.466   4.161   2.526
 5303SOL     OW16807   6.477   5.416   3.714
 5303SOL    HW116808   6.437   5.384   3.800
 5303SOL    HW216809   6.412   5.478   3.669
 5304SOL     OW16810   5.012   1.983   6.208
 5304SOL    HW116811   4.965   2.071   6.196
 5304SOL    HW216812   5.034   1.945   6.118
 5305SOL     OW16813   1.752   0.876   4.449
 5305SOL    HW116814   1.818   0.861   4.375
 5305SOL    HW216815   1.799   0.910   4.530
 5306SOL     OW16816   3.047   5.930   5.282
 5306SOL    HW116817   2.970   5.962   5.227
 5306SOL    HW216818   3.061   5.832   5.266
 5307SOL     OW16819   4.525   6.276   5.711
 5307SOL    HW116820   4.546   6.366   5.673
 5307SOL    HW216821   4.566   6.205   5.653
 5308SOL     OW16822   0.626   0.352   3.971
 5308SOL    HW116823   0.648   0.326   4.066
 5308SOL    HW216824   0.595   0.271   3.921
 5309SOL     OW16825   3.850   3.964   3.642
 5309SOL    HW116826   3.857   3.896   3.715
 5309SOL    HW216827   3.753   3.980   3.622
 5310SOL     OW16828   4.986   2.599   1.640
 5310SOL    HW116829   5.004   2.593   1.738
 5310SOL    HW216830   4.888   2.588   1.624
 5311SOL     OW16831   1.474   5.513   6.908
 5311SOL    HW116832   1.450   5.489   6.814
 5311SOL    HW216833   1.550   5.577   6.907
 5312SOL     OW16834   0.937   4.956   2.357
 5312SOL    HW116835   0.861   5.019   2.373
 5312SOL    HW216836   1.008   4.972   2.426
 5313SOL     OW16837   1.068   5.821   6.736
 5313SOL    HW116838   1.126   5.748   6.774
 5313SOL    HW216839   0.982   5.824   6.787
 5314SOL     OW16840   4.282   5.110   0.303
 5314SOL    HW116841   4.215   5.172   0.344
 5314SOL    HW216842   4.291   5.029   0.361
 5315SOL     OW16843   4.737   4.317   2.163
 5315SOL    HW116844   4.664   4.303   2.097
 5315SOL    HW216845   4.779   4.230   2.186
 5316SOL     OW16846   6.910   5.145   5.093
 5316SOL    HW116847   6.900   5.076   5.164
 5316SOL    HW216848   6.871   5.110   5.007
 5317SOL     OW16849   5.672   0.982   3.608
 5317SOL    HW116850   5.611   0.964   3.531
 5317SOL    HW216851   5.696   1.079   3.609
 5318SOL     OW16852   6.609   2.579   5.086
 5318SOL    HW116853   6.622   2.557   4.989
 5318SOL    HW216854   6.516   2.614   5.099
 5319SOL     OW16855   5.970   0.121   6.416
 5319SOL    HW116856   6.005   0.144   6.507
 5319SOL    HW216857   5.916   0.037   6.421
 5320SOL     OW16858   6.270   3.997   6.783
 5320SOL    HW116859   6.279   4.057   6.704
 5320SOL    HW216860   6.179   4.007   6.823
 5321SOL     OW16861   1.474   4.828   4.507
 5321SOL    HW116862   1.408   4.767   4.551
 5321SOL    HW216863   1.567   4.802   4.533
 5322SOL     OW16864   4.005   6.353   6.905
 5322SOL    HW116865   3.975   6.270   6.952
 5322SOL    HW216866   4.085   6.390   6.951
 5323SOL     OW16867   4.278   2.148   0.645
 5323SOL    HW116868   4.196   2.160   0.590
 5323SOL    HW216869   4.328   2.234   0.651
 5324SOL     OW16870   3.890   2.150   1.777
 5324SOL    HW116871   3.912   2.189   1.687
 5324SOL    HW216872   3.809   2.197   1.814
 5325SOL     OW16873   4.941   6.625   2.485
 5325SOL    HW116874   4.923   6.607   2.582
 5325SOL    HW216875   4.888   6.561   2.429
 5326SOL     OW16876   6.995   5.561   1.643
 5326SOL    HW116877   0.023   5.479   1.625
 5326SOL    HW216878   0.030   5.636   1.668
 5327SOL     OW16879   0.507   6.741   4.906
 5327SOL    HW116880   0.575   6.688   4.957
 5327SOL    HW216881   0.422   6.746   4.958
 5328SOL     OW16882   3.851   3.503   6.227
 5328SOL    HW116883   3.846   3.439   6.150
 5328SOL    HW216884   3.795   3.469   6.302
 5329SOL     OW16885   0.299   4.569   7.021
 5329SOL    HW116886   0.356   4.495   0.033
 5329SOL    HW216887   0.203   4.543   7.025
 5330SOL     OW16888   4.228   3.715   0.344
 5330SOL    HW116889   4.189   3.801   0.378
 5330SOL    HW216890   4.170   3.680   0.270
 5331SOL     OW16891   4.580   2.330   0.479
 5331SOL    HW116892   4.500   2.342   0.419
 5331SOL    HW216893   4.561   2.370   0.568
 5332SOL     OW16894   6.357   5.097   0.471
 5332SOL    HW116895   6.440   5.126   0.517
 5332SOL    HW216896   6.380   5.054   0.384
 5333SOL     OW16897   2.446   1.149   3.536
 5333SOL    HW116898   2.528   1.138   3.592
 5333SOL    HW216899   2.408   1.241   3.549
 5334SOL     OW16900   4.505   4.918   3.819
 5334SOL    HW116901   4.533   4.993   3.879
 5334SOL    HW216902   4.406   4.911   3.818
 5335SOL     OW16903   6.907   4.564   2.522
 5335SOL    HW116904   6.854   4.524   2.597
 5335SOL    HW216905   7.003   4.537   2.530
 5336SOL     OW16906   2.158   1.967   4.204
 5336SOL    HW116907   2.116   2.003   4.287
 5336SOL    HW216908   2.087   1.950   4.135
 5337SOL     OW16909   6.194   4.336   1.503
 5337SOL    HW116910   6.244   4.265   1.453
 5337SOL    HW216911   6.244   4.360   1.586
 5338SOL     OW16912   6.131   2.805   0.019
 5338SOL    HW116913   6.094   2.776   6.956
 5338SOL    HW216914   6.182   2.729   0.060
 5339SOL     OW16915   5.910   2.192   2.236
 5339SOL    HW116916   6.008   2.190   2.256
 5339SOL    HW216917   5.896   2.207   2.138
 5340SOL     OW16918   5.623   3.190   2.251
 5340SOL    HW116919   5.687   3.116   2.272
 5340SOL    HW216920   5.546   3.154   2.199
 5341SOL     OW16921   4.454   4.799   3.188
 5341SOL    HW116922   4.425   4.864   3.117
 5341SOL    HW216923   4.475   4.711   3.145
 5342SOL     OW16924   5.753   6.884   5.985
 5342SOL    HW116925   5.729   6.801   5.935
 5342SOL    HW216926   5.838   6.870   6.035
 5343SOL     OW16927   3.866   3.664   5.627
 5343SOL    HW116928   3.872   3.648   5.528
 5343SOL    HW216929   3.776   3.701   5.649
 5344SOL     OW16930   0.656   1.450   0.157
 5344SOL    HW116931   0.569   1.402   0.146
 5344SOL    HW216932   0.711   1.439   0.074
 5345SOL     OW16933   4.908   1.404   6.706
 5345SOL    HW116934   4.904   1.428   6.803
 5345SOL    HW216935   4.966   1.324   6.693
 5346SOL     OW16936   2.661   5.218   3.662
 5346SOL    HW116937   2.631   5.128   3.694
 5346SOL    HW216938   2.691   5.211   3.567
 5347SOL     OW16939   6.748   2.653   3.669
 5347SOL    HW116940   6.833   2.633   3.720
 5347SOL    HW216941   6.771   2.690   3.579
 5348SOL     OW16942   6.021   1.432   4.731
 5348SOL    HW116943   6.024   1.381   4.817
 5348SOL    HW216944   6.009   1.367   4.655
 5349SOL     OW16945   0.664   2.952   2.086
 5349SOL    HW116946   0.729   2.972   2.159
 5349SOL    HW216947   0.678   2.859   2.052
 5350SOL     OW16948   1.705   0.041   5.771
 5350SOL    HW116949   1.773   0.007   5.835
 5350SOL    HW216950   1.624   0.072   5.820
 5351SOL     OW16951   0.529   5.665   1.503
 5351SOL    HW116952   0.603   5.705   1.449
 5351SOL    HW216953   0.513   5.571   1.474
 5352SOL     OW16954   1.919   4.089   3.033
 5352SOL    HW116955   1.980   4.093   3.112
 5352SOL    HW216956   1.952   4.152   2.962
 5353SOL     OW16957   4.045   5.456   3.886
 5353SOL    HW116958   4.061   5.378   3.947
 5353SOL    HW216959   4.129   5.477   3.837
 5354SOL     OW16960   3.595   5.153   0.644
 5354SOL    HW116961   3.668   5.108   0.695
 5354SOL    HW216962   3.511   5.153   0.699
 5355SOL     OW16963   5.315   5.469   5.498
 5355SOL    HW116964   5.240   5.435   5.441
 5355SOL    HW216965   5.291   5.558   5.535
 5356SOL     OW16966   0.056   4.035   1.849
 5356SOL    HW116967   0.072   4.010   1.754
 5356SOL    HW216968   0.023   3.955   1.900
 5357SOL     OW16969   4.762   4.939   1.811
 5357SOL    HW116970   4.676   4.989   1.814
 5357SOL    HW216971   4.746   4.845   1.778
 5358SOL     OW16972   4.526   1.572   6.919
 5358SOL    HW116973   4.488   1.660   6.889
 5358SOL    HW216974   4.451   1.513   6.950
 5359SOL     OW16975   2.166   1.608   0.368
 5359SOL    HW116976   2.080   1.652   0.341
 5359SOL    HW216977   2.145   1.524   0.419
 5360SOL     OW16978   5.454   5.257   3.917
 5360SOL    HW116979   5.400   5.186   3.872
 5360SOL    HW216980   5.527   5.288   3.856
 5361SOL     OW16981   3.841   6.535   2.740
 5361SOL    HW116982   3.859   6.631   2.759
 5361SOL    HW216983   3.806   6.491   2.823
 5362SOL     OW16984   5.120   6.519   2.045
 5362SOL    HW116985   5.178   6.569   2.109
 5362SOL    HW216986   5.029   6.507   2.085
 5363SOL     OW16987   5.398   6.288   4.796
 5363SOL    HW116988   5.490   6.304   4.832
 5363SOL    HW216989   5.393   6.324   4.703
 5364SOL     OW16990   5.233   0.916   2.626
 5364SOL    HW116991   5.280   0.933   2.540
 5364SOL    HW216992   5.297   0.873   2.691
 5365SOL     OW16993   3.393   3.186   3.811
 5365SOL    HW116994   3.373   3.269   3.758
 5365SOL    HW216995   3.310   3.154   3.856
 5366SOL     OW16996   6.645   0.272   1.446
 5366SOL    HW116997   6.701   0.301   1.368
 5366SOL    HW216998   6.683   0.188   1.484
 5367SOL     OW16999   6.043   0.151   0.584
 5367SOL    HW117000   6.024   0.136   0.487
 5367SOL    HW217001   6.008   0.073   0.637
 5368SOL     OW17002   6.752   5.898   2.059
 5368SOL    HW117003   6.709   5.937   1.978
 5368SOL    HW217004   6.836   5.850   2.033
 5369SOL     OW17005   2.652   4.923   1.889
 5369SOL    HW117006   2.665   4.825   1.910
 5369SOL    HW217007   2.659   4.975   1.974
 5370SOL     OW17008   3.901   3.823   1.511
 5370SOL    HW117009   3.942   3.879   1.583
 5370SOL    HW217010   3.974   3.775   1.461
 5371SOL     OW17011   6.674   5.027   4.991
 5371SOL    HW117012   6.614   5.020   5.071
 5371SOL    HW217013   6.653   5.111   4.942
 5372SOL     OW17014   1.628   6.944   2.929
 5372SOL    HW117015   1.539   6.956   2.974
 5372SOL    HW217016   1.627   6.987   2.839
 5373SOL     OW17017   4.252   6.589   5.758
 5373SOL    HW117018   4.277   6.658   5.691
 5373SOL    HW217019   4.153   6.584   5.766
 5374SOL     OW17020   2.576   5.139   1.267
 5374SOL    HW117021   2.593   5.059   1.325
 5374SOL    HW217022   2.660   5.193   1.260
 5375SOL     OW17023   1.045   6.635   5.357
 5375SOL    HW117024   1.107   6.603   5.286
 5375SOL    HW217025   1.092   6.703   5.414
 5376SOL     OW17026   1.354   2.127   1.120
 5376SOL    HW117027   1.420   2.135   1.195
 5376SOL    HW217028   1.382   2.052   1.059
 5377SOL     OW17029   1.973   0.567   2.897
 5377SOL    HW117030   1.887   0.610   2.869
 5377SOL    HW217031   2.031   0.635   2.942
 5378SOL     OW17032   5.611   0.825   0.845
 5378SOL    HW117033   5.556   0.755   0.891
 5378SOL    HW217034   5.693   0.784   0.807
 5379SOL     OW17035   1.926   2.652   5.392
 5379SOL    HW117036   1.881   2.611   5.312
 5379SOL    HW217037   1.872   2.729   5.424
 5380SOL     OW17038   3.790   0.397   1.088
 5380SOL    HW117039   3.702   0.431   1.055
 5380SOL    HW217040   3.789   0.297   1.091
 5381SOL     OW17041   5.479   6.714   2.905
 5381SOL    HW117042   5.560   6.679   2.858
 5381SOL    HW217043   5.398   6.666   2.873
 5382SOL     OW17044   4.233   1.752   2.991
 5382SOL    HW117045   4.263   1.800   2.909
 5382SOL    HW217046   4.298   1.679   3.013
 5383SOL     OW17047   1.503   2.958   4.131
 5383SOL    HW117048   1.451   2.966   4.046
 5383SOL    HW217049   1.537   2.865   4.141
 5384SOL     OW17050   4.638   5.873   5.319
 5384SOL    HW117051   4.576   5.797   5.338
 5384SOL    HW217052   4.715   5.869   5.382
 5385SOL     OW17053   6.561   2.678   5.929
 5385SOL    HW117054   6.655   2.682   5.895
 5385SOL    HW217055   6.540   2.585   5.958
 5386SOL     OW17056   6.144   3.178   3.922
 5386SOL    HW117057   6.097   3.250   3.973
 5386SOL    HW217058   6.242   3.199   3.916
 5387SOL     OW17059   2.639   0.393   2.579
 5387SOL    HW117060   2.604   0.303   2.605
 5387SOL    HW217061   2.699   0.427   2.651
 5388SOL     OW17062   0.559   6.328   2.583
 5388SOL    HW117063   0.567   6.354   2.679
 5388SOL    HW217064   0.475   6.276   2.569
 5389SOL     OW17065   4.447   1.684   4.614
 5389SOL    HW117066   4.392   1.758   4.577
 5389SOL    HW217067   4.489   1.632   4.539
 5390SOL     OW17068   6.560   3.386   4.125
 5390SOL    HW117069   6.612   3.450   4.068
 5390SOL    HW217070   6.515   3.318   4.066
 5391SOL     OW17071   2.220   2.357   0.177
 5391SOL    HW117072   2.292   2.419   0.208
 5391SOL    HW217073   2.135   2.409   0.163
 5392SOL     OW17074   4.494   2.536   3.305
 5392SOL    HW117075   4.415   2.482   3.331
 5392SOL    HW217076   4.535   2.577   3.387
 5393SOL     OW17077   4.206   0.558   5.246
 5393SOL    HW117078   4.223   0.632   5.182
 5393SOL    HW217079   4.187   0.596   5.337
 5394SOL     OW17080   1.630   0.149   0.814
 5394SOL    HW117081   1.551   0.186   0.863
 5394SOL    HW217082   1.695   0.110   0.879
 5395SOL     OW17083   5.514   1.262   1.491
 5395SOL    HW117084   5.608   1.253   1.458
 5395SOL    HW217085   5.514   1.307   1.580
 5396SOL     OW17086   5.938   5.465   2.829
 5396SOL    HW117087   6.028   5.509   2.833
 5396SOL    HW217088   5.874   5.516   2.886
 5397SOL     OW17089   6.084   1.532   3.116
 5397SOL    HW117090   6.070   1.448   3.168
 5397SOL    HW217091   6.046   1.609   3.167
 5398SOL     OW17092   4.620   2.249   3.752
 5398SOL    HW117093   4.592   2.206   3.838
 5398SOL    HW217094   4.693   2.195   3.710
 5399SOL     OW17095   1.642   0.203   5.283
 5399SOL    HW117096   1.689   0.148   5.353
 5399SOL    HW217097   1.562   0.247   5.323
 5400SOL     OW17098   3.433   2.894   1.034
 5400SOL    HW117099   3.373   2.852   0.966
 5400SOL    HW217100   3.424   2.845   1.121
 5401SOL     OW17101   5.080   4.640   2.857
 5401SOL    HW117102   5.010   4.708   2.834
 5401SOL    HW217103   5.045   4.548   2.837
 5402SOL     OW17104   2.261   0.068   0.383
 5402SOL    HW117105   2.265   7.009   0.436
 5402SOL    HW217106   2.316   0.138   0.429
 5403SOL     OW17107   5.111   3.199   0.090
 5403SOL    HW117108   5.113   3.123   0.025
 5403SOL    HW217109   5.204   3.220   0.120
 5404SOL     OW17110   0.572   1.014   0.999
 5404SOL    HW117111   0.545   0.988   0.907
 5404SOL    HW217112   0.633   0.944   1.037
 5405SOL     OW17113   5.188   5.629   0.444
 5405SOL    HW117114   5.165   5.567   0.518
 5405SOL    HW217115   5.104   5.662   0.400
 5406SOL     OW17116   2.624   0.759   4.925
 5406SOL    HW117117   2.601   0.666   4.954
 5406SOL    HW217118   2.566   0.786   4.849
 5407SOL     OW17119   2.843   0.696   1.533
 5407SOL    HW117120   2.847   0.639   1.451
 5407SOL    HW217121   2.765   0.758   1.526
 5408SOL     OW17122   2.542   2.145   4.461
 5408SOL    HW117123   2.592   2.216   4.410
 5408SOL    HW217124   2.603   2.068   4.479
 5409SOL     OW17125   6.767   2.640   1.567
 5409SOL    HW117126   6.821   2.679   1.493
 5409SOL    HW217127   6.745   2.545   1.546
 5410SOL     OW17128   0.215   2.271   1.374
 5410SOL    HW117129   0.246   2.201   1.438
 5410SOL    HW217130   0.187   2.229   1.288
 5411SOL     OW17131   4.710   4.916   6.714
 5411SOL    HW117132   4.750   4.990   6.766
 5411SOL    HW217133   4.621   4.944   6.678
 5412SOL     OW17134   1.147   1.397   6.354
 5412SOL    HW117135   1.084   1.464   6.314
 5412SOL    HW217136   1.221   1.379   6.289
 5413SOL     OW17137   6.494   0.004   5.573
 5413SOL    HW117138   6.547   0.064   5.512
 5413SOL    HW217139   6.477   0.051   5.659
 5414SOL     OW17140   6.954   4.556   5.754
 5414SOL    HW117141   6.996   4.644   5.776
 5414SOL    HW217142   6.924   4.556   5.659
 5415SOL     OW17143   3.147   0.008   0.440
 5415SOL    HW117144   3.205   6.953   0.454
 5415SOL    HW217145   3.052   7.005   0.432
 5416SOL     OW17146   2.699   5.180   5.365
 5416SOL    HW117147   2.760   5.122   5.419
 5416SOL    HW217148   2.679   5.136   5.278
 5417SOL     OW17149   4.961   6.145   3.551
 5417SOL    HW117150   4.933   6.241   3.542
 5417SOL    HW217151   4.906   6.088   3.490
 5418SOL     OW17152   5.831   4.739   4.240
 5418SOL    HW117153   5.828   4.787   4.327
 5418SOL    HW217154   5.907   4.772   4.185
 5419SOL     OW17155   4.253   6.956   6.874
 5419SOL    HW117156   4.217   6.881   6.820
 5419SOL    HW217157   4.348   6.936   6.900
 5420SOL     OW17158   1.572   1.494   1.271
 5420SOL    HW117159   1.561   1.586   1.308
 5420SOL    HW217160   1.548   1.494   1.174
 5421SOL     OW17161   3.381   5.340   2.005
 5421SOL    HW117162   3.394   5.363   2.101
 5421SOL    HW217163   3.465   5.361   1.954
 5422SOL     OW17164   1.841   6.008   3.826
 5422SOL    HW117165   1.871   5.932   3.768
 5422SOL    HW217166   1.749   5.988   3.861
 5423SOL     OW17167   6.477   6.098   1.919
 5423SOL    HW117168   6.538   6.030   1.879
 5423SOL    HW217169   6.383   6.077   1.894
 5424SOL     OW17170   4.771   4.054   5.064
 5424SOL    HW117171   4.753   4.033   5.160
 5424SOL    HW217172   4.728   4.141   5.041
 5425SOL     OW17173   0.382   3.393   5.591
 5425SOL    HW117174   0.302   3.339   5.566
 5425SOL    HW217175   0.358   3.457   5.663
 5426SOL     OW17176   5.172   5.243   2.321
 5426SOL    HW117177   5.142   5.307   2.250
 5426SOL    HW217178   5.103   5.173   2.334
 5427SOL     OW17179   4.957   2.525   6.853
 5427SOL    HW117180   5.001   2.473   6.926
 5427SOL    HW217181   4.958   2.472   6.769
 5428SOL     OW17182   6.539   5.339   3.029
 5428SOL    HW117183   6.461   5.275   3.022
 5428SOL    HW217184   6.581   5.349   2.939
 5429SOL     OW17185   3.127   0.767   3.743
 5429SOL    HW117186   3.111   0.859   3.706
 5429SOL    HW217187   3.039   0.724   3.764
 5430SOL     OW17188   2.407   3.801   6.336
 5430SOL    HW117189   2.456   3.715   6.319
 5430SOL    HW217190   2.357   3.828   6.254
 5431SOL     OW17191   2.954   4.957   6.286
 5431SOL    HW117192   2.969   5.042   6.235
 5431SOL    HW217193   3.031   4.895   6.272
 5432SOL     OW17194   5.534   5.759   1.420
 5432SOL    HW117195   5.577   5.758   1.330
 5432SOL    HW217196   5.541   5.851   1.459
 5433SOL     OW17197   1.495   0.419   1.057
 5433SOL    HW117198   1.535   0.373   1.137
 5433SOL    HW217199   1.552   0.497   1.032
 5434SOL     OW17200   4.878   1.194   4.847
 5434SOL    HW117201   4.971   1.229   4.857
 5434SOL    HW217202   4.879   1.094   4.853
 5435SOL     OW17203   6.662   3.776   0.942
 5435SOL    HW117204   6.701   3.866   0.920
 5435SOL    HW217205   6.705   3.707   0.883
 5436SOL     OW17206   1.500   5.674   2.287
 5436SOL    HW117207   1.536   5.669   2.194
 5436SOL    HW217208   1.404   5.700   2.285
 5437SOL     OW17209   3.305   5.135   6.963
 5437SOL    HW117210   3.317   5.168   0.031
 5437SOL    HW217211   3.220   5.171   6.926
 5438SOL     OW17212   4.803   4.042   2.495
 5438SOL    HW117213   4.819   4.100   2.575
 5438SOL    HW217214   4.716   3.995   2.506
 5439SOL     OW17215   0.942   4.160   0.933
 5439SOL    HW117216   1.020   4.125   0.985
 5439SOL    HW217217   0.895   4.230   0.987
 5440SOL     OW17218   6.052   6.225   3.303
 5440SOL    HW117219   6.100   6.204   3.388
 5440SOL    HW217220   5.987   6.151   3.283
 5441SOL     OW17221   4.764   2.684   3.820
 5441SOL    HW117222   4.820   2.691   3.902
 5441SOL    HW217223   4.668   2.675   3.847
 5442SOL     OW17224   5.047   6.961   4.326
 5442SOL    HW117225   5.055   6.956   4.425
 5442SOL    HW217226   5.126   7.008   4.288
 5443SOL     OW17227   4.971   6.532   5.174
 5443SOL    HW117228   4.946   6.607   5.112
 5443SOL    HW217229   4.959   6.562   5.269
 5444SOL     OW17230   0.448   1.434   3.816
 5444SOL    HW117231   0.492   1.351   3.850
 5444SOL    HW217232   0.511   1.481   3.754
 5445SOL     OW17233   5.122   5.308   5.684
 5445SOL    HW117234   5.049   5.342   5.625
 5445SOL    HW217235   5.172   5.386   5.723
 5446SOL     OW17236   0.116   4.817   5.164
 5446SOL    HW117237   0.090   4.852   5.254
 5446SOL    HW217238   0.034   4.787   5.115
 5447SOL     OW17239   1.409   2.121   0.559
 5447SOL    HW117240   1.473   2.181   0.511
 5447SOL    HW217241   1.435   2.114   0.655
 5448SOL     OW17242   4.545   6.041   3.611
 5448SOL    HW117243   4.517   6.005   3.701
 5448SOL    HW217244   4.466   6.044   3.550
 5449SOL     OW17245   3.173   1.641   2.308
 5449SOL    HW117246   3.120   1.689   2.238
 5449SOL    HW217247   3.162   1.542   2.296
 5450SOL     OW17248   3.922   6.344   1.751
 5450SOL    HW117249   3.979   6.363   1.831
 5450SOL    HW217250   3.843   6.290   1.778
 5451SOL     OW17251   1.024   0.278   3.141
 5451SOL    HW117252   1.076   0.269   3.226
 5451SOL    HW217253   1.060   0.356   3.089
 5452SOL     OW17254   1.913   5.048   1.850
 5452SOL    HW117255   1.845   5.023   1.781
 5452SOL    HW217256   1.923   4.973   1.916
 5453SOL     OW17257   6.128   4.002   2.941
 5453SOL    HW117258   6.043   4.041   2.976
 5453SOL    HW217259   6.195   4.075   2.926
 5454SOL     OW17260   6.185   5.619   2.837
 5454SOL    HW117261   6.283   5.636   2.834
 5454SOL    HW217262   6.149   5.614   2.744
 5455SOL     OW17263   0.172   1.789   2.218
 5455SOL    HW117264   0.154   1.701   2.261
 5455SOL    HW217265   0.085   1.832   2.191
 5456SOL     OW17266   5.044   0.691   6.657
 5456SOL    HW117267   5.012   0.596   6.666
 5456SOL    HW217268   5.003   0.747   6.729
 5457SOL     OW17269   6.446   2.850   0.552
 5457SOL    HW117270   6.497   2.798   0.483
 5457SOL    HW217271   6.495   2.935   0.573
 5458SOL     OW17272   6.364   4.176   1.347
 5458SOL    HW117273   6.341   4.079   1.342
 5458SOL    HW217274   6.429   4.199   1.274
 5459SOL     OW17275   1.516   4.530   5.677
 5459SOL    HW117276   1.491   4.584   5.757
 5459SOL    HW217277   1.614   4.512   5.678
 5460SOL     OW17278   1.875   1.074   0.688
 5460SOL    HW117279   1.933   0.992   0.685
 5460SOL    HW217280   1.927   1.150   0.727
 5461SOL     OW17281   0.154   1.529   6.188
 5461SOL    HW117282   0.190   1.491   6.103
 5461SOL    HW217283   0.058   1.505   6.197
 5462SOL     OW17284   5.166   6.319   6.621
 5462SOL    HW117285   5.082   6.371   6.632
 5462SOL    HW217286   5.208   6.340   6.533
 5463SOL     OW17287   0.150   2.815   6.494
 5463SOL    HW117288   0.166   2.749   6.567
 5463SOL    HW217289   0.089   2.887   6.526
 5464SOL     OW17290   6.008   6.348   5.633
 5464SOL    HW117291   5.912   6.369   5.618
 5464SOL    HW217292   6.024   6.250   5.618
 5465SOL     OW17293   6.597   6.556   3.019
 5465SOL    HW117294   6.672   6.499   3.054
 5465SOL    HW217295   6.607   6.649   3.053
 5466SOL     OW17296   5.671   2.284   5.020
 5466SOL    HW117297   5.626   2.204   4.982
 5466SOL    HW217298   5.711   2.262   5.109
 5467SOL     OW17299   5.689   4.183   3.529
 5467SOL    HW117300   5.619   4.140   3.471
 5467SOL    HW217301   5.665   4.170   3.625
 5468SOL     OW17302   6.729   1.785   2.659
 5468SOL    HW117303   6.646   1.729   2.661
 5468SOL    HW217304   6.714   1.865   2.600
 5469SOL     OW17305   1.761   0.640   6.034
 5469SOL    HW117306   1.756   0.569   6.104
 5469SOL    HW217307   1.853   0.643   5.996
 5470SOL     OW17308   3.759   5.584   4.878
 5470SOL    HW117309   3.785   5.677   4.856
 5470SOL    HW217310   3.797   5.521   4.809
 5471SOL     OW17311   5.108   0.029   2.466
 5471SOL    HW117312   5.171   0.106   2.474
 5471SOL    HW217313   5.064   0.031   2.376
 5472SOL     OW17314   2.744   2.341   6.438
 5472SOL    HW117315   2.830   2.358   6.390
 5472SOL    HW217316   2.670   2.334   6.371
 5473SOL     OW17317   1.820   4.685   0.721
 5473SOL    HW117318   1.859   4.643   0.803
 5473SOL    HW217319   1.889   4.743   0.678
 5474SOL     OW17320   1.135   5.536   3.580
 5474SOL    HW117321   1.083   5.484   3.648
 5474SOL    HW217322   1.203   5.593   3.625
 5475SOL     OW17323   1.344   1.936   0.135
 5475SOL    HW117324   1.436   1.968   0.115
 5475SOL    HW217325   1.349   1.846   0.180
 5476SOL     OW17326   2.158   5.562   5.163
 5476SOL    HW117327   2.111   5.583   5.248
 5476SOL    HW217328   2.121   5.619   5.090
 5477SOL     OW17329   1.733   4.485   3.342
 5477SOL    HW117330   1.800   4.559   3.346
 5477SOL    HW217331   1.649   4.513   3.388
 5478SOL     OW17332   5.420   5.408   6.288
 5478SOL    HW117333   5.444   5.345   6.213
 5478SOL    HW217334   5.323   5.429   6.284
 5479SOL     OW17335   4.634   1.281   4.923
 5479SOL    HW117336   4.559   1.238   4.874
 5479SOL    HW217337   4.721   1.249   4.885
 5480SOL     OW17338   6.135   4.751   5.050
 5480SOL    HW117339   6.069   4.732   4.977
 5480SOL    HW217340   6.179   4.839   5.032
 5481SOL     OW17341   3.738   1.210   5.825
 5481SOL    HW117342   3.755   1.263   5.742
 5481SOL    HW217343   3.639   1.194   5.834
 5482SOL     OW17344   3.707   3.657   2.236
 5482SOL    HW117345   3.650   3.594   2.288
 5482SOL    HW217346   3.758   3.607   2.166
 5483SOL     OW17347   6.575   2.959   5.765
 5483SOL    HW117348   6.669   2.978   5.792
 5483SOL    HW217349   6.531   2.903   5.834
 5484SOL     OW17350   6.870   6.684   3.867
 5484SOL    HW117351   6.786   6.632   3.851
 5484SOL    HW217352   6.932   6.630   3.925
 5485SOL     OW17353   2.955   0.478   4.443
 5485SOL    HW117354   3.052   0.462   4.423
 5485SOL    HW217355   2.945   0.505   4.539
 5486SOL     OW17356   1.729   0.283   3.874
 5486SOL    HW117357   1.682   0.211   3.925
 5486SOL    HW217358   1.749   0.250   3.781
 5487SOL     OW17359   6.082   3.964   0.186
 5487SOL    HW117360   6.092   4.018   0.103
 5487SOL    HW217361   6.172   3.941   0.222
 5488SOL     OW17362   4.486   2.031   0.261
 5488SOL    HW117363   4.510   1.957   0.325
 5488SOL    HW217364   4.405   2.078   0.293
 5489SOL     OW17365   1.564   4.573   1.934
 5489SOL    HW117366   1.489   4.510   1.953
 5489SOL    HW217367   1.547   4.619   1.846
 5490SOL     OW17368   3.455   0.235   0.335
 5490SOL    HW117369   3.502   0.259   0.420
 5490SOL    HW217370   3.442   0.318   0.280
 5491SOL     OW17371   1.595   4.703   6.565
 5491SOL    HW117372   1.666   4.639   6.538
 5491SOL    HW217373   1.545   4.667   6.644
 5492SOL     OW17374   1.147   1.356   5.891
 5492SOL    HW117375   1.073   1.373   5.956
 5492SOL    HW217376   1.174   1.442   5.847
 5493SOL     OW17377   3.635   3.355   5.413
 5493SOL    HW117378   3.731   3.341   5.437
 5493SOL    HW217379   3.595   3.268   5.385
 5494SOL     OW17380   6.751   3.182   0.997
 5494SOL    HW117381   6.700   3.096   0.993
 5494SOL    HW217382   6.688   3.259   0.997
 5495SOL     OW17383   3.508   3.486   0.830
 5495SOL    HW117384   3.435   3.515   0.768
 5495SOL    HW217385   3.485   3.514   0.924
 5496SOL     OW17386   3.714   5.866   1.275
 5496SOL    HW117387   3.704   5.769   1.297
 5496SOL    HW217388   3.706   5.920   1.358
 5497SOL     OW17389   0.571   2.067   3.140
 5497SOL    HW117390   0.642   2.113   3.193
 5497SOL    HW217391   0.550   1.978   3.181
 5498SOL     OW17392   4.861   1.138   6.843
 5498SOL    HW117393   4.858   1.041   6.868
 5498SOL    HW217394   4.774   1.181   6.866
 5499SOL     OW17395   0.425   0.757   3.434
 5499SOL    HW117396   0.498   0.772   3.367
 5499SOL    HW217397   0.441   0.816   3.514
 5500SOL     OW17398   2.125   5.794   0.130
 5500SOL    HW117399   2.219   5.796   0.097
 5500SOL    HW217400   2.110   5.871   0.193
 5501SOL     OW17401   3.522   6.907   1.632
 5501SOL    HW117402   3.512   6.875   1.726
 5501SOL    HW217403   3.598   6.860   1.587
 5502SOL     OW17404   5.991   4.178   6.249
 5502SOL    HW117405   6.077   4.129   6.238
 5502SOL    HW217406   5.936   4.133   6.319
 5503SOL     OW17407   1.037   5.058   2.807
 5503SOL    HW117408   1.001   5.119   2.878
 5503SOL    HW217409   0.976   4.979   2.797
 5504SOL     OW17410   2.945   0.986   5.057
 5504SOL    HW117411   2.942   0.962   5.154
 5504SOL    HW217412   2.853   0.988   5.020
 5505SOL     OW17413   1.913   5.990   4.758
 5505SOL    HW117414   1.878   6.028   4.672
 5505SOL    HW217415   1.961   5.905   4.740
 5506SOL     OW17416   6.975   0.412   5.028
 5506SOL    HW117417   6.953   0.473   4.952
 5506SOL    HW217418   6.892   0.364   5.057
 5507SOL     OW17419   2.775   6.733   3.354
 5507SOL    HW117420   2.747   6.700   3.264
 5507SOL    HW217421   2.874   6.724   3.364
 5508SOL     OW17422   2.282   1.347   0.110
 5508SOL    HW117423   2.192   1.350   0.154
 5508SOL    HW217424   2.348   1.305   0.172
 5509SOL     OW17425   0.134   6.154   0.526
 5509SOL    HW117426   0.072   6.113   0.460
 5509SOL    HW217427   0.098   6.244   0.553
 5510SOL     OW17428   4.691   6.594   6.843
 5510SOL    HW117429   4.686   6.643   6.755
 5510SOL    HW217430   4.629   6.516   6.841
 5511SOL     OW17431   1.683   0.387   3.380
 5511SOL    HW117432   1.671   0.484   3.402
 5511SOL    HW217433   1.706   0.378   3.283
 5512SOL     OW17434   6.442   2.103   0.680
 5512SOL    HW117435   6.347   2.127   0.658
 5512SOL    HW217436   6.468   2.020   0.632
 5513SOL     OW17437   5.037   4.188   4.963
 5513SOL    HW117438   5.093   4.122   4.913
 5513SOL    HW217439   4.954   4.209   4.910
 5514SOL     OW17440   5.273   5.309   2.745
 5514SOL    HW117441   5.181   5.347   2.753
 5514SOL    HW217442   5.277   5.222   2.794
 5515SOL     OW17443   6.202   3.422   1.440
 5515SOL    HW117444   6.130   3.475   1.395
 5515SOL    HW217445   6.170   3.392   1.530
 5516SOL     OW17446   1.839   2.833   0.538
 5516SOL    HW117447   1.765   2.816   0.473
 5516SOL    HW217448   1.855   2.931   0.545
 5517SOL     OW17449   2.786   2.250   2.454
 5517SOL    HW117450   2.839   2.291   2.528
 5517SOL    HW217451   2.765   2.155   2.475
 5518SOL     OW17452   6.405   5.770   6.191
 5518SOL    HW117453   6.455   5.702   6.246
 5518SOL    HW217454   6.313   5.782   6.229
 5519SOL     OW17455   5.361   3.984   2.947
 5519SOL    HW117456   5.294   3.968   2.874
 5519SOL    HW217457   5.353   3.911   3.015
 5520SOL     OW17458   0.890   4.544   2.749
 5520SOL    HW117459   0.929   4.486   2.821
 5520SOL    HW217460   0.859   4.487   2.673
 5521SOL     OW17461   4.217   5.722   2.052
 5521SOL    HW117462   4.166   5.753   2.132
 5521SOL    HW217463   4.314   5.747   2.063
 5522SOL     OW17464   1.886   3.562   1.419
 5522SOL    HW117465   1.857   3.653   1.391
 5522SOL    HW217466   1.928   3.515   1.342
 5523SOL     OW17467   3.519   6.917   2.707
 5523SOL    HW117468   3.501   6.911   2.608
 5523SOL    HW217469   3.507   7.012   2.737
 5524SOL     OW17470   6.863   5.802   4.698
 5524SOL    HW117471   6.946   5.747   4.691
 5524SOL    HW217472   6.848   5.851   4.612
 5525SOL     OW17473   6.980   4.541   0.128
 5525SOL    HW117474   6.973   4.476   0.053
 5525SOL    HW217475   6.969   4.492   0.215
 5526SOL     OW17476   6.062   3.540   4.550
 5526SOL    HW117477   5.972   3.578   4.568
 5526SOL    HW217478   6.127   3.574   4.619
 5527SOL     OW17479   0.515   3.198   2.678
 5527SOL    HW117480   0.600   3.248   2.668
 5527SOL    HW217481   0.449   3.230   2.609
 5528SOL     OW17482   0.706   2.187   6.057
 5528SOL    HW117483   0.641   2.146   6.120
 5528SOL    HW217484   0.790   2.211   6.107
 5529SOL     OW17485   2.188   0.059   4.568
 5529SOL    HW117486   2.242   0.059   4.484
 5529SOL    HW217487   2.233   0.115   4.637
 5530SOL     OW17488   6.862   1.914   1.920
 5530SOL    HW117489   6.850   1.992   1.859
 5530SOL    HW217490   6.865   1.830   1.865
 5531SOL     OW17491   3.761   2.941   4.438
 5531SOL    HW117492   3.737   2.914   4.531
 5531SOL    HW217493   3.693   2.906   4.374
 5532SOL     OW17494   1.690   1.076   1.119
 5532SOL    HW117495   1.740   0.990   1.133
 5532SOL    HW217496   1.708   1.138   1.196
 5533SOL     OW17497   2.884   0.661   2.435
 5533SOL    HW117498   2.866   0.564   2.416
 5533SOL    HW217499   2.898   0.709   2.349
 5534SOL     OW17500   1.277   3.199   6.263
 5534SOL    HW117501   1.188   3.179   6.304
 5534SOL    HW217502   1.272   3.286   6.215
 5535SOL     OW17503   6.974   3.602   2.996
 5535SOL    HW117504   0.033   3.553   3.013
 5535SOL    HW217505   6.912   3.544   2.943
 5536SOL     OW17506   2.942   1.049   4.139
 5536SOL    HW117507   3.027   1.005   4.169
 5536SOL    HW217508   2.902   0.996   4.065
 5537SOL     OW17509   3.314   1.373   4.644
 5537SOL    HW117510   3.405   1.344   4.614
 5537SOL    HW217511   3.287   1.455   4.594
 5538SOL     OW17512   3.190   6.832   4.783
 5538SOL    HW117513   3.142   6.840   4.696
 5538SOL    HW217514   3.251   6.911   4.795
 5539SOL     OW17515   0.695   1.899   0.942
 5539SOL    HW117516   0.782   1.938   0.974
 5539SOL    HW217517   0.711   1.846   0.859
 5540SOL     OW17518   5.371   3.271   2.076
 5540SOL    HW117519   5.407   3.316   1.994
 5540SOL    HW217520   5.271   3.282   2.079
 5541SOL     OW17521   5.138   3.035   5.878
 5541SOL    HW117522   5.091   2.980   5.809
 5541SOL    HW217523   5.088   3.032   5.964
 5542SOL     OW17524   5.741   6.163   5.672
 5542SOL    HW117525   5.841   6.161   5.676
 5542SOL    HW217526   5.706   6.069   5.670
 5543SOL     OW17527   1.578   5.529   6.404
 5543SOL    HW117528   1.526   5.476   6.338
 5543SOL    HW217529   1.628   5.602   6.357
 5544SOL     OW17530   5.582   5.566   5.873
 5544SOL    HW117531   5.671   5.609   5.890
 5544SOL    HW217532   5.511   5.636   5.874
 5545SOL     OW17533   4.891   1.157   2.457
 5545SOL    HW117534   4.928   1.091   2.391
 5545SOL    HW217535   4.869   1.242   2.410
 5546SOL     OW17536   1.201   6.392   3.707
 5546SOL    HW117537   1.189   6.293   3.711
 5546SOL    HW217538   1.289   6.413   3.665
 5547SOL     OW17539   3.857   0.987   4.871
 5547SOL    HW117540   3.785   1.051   4.898
 5547SOL    HW217541   3.944   1.036   4.862
 5548SOL     OW17542   6.377   4.187   5.517
 5548SOL    HW117543   6.386   4.272   5.569
 5548SOL    HW217544   6.449   4.183   5.448
 5549SOL     OW17545   3.746   4.354   1.439
 5549SOL    HW117546   3.706   4.414   1.370
 5549SOL    HW217547   3.827   4.310   1.402
 5550SOL     OW17548   2.390   4.447   1.956
 5550SOL    HW117549   2.303   4.408   1.924
 5550SOL    HW217550   2.464   4.383   1.938
 5551SOL     OW17551   1.490   6.426   2.607
 5551SOL    HW117552   1.470   6.343   2.658
 5551SOL    HW217553   1.544   6.488   2.665
 5552SOL     OW17554   6.295   0.682   6.727
 5552SOL    HW117555   6.308   0.583   6.723
 5552SOL    HW217556   6.219   0.708   6.667
 5553SOL     OW17557   4.598   6.546   6.376
 5553SOL    HW117558   4.621   6.615   6.445
 5553SOL    HW217559   4.576   6.591   6.290
 5554SOL     OW17560   4.911   2.340   0.804
 5554SOL    HW117561   4.981   2.303   0.743
 5554SOL    HW217562   4.885   2.431   0.774
 5555SOL     OW17563   0.915   3.734   2.422
 5555SOL    HW117564   0.880   3.641   2.436
 5555SOL    HW217565   1.011   3.738   2.451
 5556SOL     OW17566   6.203   1.443   3.499
 5556SOL    HW117567   6.251   1.530   3.509
 5556SOL    HW217568   6.106   1.460   3.485
 5557SOL     OW17569   3.948   6.242   2.120
 5557SOL    HW117570   4.000   6.217   2.202
 5557SOL    HW217571   3.941   6.341   2.114
 5558SOL     OW17572   3.359   3.219   6.621
 5558SOL    HW117573   3.457   3.197   6.623
 5558SOL    HW217574   3.346   3.309   6.580
 5559SOL     OW17575   1.775   0.391   2.079
 5559SOL    HW117576   1.721   0.473   2.062
 5559SOL    HW217577   1.713   0.313   2.092
 5560SOL     OW17578   0.052   5.375   1.108
 5560SOL    HW117579   0.107   5.384   1.191
 5560SOL    HW217580   6.990   5.333   1.130
 5561SOL     OW17581   2.201   0.728   4.351
 5561SOL    HW117582   2.112   0.695   4.380
 5561SOL    HW217583   2.193   0.773   4.261
 5562SOL     OW17584   4.093   2.929   6.995
 5562SOL    HW117585   4.069   2.916   6.899
 5562SOL    HW217586   4.143   3.015   7.005
 5563SOL     OW17587   3.127   5.051   2.982
 5563SOL    HW117588   3.101   4.966   3.028
 5563SOL    HW217589   3.048   5.111   2.974
 5564SOL     OW17590   4.663   0.292   0.584
 5564SOL    HW117591   4.638   0.333   0.496
 5564SOL    HW217592   4.593   0.312   0.652
 5565SOL     OW17593   4.054   2.377   6.013
 5565SOL    HW117594   3.972   2.369   6.069
 5565SOL    HW217595   4.035   2.434   5.933
 5566SOL     OW17596   1.400   4.582   0.072
 5566SOL    HW117597   1.460   4.662   0.067
 5566SOL    HW217598   1.450   4.506   0.115
 5567SOL     OW17599   0.097   3.384   1.099
 5567SOL    HW117600   0.001   3.403   1.122
 5567SOL    HW217601   0.102   3.339   1.010
 5568SOL     OW17602   5.276   1.110   3.441
 5568SOL    HW117603   5.206   1.041   3.422
 5568SOL    HW217604   5.265   1.187   3.378
 5569SOL     OW17605   1.995   1.767   2.299
 5569SOL    HW117606   2.065   1.773   2.370
 5569SOL    HW217607   1.974   1.859   2.265
 5570SOL     OW17608   6.382   4.064   4.354
 5570SOL    HW117609   6.340   4.096   4.269
 5570SOL    HW217610   6.473   4.028   4.335
 5571SOL     OW17611   5.930   5.857   1.251
 5571SOL    HW117612   5.995   5.890   1.182
 5571SOL    HW217613   5.918   5.927   1.321
 5572SOL     OW17614   1.067   3.951   4.953
 5572SOL    HW117615   1.030   4.043   4.943
 5572SOL    HW217616   1.021   3.890   4.887
 5573SOL     OW17617   1.567   5.756   4.754
 5573SOL    HW117618   1.588   5.687   4.685
 5573SOL    HW217619   1.541   5.841   4.709
 5574SOL     OW17620   7.011   2.001   2.146
 5574SOL    HW117621   6.997   1.965   2.054
 5574SOL    HW217622   0.020   2.095   2.140
 5575SOL     OW17623   6.898   1.347   1.018
 5575SOL    HW117624   6.933   1.384   1.104
 5575SOL    HW217625   6.859   1.256   1.034
 5576SOL     OW17626   0.881   4.882   1.767
 5576SOL    HW117627   0.799   4.898   1.822
 5576SOL    HW217628   0.881   4.788   1.734
 5577SOL     OW17629   2.981   2.789   0.243
 5577SOL    HW117630   3.063   2.845   0.232
 5577SOL    HW217631   2.957   2.784   0.340
 5578SOL     OW17632   3.654   3.566   1.666
 5578SOL    HW117633   3.681   3.657   1.697
 5578SOL    HW217634   3.734   3.506   1.667
 5579SOL     OW17635   0.311   3.545   0.382
 5579SOL    HW117636   0.264   3.599   0.311
 5579SOL    HW217637   0.247   3.526   0.456
 5580SOL     OW17638   4.601   2.513   5.487
 5580SOL    HW117639   4.647   2.534   5.401
 5580SOL    HW217640   4.642   2.432   5.529
 5581SOL     OW17641   2.079   0.390   2.084
 5581SOL    HW117642   2.135   0.372   2.003
 5581SOL    HW217643   1.983   0.398   2.057
 5582SOL     OW17644   3.645   3.249   6.701
 5582SOL    HW117645   3.658   3.337   6.747
 5582SOL    HW217646   3.643   3.175   6.768
 5583SOL     OW17647   4.706   1.174   2.687
 5583SOL    HW117648   4.765   1.183   2.607
 5583SOL    HW217649   4.652   1.258   2.698
 5584SOL     OW17650   6.712   4.340   4.488
 5584SOL    HW117651   6.614   4.359   4.484
 5584SOL    HW217652   6.751   4.350   4.396
 5585SOL     OW17653   5.711   5.760   3.263
 5585SOL    HW117654   5.704   5.849   3.308
 5585SOL    HW217655   5.661   5.692   3.315
 5586SOL     OW17656   0.321   2.916   5.957
 5586SOL    HW117657   0.282   2.991   5.904
 5586SOL    HW217658   0.291   2.924   6.052
 5587SOL     OW17659   4.138   6.375   0.532
 5587SOL    HW117660   4.121   6.295   0.476
 5587SOL    HW217661   4.131   6.458   0.475
 5588SOL     OW17662   2.174   5.325   3.205
 5588SOL    HW117663   2.098   5.345   3.267
 5588SOL    HW217664   2.179   5.394   3.134
 5589SOL     OW17665   6.712   3.468   5.393
 5589SOL    HW117666   6.730   3.416   5.476
 5589SOL    HW217667   6.677   3.558   5.417
 5590SOL     OW17668   0.059   6.144   3.545
 5590SOL    HW117669   0.086   6.053   3.579
 5590SOL    HW217670   0.139   6.203   3.543
 5591SOL     OW17671   5.955   1.585   1.627
 5591SOL    HW117672   5.996   1.640   1.700
 5591SOL    HW217673   5.884   1.638   1.581
 5592SOL     OW17674   2.156   5.794   2.657
 5592SOL    HW117675   2.195   5.705   2.679
 5592SOL    HW217676   2.111   5.790   2.568
 5593SOL     OW17677   0.725   2.661   0.492
 5593SOL    HW117678   0.685   2.572   0.513
 5593SOL    HW217679   0.653   2.722   0.459
 5594SOL     OW17680   4.819   0.951   5.984
 5594SOL    HW117681   4.915   0.948   6.008
 5594SOL    HW217682   4.763   0.924   6.063
 5595SOL     OW17683   0.261   1.433   4.459
 5595SOL    HW117684   0.249   1.487   4.376
 5595SOL    HW217685   0.357   1.431   4.485
 5596SOL     OW17686   4.651   0.944   2.397
 5596SOL    HW117687   4.691   0.917   2.485
 5596SOL    HW217688   4.618   1.038   2.403
 5597SOL     OW17689   4.775   2.899   4.423
 5597SOL    HW117690   4.861   2.871   4.382
 5597SOL    HW217691   4.767   2.999   4.422
 5598SOL     OW17692   5.513   3.883   4.321
 5598SOL    HW117693   5.430   3.897   4.266
 5598SOL    HW217694   5.542   3.970   4.360
 5599SOL     OW17695   0.882   2.006   2.515
 5599SOL    HW117696   0.902   1.917   2.556
 5599SOL    HW217697   0.936   2.017   2.431
 5600SOL     OW17698   1.404   1.679   1.881
 5600SOL    HW117699   1.490   1.708   1.840
 5600SOL    HW217700   1.372   1.594   1.839
 5601SOL     OW17701   1.816   0.459   6.228
 5601SOL    HW117702   1.790   0.363   6.243
 5601SOL    HW217703   1.831   0.503   6.316
 5602SOL     OW17704   0.237   1.604   0.993
 5602SOL    HW117705   0.188   1.689   0.972
 5602SOL    HW217706   0.329   1.626   1.025
 5603SOL     OW17707   5.552   2.669   0.280
 5603SOL    HW117708   5.556   2.569   0.278
 5603SOL    HW217709   5.600   2.706   0.200
 5604SOL     OW17710   6.326   1.977   5.047
 5604SOL    HW117711   6.413   1.976   4.997
 5604SOL    HW217712   6.292   1.883   5.055
 5605SOL     OW17713   0.048   1.609   5.468
 5605SOL    HW117714   0.025   1.621   5.372
 5605SOL    HW217715   6.995   1.572   5.517
 5606SOL     OW17716   4.863   6.488   0.559
 5606SOL    HW117717   4.774   6.452   0.587
 5606SOL    HW217718   4.869   6.585   0.585
 5607SOL     OW17719   5.405   1.330   2.526
 5607SOL    HW117720   5.306   1.343   2.533
 5607SOL    HW217721   5.448   1.417   2.502
 5608SOL     OW17722   5.271   7.020   4.175
 5608SOL    HW117723   5.342   7.001   4.243
 5608SOL    HW217724   5.289   6.967   4.092
 5609SOL     OW17725   3.152   5.800   0.980
 5609SOL    HW117726   3.144   5.735   1.055
 5609SOL    HW217727   3.143   5.893   1.015
 5610SOL     OW17728   3.843   6.002   0.267
 5610SOL    HW117729   3.790   5.961   0.193
 5610SOL    HW217730   3.807   6.093   0.287
 5611SOL     OW17731   1.425   6.026   2.653
 5611SOL    HW117732   1.394   6.091   2.722
 5611SOL    HW217733   1.524   6.035   2.640
 5612SOL     OW17734   3.804   1.987   6.543
 5612SOL    HW117735   3.723   1.967   6.598
 5612SOL    HW217736   3.804   2.084   6.518
 5613SOL     OW17737   6.076   4.317   3.106
 5613SOL    HW117738   6.060   4.412   3.079
 5613SOL    HW217739   6.091   4.313   3.205
 5614SOL     OW17740   4.596   1.924   4.326
 5614SOL    HW117741   4.653   1.843   4.343
 5614SOL    HW217742   4.564   1.922   4.231
 5615SOL     OW17743   0.271   1.645   4.292
 5615SOL    HW117744   0.215   1.728   4.301
 5615SOL    HW217745   0.327   1.651   4.209
 5616SOL     OW17746   2.450   1.593   5.209
 5616SOL    HW117747   2.484   1.686   5.220
 5616SOL    HW217748   2.354   1.595   5.181
 5617SOL     OW17749   2.882   6.629   5.815
 5617SOL    HW117750   2.825   6.572   5.874
 5617SOL    HW217751   2.947   6.681   5.871
 5618SOL     OW17752   0.018   5.149   3.984
 5618SOL    HW117753   7.021   5.173   3.889
 5618SOL    HW217754   0.117   5.161   3.998
 5619SOL     OW17755   3.035   3.721   5.567
 5619SOL    HW117756   3.000   3.788   5.502
 5619SOL    HW217757   3.117   3.677   5.529
 5620SOL     OW17758   4.548   3.959   0.989
 5620SOL    HW117759   4.469   3.958   0.928
 5620SOL    HW217760   4.619   3.898   0.954
 5621SOL     OW17761   2.201   2.082   0.295
 5621SOL    HW117762   2.270   2.147   0.262
 5621SOL    HW217763   2.245   1.994   0.316
 5622SOL     OW17764   4.602   0.260   6.222
 5622SOL    HW117765   4.668   0.310   6.278
 5622SOL    HW217766   4.602   0.164   6.250
 5623SOL     OW17767   2.980   5.554   5.086
 5623SOL    HW117768   3.054   5.569   5.152
 5623SOL    HW217769   2.900   5.607   5.115
 5624SOL     OW17770   1.056   4.322   4.102
 5624SOL    HW117771   1.152   4.313   4.074
 5624SOL    HW217772   0.997   4.309   4.023
 5625SOL     OW17773   6.233   1.440   5.064
 5625SOL    HW117774   6.299   1.446   4.989
 5625SOL    HW217775   6.149   1.398   5.031
 5626SOL     OW17776   2.640   6.054   4.038
 5626SOL    HW117777   2.711   6.111   3.996
 5626SOL    HW217778   2.567   6.037   3.971
 5627SOL     OW17779   0.801   5.827   6.347
 5627SOL    HW117780   0.891   5.870   6.360
 5627SOL    HW217781   0.783   5.815   6.250
 5628SOL     OW17782   1.135   2.388   0.406
 5628SOL    HW117783   1.191   2.355   0.482
 5628SOL    HW217784   1.186   2.377   0.320
 5629SOL     OW17785   3.621   4.137   3.322
 5629SOL    HW117786   3.559   4.109   3.248
 5629SOL    HW217787   3.634   4.237   3.318
 5630SOL     OW17788   1.746   3.788   0.357
 5630SOL    HW117789   1.788   3.875   0.384
 5630SOL    HW217790   1.656   3.806   0.316
 5631SOL     OW17791   4.434   1.795   0.849
 5631SOL    HW117792   4.525   1.757   0.868
 5631SOL    HW217793   4.430   1.889   0.882
 5632SOL     OW17794   2.948   2.428   6.279
 5632SOL    HW117795   3.041   2.449   6.249
 5632SOL    HW217796   2.925   2.334   6.253
 5633SOL     OW17797   6.089   3.803   4.154
 5633SOL    HW117798   6.009   3.824   4.097
 5633SOL    HW217799   6.080   3.851   4.242
 5634SOL     OW17800   2.175   4.996   4.151
 5634SOL    HW117801   2.130   4.986   4.239
 5634SOL    HW217802   2.273   5.013   4.165
 5635SOL     OW17803   2.137   4.374   5.326
 5635SOL    HW117804   2.119   4.369   5.425
 5635SOL    HW217805   2.228   4.337   5.307
 5636SOL     OW17806   4.231   6.195   4.240
 5636SOL    HW117807   4.328   6.187   4.216
 5636SOL    HW217808   4.205   6.118   4.298
 5637SOL     OW17809   5.218   7.021   3.478
 5637SOL    HW117810   5.232   6.922   3.484
 5637SOL    HW217811   5.121   0.016   3.485
 5638SOL     OW17812   6.273   3.912   1.312
 5638SOL    HW117813   6.310   3.867   1.393
 5638SOL    HW217814   6.177   3.935   1.327
 5639SOL     OW17815   0.755   1.466   1.800
 5639SOL    HW117816   0.730   1.418   1.885
 5639SOL    HW217817   0.721   1.560   1.804
 5640SOL     OW17818   3.246   0.660   3.514
 5640SOL    HW117819   3.193   0.678   3.597
 5640SOL    HW217820   3.258   0.744   3.462
 5641SOL     OW17821   0.933   5.134   5.310
 5641SOL    HW117822   0.861   5.135   5.379
 5641SOL    HW217823   0.943   5.041   5.273
 5642SOL     OW17824   1.562   6.606   5.346
 5642SOL    HW117825   1.474   6.565   5.368
 5642SOL    HW217826   1.630   6.534   5.332
 5643SOL     OW17827   4.519   1.393   5.474
 5643SOL    HW117828   4.520   1.449   5.557
 5643SOL    HW217829   4.425   1.387   5.440
 5644SOL     OW17830   3.372   0.120   5.135
 5644SOL    HW117831   3.415   0.209   5.119
 5644SOL    HW217832   3.365   0.103   5.234
 5645SOL     OW17833   6.190   4.599   3.960
 5645SOL    HW117834   6.181   4.568   3.865
 5645SOL    HW217835   6.120   4.555   4.016
 5646SOL     OW17836   1.541   5.454   3.186
 5646SOL    HW117837   1.635   5.425   3.168
 5646SOL    HW217838   1.539   5.553   3.200
 5647SOL     OW17839   4.908   6.177   1.618
 5647SOL    HW117840   4.844   6.134   1.555
 5647SOL    HW217841   4.999   6.182   1.576
 5648SOL     OW17842   2.353   5.964   2.536
 5648SOL    HW117843   2.277   5.911   2.575
 5648SOL    HW217844   2.346   5.965   2.437
 5649SOL     OW17845   1.191   6.899   3.927
 5649SOL    HW117846   1.127   6.825   3.951
 5649SOL    HW217847   1.182   6.973   3.993
 5650SOL     OW17848   1.128   5.453   1.246
 5650SOL    HW117849   1.222   5.478   1.222
 5650SOL    HW217850   1.077   5.433   1.163
 5651SOL     OW17851   1.790   1.341   0.963
 5651SOL    HW117852   1.724   1.267   0.979
 5651SOL    HW217853   1.880   1.301   0.948
 5652SOL     OW17854   6.172   6.159   0.955
 5652SOL    HW117855   6.241   6.117   0.896
 5652SOL    HW217856   6.207   6.245   0.992
 5653SOL     OW17857   6.457   6.465   6.590
 5653SOL    HW117858   6.410   6.553   6.580
 5653SOL    HW217859   6.529   6.474   6.659
 5654SOL     OW17860   1.003   6.276   4.294
 5654SOL    HW117861   0.968   6.262   4.201
 5654SOL    HW217862   1.010   6.374   4.313
 5655SOL     OW17863   0.447   2.873   3.835
 5655SOL    HW117864   0.489   2.836   3.751
 5655SOL    HW217865   0.394   2.801   3.880
 5656SOL     OW17866   6.658   4.186   6.330
 5656SOL    HW117867   6.693   4.133   6.406
 5656SOL    HW217868   6.649   4.127   6.249
 5657SOL     OW17869   5.646   3.274   5.996
 5657SOL    HW117870   5.692   3.333   6.061
 5657SOL    HW217871   5.703   3.265   5.914
 5658SOL     OW17872   2.766   3.133   6.344
 5658SOL    HW117873   2.712   3.068   6.397
 5658SOL    HW217874   2.755   3.225   6.382
 5659SOL     OW17875   3.682   3.392   6.408
 5659SOL    HW117876   3.685   3.397   6.508
 5659SOL    HW217877   3.644   3.304   6.381
 5660SOL     OW17878   4.780   6.707   5.814
 5660SOL    HW117879   4.849   6.635   5.809
 5660SOL    HW217880   4.728   6.697   5.899
 5661SOL     OW17881   2.009   6.274   4.607
 5661SOL    HW117882   1.916   6.251   4.636
 5661SOL    HW217883   2.069   6.277   4.687
 5662SOL     OW17884   2.956   6.605   2.959
 5662SOL    HW117885   2.980   6.514   2.992
 5662SOL    HW217886   3.034   6.644   2.909
 5663SOL     OW17887   2.818   2.285   0.723
 5663SOL    HW117888   2.820   2.385   0.720
 5663SOL    HW217889   2.900   2.248   0.679
 5664SOL     OW17890   0.097   3.785   4.198
 5664SOL    HW117891   0.059   3.797   4.290
 5664SOL    HW217892   0.025   3.753   4.137
 5665SOL     OW17893   1.155   0.588   0.675
 5665SOL    HW117894   1.057   0.609   0.666
 5665SOL    HW217895   1.208   0.669   0.649
 5666SOL     OW17896   6.555   6.966   3.805
 5666SOL    HW117897   6.491   0.005   3.845
 5666SOL    HW217898   6.585   6.998   3.715
 5667SOL     OW17899   1.354   5.058   5.004
 5667SOL    HW117900   1.302   5.069   5.089
 5667SOL    HW217901   1.448   5.034   5.025
 5668SOL     OW17902   5.720   3.513   3.213
 5668SOL    HW117903   5.749   3.475   3.125
 5668SOL    HW217904   5.757   3.606   3.224
 5669SOL     OW17905   6.398   4.064   0.858
 5669SOL    HW117906   6.478   4.012   0.831
 5669SOL    HW217907   6.346   4.013   0.927
 5670SOL     OW17908   1.549   3.579   4.018
 5670SOL    HW117909   1.455   3.588   3.985
 5670SOL    HW217910   1.611   3.625   3.954
 5671SOL     OW17911   5.872   6.661   5.646
 5671SOL    HW117912   5.809   6.661   5.723
 5671SOL    HW217913   5.853   6.741   5.587
 5672SOL     OW17914   5.187   4.158   6.402
 5672SOL    HW117915   5.246   4.174   6.323
 5672SOL    HW217916   5.236   4.178   6.486
 5673SOL     OW17917   1.794   6.488   1.335
 5673SOL    HW117918   1.726   6.522   1.400
 5673SOL    HW217919   1.807   6.555   1.262
 5674SOL     OW17920   1.503   4.505   4.950
 5674SOL    HW117921   1.594   4.479   4.920
 5674SOL    HW217922   1.436   4.482   4.878
 5675SOL     OW17923   4.416   2.756   6.627
 5675SOL    HW117924   4.437   2.672   6.577
 5675SOL    HW217925   4.484   2.826   6.606
 5676SOL     OW17926   2.444   1.990   2.789
 5676SOL    HW117927   2.444   1.891   2.801
 5676SOL    HW217928   2.533   2.020   2.754
 5677SOL     OW17929   0.705   0.755   1.033
 5677SOL    HW117930   0.702   0.671   0.979
 5677SOL    HW217931   0.793   0.762   1.079
 5678SOL     OW17932   4.131   0.443   2.878
 5678SOL    HW117933   4.148   0.420   2.974
 5678SOL    HW217934   4.191   0.389   2.819
 5679SOL     OW17935   5.845   0.764   4.133
 5679SOL    HW117936   5.770   0.746   4.070
 5679SOL    HW217937   5.825   0.724   4.222
 5680SOL     OW17938   1.590   5.226   6.467
 5680SOL    HW117939   1.555   5.181   6.549
 5680SOL    HW217940   1.524   5.215   6.392
 5681SOL     OW17941   0.731   3.677   1.925
 5681SOL    HW117942   0.767   3.756   1.974
 5681SOL    HW217943   0.677   3.621   1.988
 5682SOL     OW17944   2.313   5.235   4.395
 5682SOL    HW117945   2.304   5.175   4.316
 5682SOL    HW217946   2.358   5.186   4.470
 5683SOL     OW17947   3.780   1.746   6.299
 5683SOL    HW117948   3.858   1.691   6.327
 5683SOL    HW217949   3.710   1.743   6.370
 5684SOL     OW17950   2.258   3.603   5.807
 5684SOL    HW117951   2.348   3.642   5.827
 5684SOL    HW217952   2.254   3.509   5.841
 5685SOL     OW17953   2.666   1.764   3.356
 5685SOL    HW117954   2.628   1.788   3.445
 5685SOL    HW217955   2.762   1.736   3.367
 5686SOL     OW17956   3.361   1.479   4.876
 5686SOL    HW117957   3.363   1.434   4.787
 5686SOL    HW217958   3.278   1.533   4.885
 5687SOL     OW17959   0.745   5.812   6.043
 5687SOL    HW117960   0.702   5.866   5.971
 5687SOL    HW217961   0.844   5.809   6.029
 5688SOL     OW17962   1.508   2.486   2.774
 5688SOL    HW117963   1.424   2.479   2.829
 5688SOL    HW217964   1.546   2.578   2.782
 5689SOL     OW17965   2.291   1.129   2.187
 5689SOL    HW117966   2.221   1.151   2.255
 5689SOL    HW217967   2.367   1.193   2.197
 5690SOL     OW17968   1.117   5.931   0.016
 5690SOL    HW117969   1.036   5.969   6.995
 5690SOL    HW217970   1.098   5.836   0.042
 5691SOL     OW17971   3.953   0.885   2.021
 5691SOL    HW117972   3.901   0.883   1.936
 5691SOL    HW217973   3.910   0.950   2.084
 5692SOL     OW17974   5.325   4.524   0.678
 5692SOL    HW117975   5.366   4.436   0.701
 5692SOL    HW217976   5.271   4.557   0.755
 5693SOL     OW17977   4.564   1.376   1.690
 5693SOL    HW117978   4.478   1.325   1.685
 5693SOL    HW217979   4.636   1.324   1.645
 5694SOL     OW17980   1.125   0.728   2.590
 5694SOL    HW117981   1.221   0.753   2.582
 5694SOL    HW217982   1.079   0.792   2.651
 5695SOL     OW17983   1.943   1.412   3.422
 5695SOL    HW117984   1.944   1.312   3.427
 5695SOL    HW217985   2.006   1.443   3.351
 5696SOL     OW17986   0.711   6.571   3.994
 5696SOL    HW117987   0.713   6.526   4.083
 5696SOL    HW217988   0.729   6.669   4.006
 5697SOL     OW17989   5.691   2.288   2.366
 5697SOL    HW117990   5.776   2.238   2.348
 5697SOL    HW217991   5.681   2.361   2.299
 5698SOL     OW17992   1.810   4.589   4.116
 5698SOL    HW117993   1.903   4.618   4.094
 5698SOL    HW217994   1.777   4.526   4.045
 5699SOL     OW17995   1.337   2.035   2.708
 5699SOL    HW117996   1.271   2.102   2.674
 5699SOL    HW217997   1.404   2.015   2.636
 5700SOL     OW17998   6.180   6.515   3.974
 5700SOL    HW117999   6.154   6.596   4.026
 5700SOL    HW218000   6.104   6.449   3.974
 5701SOL     OW18001   0.462   0.172   1.452
 5701SOL    HW118002   0.379   0.202   1.499
 5701SOL    HW218003   0.458   0.073   1.438
 5702SOL     OW18004   2.194   6.039   4.072
 5702SOL    HW118005   2.227   6.031   4.166
 5702SOL    HW218006   2.129   5.965   4.053
 5703SOL     OW18007   0.009   4.331   6.973
 5703SOL    HW118008   7.014   4.338   6.876
 5703SOL    HW218009   6.976   4.261   7.015
 5704SOL     OW18010   5.013   4.070   3.403
 5704SOL    HW118011   5.076   4.044   3.330
 5704SOL    HW218012   4.944   3.998   3.414
 5705SOL     OW18013   4.754   6.058   6.736
 5705SOL    HW118014   4.830   6.040   6.798
 5705SOL    HW218015   4.790   6.088   6.647
 5706SOL     OW18016   5.346   2.910   2.176
 5706SOL    HW118017   5.258   2.948   2.204
 5706SOL    HW218018   5.415   2.931   2.245
 5707SOL     OW18019   6.275   0.034   1.006
 5707SOL    HW118020   6.250   6.963   1.006
 5707SOL    HW218021   6.249   0.075   0.919
 5708SOL     OW18022   4.816   5.704   1.946
 5708SOL    HW118023   4.851   5.748   2.029
 5708SOL    HW218024   4.883   5.637   1.914
 5709SOL     OW18025   0.285   0.976   2.574
 5709SOL    HW118026   0.338   1.017   2.649
 5709SOL    HW218027   0.335   0.899   2.536
 5710SOL     OW18028   3.378   2.002   0.160
 5710SOL    HW118029   3.402   1.971   0.251
 5710SOL    HW218030   3.448   2.065   0.127
 5711SOL     OW18031   5.000   1.073   1.578
 5711SOL    HW118032   5.076   1.009   1.588
 5711SOL    HW218033   4.998   1.108   1.484
 5712SOL     OW18034   6.140   6.370   0.035
 5712SOL    HW118035   6.154   6.275   0.007
 5712SOL    HW218036   6.136   6.375   0.134
 5713SOL     OW18037   2.870   4.020   1.718
 5713SOL    HW118038   2.779   4.043   1.683
 5713SOL    HW218039   2.870   3.925   1.750
 5714SOL     OW18040   6.608   6.067   1.488
 5714SOL    HW118041   6.654   6.025   1.410
 5714SOL    HW218042   6.672   6.125   1.538
 5715SOL     OW18043   6.907   7.021   2.612
 5715SOL    HW118044   6.945   6.997   2.702
 5715SOL    HW218045   6.963   6.980   2.540
 5716SOL     OW18046   1.294   5.784   5.618
 5716SOL    HW118047   1.384   5.818   5.591
 5716SOL    HW218048   1.231   5.792   5.540
 5717SOL     OW18049   1.537   5.064   0.749
 5717SOL    HW118050   1.465   5.028   0.808
 5717SOL    HW218051   1.559   4.997   0.678
 5718SOL     OW18052   1.526   3.779   0.798
 5718SOL    HW118053   1.484   3.820   0.879
 5718SOL    HW218054   1.528   3.845   0.724
 5719SOL     OW18055   2.715   3.438   0.541
 5719SOL    HW118056   2.653   3.502   0.497
 5719SOL    HW218057   2.776   3.487   0.603
 5720SOL     OW18058   1.218   6.902   4.456
 5720SOL    HW118059   1.307   6.946   4.465
 5720SOL    HW218060   1.194   6.858   4.543
 5721SOL     OW18061   6.083   4.493   1.115
 5721SOL    HW118062   6.068   4.505   1.017
 5721SOL    HW218063   6.089   4.395   1.135
 5722SOL     OW18064   6.407   2.251   5.090
 5722SOL    HW118065   6.495   2.238   5.044
 5722SOL    HW218066   6.350   2.170   5.076
 5723SOL     OW18067   4.427   3.936   0.355
 5723SOL    HW118068   4.334   3.970   0.372
 5723SOL    HW218069   4.425   3.837   0.342
 5724SOL     OW18070   5.960   2.737   4.124
 5724SOL    HW118071   5.907   2.657   4.150
 5724SOL    HW218072   6.044   2.741   4.177
 5725SOL     OW18073   6.712   4.813   3.951
 5725SOL    HW118074   6.761   4.729   3.926
 5725SOL    HW218075   6.747   4.847   4.038
 5726SOL     OW18076   6.830   5.663   3.998
 5726SOL    HW118077   6.783   5.596   4.056
 5726SOL    HW218078   6.862   5.618   3.915
 5727SOL     OW18079   6.169   2.534   4.592
 5727SOL    HW118080   6.151   2.628   4.564
 5727SOL    HW218081   6.208   2.533   4.684
 5728SOL     OW18082   5.049   6.421   5.455
 5728SOL    HW118083   4.996   6.505   5.462
 5728SOL    HW218084   5.011   6.364   5.382
 5729SOL     OW18085   1.563   1.507   6.611
 5729SOL    HW118086   1.610   1.479   6.527
 5729SOL    HW218087   1.466   1.521   6.591
 5730SOL     OW18088   5.744   4.759   6.125
 5730SOL    HW118089   5.773   4.793   6.215
 5730SOL    HW218090   5.652   4.792   6.105
 5731SOL     OW18091   6.738   0.393   2.410
 5731SOL    HW118092   6.792   0.473   2.385
 5731SOL    HW218093   6.750   0.373   2.507
 5732SOL     OW18094   0.618   5.928   3.861
 5732SOL    HW118095   0.658   5.952   3.772
 5732SOL    HW218096   0.521   5.905   3.849
 5733SOL     OW18097   3.630   6.416   5.104
 5733SOL    HW118098   3.690   6.338   5.091
 5733SOL    HW218099   3.601   6.452   5.016
 5734SOL     OW18100   1.284   0.646   5.572
 5734SOL    HW118101   1.335   0.622   5.655
 5734SOL    HW218102   1.203   0.700   5.597
 5735SOL     OW18103   3.525   1.647   0.896
 5735SOL    HW118104   3.532   1.742   0.867
 5735SOL    HW218105   3.588   1.631   0.972
 5736SOL     OW18106   6.727   4.298   0.227
 5736SOL    HW118107   6.798   4.325   0.292
 5736SOL    HW218108   6.762   4.223   0.170
 5737SOL     OW18109   5.452   5.886   0.660
 5737SOL    HW118110   5.548   5.861   0.653
 5737SOL    HW218111   5.401   5.812   0.705
 5738SOL     OW18112   1.873   3.180   5.883
 5738SOL    HW118113   1.818   3.103   5.915
 5738SOL    HW218114   1.969   3.151   5.875
 5739SOL     OW18115   1.639   1.417   6.349
 5739SOL    HW118116   1.730   1.392   6.315
 5739SOL    HW218117   1.595   1.479   6.284
 5740SOL     OW18118   4.109   4.881   0.743
 5740SOL    HW118119   4.110   4.801   0.804
 5740SOL    HW218120   4.113   4.850   0.648
 5741SOL     OW18121   0.054   5.510   4.189
 5741SOL    HW118122   0.113   5.508   4.109
 5741SOL    HW218123   0.036   5.416   4.219
 5742SOL     OW18124   5.307   6.574   2.760
 5742SOL    HW118125   5.346   6.575   2.668
 5742SOL    HW218126   5.262   6.486   2.776
 5743SOL     OW18127   2.440   6.391   5.241
 5743SOL    HW118128   2.464   6.484   5.214
 5743SOL    HW218129   2.418   6.389   5.339
 5744SOL     OW18130   4.668   0.251   1.222
 5744SOL    HW118131   4.757   0.248   1.266
 5744SOL    HW218132   4.598   0.273   1.290
 5745SOL     OW18133   3.857   1.656   4.247
 5745SOL    HW118134   3.882   1.701   4.333
 5745SOL    HW218135   3.939   1.641   4.193
 5746SOL     OW18136   4.582   0.868   1.027
 5746SOL    HW118137   4.630   0.949   0.992
 5746SOL    HW218138   4.496   0.857   0.977
 5747SOL     OW18139   0.024   5.232   2.696
 5747SOL    HW118140   6.988   5.155   2.683
 5747SOL    HW218141   7.008   5.315   2.658
 5748SOL     OW18142   1.708   4.654   1.184
 5748SOL    HW118143   1.650   4.617   1.112
 5748SOL    HW218144   1.652   4.705   1.250
 5749SOL     OW18145   2.725   0.780   4.294
 5749SOL    HW118146   2.741   0.836   4.376
 5749SOL    HW218147   2.630   0.751   4.292
 5750SOL     OW18148   5.704   5.105   4.731
 5750SOL    HW118149   5.759   5.144   4.657
 5750SOL    HW218150   5.648   5.177   4.772
 5751SOL     OW18151   2.571   2.492   4.588
 5751SOL    HW118152   2.538   2.457   4.675
 5751SOL    HW218153   2.648   2.436   4.557
 5752SOL     OW18154   6.079   1.332   6.062
 5752SOL    HW118155   6.106   1.238   6.039
 5752SOL    HW218156   5.979   1.338   6.064
 5753SOL     OW18157   3.308   3.725   6.622
 5753SOL    HW118158   3.293   3.774   6.708
 5753SOL    HW218159   3.299   3.788   6.545
 5754SOL     OW18160   5.527   6.023   1.474
 5754SOL    HW118161   5.519   6.114   1.434
 5754SOL    HW218162   5.607   6.021   1.534
 5755SOL     OW18163   3.229   3.591   6.129
 5755SOL    HW118164   3.202   3.515   6.187
 5755SOL    HW218165   3.203   3.571   6.034
 5756SOL     OW18166   7.008   5.529   3.799
 5756SOL    HW118167   6.937   5.495   3.737
 5756SOL    HW218168   0.071   5.520   3.755
 5757SOL     OW18169   6.553   6.582   2.237
 5757SOL    HW118170   6.503   6.628   2.310
 5757SOL    HW218171   6.650   6.606   2.243
 5758SOL     OW18172   2.754   2.063   4.082
 5758SOL    HW118173   2.773   2.035   4.176
 5758SOL    HW218174   2.736   1.983   4.026
 5759SOL     OW18175   4.932   2.111   6.942
 5759SOL    HW118176   4.894   2.036   6.888
 5759SOL    HW218177   4.861   2.149   7.001
 5760SOL     OW18178   1.729   6.638   2.121
 5760SOL    HW118179   1.646   6.585   2.100
 5760SOL    HW218180   1.724   6.727   2.075
 5761SOL     OW18181   6.005   0.445   5.285
 5761SOL    HW118182   5.935   0.475   5.220
 5761SOL    HW218183   6.094   0.447   5.240
 5762SOL     OW18184   5.179   0.134   0.102
 5762SOL    HW118185   5.230   0.124   0.017
 5762SOL    HW218186   5.243   0.129   0.179
 5763SOL     OW18187   1.014   6.949   0.308
 5763SOL    HW118188   0.962   0.001   0.273
 5763SOL    HW218189   1.108   6.953   0.273
 5764SOL     OW18190   5.658   4.950   5.774
 5764SOL    HW118191   5.596   5.025   5.799
 5764SOL    HW218192   5.681   4.897   5.855
 5765SOL     OW18193   6.359   4.755   6.401
 5765SOL    HW118194   6.373   4.673   6.456
 5765SOL    HW218195   6.285   4.739   6.336
 5766SOL     OW18196   2.620   1.231   1.839
 5766SOL    HW118197   2.556   1.191   1.773
 5766SOL    HW218198   2.664   1.158   1.891
 5767SOL     OW18199   2.075   6.729   0.350
 5767SOL    HW118200   2.005   6.700   0.415
 5767SOL    HW218201   2.116   6.648   0.306
 5768SOL     OW18202   6.710   0.231   2.888
 5768SOL    HW118203   6.688   0.136   2.866
 5768SOL    HW218204   6.634   0.272   2.938
 5769SOL     OW18205   2.857   0.248   3.039
 5769SOL    HW118206   2.833   0.204   2.952
 5769SOL    HW218207   2.952   0.227   3.062
 5770SOL     OW18208   0.088   6.988   0.418
 5770SOL    HW118209   0.092   6.902   0.468
 5770SOL    HW218210   0.042   0.032   0.474
 5771SOL     OW18211   1.573   6.661   1.550
 5771SOL    HW118212   1.538   6.755   1.549
 5771SOL    HW218213   1.655   6.657   1.608
 5772SOL     OW18214   5.719   2.628   0.533
 5772SOL    HW118215   5.771   2.546   0.509
 5772SOL    HW218216   5.700   2.681   0.451
 5773SOL     OW18217   5.643   6.885   3.946
 5773SOL    HW118218   5.649   6.880   4.046
 5773SOL    HW218219   5.730   6.918   3.909
 5774SOL     OW18220   2.361   4.447   3.473
 5774SOL    HW118221   2.436   4.423   3.412
 5774SOL    HW218222   2.348   4.546   3.474
 5775SOL     OW18223   1.682   0.640   1.017
 5775SOL    HW118224   1.690   0.699   0.937
 5775SOL    HW218225   1.773   0.615   1.049
 5776SOL     OW18226   6.582   0.838   6.106
 5776SOL    HW118227   6.509   0.875   6.164
 5776SOL    HW218228   6.668   0.839   6.156
 5777SOL     OW18229   6.072   0.768   4.345
 5777SOL    HW118230   6.070   0.790   4.443
 5777SOL    HW218231   6.001   0.700   4.325
 5778SOL     OW18232   2.488   0.534   2.357
 5778SOL    HW118233   2.548   0.455   2.368
 5778SOL    HW218234   2.417   0.514   2.290
 5779SOL     OW18235   3.481   0.677   0.959
 5779SOL    HW118236   3.418   0.696   0.883
 5779SOL    HW218237   3.456   0.734   1.038
 5780SOL     OW18238   6.342   5.291   1.497
 5780SOL    HW118239   6.435   5.328   1.503
 5780SOL    HW218240   6.332   5.216   1.562
 5781SOL     OW18241   2.305   4.209   4.618
 5781SOL    HW118242   2.237   4.220   4.546
 5781SOL    HW218243   2.265   4.156   4.693
 5782SOL     OW18244   1.743   1.271   1.349
 5782SOL    HW118245   1.670   1.336   1.326
 5782SOL    HW218246   1.741   1.251   1.447
 5783SOL     OW18247   1.619   1.547   0.589
 5783SOL    HW118248   1.670   1.625   0.625
 5783SOL    HW218249   1.524   1.552   0.620
 5784SOL     OW18250   0.619   6.208   0.288
 5784SOL    HW118251   0.550   6.135   0.290
 5784SOL    HW218252   0.619   6.256   0.376
 5785SOL     OW18253   1.279   1.253   1.092
 5785SOL    HW118254   1.353   1.190   1.070
 5785SOL    HW218255   1.303   1.307   1.173
 5786SOL     OW18256   1.262   3.123   1.106
 5786SOL    HW118257   1.305   3.041   1.142
 5786SOL    HW218258   1.184   3.148   1.164
 5787SOL     OW18259   5.794   2.184   4.556
 5787SOL    HW118260   5.774   2.114   4.625
 5787SOL    HW218261   5.891   2.208   4.559
 5788SOL     OW18262   2.929   0.299   1.203
 5788SOL    HW118263   2.841   0.256   1.182
 5788SOL    HW218264   3.003   0.234   1.187
 5789SOL     OW18265   3.981   2.871   6.763
 5789SOL    HW118266   4.027   2.790   6.725
 5789SOL    HW218267   3.945   2.926   6.688
 5790SOL     OW18268   6.676   5.643   4.826
 5790SOL    HW118269   6.708   5.727   4.870
 5790SOL    HW218270   6.738   5.619   4.751
 5791SOL     OW18271   3.133   1.372   2.285
 5791SOL    HW118272   3.191   1.292   2.297
 5791SOL    HW218273   3.056   1.368   2.349
 5792SOL     OW18274   5.259   3.285   3.421
 5792SOL    HW118275   5.276   3.312   3.326
 5792SOL    HW218276   5.230   3.189   3.423
 5793SOL     OW18277   5.913   2.494   5.493
 5793SOL    HW118278   5.843   2.565   5.491
 5793SOL    HW218279   5.966   2.502   5.577
 5794SOL     OW18280   3.094   6.737   6.311
 5794SOL    HW118281   3.106   6.761   6.408
 5794SOL    HW218282   3.004   6.765   6.280
 5795SOL     OW18283   1.181   6.067   1.678
 5795SOL    HW118284   1.214   6.061   1.583
 5795SOL    HW218285   1.194   5.979   1.723
 5796SOL     OW18286   4.706   1.522   6.548
 5796SOL    HW118287   4.772   1.596   6.534
 5796SOL    HW218288   4.745   1.452   6.607
 5797SOL     OW18289   5.813   1.714   0.365
 5797SOL    HW118290   5.836   1.654   0.288
 5797SOL    HW218291   5.733   1.678   0.412
 5798SOL     OW18292   0.389   3.628   4.792
 5798SOL    HW118293   0.356   3.708   4.844
 5798SOL    HW218294   0.408   3.553   4.856
 5799SOL     OW18295   0.995   6.667   2.823
 5799SOL    HW118296   1.013   6.570   2.838
 5799SOL    HW218297   1.046   6.698   2.743
 5800SOL     OW18298   0.343   6.816   0.832
 5800SOL    HW118299   0.337   6.719   0.854
 5800SOL    HW218300   0.422   6.856   0.879
 5801SOL     OW18301   2.474   2.546   2.410
 5801SOL    HW118302   2.573   2.547   2.405
 5801SOL    HW218303   2.437   2.493   2.333
 5802SOL     OW18304   6.528   2.247   3.028
 5802SOL    HW118305   6.602   2.213   2.970
 5802SOL    HW218306   6.490   2.331   2.988
 5803SOL     OW18307   1.473   4.645   3.924
 5803SOL    HW118308   1.400   4.712   3.911
 5803SOL    HW218309   1.497   4.640   4.021
 5804SOL     OW18310   6.372   6.382   3.741
 5804SOL    HW118311   6.297   6.436   3.780
 5804SOL    HW218312   6.373   6.392   3.642
 5805SOL     OW18313   1.602   3.686   1.220
 5805SOL    HW118314   1.505   3.683   1.242
 5805SOL    HW218315   1.645   3.599   1.244
 5806SOL     OW18316   0.677   3.438   3.785
 5806SOL    HW118317   0.630   3.374   3.846
 5806SOL    HW218318   0.618   3.457   3.706
 5807SOL     OW18319   1.397   5.995   1.077
 5807SOL    HW118320   1.400   6.042   0.988
 5807SOL    HW218321   1.447   6.049   1.144
 5808SOL     OW18322   6.292   6.900   4.088
 5808SOL    HW118323   6.290   6.992   4.048
 5808SOL    HW218324   6.382   6.883   4.128
 5809SOL     OW18325   0.680   2.256   5.804
 5809SOL    HW118326   0.585   2.264   5.776
 5809SOL    HW218327   0.685   2.220   5.897
 5810SOL     OW18328   4.497   6.612   4.949
 5810SOL    HW118329   4.482   6.648   4.857
 5810SOL    HW218330   4.561   6.535   4.944
 5811SOL     OW18331   2.984   2.792   6.119
 5811SOL    HW118332   2.971   2.891   6.119
 5811SOL    HW218333   2.997   2.760   6.213
 5812SOL     OW18334   5.953   2.922   0.578
 5812SOL    HW118335   5.916   2.866   0.652
 5812SOL    HW218336   5.892   2.919   0.500
 5813SOL     OW18337   3.906   6.264   1.060
 5813SOL    HW118338   3.937   6.238   0.968
 5813SOL    HW218339   3.818   6.220   1.079
 5814SOL     OW18340   6.635   1.930   2.415
 5814SOL    HW118341   6.546   1.884   2.412
 5814SOL    HW218342   6.663   1.954   2.322
 5815SOL     OW18343   6.211   1.435   3.862
 5815SOL    HW118344   6.255   1.351   3.896
 5815SOL    HW218345   6.281   1.495   3.823
 5816SOL     OW18346   0.236   5.185   2.488
 5816SOL    HW118347   0.326   5.195   2.531
 5816SOL    HW218348   0.178   5.131   2.548
 5817SOL     OW18349   5.421   3.941   5.289
 5817SOL    HW118350   5.370   3.855   5.298
 5817SOL    HW218351   5.497   3.928   5.225
 5818SOL     OW18352   0.981   6.557   4.663
 5818SOL    HW118353   0.881   6.559   4.665
 5818SOL    HW218354   1.015   6.498   4.737
 5819SOL     OW18355   3.080   4.966   0.181
 5819SOL    HW118356   3.177   4.945   0.185
 5819SOL    HW218357   3.064   5.041   0.116
 5820SOL     OW18358   5.387   4.995   2.214
 5820SOL    HW118359   5.296   4.965   2.185
 5820SOL    HW218360   5.382   5.090   2.245
 5821SOL     OW18361   6.967   0.740   1.396
 5821SOL    HW118362   0.007   0.727   1.470
 5821SOL    HW218363   6.880   0.698   1.421
 5822SOL     OW18364   1.442   2.137   2.983
 5822SOL    HW118365   1.406   2.103   2.896
 5822SOL    HW218366   1.419   2.073   3.056
 5823SOL     OW18367   2.355   6.553   4.049
 5823SOL    HW118368   2.392   6.599   3.968
 5823SOL    HW218369   2.428   6.499   4.093
 5824SOL     OW18370   0.558   0.089   2.142
 5824SOL    HW118371   0.501   0.015   2.107
 5824SOL    HW218372   0.639   0.100   2.084
 5825SOL     OW18373   6.752   6.806   4.858
 5825SOL    HW118374   6.667   6.767   4.823
 5825SOL    HW218375   6.734   6.894   4.902
 5826SOL     OW18376   0.369   0.596   5.265
 5826SOL    HW118377   0.386   0.518   5.205
 5826SOL    HW218378   0.272   0.620   5.261
 5827SOL     OW18379   1.528   3.502   4.996
 5827SOL    HW118380   1.471   3.584   4.990
 5827SOL    HW218381   1.514   3.459   5.086
 5828SOL     OW18382   5.215   6.555   3.923
 5828SOL    HW118383   5.181   6.641   3.885
 5828SOL    HW218384   5.298   6.528   3.875
 5829SOL     OW18385   1.785   0.847   4.826
 5829SOL    HW118386   1.775   0.848   4.925
 5829SOL    HW218387   1.864   0.903   4.800
 5830SOL     OW18388   3.544   4.982   5.403
 5830SOL    HW118389   3.603   5.062   5.389
 5830SOL    HW218390   3.454   5.013   5.435
 5831SOL     OW18391   1.103   1.547   5.285
 5831SOL    HW118392   1.130   1.606   5.209
 5831SOL    HW218393   1.184   1.516   5.335
 5832SOL     OW18394   3.426   4.665   1.169
 5832SOL    HW118395   3.405   4.758   1.139
 5832SOL    HW218396   3.390   4.600   1.102
 5833SOL     OW18397   4.187   3.978   5.583
 5833SOL    HW118398   4.147   3.925   5.657
 5833SOL    HW218399   4.286   3.960   5.579
 5834SOL     OW18400   6.714   4.409   6.826
 5834SOL    HW118401   6.800   4.387   6.781
 5834SOL    HW218402   6.646   4.435   6.758
 5835SOL     OW18403   5.419   0.757   2.768
 5835SOL    HW118404   5.372   0.736   2.854
 5835SOL    HW218405   5.516   0.771   2.785
 5836SOL     OW18406   4.203   6.347   2.559
 5836SOL    HW118407   4.106   6.363   2.544
 5836SOL    HW218408   4.253   6.360   2.474
 5837SOL     OW18409   3.825   4.306   0.534
 5837SOL    HW118410   3.823   4.259   0.622
 5837SOL    HW218411   3.831   4.239   0.460
 5838SOL     OW18412   3.186   1.821   1.565
 5838SOL    HW118413   3.269   1.875   1.554
 5838SOL    HW218414   3.142   1.845   1.652
 5839SOL     OW18415   0.748   2.487   2.078
 5839SOL    HW118416   0.834   2.436   2.087
 5839SOL    HW218417   0.684   2.458   2.149
 5840SOL     OW18418   0.460   3.787   2.163
 5840SOL    HW118419   0.395   3.750   2.096
 5840SOL    HW218420   0.536   3.830   2.115
 5841SOL     OW18421   4.348   0.653   1.581
 5841SOL    HW118422   4.325   0.747   1.557
 5841SOL    HW218423   4.313   0.591   1.511
 5842SOL     OW18424   3.710   1.974   0.353
 5842SOL    HW118425   3.770   1.993   0.275
 5842SOL    HW218426   3.660   2.057   0.377
 5843SOL     OW18427   1.743   3.879   1.045
 5843SOL    HW118428   1.803   3.929   1.108
 5843SOL    HW218429   1.674   3.830   1.098
 5844SOL     OW18430   0.525   0.029   4.888
 5844SOL    HW118431   0.530   6.956   4.876
 5844SOL    HW218432   0.569   0.074   4.810
 5845SOL     OW18433   0.046   6.710   1.648
 5845SOL    HW118434   7.011   6.695   1.726
 5845SOL    HW218435   0.004   6.775   1.585
 5846SOL     OW18436   6.607   3.873   5.214
 5846SOL    HW118437   6.591   3.920   5.127
 5846SOL    HW218438   6.552   3.790   5.218
 5847SOL     OW18439   2.425   3.091   1.702
 5847SOL    HW118440   2.492   3.163   1.720
 5847SOL    HW218441   2.339   3.113   1.749
 5848SOL     OW18442   2.453   5.980   3.793
 5848SOL    HW118443   2.408   5.935   3.870
 5848SOL    HW218444   2.512   5.914   3.746
 5849SOL     OW18445   2.152   6.229   5.338
 5849SOL    HW118446   2.061   6.221   5.296
 5849SOL    HW218447   2.151   6.304   5.404
 5850SOL     OW18448   1.246   2.669   2.113
 5850SOL    HW118449   1.285   2.580   2.139
 5850SOL    HW218450   1.159   2.655   2.066
 5851SOL     OW18451   5.733   3.205   4.488
 5851SOL    HW118452   5.740   3.253   4.401
 5851SOL    HW218453   5.636   3.190   4.510
 5852SOL     OW18454   4.854   5.752   3.650
 5852SOL    HW118455   4.817   5.752   3.743
 5852SOL    HW218456   4.885   5.660   3.626
 5853SOL     OW18457   3.761   5.297   5.445
 5853SOL    HW118458   3.738   5.241   5.525
 5853SOL    HW218459   3.854   5.332   5.455
 5854SOL     OW18460   3.550   4.648   5.738
 5854SOL    HW118461   3.462   4.684   5.766
 5854SOL    HW218462   3.552   4.637   5.639
 5855SOL     OW18463   1.967   2.482   3.802
 5855SOL    HW118464   1.882   2.432   3.820
 5855SOL    HW218465   2.036   2.418   3.769
 5856SOL     OW18466   1.696   6.703   2.424
 5856SOL    HW118467   1.781   6.710   2.477
 5856SOL    HW218468   1.707   6.634   2.352
 5857SOL     OW18469   0.149   3.375   5.842
 5857SOL    HW118470   0.193   3.429   5.914
 5857SOL    HW218471   0.080   3.430   5.796
 5858SOL     OW18472   2.468   1.203   3.128
 5858SOL    HW118473   2.401   1.243   3.191
 5858SOL    HW218474   2.435   1.212   3.034
 5859SOL     OW18475   5.798   6.815   1.491
 5859SOL    HW118476   5.863   6.858   1.553
 5859SOL    HW218477   5.740   6.885   1.450
 5860SOL     OW18478   0.612   4.332   3.440
 5860SOL    HW118479   0.513   4.340   3.435
 5860SOL    HW218480   0.654   4.411   3.395
 5861SOL     OW18481   5.853   0.461   5.042
 5861SOL    HW118482   5.777   0.396   5.042
 5861SOL    HW218483   5.927   0.426   4.985
 5862SOL     OW18484   6.623   5.823   2.269
 5862SOL    HW118485   6.605   5.913   2.309
 5862SOL    HW218486   6.681   5.834   2.188
 5863SOL     OW18487   2.700   0.868   4.558
 5863SOL    HW118488   2.676   0.945   4.499
 5863SOL    HW218489   2.772   0.897   4.621
 5864SOL     OW18490   3.522   3.721   3.530
 5864SOL    HW118491   3.547   3.816   3.551
 5864SOL    HW218492   3.559   3.660   3.600
 5865SOL     OW18493   5.865   1.305   5.763
 5865SOL    HW118494   5.835   1.322   5.857
 5865SOL    HW218495   5.853   1.388   5.709
 5866SOL     OW18496   3.265   3.519   1.463
 5866SOL    HW118497   3.287   3.444   1.525
 5866SOL    HW218498   3.169   3.544   1.472
 5867SOL     OW18499   2.039   2.112   1.302
 5867SOL    HW118500   2.078   2.120   1.394
 5867SOL    HW218501   2.067   2.190   1.247
 5868SOL     OW18502   0.918   1.684   5.946
 5868SOL    HW118503   0.856   1.761   5.959
 5868SOL    HW218504   0.974   1.699   5.865
 5869SOL     OW18505   0.907   4.733   3.726
 5869SOL    HW118506   0.934   4.641   3.754
 5869SOL    HW218507   0.985   4.780   3.684
 5870SOL     OW18508   4.218   4.761   5.499
 5870SOL    HW118509   4.199   4.751   5.401
 5870SOL    HW218510   4.221   4.671   5.541
 5871SOL     OW18511   3.146   3.355   3.674
 5871SOL    HW118512   3.128   3.371   3.577
 5871SOL    HW218513   3.086   3.413   3.729
 5872SOL     OW18514   3.983   5.939   1.226
 5872SOL    HW118515   3.997   6.012   1.293
 5872SOL    HW218516   3.885   5.916   1.223
 5873SOL     OW18517   2.568   5.178   2.606
 5873SOL    HW118518   2.651   5.144   2.562
 5873SOL    HW218519   2.571   5.278   2.611
 5874SOL     OW18520   2.181   4.284   5.026
 5874SOL    HW118521   2.093   4.269   5.071
 5874SOL    HW218522   2.223   4.195   5.005
 5875SOL     OW18523   3.627   2.164   0.093
 5875SOL    HW118524   3.659   2.235   0.156
 5875SOL    HW218525   3.589   2.207   0.011
 5876SOL     OW18526   4.035   3.668   2.372
 5876SOL    HW118527   4.071   3.682   2.279
 5876SOL    HW218528   4.109   3.639   2.432
 5877SOL     OW18529   5.966   6.523   1.036
 5877SOL    HW118530   6.013   6.604   1.071
 5877SOL    HW218531   5.920   6.477   1.112
 5878SOL     OW18532   1.415   5.752   3.368
 5878SOL    HW118533   1.371   5.663   3.357
 5878SOL    HW218534   1.482   5.748   3.442
 5879SOL     OW18535   6.377   3.237   0.214
 5879SOL    HW118536   6.431   3.321   0.209
 5879SOL    HW218537   6.282   3.258   0.191
 5880SOL     OW18538   2.749   5.602   1.278
 5880SOL    HW118539   2.690   5.625   1.355
 5880SOL    HW218540   2.817   5.675   1.265
 5881SOL     OW18541   0.123   4.554   3.578
 5881SOL    HW118542   0.201   4.495   3.557
 5881SOL    HW218543   0.152   4.649   3.575
 5882SOL     OW18544   5.710   0.342   0.791
 5882SOL    HW118545   5.687   0.360   0.887
 5882SOL    HW218546   5.649   0.393   0.731
 5883SOL     OW18547   0.210   2.321   6.503
 5883SOL    HW118548   0.298   2.342   6.462
 5883SOL    HW218549   0.205   2.224   6.524
 5884SOL     OW18550   2.010   1.108   3.519
 5884SOL    HW118551   2.101   1.068   3.506
 5884SOL    HW218552   1.945   1.064   3.458
 5885SOL     OW18553   6.526   6.921   1.383
 5885SOL    HW118554   6.525   6.997   1.318
 5885SOL    HW218555   6.550   6.956   1.474
 5886SOL     OW18556   0.522   2.344   4.887
 5886SOL    HW118557   0.555   2.314   4.797
 5886SOL    HW218558   0.600   2.363   4.947
 5887SOL     OW18559   4.172   1.367   3.627
 5887SOL    HW118560   4.143   1.460   3.653
 5887SOL    HW218561   4.097   1.320   3.582
 5888SOL     OW18562   2.928   6.488   2.652
 5888SOL    HW118563   3.000   6.530   2.708
 5888SOL    HW218564   2.954   6.394   2.630
 5889SOL     OW18565   1.852   6.944   1.525
 5889SOL    HW118566   1.945   6.978   1.535
 5889SOL    HW218567   1.799   6.965   1.607
 5890SOL     OW18568   1.393   7.018   5.206
 5890SOL    HW118569   1.490   6.997   5.207
 5890SOL    HW218570   1.354   7.003   5.297
 5891SOL     OW18571   4.270   3.367   6.466
 5891SOL    HW118572   4.226   3.283   6.498
 5891SOL    HW218573   4.259   3.375   6.368
 5892SOL     OW18574   1.130   6.265   1.837
 5892SOL    HW118575   1.167   6.355   1.814
 5892SOL    HW218576   1.136   6.206   1.756
 5893SOL     OW18577   1.304   3.587   3.579
 5893SOL    HW118578   1.377   3.546   3.525
 5893SOL    HW218579   1.215   3.552   3.548
 5894SOL     OW18580   1.159   5.029   3.232
 5894SOL    HW118581   1.094   5.074   3.292
 5894SOL    HW218582   1.141   5.056   3.137
 5895SOL     OW18583   5.283   2.473   4.413
 5895SOL    HW118584   5.222   2.428   4.479
 5895SOL    HW218585   5.289   2.571   4.435
 5896SOL     OW18586   4.023   1.862   0.281
 5896SOL    HW118587   4.061   1.806   0.355
 5896SOL    HW218588   3.938   1.905   0.311
 5897SOL     OW18589   3.866   0.011   2.039
 5897SOL    HW118590   3.830   6.954   1.995
 5897SOL    HW218591   3.952   0.036   1.996
 5898SOL     OW18592   1.920   0.300   2.954
 5898SOL    HW118593   1.949   0.394   2.939
 5898SOL    HW218594   2.000   0.239   2.948
 5899SOL     OW18595   5.374   0.141   5.435
 5899SOL    HW118596   5.349   0.214   5.498
 5899SOL    HW218597   5.334   0.159   5.345
 5900SOL     OW18598   4.518   5.414   3.773
 5900SOL    HW118599   4.473   5.408   3.862
 5900SOL    HW218600   4.470   5.356   3.707
 5901SOL     OW18601   2.276   0.448   6.521
 5901SOL    HW118602   2.185   0.486   6.509
 5901SOL    HW218603   2.342   0.500   6.466
 5902SOL     OW18604   0.138   2.104   0.636
 5902SOL    HW118605   0.195   2.115   0.717
 5902SOL    HW218606   0.042   2.102   0.663
 5903SOL     OW18607   5.476   3.917   0.889
 5903SOL    HW118608   5.545   3.987   0.909
 5903SOL    HW218609   5.456   3.866   0.972
 5904SOL     OW18610   0.038   3.655   2.424
 5904SOL    HW118611   0.019   3.619   2.515
 5904SOL    HW218612   0.121   3.612   2.387
 5905SOL     OW18613   5.894   6.290   2.937
 5905SOL    HW118614   5.978   6.308   2.988
 5905SOL    HW218615   5.815   6.317   2.992
 5906SOL     OW18616   5.337   0.874   4.145
 5906SOL    HW118617   5.399   0.919   4.209
 5906SOL    HW218618   5.347   0.775   4.153
 5907SOL     OW18619   1.651   6.195   1.929
 5907SOL    HW118620   1.609   6.120   1.981
 5907SOL    HW218621   1.644   6.280   1.982
 5908SOL     OW18622   0.957   2.352   5.832
 5908SOL    HW118623   0.987   2.272   5.780
 5908SOL    HW218624   0.857   2.350   5.842
 5909SOL     OW18625   0.838   5.192   0.636
 5909SOL    HW118626   0.786   5.109   0.659
 5909SOL    HW218627   0.853   5.195   0.537
 5910SOL     OW18628   0.701   2.967   3.355
 5910SOL    HW118629   0.792   2.931   3.331
 5910SOL    HW218630   0.696   3.064   3.330
 5911SOL     OW18631   6.870   5.514   6.670
 5911SOL    HW118632   6.847   5.542   6.577
 5911SOL    HW218633   6.827   5.425   6.689
 5912SOL     OW18634   6.500   1.393   5.565
 5912SOL    HW118635   6.421   1.412   5.507
 5912SOL    HW218636   6.477   1.408   5.661
 5913SOL     OW18637   5.044   2.782   0.116
 5913SOL    HW118638   5.141   2.758   0.124
 5913SOL    HW218639   5.032   2.842   0.037
 5914SOL     OW18640   1.175   6.734   6.574
 5914SOL    HW118641   1.254   6.789   6.548
 5914SOL    HW218642   1.126   6.706   6.492
 5915SOL     OW18643   3.523   6.280   0.144
 5915SOL    HW118644   3.521   6.212   0.070
 5915SOL    HW218645   3.537   6.371   0.105
 5916SOL     OW18646   0.051   7.001   2.358
 5916SOL    HW118647   0.015   0.061   2.322
 5916SOL    HW218648   0.013   6.924   2.306
 5917SOL     OW18649   3.044   3.971   5.920
 5917SOL    HW118650   3.115   3.921   5.870
 5917SOL    HW218651   3.083   4.055   5.959
 5918SOL     OW18652   1.750   5.717   6.313
 5918SOL    HW118653   1.821   5.693   6.247
 5918SOL    HW218654   1.782   5.792   6.371
 5919SOL     OW18655   2.976   3.823   3.250
 5919SOL    HW118656   3.015   3.752   3.309
 5919SOL    HW218657   2.986   3.912   3.293
 5920SOL     OW18658   5.324   1.365   6.383
 5920SOL    HW118659   5.239   1.394   6.428
 5920SOL    HW218660   5.338   1.421   6.301
 5921SOL     OW18661   3.857   5.170   6.709
 5921SOL    HW118662   3.837   5.151   6.613
 5921SOL    HW218663   3.808   5.105   6.767
 5922SOL     OW18664   6.408   3.615   3.923
 5922SOL    HW118665   6.351   3.587   4.000
 5922SOL    HW218666   6.391   3.556   3.845
 5923SOL     OW18667   0.127   0.654   1.557
 5923SOL    HW118668   0.182   0.645   1.640
 5923SOL    HW218669   0.177   0.615   1.480
 5924SOL     OW18670   5.885   6.763   3.170
 5924SOL    HW118671   5.984   6.766   3.181
 5924SOL    HW218672   5.845   6.851   3.197
 5925SOL     OW18673   4.065   6.034   1.950
 5925SOL    HW118674   4.004   5.986   1.887
 5925SOL    HW218675   4.017   6.115   1.986
 5926SOL     OW18676   4.645   4.371   2.663
 5926SOL    HW118677   4.627   4.274   2.672
 5926SOL    HW218678   4.685   4.390   2.573
 5927SOL     OW18679   1.074   3.569   2.189
 5927SOL    HW118680   1.010   3.538   2.119
 5927SOL    HW218681   1.047   3.532   2.278
 5928SOL     OW18682   3.839   6.908   1.683
 5928SOL    HW118683   3.815   6.875   1.775
 5928SOL    HW218684   3.897   6.841   1.638
 5929SOL     OW18685   6.138   1.291   5.731
 5929SOL    HW118686   6.177   1.380   5.708
 5929SOL    HW218687   6.039   1.301   5.747
 5930SOL     OW18688   0.451   2.745   2.491
 5930SOL    HW118689   0.429   2.692   2.409
 5930SOL    HW218690   0.409   2.702   2.570
 5931SOL     OW18691   6.170   6.068   2.577
 5931SOL    HW118692   6.193   6.112   2.664
 5931SOL    HW218693   6.133   6.136   2.514
 5932SOL     OW18694   3.315   6.996   6.517
 5932SOL    HW118695   3.352   6.903   6.518
 5932SOL    HW218696   3.360   0.024   6.588
 5933SOL     OW18697   6.771   5.257   4.069
 5933SOL    HW118698   6.794   5.172   4.023
 5933SOL    HW218699   6.855   5.302   4.100
 5934SOL     OW18700   3.611   3.246   5.699
 5934SOL    HW118701   3.669   3.318   5.661
 5934SOL    HW218702   3.549   3.286   5.768
 5935SOL     OW18703   0.612   6.498   5.291
 5935SOL    HW118704   0.672   6.421   5.269
 5935SOL    HW218705   0.519   6.464   5.306
 5936SOL     OW18706   3.097   3.587   2.519
 5936SOL    HW118707   3.012   3.562   2.564
 5936SOL    HW218708   3.115   3.524   2.443
 5937SOL     OW18709   6.224   3.002   2.163
 5937SOL    HW118710   6.176   3.065   2.102
 5937SOL    HW218711   6.316   3.038   2.182
 5938SOL     OW18712   5.880   5.830   4.863
 5938SOL    HW118713   5.953   5.847   4.796
 5938SOL    HW218714   5.805   5.780   4.819
 5939SOL     OW18715   3.070   6.047   4.289
 5939SOL    HW118716   3.146   5.983   4.279
 5939SOL    HW218717   3.028   6.035   4.379
 5940SOL     OW18718   4.260   5.009   3.678
 5940SOL    HW118719   4.212   4.940   3.624
 5940SOL    HW218720   4.207   5.030   3.760
 5941SOL     OW18721   5.877   2.721   3.363
 5941SOL    HW118722   5.874   2.821   3.361
 5941SOL    HW218723   5.812   2.687   3.432
 5942SOL     OW18724   5.686   3.342   6.555
 5942SOL    HW118725   5.692   3.321   6.653
 5942SOL    HW218726   5.761   3.297   6.507
 5943SOL     OW18727   3.926   3.657   6.659
 5943SOL    HW118728   3.909   3.745   6.614
 5943SOL    HW218729   3.844   3.630   6.710
 5944SOL     OW18730   0.912   2.824   0.201
 5944SOL    HW118731   0.844   2.853   0.268
 5944SOL    HW218732   1.003   2.830   0.241
 5945SOL     OW18733   0.148   6.178   5.525
 5945SOL    HW118734   0.235   6.209   5.563
 5945SOL    HW218735   0.077   6.245   5.546
 5946SOL     OW18736   3.033   4.501   0.153
 5946SOL    HW118737   3.000   4.407   0.158
 5946SOL    HW218738   3.132   4.500   0.142
 5947SOL     OW18739   2.974   3.576   4.058
 5947SOL    HW118740   3.070   3.564   4.083
 5947SOL    HW218741   2.943   3.667   4.086
 5948SOL     OW18742   4.522   4.746   2.331
 5948SOL    HW118743   4.522   4.838   2.291
 5948SOL    HW218744   4.555   4.680   2.263
 5949SOL     OW18745   4.548   5.676   0.915
 5949SOL    HW118746   4.593   5.590   0.889
 5949SOL    HW218747   4.602   5.753   0.882
 5950SOL     OW18748   4.850   2.543   5.264
 5950SOL    HW118749   4.865   2.628   5.213
 5950SOL    HW218750   4.777   2.491   5.220
 5951SOL     OW18751   0.824   5.663   4.550
 5951SOL    HW118752   0.893   5.591   4.550
 5951SOL    HW218753   0.766   5.653   4.631
 5952SOL     OW18754   4.149   5.418   3.088
 5952SOL    HW118755   4.183   5.356   3.158
 5952SOL    HW218756   4.154   5.512   3.121
 5953SOL     OW18757   6.836   4.472   5.067
 5953SOL    HW118758   6.847   4.472   4.967
 5953SOL    HW218759   6.926   4.461   5.110
 5954SOL     OW18760   0.328   5.513   5.610
 5954SOL    HW118761   0.316   5.610   5.592
 5954SOL    HW218762   0.284   5.459   5.539
 5955SOL     OW18763   4.553   5.503   1.454
 5955SOL    HW118764   4.520   5.470   1.365
 5955SOL    HW218765   4.647   5.472   1.468
 5956SOL     OW18766   5.563   1.490   3.919
 5956SOL    HW118767   5.507   1.524   3.844
 5956SOL    HW218768   5.633   1.558   3.942
 5957SOL     OW18769   2.713   1.808   3.971
 5957SOL    HW118770   2.737   1.746   3.897
 5957SOL    HW218771   2.626   1.781   4.011
 5958SOL     OW18772   4.515   0.691   2.945
 5958SOL    HW118773   4.501   0.632   2.866
 5958SOL    HW218774   4.467   0.778   2.932
 5959SOL     OW18775   4.275   2.451   5.655
 5959SOL    HW118776   4.182   2.465   5.688
 5959SOL    HW218777   4.284   2.489   5.563
 5960SOL     OW18778   2.870   6.546   3.913
 5960SOL    HW118779   2.884   6.581   3.821
 5960SOL    HW218780   2.925   6.463   3.926
 5961SOL     OW18781   4.468   1.250   1.956
 5961SOL    HW118782   4.556   1.203   1.967
 5961SOL    HW218783   4.480   1.347   1.975
 5962SOL     OW18784   5.312   5.933   6.110
 5962SOL    HW118785   5.392   5.902   6.161
 5962SOL    HW218786   5.230   5.922   6.166
 5963SOL     OW18787   3.243   3.592   6.984
 5963SOL    HW118788   3.295   3.538   6.918
 5963SOL    HW218789   3.304   3.655   0.006
 5964SOL     OW18790   2.744   0.156   4.135
 5964SOL    HW118791   2.750   0.149   4.035
 5964SOL    HW218792   2.784   0.243   4.165
 5965SOL     OW18793   1.676   0.599   7.000
 5965SOL    HW118794   1.662   0.524   0.039
 5965SOL    HW218795   1.713   0.563   6.915
 5966SOL     OW18796   1.206   0.071   6.148
 5966SOL    HW118797   1.120   0.098   6.105
 5966SOL    HW218798   1.269   0.150   6.148
 5967SOL     OW18799   1.875   0.774   5.682
 5967SOL    HW118800   1.841   0.680   5.683
 5967SOL    HW218801   1.891   0.802   5.588
 5968SOL     OW18802   5.803   2.896   0.356
 5968SOL    HW118803   5.719   2.939   0.321
 5968SOL    HW218804   5.832   2.824   0.292
 5969SOL     OW18805   5.041   1.422   6.467
 5969SOL    HW118806   5.011   1.407   6.561
 5969SOL    HW218807   4.966   1.402   6.404
 5970SOL     OW18808   0.282   4.395   0.632
 5970SOL    HW118809   0.308   4.371   0.725
 5970SOL    HW218810   0.325   4.482   0.607
 5971SOL     OW18811   6.338   0.119   1.540
 5971SOL    HW118812   6.311   0.031   1.501
 5971SOL    HW218813   6.421   0.108   1.593
 5972SOL     OW18814   5.112   5.802   6.329
 5972SOL    HW118815   5.204   5.765   6.322
 5972SOL    HW218816   5.108   5.869   6.403
 5973SOL     OW18817   1.270   3.145   2.995
 5973SOL    HW118818   1.233   3.204   3.067
 5973SOL    HW218819   1.359   3.111   3.022
 5974SOL     OW18820   4.974   0.445   0.367
 5974SOL    HW118821   4.962   0.450   0.466
 5974SOL    HW218822   5.024   0.526   0.336
 5975SOL     OW18823   3.981   6.106   0.821
 5975SOL    HW118824   3.895   6.090   0.773
 5975SOL    HW218825   4.033   6.177   0.774
 5976SOL     OW18826   3.463   3.097   5.480
 5976SOL    HW118827   3.519   3.143   5.549
 5976SOL    HW218828   3.453   3.000   5.504
 5977SOL     OW18829   0.521   5.672   0.405
 5977SOL    HW118830   0.481   5.661   0.496
 5977SOL    HW218831   0.591   5.744   0.407
 5978SOL     OW18832   3.634   5.558   1.098
 5978SOL    HW118833   3.631   5.462   1.068
 5978SOL    HW218834   3.728   5.592   1.090
 5979SOL     OW18835   6.704   0.861   2.103
 5979SOL    HW118836   6.753   0.945   2.128
 5979SOL    HW218837   6.619   0.855   2.155
 5980SOL     OW18838   3.277   2.818   2.113
 5980SOL    HW118839   3.372   2.836   2.139
 5980SOL    HW218840   3.217   2.844   2.189
 5981SOL     OW18841   4.825   1.624   0.510
 5981SOL    HW118842   4.909   1.658   0.552
 5981SOL    HW218843   4.771   1.701   0.476
 5982SOL     OW18844   6.017   2.530   2.631
 5982SOL    HW118845   6.044   2.434   2.617
 5982SOL    HW218846   5.959   2.559   2.555
 5983SOL     OW18847   1.379   0.760   4.233
 5983SOL    HW118848   1.377   0.837   4.297
 5983SOL    HW218849   1.411   0.792   4.144
 5984SOL     OW18850   5.646   6.689   3.757
 5984SOL    HW118851   5.626   6.758   3.826
 5984SOL    HW218852   5.719   6.722   3.697
 5985SOL     OW18853   6.504   2.522   3.634
 5985SOL    HW118854   6.446   2.573   3.697
 5985SOL    HW218855   6.596   2.559   3.636
 5986SOL     OW18856   3.900   4.288   5.948
 5986SOL    HW118857   3.825   4.259   5.889
 5986SOL    HW218858   3.905   4.388   5.950
 5987SOL     OW18859   5.361   0.678   4.832
 5987SOL    HW118860   5.409   0.602   4.877
 5987SOL    HW218861   5.308   0.643   4.755
 5988SOL     OW18862   3.695   0.933   6.714
 5988SOL    HW118863   3.735   1.024   6.727
 5988SOL    HW218864   3.615   0.939   6.655
 5989SOL     OW18865   1.725   5.457   5.563
 5989SOL    HW118866   1.719   5.452   5.463
 5989SOL    HW218867   1.635   5.477   5.601
 5990SOL     OW18868   4.043   3.972   0.775
 5990SOL    HW118869   3.991   4.011   0.851
 5990SOL    HW218870   3.983   3.960   0.696
 5991SOL     OW18871   4.185   6.078   6.854
 5991SOL    HW118872   4.130   6.138   6.797
 5991SOL    HW218873   4.266   6.048   6.804
 5992SOL     OW18874   3.466   6.771   1.917
 5992SOL    HW118875   3.473   6.676   1.947
 5992SOL    HW218876   3.423   6.825   1.990
 5993SOL     OW18877   5.397   4.229   6.201
 5993SOL    HW118878   5.362   4.231   6.108
 5993SOL    HW218879   5.424   4.321   6.229
 5994SOL     OW18880   6.875   2.632   1.249
 5994SOL    HW118881   6.910   2.562   1.186
 5994SOL    HW218882   6.780   2.654   1.226
 5995SOL     OW18883   4.808   2.774   2.023
 5995SOL    HW118884   4.726   2.723   2.049
 5995SOL    HW218885   4.783   2.869   2.002
 5996SOL     OW18886   1.599   5.722   1.722
 5996SOL    HW118887   1.501   5.732   1.706
 5996SOL    HW218888   1.632   5.640   1.676
 5997SOL     OW18889   0.866   6.635   3.255
 5997SOL    HW118890   0.934   6.705   3.274
 5997SOL    HW218891   0.838   6.591   3.341
 5998SOL     OW18892   5.885   0.661   1.648
 5998SOL    HW118893   5.861   0.728   1.718
 5998SOL    HW218894   5.810   0.598   1.635
 5999SOL     OW18895   2.728   3.347   0.973
 5999SOL    HW118896   2.707   3.440   1.003
 5999SOL    HW218897   2.652   3.311   0.918
 6000SOL     OW18898   0.704   5.890   0.453
 6000SOL    HW118899   0.732   5.954   0.382
 6000SOL    HW218900   0.779   5.828   0.474
 6001SOL     OW18901   5.591   5.026   6.831
 6001SOL    HW118902   5.589   5.109   6.776
 6001SOL    HW218903   5.498   5.002   6.859
 6002SOL     OW18904   6.766   6.909   5.784
 6002SOL    HW118905   6.735   7.004   5.785
 6002SOL    HW218906   6.788   6.880   5.877
 6003SOL     OW18907   5.917   2.475   4.450
 6003SOL    HW118908   5.992   2.440   4.505
 6003SOL    HW218909   5.833   2.479   4.505
 6004SOL     OW18910   6.561   2.294   3.797
 6004SOL    HW118911   6.546   2.381   3.751
 6004SOL    HW218912   6.491   2.229   3.769
 6005SOL     OW18913   5.620   4.662   4.960
 6005SOL    HW118914   5.658   4.717   4.885
 6005SOL    HW218915   5.557   4.718   5.013
 6006SOL     OW18916   3.042   0.178   5.294
 6006SOL    HW118917   3.019   0.108   5.227
 6006SOL    HW218918   3.137   0.165   5.324
 6007SOL     OW18919   0.093   3.212   6.389
 6007SOL    HW118920   0.024   3.146   6.358
 6007SOL    HW218921   0.105   3.283   6.320
 6008SOL     OW18922   2.078   4.758   4.995
 6008SOL    HW118923   2.093   4.689   5.066
 6008SOL    HW218924   2.106   4.847   5.030
 6009SOL     OW18925   4.402   5.749   3.425
 6009SOL    HW118926   4.448   5.797   3.499
 6009SOL    HW218927   4.400   5.806   3.343
 6010SOL     OW18928   0.693   4.478   3.698
 6010SOL    HW118929   0.684   4.379   3.705
 6010SOL    HW218930   0.749   4.501   3.618
 6011SOL     OW18931   4.845   3.099   2.700
 6011SOL    HW118932   4.830   3.120   2.796
 6011SOL    HW218933   4.889   3.178   2.655
 6012SOL     OW18934   6.438   0.477   0.061
 6012SOL    HW118935   6.527   0.462   0.103
 6012SOL    HW218936   6.387   0.391   0.059
 6013SOL     OW18937   4.451   1.386   2.565
 6013SOL    HW118938   4.448   1.402   2.664
 6013SOL    HW218939   4.390   1.449   2.519
 6014SOL     OW18940   3.702   3.937   4.352
 6014SOL    HW118941   3.643   3.902   4.425
 6014SOL    HW218942   3.649   3.998   4.293
 6015SOL     OW18943   6.250   3.475   4.379
 6015SOL    HW118944   6.174   3.477   4.444
 6015SOL    HW218945   6.335   3.500   4.425
 6016SOL     OW18946   5.468   2.013   5.632
 6016SOL    HW118947   5.417   1.931   5.607
 6016SOL    HW218948   5.537   1.989   5.701
 6017SOL     OW18949   6.845   4.856   5.127
 6017SOL    HW118950   6.766   4.892   5.077
 6017SOL    HW218951   6.813   4.800   5.204
 6018SOL     OW18952   3.013   1.375   5.028
 6018SOL    HW118953   3.074   1.454   5.024
 6018SOL    HW218954   3.067   1.291   5.019
 6019SOL     OW18955   0.546   3.371   5.385
 6019SOL    HW118956   0.474   3.388   5.453
 6019SOL    HW218957   0.576   3.276   5.392
 6020SOL     OW18958   0.942   5.427   0.774
 6020SOL    HW118959   1.021   5.474   0.735
 6020SOL    HW218960   0.909   5.359   0.709
 6021SOL     OW18961   4.829   0.349   2.892
 6021SOL    HW118962   4.738   0.347   2.935
 6021SOL    HW218963   4.837   0.431   2.836
 6022SOL     OW18964   6.866   1.686   3.301
 6022SOL    HW118965   6.789   1.708   3.242
 6022SOL    HW218966   6.870   1.587   3.315
 6023SOL     OW18967   5.468   0.105   1.766
 6023SOL    HW118968   5.550   0.073   1.718
 6023SOL    HW218969   5.439   0.037   1.833
 6024SOL     OW18970   0.537   4.483   0.840
 6024SOL    HW118971   0.585   4.553   0.789
 6024SOL    HW218972   0.546   4.395   0.793
 6025SOL     OW18973   3.726   1.401   3.699
 6025SOL    HW118974   3.772   1.445   3.776
 6025SOL    HW218975   3.700   1.470   3.632
 6026SOL     OW18976   6.979   5.545   5.096
 6026SOL    HW118977   6.899   5.605   5.093
 6026SOL    HW218978   0.011   5.570   5.173
 6027SOL     OW18979   0.101   3.411   6.165
 6027SOL    HW118980   0.197   3.392   6.181
 6027SOL    HW218981   0.092   3.495   6.111
 6028SOL     OW18982   5.196   4.560   0.934
 6028SOL    HW118983   5.263   4.567   1.008
 6028SOL    HW218984   5.144   4.645   0.929
 6029SOL     OW18985   2.712   0.143   3.847
 6029SOL    HW118986   2.634   0.086   3.822
 6029SOL    HW218987   2.742   0.195   3.767
 6030SOL     OW18988   5.171   3.666   4.631
 6030SOL    HW118989   5.266   3.692   4.617
 6030SOL    HW218990   5.144   3.599   4.562
 6031SOL     OW18991   1.739   5.914   4.140
 6031SOL    HW118992   1.776   5.977   4.209
 6031SOL    HW218993   1.647   5.886   4.166
 6032SOL     OW18994   2.719   5.055   2.943
 6032SOL    HW118995   2.692   4.977   2.887
 6032SOL    HW218996   2.718   5.138   2.887
 6033SOL     OW18997   2.194   2.906   2.584
 6033SOL    HW118998   2.198   2.980   2.516
 6033SOL    HW218999   2.135   2.934   2.660
 6034SOL     OW19000   0.768   0.282   6.228
 6034SOL    HW119001   0.717   0.367   6.211
 6034SOL    HW219002   0.834   0.298   6.301
 6035SOL     OW19003   1.180   0.414   2.769
 6035SOL    HW119004   1.195   0.316   2.754
 6035SOL    HW219005   1.083   0.435   2.758
 6036SOL     OW19006   6.049   5.051   1.413
 6036SOL    HW119007   6.005   5.134   1.448
 6036SOL    HW219008   6.013   5.029   1.323
 6037SOL     OW19009   3.555   0.352   0.559
 6037SOL    HW119010   3.477   0.393   0.607
 6037SOL    HW219011   3.627   0.330   0.625
 6038SOL     OW19012   1.168   2.646   6.607
 6038SOL    HW119013   1.234   2.628   6.534
 6038SOL    HW219014   1.124   2.734   6.591
 6039SOL     OW19015   4.039   3.881   3.473
 6039SOL    HW119016   3.991   3.937   3.540
 6039SOL    HW219017   4.053   3.789   3.511
 6040SOL     OW19018   2.041   1.363   0.217
 6040SOL    HW119019   2.089   1.369   0.305
 6040SOL    HW219020   1.968   1.295   0.224
 6041SOL     OW19021   3.433   2.243   5.221
 6041SOL    HW119022   3.435   2.151   5.261
 6041SOL    HW219023   3.338   2.272   5.209
 6042SOL     OW19024   3.991   6.829   3.072
 6042SOL    HW119025   4.020   6.889   3.147
 6042SOL    HW219026   4.015   6.870   2.985
 6043SOL     OW19027   1.354   0.555   4.463
 6043SOL    HW119028   1.447   0.570   4.429
 6043SOL    HW219029   1.298   0.514   4.391
 6044SOL     OW19030   2.561   2.087   2.041
 6044SOL    HW119031   2.609   2.119   2.123
 6044SOL    HW219032   2.618   2.103   1.960
 6045SOL     OW19033   5.279   3.335   3.950
 6045SOL    HW119034   5.244   3.252   3.906
 6045SOL    HW219035   5.379   3.334   3.950
 6046SOL     OW19036   3.332   3.060   0.683
 6046SOL    HW119037   3.428   3.033   0.674
 6046SOL    HW219038   3.315   3.089   0.777
 6047SOL     OW19039   5.593   2.395   1.311
 6047SOL    HW119040   5.540   2.369   1.230
 6047SOL    HW219041   5.623   2.312   1.359
 6048SOL     OW19042   5.103   5.629   5.283
 6048SOL    HW119043   5.078   5.709   5.230
 6048SOL    HW219044   5.140   5.658   5.372
 6049SOL     OW19045   5.252   4.927   6.051
 6049SOL    HW119046   5.223   4.922   6.146
 6049SOL    HW219047   5.193   4.991   6.001
 6050SOL     OW19048   2.338   5.377   1.072
 6050SOL    HW119049   2.268   5.380   1.000
 6050SOL    HW219050   2.391   5.293   1.063
 6051SOL     OW19051   2.210   6.478   2.724
 6051SOL    HW119052   2.177   6.419   2.651
 6051SOL    HW219053   2.310   6.470   2.730
 6052SOL     OW19054   5.531   1.376   1.742
 6052SOL    HW119055   5.564   1.471   1.741
 6052SOL    HW219056   5.436   1.375   1.771
 6053SOL     OW19057   3.989   0.792   6.095
 6053SOL    HW119058   3.923   0.865   6.075
 6053SOL    HW219059   3.967   0.711   6.042
 6054SOL     OW19060   3.353   4.460   0.606
 6054SOL    HW119061   3.334   4.523   0.531
 6054SOL    HW219062   3.269   4.447   0.660
 6055SOL     OW19063   3.660   5.888   5.913
 6055SOL    HW119064   3.659   5.965   5.977
 6055SOL    HW219065   3.674   5.803   5.964
 6056SOL     OW19066   5.055   3.296   5.244
 6056SOL    HW119067   4.982   3.305   5.176
 6056SOL    HW219068   5.107   3.382   5.248
 6057SOL     OW19069   5.945   0.365   2.033
 6057SOL    HW119070   5.956   0.440   2.099
 6057SOL    HW219071   6.024   0.304   2.039
 6058SOL     OW19072   5.494   4.007   0.516
 6058SOL    HW119073   5.417   3.997   0.454
 6058SOL    HW219074   5.556   3.929   0.504
 6059SOL     OW19075   5.359   4.700   5.380
 6059SOL    HW119076   5.348   4.603   5.355
 6059SOL    HW219077   5.411   4.707   5.465
 6060SOL     OW19078   2.489   3.183   6.843
 6060SOL    HW119079   2.570   3.125   6.841
 6060SOL    HW219080   2.485   3.230   6.931
 6061SOL     OW19081   4.735   4.492   0.835
 6061SOL    HW119082   4.827   4.485   0.795
 6061SOL    HW219083   4.692   4.402   0.836
 6062SOL     OW19084   2.488   1.560   6.903
 6062SOL    HW119085   2.559   1.492   6.919
 6062SOL    HW219086   2.425   1.562   6.981
 6063SOL     OW19087   3.550   3.955   5.926
 6063SOL    HW119088   3.478   4.013   5.964
 6063SOL    HW219089   3.579   3.991   5.837
 6064SOL     OW19090   0.905   0.774   1.254
 6064SOL    HW119091   0.975   0.708   1.225
 6064SOL    HW219092   0.948   0.862   1.272
 6065SOL     OW19093   0.155   5.758   1.685
 6065SOL    HW119094   0.249   5.783   1.660
 6065SOL    HW219095   0.118   5.826   1.747
 6066SOL     OW19096   5.797   0.724   4.922
 6066SOL    HW119097   5.745   0.777   4.989
 6066SOL    HW219098   5.843   0.647   4.967
 6067SOL     OW19099   4.877   1.327   5.410
 6067SOL    HW119100   4.923   1.277   5.483
 6067SOL    HW219101   4.825   1.264   5.353
 6068SOL     OW19102   4.882   2.123   4.171
 6068SOL    HW119103   4.913   2.207   4.127
 6068SOL    HW219104   4.961   2.068   4.198
 6069SOL     OW19105   6.599   4.100   5.356
 6069SOL    HW119106   6.661   4.144   5.292
 6069SOL    HW219107   6.602   4.001   5.343
 6070SOL     OW19108   3.429   2.817   1.359
 6070SOL    HW119109   3.463   2.773   1.442
 6070SOL    HW219110   3.366   2.891   1.384
 6071SOL     OW19111   0.960   5.992   4.170
 6071SOL    HW119112   0.948   5.979   4.268
 6071SOL    HW219113   0.903   6.069   4.139
 6072SOL     OW19114   0.455   0.789   1.865
 6072SOL    HW119115   0.522   0.768   1.794
 6072SOL    HW219116   0.503   0.812   1.950
 6073SOL     OW19117   5.261   2.789   0.857
 6073SOL    HW119118   5.235   2.778   0.761
 6073SOL    HW219119   5.185   2.829   0.908
 6074SOL     OW19120   2.211   6.689   1.997
 6074SOL    HW119121   2.215   6.730   2.088
 6074SOL    HW219122   2.117   6.688   1.965
 6075SOL     OW19123   4.430   0.012   5.027
 6075SOL    HW119124   4.447   0.033   5.124
 6075SOL    HW219125   4.338   6.999   5.017
 6076SOL     OW19126   2.379   5.388   3.549
 6076SOL    HW119127   2.353   5.467   3.492
 6076SOL    HW219128   2.390   5.307   3.490
 6077SOL     OW19129   6.237   6.408   1.038
 6077SOL    HW119130   6.142   6.439   1.048
 6077SOL    HW219131   6.291   6.481   0.996
 6078SOL     OW19132   4.372   4.675   0.581
 6078SOL    HW119133   4.341   4.662   0.675
 6078SOL    HW219134   4.298   4.718   0.528
 6079SOL     OW19135   5.216   4.740   6.365
 6079SOL    HW119136   5.183   4.662   6.418
 6079SOL    HW219137   5.143   4.771   6.303
 6080SOL     OW19138   0.381   5.201   1.268
 6080SOL    HW119139   0.408   5.134   1.337
 6080SOL    HW219140   0.295   5.173   1.226
 6081SOL     OW19141   6.912   2.878   5.080
 6081SOL    HW119142   6.900   2.856   4.983
 6081SOL    HW219143   6.855   2.818   5.135
 6082SOL     OW19144   3.522   6.880   2.425
 6082SOL    HW119145   3.515   6.867   2.326
 6082SOL    HW219146   3.554   6.973   2.445
 6083SOL     OW19147   5.591   5.200   0.697
 6083SOL    HW119148   5.632   5.184   0.608
 6083SOL    HW219149   5.640   5.146   0.766
 6084SOL     OW19150   0.809   6.531   2.163
 6084SOL    HW119151   0.776   6.502   2.253
 6084SOL    HW219152   0.866   6.459   2.123
 6085SOL     OW19153   6.656   5.907   6.702
 6085SOL    HW119154   6.675   5.816   6.739
 6085SOL    HW219155   6.580   5.901   6.638
 6086SOL     OW19156   2.701   2.264   5.778
 6086SOL    HW119157   2.630   2.194   5.788
 6086SOL    HW219158   2.661   2.353   5.800
 6087SOL     OW19159   3.752   5.901   0.951
 6087SOL    HW119160   3.765   5.941   0.860
 6087SOL    HW219161   3.738   5.974   1.018
 6088SOL     OW19162   5.135   6.700   4.824
 6088SOL    HW119163   5.117   6.780   4.882
 6088SOL    HW219164   5.063   6.693   4.755
 6089SOL     OW19165   6.442   2.420   3.375
 6089SOL    HW119166   6.481   2.475   3.450
 6089SOL    HW219167   6.421   2.480   3.298
 6090SOL     OW19168   2.393   4.813   4.637
 6090SOL    HW119169   2.360   4.782   4.727
 6090SOL    HW219170   2.485   4.777   4.621
 6091SOL     OW19171   2.668   1.601   0.440
 6091SOL    HW119172   2.644   1.652   0.357
 6091SOL    HW219173   2.726   1.523   0.416
 6092SOL     OW19174   4.427   0.975   1.958
 6092SOL    HW119175   4.422   1.075   1.960
 6092SOL    HW219176   4.518   0.946   1.986
 6093SOL     OW19177   2.449   2.271   1.857
 6093SOL    HW119178   2.465   2.217   1.940
 6093SOL    HW219179   2.518   2.343   1.851
 6094SOL     OW19180   1.585   6.286   3.097
 6094SOL    HW119181   1.564   6.368   3.151
 6094SOL    HW219182   1.614   6.314   3.005
 6095SOL     OW19183   4.827   4.767   6.444
 6095SOL    HW119184   4.826   4.704   6.521
 6095SOL    HW219185   4.763   4.842   6.461
 6096SOL     OW19186   5.964   0.064   2.178
 6096SOL    HW119187   6.044   0.112   2.141
 6096SOL    HW219188   5.968   6.993   2.151
 6097SOL     OW19189   1.700   5.077   2.089
 6097SOL    HW119190   1.779   5.137   2.080
 6097SOL    HW219191   1.731   4.981   2.088
 6098SOL     OW19192   6.382   1.573   6.201
 6098SOL    HW119193   6.440   1.563   6.282
 6098SOL    HW219194   6.433   1.623   6.131
 6099SOL     OW19195   5.204   5.737   5.511
 6099SOL    HW119196   5.160   5.776   5.591
 6099SOL    HW219197   5.239   5.811   5.453
 6100SOL     OW19198   0.534   6.394   2.220
 6100SOL    HW119199   0.434   6.398   2.216
 6100SOL    HW219200   0.568   6.468   2.278
 6101SOL     OW19201   6.737   3.045   2.947
 6101SOL    HW119202   6.644   3.022   2.920
 6101SOL    HW219203   6.802   3.011   2.879
 6102SOL     OW19204   4.333   5.749   2.508
 6102SOL    HW119205   4.408   5.762   2.572
 6102SOL    HW219206   4.250   5.792   2.543
 6103SOL     OW19207   0.014   0.498   1.287
 6103SOL    HW119208   7.016   0.590   1.317
 6103SOL    HW219209   0.110   0.479   1.306
 6104SOL     OW19210   6.403   6.947   4.987
 6104SOL    HW119211   6.401   6.860   5.037
 6104SOL    HW219212   6.405   6.930   4.889
 6105SOL     OW19213   1.582   5.227   5.765
 6105SOL    HW119214   1.534   5.171   5.833
 6105SOL    HW219215   1.586   5.178   5.678
 6106SOL     OW19216   1.370   4.937   0.200
 6106SOL    HW119217   1.448   4.925   0.138
 6106SOL    HW219218   1.286   4.914   0.152
 6107SOL     OW19219   4.711   5.717   5.059
 6107SOL    HW119220   4.707   5.743   4.963
 6107SOL    HW219221   4.648   5.773   5.112
 6108SOL     OW19222   2.060   2.432   3.220
 6108SOL    HW119223   2.105   2.343   3.208
 6108SOL    HW219224   2.048   2.451   3.317
 6109SOL     OW19225   5.611   0.808   5.164
 6109SOL    HW119226   5.649   0.783   5.253
 6109SOL    HW219227   5.553   0.889   5.173
 6110SOL     OW19228   2.654   2.930   0.891
 6110SOL    HW119229   2.591   2.853   0.900
 6110SOL    HW219230   2.605   3.015   0.909
 6111SOL     OW19231   1.185   3.265   2.401
 6111SOL    HW119232   1.225   3.290   2.489
 6111SOL    HW219233   1.138   3.177   2.410
 6112SOL     OW19234   4.739   0.541   2.409
 6112SOL    HW119235   4.661   0.511   2.355
 6112SOL    HW219236   4.773   0.628   2.373
 6113SOL     OW19237   2.609   2.714   6.837
 6113SOL    HW119238   2.628   2.683   6.930
 6113SOL    HW219239   2.614   2.636   6.775
 6114SOL     OW19240   4.921   3.627   2.677
 6114SOL    HW119241   4.908   3.646   2.580
 6114SOL    HW219242   4.894   3.706   2.732
 6115SOL     OW19243   6.501   0.938   4.978
 6115SOL    HW119244   6.474   1.024   4.935
 6115SOL    HW219245   6.556   0.884   4.914
 6116SOL     OW19246   3.876   1.610   6.033
 6116SOL    HW119247   3.837   1.656   6.114
 6116SOL    HW219248   3.908   1.679   5.968
 6117SOL     OW19249   1.733   2.090   3.118
 6117SOL    HW119250   1.672   2.118   3.044
 6117SOL    HW219251   1.800   2.025   3.082
 6118SOL     OW19252   6.214   1.159   1.516
 6118SOL    HW119253   6.252   1.170   1.424
 6118SOL    HW219254   6.241   1.071   1.553
 6119SOL     OW19255   1.397   3.547   0.453
 6119SOL    HW119256   1.487   3.587   0.434
 6119SOL    HW219257   1.381   3.547   0.552
 6120SOL     OW19258   1.951   6.024   5.548
 6120SOL    HW119259   1.880   6.062   5.608
 6120SOL    HW219260   2.022   5.982   5.604
 6121SOL     OW19261   1.066   3.877   5.716
 6121SOL    HW119262   1.032   3.847   5.626
 6121SOL    HW219263   0.998   3.854   5.786
 6122SOL     OW19264   4.758   5.477   6.634
 6122SOL    HW119265   4.807   5.506   6.716
 6122SOL    HW219266   4.717   5.557   6.590
 6123SOL     OW19267   4.760   6.844   5.599
 6123SOL    HW119268   4.758   6.807   5.692
 6123SOL    HW219269   4.667   6.862   5.568
 6124SOL     OW19270   0.547   6.507   5.948
 6124SOL    HW119271   0.625   6.457   5.984
 6124SOL    HW219272   0.551   6.508   5.848
 6125SOL     OW19273   2.438   4.151   6.516
 6125SOL    HW119274   2.416   4.195   6.604
 6125SOL    HW219275   2.492   4.069   6.532
 6126SOL     OW19276   0.438   1.397   5.027
 6126SOL    HW119277   0.427   1.464   5.100
 6126SOL    HW219278   0.350   1.353   5.009
 6127SOL     OW19279   4.116   0.028   1.939
 6127SOL    HW119280   4.170   0.002   2.019
 6127SOL    HW219281   4.137   6.993   1.863
 6128SOL     OW19282   5.464   5.335   0.425
 6128SOL    HW119283   5.431   5.427   0.401
 6128SOL    HW219284   5.404   5.296   0.495
 6129SOL     OW19285   0.716   3.856   3.608
 6129SOL    HW119286   0.719   3.831   3.705
 6129SOL    HW219287   0.759   3.945   3.595
 6130SOL     OW19288   5.306   2.634   2.928
 6130SOL    HW119289   5.397   2.672   2.913
 6130SOL    HW219290   5.237   2.700   2.897
 6131SOL     OW19291   0.783   1.261   3.388
 6131SOL    HW119292   0.881   1.237   3.388
 6131SOL    HW219293   0.738   1.213   3.313
 6132SOL     OW19294   3.931   1.763   6.681
 6132SOL    HW119295   3.949   1.697   6.608
 6132SOL    HW219296   3.875   1.838   6.645
 6133SOL     OW19297   1.862   2.997   3.180
 6133SOL    HW119298   1.859   3.096   3.185
 6133SOL    HW219299   1.830   2.966   3.091
 6134SOL     OW19300   4.336   6.570   0.179
 6134SOL    HW119301   4.345   6.669   0.188
 6134SOL    HW219302   4.398   6.524   0.243
 6135SOL     OW19303   0.482   5.462   1.294
 6135SOL    HW119304   0.473   5.366   1.271
 6135SOL    HW219305   0.578   5.482   1.318
 6136SOL     OW19306   1.544   2.479   1.581
 6136SOL    HW119307   1.445   2.467   1.584
 6136SOL    HW219308   1.566   2.576   1.592
 6137SOL     OW19309   0.756   4.139   2.388
 6137SOL    HW119310   0.658   4.136   2.368
 6137SOL    HW219311   0.806   4.086   2.319
 6138SOL     OW19312   3.826   6.963   3.525
 6138SOL    HW119313   3.857   0.032   3.528
 6138SOL    HW219314   3.743   6.956   3.469
 6139SOL     OW19315   0.907   6.329   5.698
 6139SOL    HW119316   0.884   6.234   5.677
 6139SOL    HW219317   0.901   6.384   5.614
 6140SOL     OW19318   0.612   0.508   2.267
 6140SOL    HW119319   0.700   0.465   2.247
 6140SOL    HW219320   0.557   0.511   2.184
 6141SOL     OW19321   0.103   0.289   6.172
 6141SOL    HW119322   0.193   0.262   6.138
 6141SOL    HW219323   0.070   0.369   6.121
 6142SOL     OW19324   0.615   5.886   6.520
 6142SOL    HW119325   0.681   5.836   6.464
 6142SOL    HW219326   0.572   5.958   6.465
 6143SOL     OW19327   0.159   4.199   0.959
 6143SOL    HW119328   0.195   4.110   0.929
 6143SOL    HW219329   0.076   4.221   0.907
 6144SOL     OW19330   5.139   5.261   3.551
 6144SOL    HW119331   5.214   5.321   3.523
 6144SOL    HW219332   5.064   5.269   3.486
 6145SOL     OW19333   5.285   4.988   3.982
 6145SOL    HW119334   5.305   5.027   3.892
 6145SOL    HW219335   5.288   5.061   4.051
 6146SOL     OW19336   3.557   6.057   3.278
 6146SOL    HW119337   3.581   6.043   3.182
 6146SOL    HW219338   3.477   6.117   3.285
 6147SOL     OW19339   2.051   2.243   5.090
 6147SOL    HW119340   2.100   2.325   5.119
 6147SOL    HW219341   1.972   2.228   5.150
 6148SOL     OW19342   4.314   5.947   5.791
 6148SOL    HW119343   4.396   5.891   5.781
 6148SOL    HW219344   4.236   5.887   5.811
 6149SOL     OW19345   2.490   0.127   1.782
 6149SOL    HW119346   2.508   0.172   1.695
 6149SOL    HW219347   2.559   0.056   1.798
 6150SOL     OW19348   5.976   3.776   6.782
 6150SOL    HW119349   6.069   3.741   6.774
 6150SOL    HW219350   5.978   3.868   6.822
 6151SOL     OW19351   5.875   4.986   4.935
 6151SOL    HW119352   5.814   5.023   4.865
 6151SOL    HW219353   5.854   4.889   4.950
 6152SOL     OW19354   0.515   5.206   4.725
 6152SOL    HW119355   0.422   5.212   4.762
 6152SOL    HW219356   0.562   5.127   4.765
 6153SOL     OW19357   5.433   4.988   1.078
 6153SOL    HW119358   5.446   4.912   1.016
 6153SOL    HW219359   5.451   4.959   1.172
 6154SOL     OW19360   5.623   3.194   2.744
 6154SOL    HW119361   5.577   3.233   2.823
 6154SOL    HW219362   5.714   3.235   2.735
 6155SOL     OW19363   3.130   1.071   2.844
 6155SOL    HW119364   3.180   1.076   2.758
 6155SOL    HW219365   3.193   1.082   2.921
 6156SOL     OW19366   4.282   5.099   1.388
 6156SOL    HW119367   4.243   5.145   1.468
 6156SOL    HW219368   4.361   5.045   1.416
 6157SOL     OW19369   0.923   2.087   2.901
 6157SOL    HW119370   0.849   2.020   2.900
 6157SOL    HW219371   0.894   2.169   2.950
 6158SOL     OW19372   3.663   2.399   0.248
 6158SOL    HW119373   3.649   2.465   0.322
 6158SOL    HW219374   3.698   2.446   0.167
 6159SOL     OW19375   4.551   2.412   0.740
 6159SOL    HW119376   4.610   2.338   0.773
 6159SOL    HW219377   4.597   2.500   0.755
 6160SOL     OW19378   6.385   6.727   6.594
 6160SOL    HW119379   6.468   6.783   6.595
 6160SOL    HW219380   6.319   6.763   6.660
 6161SOL     OW19381   5.527   1.277   0.204
 6161SOL    HW119382   5.606   1.260   0.263
 6161SOL    HW219383   5.444   1.245   0.249
 6162SOL     OW19384   6.098   6.294   3.652
 6162SOL    HW119385   6.017   6.333   3.609
 6162SOL    HW219386   6.170   6.283   3.584
 6163SOL     OW19387   5.370   5.660   2.218
 6163SOL    HW119388   5.285   5.662   2.166
 6163SOL    HW219389   5.351   5.644   2.314
 6164SOL     OW19390   3.684   4.175   4.887
 6164SOL    HW119391   3.746   4.245   4.850
 6164SOL    HW219392   3.721   4.140   4.973
 6165SOL     OW19393   4.335   1.772   6.016
 6165SOL    HW119394   4.286   1.775   6.103
 6165SOL    HW219395   4.270   1.779   5.940
 6166SOL     OW19396   5.953   1.701   0.636
 6166SOL    HW119397   5.921   1.709   0.542
 6166SOL    HW219398   5.881   1.733   0.699
 6167SOL     OW19399   0.954   4.706   3.069
 6167SOL    HW119400   1.043   4.685   3.110
 6167SOL    HW219401   0.967   4.767   2.991
 6168SOL     OW19402   0.321   3.140   3.185
 6168SOL    HW119403   0.375   3.212   3.143
 6168SOL    HW219404   0.330   3.145   3.285
 6169SOL     OW19405   1.303   1.678   6.988
 6169SOL    HW119406   1.365   1.743   0.004
 6169SOL    HW219407   1.238   1.645   0.030
 6170SOL     OW19408   3.300   4.437   5.389
 6170SOL    HW119409   3.372   4.372   5.413
 6170SOL    HW219410   3.340   4.523   5.360
 6171SOL     OW19411   1.447   3.343   1.172
 6171SOL    HW119412   1.429   3.370   1.267
 6171SOL    HW219413   1.385   3.268   1.146
 6172SOL     OW19414   1.125   0.835   3.026
 6172SOL    HW119415   1.080   0.904   3.082
 6172SOL    HW219416   1.059   0.763   3.002
 6173SOL     OW19417   6.888   4.821   2.379
 6173SOL    HW119418   6.819   4.892   2.395
 6173SOL    HW219419   6.892   4.760   2.458
 6174SOL     OW19420   6.143   5.231   3.120
 6174SOL    HW119421   6.171   5.135   3.125
 6174SOL    HW219422   6.043   5.237   3.123
 6175SOL     OW19423   5.124   0.402   3.773
 6175SOL    HW119424   5.223   0.383   3.778
 6175SOL    HW219425   5.075   0.316   3.762
 6176SOL     OW19426   6.714   2.997   0.314
 6176SOL    HW119427   6.809   3.003   0.280
 6176SOL    HW219428   6.701   3.063   0.388
 6177SOL     OW19429   6.387   1.410   1.318
 6177SOL    HW119430   6.361   1.363   1.234
 6177SOL    HW219431   6.422   1.343   1.384
 6178SOL     OW19432   4.595   5.211   2.015
 6178SOL    HW119433   4.543   5.274   1.959
 6178SOL    HW219434   4.688   5.202   1.978
 6179SOL     OW19435   6.593   4.724   4.341
 6179SOL    HW119436   6.551   4.720   4.250
 6179SOL    HW219437   6.693   4.730   4.331
 6180SOL     OW19438   3.571   6.416   6.525
 6180SOL    HW119439   3.621   6.330   6.530
 6180SOL    HW219440   3.477   6.400   6.498
 6181SOL     OW19441   4.426   6.502   1.080
 6181SOL    HW119442   4.383   6.577   1.130
 6181SOL    HW219443   4.370   6.419   1.089
 6182SOL     OW19444   5.371   3.428   5.296
 6182SOL    HW119445   5.406   3.336   5.316
 6182SOL    HW219446   5.366   3.481   5.381
 6183SOL     OW19447   2.835   0.143   2.784
 6183SOL    HW119448   2.884   0.063   2.820
 6183SOL    HW219449   2.874   0.169   2.696
 6184SOL     OW19450   2.036   6.786   5.960
 6184SOL    HW119451   1.990   6.698   5.943
 6184SOL    HW219452   1.968   6.856   5.979
 6185SOL     OW19453   0.917   4.996   6.224
 6185SOL    HW119454   1.006   5.028   6.194
 6185SOL    HW219455   0.867   5.072   6.267
 6186SOL     OW19456   5.854   0.091   4.771
 6186SOL    HW119457   5.856   0.164   4.703
 6186SOL    HW219458   5.759   0.071   4.796
 6187SOL     OW19459   4.478   4.595   4.366
 6187SOL    HW119460   4.453   4.541   4.447
 6187SOL    HW219461   4.500   4.688   4.394
 6188SOL     OW19462   2.026   6.714   0.952
 6188SOL    HW119463   1.933   6.681   0.934
 6188SOL    HW219464   2.092   6.646   0.921
 6189SOL     OW19465   4.504   4.499   3.976
 6189SOL    HW119466   4.527   4.443   4.055
 6189SOL    HW219467   4.414   4.540   3.988
 6190SOL     OW19468   6.285   3.444   6.358
 6190SOL    HW119469   6.211   3.496   6.315
 6190SOL    HW219470   6.356   3.507   6.390
 6191SOL     OW19471   4.400   3.198   0.175
 6191SOL    HW119472   4.455   3.115   0.187
 6191SOL    HW219473   4.325   3.179   0.112
 6192SOL     OW19474   3.007   3.210   0.194
 6192SOL    HW119475   3.061   3.279   0.146
 6192SOL    HW219476   2.978   3.245   0.283
 6193SOL     OW19477   5.107   1.197   2.610
 6193SOL    HW119478   5.147   1.105   2.604
 6193SOL    HW219479   5.037   1.206   2.539
 6194SOL     OW19480   1.142   6.489   0.005
 6194SOL    HW119481   1.092   6.567   0.041
 6194SOL    HW219482   1.143   6.415   0.073
 6195SOL     OW19483   3.885   5.578   5.688
 6195SOL    HW119484   3.821   5.549   5.760
 6195SOL    HW219485   3.881   5.677   5.677
 6196SOL     OW19486   5.915   2.114   1.366
 6196SOL    HW119487   5.960   2.027   1.390
 6196SOL    HW219488   5.862   2.146   1.445
 6197SOL     OW19489   4.147   3.988   0.404
 6197SOL    HW119490   4.160   4.070   0.349
 6197SOL    HW219491   4.086   4.008   0.481
 6198SOL     OW19492   3.123   5.202   2.302
 6198SOL    HW119493   3.166   5.112   2.301
 6198SOL    HW219494   3.191   5.272   2.282
 6199SOL     OW19495   0.870   6.946   0.848
 6199SOL    HW119496   0.848   7.008   0.772
 6199SOL    HW219497   0.890   6.855   0.811
 6200SOL     OW19498   1.856   0.522   5.408
 6200SOL    HW119499   1.817   0.614   5.418
 6200SOL    HW219500   1.822   0.480   5.324
 6201SOL     OW19501   1.835   3.965   5.484
 6201SOL    HW119502   1.934   3.976   5.485
 6201SOL    HW219503   1.806   3.932   5.395
 6202SOL     OW19504   4.324   2.029   1.505
 6202SOL    HW119505   4.243   1.980   1.540
 6202SOL    HW219506   4.296   2.090   1.431
 6203SOL     OW19507   5.691   6.581   3.257
 6203SOL    HW119508   5.756   6.646   3.218
 6203SOL    HW219509   5.711   6.489   3.224
 6204SOL     OW19510   0.473   4.989   5.200
 6204SOL    HW119511   0.509   5.073   5.239
 6204SOL    HW219512   0.493   4.912   5.261
 6205SOL     OW19513   5.661   6.353   0.141
 6205SOL    HW119514   5.740   6.293   0.134
 6205SOL    HW219515   5.596   6.331   0.067
 6206SOL     OW19516   6.135   0.726   2.871
 6206SOL    HW119517   6.157   0.638   2.915
 6206SOL    HW219518   6.133   0.798   2.939
 6207SOL     OW19519   1.598   4.054   4.401
 6207SOL    HW119520   1.649   4.056   4.315
 6207SOL    HW219521   1.607   3.964   4.444
 6208SOL     OW19522   6.091   1.436   6.774
 6208SOL    HW119523   6.082   1.342   6.741
 6208SOL    HW219524   6.056   1.442   6.867
 6209SOL     OW19525   4.528   5.653   0.010
 6209SOL    HW119526   4.465   5.593   6.987
 6209SOL    HW219527   4.585   5.702   6.969
 6210SOL     OW19528   5.988   4.662   3.617
 6210SOL    HW119529   5.967   4.617   3.704
 6210SOL    HW219530   6.084   4.689   3.615
 6211SOL     OW19531   2.863   6.379   4.425
 6211SOL    HW119532   2.782   6.324   4.405
 6211SOL    HW219533   2.852   6.425   4.513
 6212SOL     OW19534   1.905   5.293   3.383
 6212SOL    HW119535   1.838   5.338   3.442
 6212SOL    HW219536   1.931   5.205   3.423
 6213SOL     OW19537   4.882   0.298   6.874
 6213SOL    HW119538   4.786   0.312   6.849
 6213SOL    HW219539   4.888   0.275   6.971
 6214SOL     OW19540   4.271   4.688   3.370
 6214SOL    HW119541   4.289   4.598   3.411
 6214SOL    HW219542   4.355   4.721   3.326
 6215SOL     OW19543   3.936   2.208   0.179
 6215SOL    HW119544   4.026   2.251   0.176
 6215SOL    HW219545   3.873   2.257   0.118
 6216SOL     OW19546   6.337   2.265   2.031
 6216SOL    HW119547   6.396   2.283   2.110
 6216SOL    HW219548   6.356   2.332   1.959
 6217SOL     OW19549   0.148   2.779   2.885
 6217SOL    HW119550   0.142   2.685   2.919
 6217SOL    HW219551   0.056   2.819   2.880
 6218SOL     OW19552   2.975   5.020   5.462
 6218SOL    HW119553   3.046   4.953   5.485
 6218SOL    HW219554   3.007   5.077   5.385
 6219SOL     OW19555   1.108   2.104   4.325
 6219SOL    HW119556   1.012   2.120   4.303
 6219SOL    HW219557   1.117   2.086   4.423
 6220SOL     OW19558   1.519   3.113   5.322
 6220SOL    HW119559   1.553   3.184   5.261
 6220SOL    HW219560   1.514   3.148   5.416
 6221SOL     OW19561   6.321   5.929   6.712
 6221SOL    HW119562   6.378   5.919   6.793
 6221SOL    HW219563   6.331   5.849   6.653
 6222SOL     OW19564   1.118   6.250   1.139
 6222SOL    HW119565   1.138   6.291   1.228
 6222SOL    HW219566   1.181   6.175   1.121
 6223SOL     OW19567   0.078   4.598   4.776
 6223SOL    HW119568   0.119   4.554   4.856
 6223SOL    HW219569   0.040   4.687   4.802
 6224SOL     OW19570   2.554   2.322   6.215
 6224SOL    HW119571   2.477   2.340   6.154
 6224SOL    HW219572   2.560   2.224   6.232
 6225SOL     OW19573   3.225   3.265   1.328
 6225SOL    HW119574   3.292   3.330   1.364
 6225SOL    HW219575   3.189   3.299   1.241
 6226SOL     OW19576   5.592   1.803   5.151
 6226SOL    HW119577   5.647   1.854   5.085
 6226SOL    HW219578   5.495   1.812   5.126
 6227SOL     OW19579   3.705   5.466   5.897
 6227SOL    HW119580   3.652   5.411   5.832
 6227SOL    HW219581   3.644   5.507   5.964
 6228SOL     OW19582   0.656   2.742   2.713
 6228SOL    HW119583   0.730   2.740   2.780
 6228SOL    HW219584   0.598   2.822   2.730
 6229SOL     OW19585   0.598   2.965   2.502
 6229SOL    HW119586   0.549   3.020   2.570
 6229SOL    HW219587   0.557   2.873   2.498
 6230SOL     OW19588   1.385   1.350   4.038
 6230SOL    HW119589   1.303   1.307   4.000
 6230SOL    HW219590   1.440   1.282   4.086
 6231SOL     OW19591   6.815   4.930   1.538
 6231SOL    HW119592   6.873   4.852   1.516
 6231SOL    HW219593   6.724   4.898   1.563
 6232SOL     OW19594   6.134   1.703   1.032
 6232SOL    HW119595   6.141   1.674   1.127
 6232SOL    HW219596   6.116   1.623   0.974
 6233SOL     OW19597   6.140   0.931   0.268
 6233SOL    HW119598   6.151   0.841   0.225
 6233SOL    HW219599   6.199   0.997   0.222
 6234SOL     OW19600   6.731   1.749   5.577
 6234SOL    HW119601   6.763   1.669   5.628
 6234SOL    HW219602   6.721   1.827   5.639
 6235SOL     OW19603   1.642   0.136   1.712
 6235SOL    HW119604   1.641   0.196   1.632
 6235SOL    HW219605   1.568   0.162   1.774
 6236SOL     OW19606   0.798   4.183   0.512
 6236SOL    HW119607   0.879   4.156   0.564
 6236SOL    HW219608   0.789   4.124   0.432
 6237SOL     OW19609   3.543   5.929   6.614
 6237SOL    HW119610   3.578   6.021   6.630
 6237SOL    HW219611   3.479   5.905   6.686
 6238SOL     OW19612   3.880   5.128   3.144
 6238SOL    HW119613   3.813   5.057   3.163
 6238SOL    HW219614   3.837   5.200   3.088
 6239SOL     OW19615   3.384   6.130   1.901
 6239SOL    HW119616   3.442   6.204   1.864
 6239SOL    HW219617   3.440   6.070   1.958
 6240SOL     OW19618   3.003   3.053   6.727
 6240SOL    HW119619   3.016   3.043   6.629
 6240SOL    HW219620   2.981   2.964   6.768
 6241SOL     OW19621   3.245   6.875   1.515
 6241SOL    HW119622   3.327   6.887   1.571
 6241SOL    HW219623   3.271   6.854   1.421
 6242SOL     OW19624   5.359   0.728   3.758
 6242SOL    HW119625   5.415   0.808   3.778
 6242SOL    HW219626   5.314   0.696   3.842
 6243SOL     OW19627   5.987   6.621   3.762
 6243SOL    HW119628   6.046   6.540   3.760
 6243SOL    HW219629   5.939   6.629   3.675
 6244SOL     OW19630   0.967   2.007   2.235
 6244SOL    HW119631   0.970   1.956   2.149
 6244SOL    HW219632   1.058   2.010   2.276
 6245SOL     OW19633   1.778   4.089   0.429
 6245SOL    HW119634   1.834   4.106   0.348
 6245SOL    HW219635   1.709   4.160   0.437
 6246SOL     OW19636   2.023   2.733   5.639
 6246SOL    HW119637   2.034   2.832   5.625
 6246SOL    HW219638   2.005   2.689   5.550
 6247SOL     OW19639   1.461   6.907   3.871
 6247SOL    HW119640   1.371   6.878   3.904
 6247SOL    HW219641   1.460   6.914   3.771
 6248SOL     OW19642   2.835   4.037   0.710
 6248SOL    HW119643   2.832   4.137   0.698
 6248SOL    HW219644   2.921   4.011   0.754
 6249SOL     OW19645   0.759   4.030   0.297
 6249SOL    HW119646   0.842   4.043   0.243
 6249SOL    HW219647   0.682   4.013   0.236
 6250SOL     OW19648   0.279   5.922   0.421
 6250SOL    HW119649   0.241   6.011   0.444
 6250SOL    HW219650   0.208   5.866   0.377
 6251SOL     OW19651   3.807   5.371   6.981
 6251SOL    HW119652   3.718   5.373   0.001
 6251SOL    HW219653   3.876   5.336   0.018
 6252SOL     OW19654   1.192   6.809   6.082
 6252SOL    HW119655   1.214   6.906   6.081
 6252SOL    HW219656   1.225   6.768   6.168
 6253SOL     OW19657   2.142   3.891   2.556
 6253SOL    HW119658   2.142   3.849   2.646
 6253SOL    HW219659   2.143   3.820   2.485
 6254SOL     OW19660   4.900   1.065   0.421
 6254SOL    HW119661   4.969   1.113   0.476
 6254SOL    HW219662   4.909   1.094   0.326
 6255SOL     OW19663   2.731   0.658   1.211
 6255SOL    HW119664   2.831   0.659   1.212
 6255SOL    HW219665   2.699   0.576   1.164
 6256SOL     OW19666   3.380   5.155   2.963
 6256SOL    HW119667   3.281   5.140   2.962
 6256SOL    HW219668   3.413   5.149   3.057
 6257SOL     OW19669   4.992   2.652   0.927
 6257SOL    HW119670   4.908   2.700   0.949
 6257SOL    HW219671   4.996   2.635   0.828
 6258SOL     OW19672   4.566   0.143   3.736
 6258SOL    HW119673   4.616   0.056   3.732
 6258SOL    HW219674   4.627   0.215   3.769
 6259SOL     OW19675   2.981   2.499   0.810
 6259SOL    HW119676   2.930   2.583   0.791
 6259SOL    HW219677   2.961   2.469   0.903
 6260SOL     OW19678   3.060   5.403   0.372
 6260SOL    HW119679   2.964   5.406   0.397
 6260SOL    HW219680   3.111   5.350   0.440
 6261SOL     OW19681   3.891   0.108   6.677
 6261SOL    HW119682   3.920   0.161   6.597
 6261SOL    HW219683   3.941   0.140   6.758
 6262SOL     OW19684   1.295   4.953   0.859
 6262SOL    HW119685   1.242   4.990   0.783
 6262SOL    HW219686   1.299   4.853   0.851
 6263SOL     OW19687   0.320   0.587   5.556
 6263SOL    HW119688   0.247   0.520   5.542
 6263SOL    HW219689   0.346   0.627   5.468
 6264SOL     OW19690   1.210   0.453   1.438
 6264SOL    HW119691   1.195   0.439   1.341
 6264SOL    HW219692   1.169   0.377   1.489
 6265SOL     OW19693   2.857   4.311   0.666
 6265SOL    HW119694   2.790   4.314   0.740
 6265SOL    HW219695   2.934   4.371   0.687
 6266SOL     OW19696   3.928   0.261   4.530
 6266SOL    HW119697   3.894   0.195   4.597
 6266SOL    HW219698   3.961   0.213   4.449
 6267SOL     OW19699   2.562   0.717   6.711
 6267SOL    HW119700   2.656   0.692   6.733
 6267SOL    HW219701   2.562   0.780   6.633
 6268SOL     OW19702   3.739   6.398   3.008
 6268SOL    HW119703   3.773   6.459   3.079
 6268SOL    HW219704   3.778   6.307   3.022
 6269SOL     OW19705   6.610   5.416   1.470
 6269SOL    HW119706   6.659   5.350   1.413
 6269SOL    HW219707   6.633   5.400   1.566
 6270SOL     OW19708   1.611   0.460   5.553
 6270SOL    HW119709   1.709   0.451   5.533
 6270SOL    HW219710   1.591   0.421   5.643
 6271SOL     OW19711   5.543   2.719   5.779
 6271SOL    HW119712   5.498   2.741   5.865
 6271SOL    HW219713   5.475   2.708   5.707
 6272SOL     OW19714   0.765   2.389   6.408
 6272SOL    HW119715   0.818   2.419   6.488
 6272SOL    HW219716   0.826   2.351   6.340
 6273SOL     OW19717   2.133   6.932   3.137
 6273SOL    HW119718   2.228   6.926   3.104
 6273SOL    HW219719   2.071   6.936   3.059
 6274SOL     OW19720   2.219   5.512   6.061
 6274SOL    HW119721   2.308   5.467   6.061
 6274SOL    HW219722   2.214   5.576   5.984
 6275SOL     OW19723   2.107   5.799   4.723
 6275SOL    HW119724   2.112   5.792   4.624
 6275SOL    HW219725   2.187   5.848   4.757
 6276SOL     OW19726   2.101   5.005   3.257
 6276SOL    HW119727   2.060   5.002   3.165
 6276SOL    HW219728   2.035   5.045   3.321
 6277SOL     OW19729   5.678   3.561   1.858
 6277SOL    HW119730   5.670   3.481   1.917
 6277SOL    HW219731   5.675   3.532   1.762
 6278SOL     OW19732   4.984   0.134   4.720
 6278SOL    HW119733   4.937   0.164   4.636
 6278SOL    HW219734   5.083   0.136   4.705
 6279SOL     OW19735   3.282   0.923   6.666
 6279SOL    HW119736   3.240   0.885   6.584
 6279SOL    HW219737   3.344   0.855   6.706
 6280SOL     OW19738   1.050   2.228   5.228
 6280SOL    HW119739   1.049   2.294   5.302
 6280SOL    HW219740   1.113   2.258   5.156
 6281SOL     OW19741   1.766   4.912   4.053
 6281SOL    HW119742   1.779   4.919   3.954
 6281SOL    HW219743   1.798   4.822   4.083
 6282SOL     OW19744   1.323   0.406   4.924
 6282SOL    HW119745   1.277   0.449   4.846
 6282SOL    HW219746   1.297   0.310   4.929
 6283SOL     OW19747   6.724   3.429   5.912
 6283SOL    HW119748   6.749   3.414   5.816
 6283SOL    HW219749   6.797   3.395   5.971
 6284SOL     OW19750   2.161   5.359   4.699
 6284SOL    HW119751   2.100   5.371   4.777
 6284SOL    HW219752   2.107   5.336   4.617
 6285SOL     OW19753   0.787   3.021   3.768
 6285SOL    HW119754   0.885   3.011   3.781
 6285SOL    HW219755   0.757   3.109   3.804
 6286SOL     OW19756   6.739   1.678   3.898
 6286SOL    HW119757   6.701   1.748   3.837
 6286SOL    HW219758   6.791   1.611   3.844
 6287SOL     OW19759   3.783   4.989   3.825
 6287SOL    HW119760   3.691   4.988   3.863
 6287SOL    HW219761   3.779   5.017   3.729
 6288SOL     OW19762   5.623   4.923   2.839
 6288SOL    HW119763   5.551   4.940   2.772
 6288SOL    HW219764   5.671   4.838   2.817
 6289SOL     OW19765   1.380   5.002   2.049
 6289SOL    HW119766   1.437   5.059   1.990
 6289SOL    HW219767   1.349   5.056   2.128
 6290SOL     OW19768   5.981   3.366   4.051
 6290SOL    HW119769   6.057   3.432   4.048
 6290SOL    HW219770   5.930   3.378   4.136
 6291SOL     OW19771   3.369   2.942   4.772
 6291SOL    HW119772   3.387   2.913   4.866
 6291SOL    HW219773   3.426   3.021   4.750
 6292SOL     OW19774   1.596   2.060   3.798
 6292SOL    HW119775   1.585   1.996   3.874
 6292SOL    HW219776   1.539   2.141   3.813
 6293SOL     OW19777   3.612   0.630   0.162
 6293SOL    HW119778   3.678   0.563   0.197
 6293SOL    HW219779   3.520   0.602   0.188
 6294SOL     OW19780   3.838   4.924   4.085
 6294SOL    HW119781   3.928   4.883   4.098
 6294SOL    HW219782   3.817   4.929   3.988
 6295SOL     OW19783   5.505   5.202   5.514
 6295SOL    HW119784   5.530   5.285   5.565
 6295SOL    HW219785   5.417   5.168   5.547
 6296SOL     OW19786   0.006   6.767   4.906
 6296SOL    HW119787   0.060   6.832   4.853
 6296SOL    HW219788   6.935   6.780   4.887
 6297SOL     OW19789   4.568   6.977   4.816
 6297SOL    HW119790   4.506   6.988   4.894
 6297SOL    HW219791   4.514   6.974   4.732
 6298SOL     OW19792   1.325   2.561   5.778
 6298SOL    HW119793   1.270   2.618   5.716
 6298SOL    HW219794   1.403   2.614   5.810
 6299SOL     OW19795   5.308   1.484   0.512
 6299SOL    HW119796   5.287   1.495   0.609
 6299SOL    HW219797   5.259   1.553   0.459
 6300SOL     OW19798   5.053   0.436   6.701
 6300SOL    HW119799   5.026   0.392   6.615
 6300SOL    HW219800   4.988   0.412   6.773
 6301SOL     OW19801   3.257   0.736   0.782
 6301SOL    HW119802   3.232   0.812   0.843
 6301SOL    HW219803   3.210   0.653   0.812
 6302SOL     OW19804   1.792   1.382   4.095
 6302SOL    HW119805   1.702   1.421   4.116
 6302SOL    HW219806   1.806   1.381   3.996
 6303SOL     OW19807   2.190   1.076   4.931
 6303SOL    HW119808   2.122   1.092   5.003
 6303SOL    HW219809   2.202   1.159   4.877
 6304SOL     OW19810   2.403   1.409   1.289
 6304SOL    HW119811   2.358   1.340   1.346
 6304SOL    HW219812   2.499   1.383   1.276
 6305SOL     OW19813   6.104   6.915   1.870
 6305SOL    HW119814   6.178   6.851   1.849
 6305SOL    HW219815   6.143   6.998   1.909
 6306SOL     OW19816   1.166   3.453   4.264
 6306SOL    HW119817   1.079   3.502   4.262
 6306SOL    HW219818   1.241   3.518   4.274
 6307SOL     OW19819   3.921   4.572   6.024
 6307SOL    HW119820   3.921   4.672   6.026
 6307SOL    HW219821   3.847   4.538   6.082
 6308SOL     OW19822   1.685   1.842   4.795
 6308SOL    HW119823   1.724   1.756   4.761
 6308SOL    HW219824   1.647   1.827   4.886
 6309SOL     OW19825   5.085   4.142   4.351
 6309SOL    HW119826   5.130   4.177   4.433
 6309SOL    HW219827   5.098   4.044   4.345
 6310SOL     OW19828   2.129   5.682   3.185
 6310SOL    HW119829   2.059   5.670   3.115
 6310SOL    HW219830   2.092   5.736   3.260
 6311SOL     OW19831   5.337   0.396   5.564
 6311SOL    HW119832   5.428   0.421   5.599
 6311SOL    HW219833   5.268   0.435   5.624
 6312SOL     OW19834   6.059   4.934   6.087
 6312SOL    HW119835   6.121   4.987   6.144
 6312SOL    HW219836   5.992   4.995   6.045
 6313SOL     OW19837   1.422   6.404   3.503
 6313SOL    HW119838   1.447   6.463   3.426
 6313SOL    HW219839   1.498   6.401   3.568
 6314SOL     OW19840   4.162   6.352   1.588
 6314SOL    HW119841   4.076   6.355   1.639
 6314SOL    HW219842   4.239   6.347   1.652
 6315SOL     OW19843   3.544   3.170   6.328
 6315SOL    HW119844   3.609   3.118   6.273
 6315SOL    HW219845   3.453   3.131   6.318
 6316SOL     OW19846   4.574   1.965   6.733
 6316SOL    HW119847   4.550   1.927   6.823
 6316SOL    HW219848   4.663   2.010   6.740
 6317SOL     OW19849   5.017   5.392   2.760
 6317SOL    HW119850   4.982   5.437   2.677
 6317SOL    HW219851   4.973   5.433   2.840
 6318SOL     OW19852   2.775   2.282   4.592
 6318SOL    HW119853   2.844   2.306   4.524
 6318SOL    HW219854   2.814   2.291   4.684
 6319SOL     OW19855   0.333   2.002   3.943
 6319SOL    HW119856   0.242   2.027   3.976
 6319SOL    HW219857   0.368   2.073   3.882
 6320SOL     OW19858   5.950   5.379   4.932
 6320SOL    HW119859   5.865   5.428   4.956
 6320SOL    HW219860   6.026   5.417   4.985
 6321SOL     OW19861   3.299   4.034   1.068
 6321SOL    HW119862   3.394   4.007   1.084
 6321SOL    HW219863   3.292   4.134   1.066
 6322SOL     OW19864   1.871   2.235   6.872
 6322SOL    HW119865   1.941   2.208   6.938
 6322SOL    HW219866   1.792   2.271   6.920
 6323SOL     OW19867   3.087   2.510   1.507
 6323SOL    HW119868   2.998   2.497   1.550
 6323SOL    HW219869   3.149   2.436   1.534
 6324SOL     OW19870   5.332   0.185   6.340
 6324SOL    HW119871   5.298   0.229   6.257
 6324SOL    HW219872   5.256   0.161   6.399
 6325SOL     OW19873   2.191   2.187   2.305
 6325SOL    HW119874   2.288   2.211   2.302
 6325SOL    HW219875   2.155   2.202   2.397
 6326SOL     OW19876   5.008   5.856   1.365
 6326SOL    HW119877   4.974   5.821   1.452
 6326SOL    HW219878   5.104   5.833   1.354
 6327SOL     OW19879   0.116   0.641   4.956
 6327SOL    HW119880   0.164   0.700   5.021
 6327SOL    HW219881   0.121   0.681   4.865
 6328SOL     OW19882   1.610   4.057   0.874
 6328SOL    HW119883   1.667   3.990   0.921
 6328SOL    HW219884   1.588   4.023   0.783
 6329SOL     OW19885   2.216   2.642   3.153
 6329SOL    HW119886   2.228   2.709   3.227
 6329SOL    HW219887   2.140   2.582   3.175
 6330SOL     OW19888   4.603   1.336   0.984
 6330SOL    HW119889   4.699   1.327   0.958
 6330SOL    HW219890   4.598   1.360   1.081
 6331SOL     OW19891   6.442   1.885   0.245
 6331SOL    HW119892   6.356   1.835   0.256
 6331SOL    HW219893   6.458   1.902   0.148
 6332SOL     OW19894   6.537   3.743   1.958
 6332SOL    HW119895   6.624   3.714   1.997
 6332SOL    HW219896   6.549   3.766   1.862
 6333SOL     OW19897   3.894   5.855   4.882
 6333SOL    HW119898   3.910   5.883   4.976
 6333SOL    HW219899   3.967   5.890   4.823
 6334SOL     OW19900   3.322   7.003   1.828
 6334SOL    HW119901   3.346   6.906   1.836
 6334SOL    HW219902   3.388   0.023   1.769
 6335SOL     OW19903   4.733   1.329   0.143
 6335SOL    HW119904   4.675   1.309   0.064
 6335SOL    HW219905   4.674   1.349   0.222
 6336SOL     OW19906   0.496   1.752   6.420
 6336SOL    HW119907   0.519   1.834   6.474
 6336SOL    HW219908   0.479   1.676   6.482
 6337SOL     OW19909   4.993   4.685   5.983
 6337SOL    HW119910   5.026   4.719   5.894
 6337SOL    HW219911   5.067   4.635   6.028
 6338SOL     OW19912   3.446   2.051   3.311
 6338SOL    HW119913   3.390   2.042   3.228
 6338SOL    HW219914   3.536   2.011   3.295
 6339SOL     OW19915   1.259   3.070   2.728
 6339SOL    HW119916   1.331   3.002   2.719
 6339SOL    HW219917   1.235   3.080   2.824
 6340SOL     OW19918   1.602   4.744   2.671
 6340SOL    HW119919   1.636   4.741   2.577
 6340SOL    HW219920   1.574   4.652   2.699
 6341SOL     OW19921   0.635   4.530   4.126
 6341SOL    HW119922   0.716   4.510   4.180
 6341SOL    HW219923   0.659   4.590   4.050
 6342SOL     OW19924   2.309   1.939   1.997
 6342SOL    HW119925   2.370   2.018   2.006
 6342SOL    HW219926   2.353   1.870   1.939
 6343SOL     OW19927   5.186   2.374   6.712
 6343SOL    HW119928   5.256   2.343   6.777
 6343SOL    HW219929   5.130   2.296   6.683
 6344SOL     OW19930   5.517   3.396   4.789
 6344SOL    HW119931   5.509   3.401   4.889
 6344SOL    HW219932   5.602   3.350   4.765
 6345SOL     OW19933   4.806   1.954   2.136
 6345SOL    HW119934   4.894   1.938   2.091
 6345SOL    HW219935   4.738   1.980   2.067
 6346SOL     OW19936   6.871   4.596   3.908
 6346SOL    HW119937   6.958   4.643   3.923
 6346SOL    HW219938   6.857   4.583   3.810
 6347SOL     OW19939   1.732   6.942   1.807
 6347SOL    HW119940   1.710   0.010   1.781
 6347SOL    HW219941   1.827   6.937   1.838
 6348SOL     OW19942   1.459   3.835   5.212
 6348SOL    HW119943   1.430   3.894   5.287
 6348SOL    HW219944   1.379   3.795   5.169
 6349SOL     OW19945   3.532   0.009   1.139
 6349SOL    HW119946   3.604   0.039   1.076
 6349SOL    HW219947   3.541   0.057   1.226
 6350SOL     OW19948   2.851   4.825   4.255
 6350SOL    HW119949   2.799   4.908   4.238
 6350SOL    HW219950   2.937   4.848   4.302
 6351SOL     OW19951   6.354   3.429   3.183
 6351SOL    HW119952   6.399   3.357   3.131
 6351SOL    HW219953   6.267   3.395   3.219
 6352SOL     OW19954   2.915   5.425   4.734
 6352SOL    HW119955   2.828   5.433   4.686
 6352SOL    HW219956   2.966   5.347   4.698
 6353SOL     OW19957   0.092   1.018   6.081
 6353SOL    HW119958   0.157   0.942   6.072
 6353SOL    HW219959   7.025   0.984   6.065
 6354SOL     OW19960   2.036   6.553   3.359
 6354SOL    HW119961   2.125   6.511   3.378
 6354SOL    HW219962   2.014   6.618   3.432
 6355SOL     OW19963   1.069   5.508   5.898
 6355SOL    HW119964   1.051   5.567   5.977
 6355SOL    HW219965   1.001   5.435   5.895
 6356SOL     OW19966   3.568   4.974   2.524
 6356SOL    HW119967   3.475   5.006   2.506
 6356SOL    HW219968   3.595   4.909   2.453
 6357SOL     OW19969   5.214   3.007   2.592
 6357SOL    HW119970   5.207   3.085   2.654
 6357SOL    HW219971   5.309   2.974   2.592
 6358SOL     OW19972   1.432   2.240   6.074
 6358SOL    HW119973   1.479   2.203   6.154
 6358SOL    HW219974   1.409   2.336   6.090
 6359SOL     OW19975   6.276   6.784   5.720
 6359SOL    HW119976   6.228   6.857   5.671
 6359SOL    HW219977   6.350   6.749   5.663
 6360SOL     OW19978   1.833   3.903   4.330
 6360SOL    HW119979   1.767   3.873   4.261
 6360SOL    HW219980   1.887   3.824   4.362
 6361SOL     OW19981   6.023   0.123   0.328
 6361SOL    HW119982   6.045   0.219   0.313
 6361SOL    HW219983   6.096   0.065   0.293
 6362SOL     OW19984   6.726   5.774   0.178
 6362SOL    HW119985   6.673   5.715   0.118
 6362SOL    HW219986   6.820   5.779   0.144
 6363SOL     OW19987   2.385   4.344   3.188
 6363SOL    HW119988   2.294   4.366   3.224
 6363SOL    HW219989   2.376   4.289   3.105
 6364SOL     OW19990   3.048   1.343   5.928
 6364SOL    HW119991   3.061   1.342   5.829
 6364SOL    HW219992   3.124   1.390   5.972
 6365SOL     OW19993   5.458   6.941   4.359
 6365SOL    HW119994   5.484   6.998   4.437
 6365SOL    HW219995   5.534   6.880   4.336
 6366SOL     OW19996   1.141   5.296   6.768
 6366SOL    HW119997   1.234   5.291   6.730
 6366SOL    HW219998   1.115   5.392   6.779
 6367SOL     OW19999   3.680   0.173   4.311
 6367SOL    HW120000   3.664   0.194   4.408
 6367SOL    HW220001   3.777   0.182   4.290
 6368SOL     OW20002   3.373   6.300   3.306
 6368SOL    HW120003   3.433   6.325   3.381
 6368SOL    HW220004   3.293   6.253   3.341
 6369SOL     OW20005   2.180   4.597   4.390
 6369SOL    HW120006   2.150   4.656   4.465
 6369SOL    HW220007   2.231   4.652   4.323
 6370SOL     OW20008   0.767   3.358   2.632
 6370SOL    HW120009   0.734   3.448   2.607
 6370SOL    HW220010   0.854   3.367   2.682
 6371SOL     OW20011   5.161   3.528   4.350
 6371SOL    HW120012   5.232   3.457   4.354
 6371SOL    HW220013   5.115   3.524   4.261
 6372SOL     OW20014   3.540   0.172   1.740
 6372SOL    HW120015   3.512   0.266   1.720
 6372SOL    HW220016   3.632   0.157   1.703
 6373SOL     OW20017   5.382   4.614   3.557
 6373SOL    HW120018   5.319   4.546   3.596
 6373SOL    HW220019   5.337   4.662   3.482
 6374SOL     OW20020   3.359   3.974   4.925
 6374SOL    HW120021   3.416   3.936   4.852
 6374SOL    HW220022   3.404   4.054   4.964
 6375SOL     OW20023   6.884   1.791   4.158
 6375SOL    HW120024   6.832   1.752   4.083
 6375SOL    HW220025   6.942   1.721   4.199
 6376SOL     OW20026   6.303   2.724   5.403
 6376SOL    HW120027   6.323   2.643   5.458
 6376SOL    HW220028   6.217   2.765   5.435
 6377SOL     OW20029   6.167   1.775   5.465
 6377SOL    HW120030   6.228   1.696   5.468
 6377SOL    HW220031   6.219   1.858   5.484
 6378SOL     OW20032   4.843   5.201   3.483
 6378SOL    HW120033   4.759   5.255   3.492
 6378SOL    HW220034   4.847   5.160   3.392
 6379SOL     OW20035   2.246   4.170   4.135
 6379SOL    HW120036   2.229   4.078   4.170
 6379SOL    HW220037   2.171   4.231   4.161
 6380SOL     OW20038   0.749   1.220   6.351
 6380SOL    HW120039   0.830   1.186   6.397
 6380SOL    HW220040   0.667   1.177   6.390
 6381SOL     OW20041   4.040   3.206   1.849
 6381SOL    HW120042   3.979   3.155   1.910
 6381SOL    HW220043   4.098   3.141   1.799
 6382SOL     OW20044   0.852   2.460   0.017
 6382SOL    HW120045   0.879   2.500   0.105
 6382SOL    HW220046   0.846   2.361   0.026
 6383SOL     OW20047   1.967   1.982   3.009
 6383SOL    HW120048   1.983   2.075   2.974
 6383SOL    HW220049   1.968   1.918   2.932
 6384SOL     OW20050   5.212   4.032   1.385
 6384SOL    HW120051   5.250   4.019   1.294
 6384SOL    HW220052   5.120   3.994   1.389
 6385SOL     OW20053   6.591   5.223   4.272
 6385SOL    HW120054   6.542   5.140   4.299
 6385SOL    HW220055   6.658   5.200   4.201
 6386SOL     OW20056   2.195   4.612   6.405
 6386SOL    HW120057   2.143   4.594   6.321
 6386SOL    HW220058   2.293   4.608   6.384
 6387SOL     OW20059   0.908   1.330   6.671
 6387SOL    HW120060   0.928   1.397   6.599
 6387SOL    HW220061   0.985   1.326   6.735
 6388SOL     OW20062   4.125   4.720   1.105
 6388SOL    HW120063   4.147   4.758   1.195
 6388SOL    HW220064   4.156   4.625   1.102
 6389SOL     OW20065   0.716   6.177   2.428
 6389SOL    HW120066   0.651   6.224   2.488
 6389SOL    HW220067   0.724   6.227   2.342
 6390SOL     OW20068   1.121   2.345   4.679
 6390SOL    HW120069   1.089   2.258   4.718
 6390SOL    HW220070   1.150   2.405   4.754
 6391SOL     OW20071   2.929   6.999   5.796
 6391SOL    HW120072   2.842   6.988   5.749
 6391SOL    HW220073   3.002   7.011   5.728
 6392SOL     OW20074   2.582   0.204   3.557
 6392SOL    HW120075   2.518   0.247   3.493
 6392SOL    HW220076   2.658   0.164   3.507
 6393SOL     OW20077   5.815   6.877   1.160
 6393SOL    HW120078   5.765   6.913   1.239
 6393SOL    HW220079   5.752   6.829   1.100
 6394SOL     OW20080   2.415   4.640   1.126
 6394SOL    HW120081   2.375   4.725   1.159
 6394SOL    HW220082   2.348   4.590   1.071
 6395SOL     OW20083   6.483   3.084   2.187
 6395SOL    HW120084   6.463   3.167   2.135
 6395SOL    HW220085   6.582   3.078   2.203
 6396SOL     OW20086   5.628   2.985   6.699
 6396SOL    HW120087   5.701   2.916   6.697
 6396SOL    HW220088   5.667   3.074   6.675
 6397SOL     OW20089   5.705   2.612   6.130
 6397SOL    HW120090   5.786   2.602   6.187
 6397SOL    HW220091   5.624   2.622   6.188
 6398SOL     OW20092   3.041   1.162   0.778
 6398SOL    HW120093   3.011   1.218   0.701
 6398SOL    HW220094   3.010   1.068   0.765
 6399SOL     OW20095   1.269   5.047   6.772
 6399SOL    HW120096   1.198   5.112   6.798
 6399SOL    HW220097   1.234   4.984   6.703
 6400SOL     OW20098   2.477   6.446   2.744
 6400SOL    HW120099   2.475   6.346   2.743
 6400SOL    HW220100   2.552   6.478   2.686
 6401SOL     OW20101   0.315   4.619   3.268
 6401SOL    HW120102   0.216   4.609   3.251
 6401SOL    HW220103   0.343   4.712   3.245
 6402SOL     OW20104   4.375   1.000   3.117
 6402SOL    HW120105   4.357   1.097   3.100
 6402SOL    HW220106   4.351   0.947   3.037
 6403SOL     OW20107   7.000   6.037   6.376
 6403SOL    HW120108   6.910   6.005   6.348
 6403SOL    HW220109   0.043   6.003   6.313
 6404SOL     OW20110   4.272   1.249   3.076
 6404SOL    HW120111   4.250   1.259   2.978
 6404SOL    HW220112   4.190   1.266   3.130
 6405SOL     OW20113   2.076   0.849   3.389
 6405SOL    HW120114   2.125   0.876   3.472
 6405SOL    HW220115   2.118   0.893   3.310
 6406SOL     OW20116   1.451   2.764   3.589
 6406SOL    HW120117   1.491   2.716   3.667
 6406SOL    HW220118   1.501   2.739   3.505
 6407SOL     OW20119   3.053   7.013   3.445
 6407SOL    HW120120   3.118   7.012   3.369
 6407SOL    HW220121   3.038   0.081   3.475
 6408SOL     OW20122   5.913   2.052   0.164
 6408SOL    HW120123   5.952   1.975   0.215
 6408SOL    HW220124   5.814   2.042   0.159
 6409SOL     OW20125   0.475   4.878   3.215
 6409SOL    HW120126   0.496   4.867   3.312
 6409SOL    HW220127   0.405   4.948   3.204
 6410SOL     OW20128   2.106   1.340   0.489
 6410SOL    HW120129   2.197   1.334   0.528
 6410SOL    HW220130   2.041   1.369   0.560
 6411SOL     OW20131   0.187   2.557   3.271
 6411SOL    HW120132   0.231   2.631   3.321
 6411SOL    HW220133   0.116   2.516   3.328
 6412SOL     OW20134   0.144   2.911   5.129
 6412SOL    HW120135   0.048   2.900   5.101
 6412SOL    HW220136   0.202   2.908   5.048
 6413SOL     OW20137   4.108   4.782   3.133
 6413SOL    HW120138   4.125   4.735   3.220
 6413SOL    HW220139   4.164   4.739   3.062
 6414SOL     OW20140   5.748   0.472   1.298
 6414SOL    HW120141   5.735   0.440   1.392
 6414SOL    HW220142   5.823   0.421   1.256
 6415SOL     OW20143   1.999   2.251   2.978
 6415SOL    HW120144   1.907   2.289   2.972
 6415SOL    HW220145   2.065   2.325   2.989
 6416SOL     OW20146   1.187   1.161   6.501
 6416SOL    HW120147   1.162   1.245   6.452
 6416SOL    HW220148   1.270   1.123   6.461
 6417SOL     OW20149   0.169   4.285   2.097
 6417SOL    HW120150   0.238   4.358   2.103
 6417SOL    HW220151   0.215   4.196   2.102
 6418SOL     OW20152   4.935   4.537   1.833
 6418SOL    HW120153   4.984   4.454   1.804
 6418SOL    HW220154   4.836   4.521   1.827
 6419SOL     OW20155   2.399   4.602   2.773
 6419SOL    HW120156   2.343   4.521   2.791
 6419SOL    HW220157   2.341   4.676   2.740
 6420SOL     OW20158   2.891   3.713   5.783
 6420SOL    HW120159   2.889   3.779   5.857
 6420SOL    HW220160   2.957   3.743   5.713
 6421SOL     OW20161   5.573   1.392   2.089
 6421SOL    HW120162   5.511   1.319   2.061
 6421SOL    HW220163   5.530   1.446   2.161
 6422SOL     OW20164   0.170   0.501   4.446
 6422SOL    HW120165   0.147   0.566   4.373
 6422SOL    HW220166   0.240   0.438   4.413
 6423SOL     OW20167   4.613   5.225   2.648
 6423SOL    HW120168   4.611   5.317   2.686
 6423SOL    HW220169   4.708   5.191   2.647
 6424SOL     OW20170   6.662   6.271   5.526
 6424SOL    HW120171   6.594   6.199   5.513
 6424SOL    HW220172   6.632   6.333   5.599
 6425SOL     OW20173   6.399   5.560   3.171
 6425SOL    HW120174   6.320   5.575   3.112
 6425SOL    HW220175   6.468   5.507   3.122
 6426SOL     OW20176   0.515   4.887   3.492
 6426SOL    HW120177   0.587   4.909   3.559
 6426SOL    HW220178   0.481   4.795   3.509
 6427SOL     OW20179   2.213   3.443   6.352
 6427SOL    HW120180   2.165   3.389   6.282
 6427SOL    HW220181   2.154   3.519   6.380
 6428SOL     OW20182   6.651   2.982   6.873
 6428SOL    HW120183   6.681   2.888   6.854
 6428SOL    HW220184   6.599   2.984   6.959
 6429SOL     OW20185   0.728   1.878   5.666
 6429SOL    HW120186   0.767   1.786   5.666
 6429SOL    HW220187   0.729   1.914   5.573
 6430SOL     OW20188   5.347   1.209   2.142
 6430SOL    HW120189   5.321   1.168   2.054
 6430SOL    HW220190   5.271   1.265   2.176
 6431SOL     OW20191   5.484   6.599   3.454
 6431SOL    HW120192   5.505   6.565   3.546
 6431SOL    HW220193   5.558   6.574   3.392
 6432SOL     OW20194   4.565   3.818   0.074
 6432SOL    HW120195   4.591   3.890   0.010
 6432SOL    HW220196   4.570   3.729   0.029
 6433SOL     OW20197   3.812   4.547   0.687
 6433SOL    HW120198   3.821   4.476   0.617
 6433SOL    HW220199   3.733   4.528   0.745
 6434SOL     OW20200   1.913   3.655   0.104
 6434SOL    HW120201   1.826   3.688   0.139
 6434SOL    HW220202   1.963   3.730   0.060
 6435SOL     OW20203   4.014   6.225   6.631
 6435SOL    HW120204   3.946   6.269   6.689
 6435SOL    HW220205   4.037   6.286   6.555
 6436SOL     OW20206   2.130   3.096   3.170
 6436SOL    HW120207   2.125   3.196   3.168
 6436SOL    HW220208   2.038   3.058   3.159
 6437SOL     OW20209   2.345   0.709   1.094
 6437SOL    HW120210   2.379   0.728   1.186
 6437SOL    HW220211   2.248   0.733   1.089
 6438SOL     OW20212   0.643   4.594   6.455
 6438SOL    HW120213   0.711   4.641   6.400
 6438SOL    HW220214   0.552   4.632   6.436
 6439SOL     OW20215   6.404   0.636   1.643
 6439SOL    HW120216   6.322   0.587   1.672
 6439SOL    HW220217   6.435   0.600   1.555
 6440SOL     OW20218   2.215   2.011   1.024
 6440SOL    HW120219   2.293   1.991   0.965
 6440SOL    HW220220   2.130   1.992   0.975
 6441SOL     OW20221   0.967   6.821   2.321
 6441SOL    HW120222   0.877   6.796   2.359
 6441SOL    HW220223   1.004   6.899   2.371
 6442SOL     OW20224   2.679   1.142   3.741
 6442SOL    HW120225   2.747   1.172   3.809
 6442SOL    HW220226   2.650   1.049   3.762
 6443SOL     OW20227   4.106   2.518   6.322
 6443SOL    HW120228   4.203   2.524   6.298
 6443SOL    HW220229   4.089   2.431   6.370
 6444SOL     OW20230   0.313   2.619   3.978
 6444SOL    HW120231   0.216   2.595   3.982
 6444SOL    HW220232   0.349   2.629   4.071
 6445SOL     OW20233   5.018   2.892   5.700
 6445SOL    HW120234   5.076   2.812   5.686
 6445SOL    HW220235   4.935   2.883   5.645
 6446SOL     OW20236   1.117   0.889   6.281
 6446SOL    HW120237   1.202   0.943   6.279
 6446SOL    HW220238   1.118   0.824   6.205
 6447SOL     OW20239   0.160   5.520   2.457
 6447SOL    HW120240   0.259   5.523   2.469
 6447SOL    HW220241   0.116   5.546   2.543
 6448SOL     OW20242   4.931   4.446   2.743
 6448SOL    HW120243   4.942   4.511   2.668
 6448SOL    HW220244   4.841   4.402   2.737
 6449SOL     OW20245   2.638   4.507   0.196
 6449SOL    HW120246   2.737   4.520   0.197
 6449SOL    HW220247   2.596   4.577   0.137
 6450SOL     OW20248   0.334   3.579   1.587
 6450SOL    HW120249   0.383   3.510   1.641
 6450SOL    HW220250   0.238   3.581   1.615
 6451SOL     OW20251   2.536   6.641   5.201
 6451SOL    HW120252   2.456   6.701   5.210
 6451SOL    HW220253   2.610   6.691   5.157
 6452SOL     OW20254   3.315   6.295   4.686
 6452SOL    HW120255   3.351   6.230   4.619
 6452SOL    HW220256   3.378   6.372   4.696
 6453SOL     OW20257   1.280   6.755   0.265
 6453SOL    HW120258   1.325   6.771   0.178
 6453SOL    HW220259   1.269   6.842   0.314
 6454SOL     OW20260   3.453   1.257   2.875
 6454SOL    HW120261   3.502   1.316   2.811
 6454SOL    HW220262   3.397   1.313   2.936
 6455SOL     OW20263   0.296   1.969   4.297
 6455SOL    HW120264   0.237   1.910   4.352
 6455SOL    HW220265   0.357   2.021   4.357
 6456SOL     OW20266   1.874   0.967   3.696
 6456SOL    HW120267   1.903   1.035   3.629
 6456SOL    HW220268   1.775   0.954   3.690
 6457SOL     OW20269   5.181   1.542   1.052
 6457SOL    HW120270   5.167   1.541   0.953
 6457SOL    HW220271   5.276   1.565   1.073
 6458SOL     OW20272   0.584   0.007   3.393
 6458SOL    HW120273   0.637   0.017   3.477
 6458SOL    HW220274   0.644   0.018   3.314
 6459SOL     OW20275   6.087   4.939   0.443
 6459SOL    HW120276   6.094   5.038   0.438
 6459SOL    HW220277   6.021   4.914   0.514
 6460SOL     OW20278   4.531   5.293   5.703
 6460SOL    HW120279   4.500   5.382   5.669
 6460SOL    HW220280   4.481   5.220   5.655
 6461SOL     OW20281   2.779   4.841   5.186
 6461SOL    HW120282   2.819   4.830   5.277
 6461SOL    HW220283   2.795   4.758   5.133
 6462SOL     OW20284   2.383   2.689   4.929
 6462SOL    HW120285   2.373   2.782   4.964
 6462SOL    HW220286   2.445   2.688   4.851
 6463SOL     OW20287   1.280   3.616   6.990
 6463SOL    HW120288   1.368   3.590   6.952
 6463SOL    HW220289   1.216   3.637   6.916
 6464SOL     OW20290   1.023   5.486   4.559
 6464SOL    HW120291   1.002   5.404   4.507
 6464SOL    HW220292   1.044   5.461   4.654
 6465SOL     OW20293   6.160   2.440   3.897
 6465SOL    HW120294   6.126   2.486   3.815
 6465SOL    HW220295   6.241   2.488   3.931
 6466SOL     OW20296   1.066   1.348   6.917
 6466SOL    HW120297   0.979   1.352   6.965
 6466SOL    HW220298   1.089   1.438   6.881
 6467SOL     OW20299   2.900   0.766   0.067
 6467SOL    HW120300   2.891   0.824   0.149
 6467SOL    HW220301   2.992   0.775   0.030
 6468SOL     OW20302   4.147   6.440   1.891
 6468SOL    HW120303   4.085   6.479   1.959
 6468SOL    HW220304   4.224   6.395   1.937
 6469SOL     OW20305   4.491   0.943   5.410
 6469SOL    HW120306   4.420   1.013   5.406
 6469SOL    HW220307   4.474   0.882   5.488
 6470SOL     OW20308   5.816   5.663   6.587
 6470SOL    HW120309   5.820   5.564   6.604
 6470SOL    HW220310   5.884   5.709   6.645
 6471SOL     OW20311   6.348   6.269   5.714
 6471SOL    HW120312   6.392   6.183   5.738
 6471SOL    HW220313   6.286   6.297   5.788
 6472SOL     OW20314   0.617   4.184   1.101
 6472SOL    HW120315   0.609   4.201   1.003
 6472SOL    HW220316   0.539   4.130   1.132
 6473SOL     OW20317   1.964   1.704   4.334
 6473SOL    HW120318   1.968   1.803   4.321
 6473SOL    HW220319   1.956   1.659   4.245
 6474SOL     OW20320   2.103   3.791   5.945
 6474SOL    HW120321   2.041   3.737   6.002
 6474SOL    HW220322   2.166   3.729   5.897
 6475SOL     OW20323   6.755   5.208   4.494
 6475SOL    HW120324   6.689   5.195   4.420
 6475SOL    HW220325   6.753   5.128   4.554
 6476SOL     OW20326   4.357   3.540   1.338
 6476SOL    HW120327   4.312   3.466   1.388
 6476SOL    HW220328   4.295   3.577   1.269
 6477SOL     OW20329   6.949   5.028   1.020
 6477SOL    HW120330   6.957   4.929   1.030
 6477SOL    HW220331   6.862   5.059   1.058
 6478SOL     OW20332   3.806   6.067   2.362
 6478SOL    HW120333   3.785   5.974   2.391
 6478SOL    HW220334   3.905   6.076   2.347
 6479SOL     OW20335   3.835   5.518   3.446
 6479SOL    HW120336   3.869   5.607   3.415
 6479SOL    HW220337   3.888   5.489   3.526
 6480SOL     OW20338   2.981   2.334   5.513
 6480SOL    HW120339   3.024   2.252   5.550
 6480SOL    HW220340   2.976   2.405   5.583
 6481SOL     OW20341   3.218   2.118   2.480
 6481SOL    HW120342   3.178   2.031   2.450
 6481SOL    HW220343   3.161   2.193   2.448
 6482SOL     OW20344   0.492   0.846   6.238
 6482SOL    HW120345   0.414   0.796   6.276
 6482SOL    HW220346   0.566   0.849   6.306
 6483SOL     OW20347   2.391   5.735   1.924
 6483SOL    HW120348   2.433   5.664   1.980
 6483SOL    HW220349   2.418   5.825   1.959
 6484SOL     OW20350   4.081   1.010   2.786
 6484SOL    HW120351   4.169   0.968   2.808
 6484SOL    HW220352   4.047   0.973   2.700
 6485SOL     OW20353   1.863   3.828   2.902
 6485SOL    HW120354   1.900   3.906   2.953
 6485SOL    HW220355   1.934   3.793   2.840
 6486SOL     OW20356   1.746   4.218   4.657
 6486SOL    HW120357   1.739   4.310   4.695
 6486SOL    HW220358   1.658   4.171   4.667
 6487SOL     OW20359   6.725   5.896   4.905
 6487SOL    HW120360   6.640   5.945   4.886
 6487SOL    HW220361   6.778   5.887   4.821
 6488SOL     OW20362   3.187   6.010   5.495
 6488SOL    HW120363   3.179   5.971   5.404
 6488SOL    HW220364   3.095   6.025   5.533
 6489SOL     OW20365   2.804   3.271   6.772
 6489SOL    HW120366   2.863   3.192   6.756
 6489SOL    HW220367   2.797   3.324   6.687
 6490SOL     OW20368   4.295   1.914   6.553
 6490SOL    HW120369   4.202   1.944   6.534
 6490SOL    HW220370   4.301   1.886   6.649
 6491SOL     OW20371   4.374   1.128   6.527
 6491SOL    HW120372   4.296   1.105   6.468
 6491SOL    HW220373   4.382   1.060   6.600
 6492SOL     OW20374   5.508   5.873   0.072
 6492SOL    HW120375   5.476   5.901   7.007
 6492SOL    HW220376   5.528   5.775   0.071
 6493SOL     OW20377   1.339   5.669   4.452
 6493SOL    HW120378   1.298   5.670   4.543
 6493SOL    HW220379   1.269   5.688   4.384
 6494SOL     OW20380   0.459   1.121   3.141
 6494SOL    HW120381   0.410   1.204   3.167
 6494SOL    HW220382   0.416   1.081   3.060
 6495SOL     OW20383   4.508   6.214   4.282
 6495SOL    HW120384   4.601   6.190   4.312
 6495SOL    HW220385   4.477   6.294   4.332
 6496SOL     OW20386   0.291   0.017   1.894
 6496SOL    HW120387   0.206   0.022   1.842
 6496SOL    HW220388   0.288   0.084   1.969
 6497SOL     OW20389   2.442   3.715   0.057
 6497SOL    HW120390   2.401   3.625   0.071
 6497SOL    HW220391   2.540   3.711   0.075
 6498SOL     OW20392   2.350   4.307   3.900
 6498SOL    HW120393   2.400   4.387   3.932
 6498SOL    HW220394   2.346   4.238   3.973
 6499SOL     OW20395   5.412   2.138   5.096
 6499SOL    HW120396   5.353   2.176   5.025
 6499SOL    HW220397   5.431   2.042   5.075
 6500SOL     OW20398   6.858   4.965   3.718
 6500SOL    HW120399   6.804   5.030   3.665
 6500SOL    HW220400   6.801   4.926   3.791
 6501SOL     OW20401   6.931   2.857   6.631
 6501SOL    HW120402   6.938   2.798   6.712
 6501SOL    HW220403   6.890   2.805   6.556
 6502SOL     OW20404   6.392   4.081   2.044
 6502SOL    HW120405   6.319   4.148   2.036
 6502SOL    HW220406   6.476   4.119   2.005
 6503SOL     OW20407   5.420   0.263   4.221
 6503SOL    HW120408   5.479   0.285   4.143
 6503SOL    HW220409   5.349   0.199   4.192
 6504SOL     OW20410   4.788   6.430   6.063
 6504SOL    HW120411   4.886   6.447   6.058
 6504SOL    HW220412   4.741   6.513   6.094
 6505SOL     OW20413   5.555   4.746   1.279
 6505SOL    HW120414   5.616   4.669   1.295
 6505SOL    HW220415   5.461   4.714   1.271
 6506SOL     OW20416   6.670   3.540   1.550
 6506SOL    HW120417   6.597   3.549   1.618
 6506SOL    HW220418   6.640   3.478   1.477
 6507SOL     OW20419   1.475   5.683   5.350
 6507SOL    HW120420   1.503   5.761   5.405
 6507SOL    HW220421   1.394   5.640   5.391
 6508SOL     OW20422   2.477   1.428   3.488
 6508SOL    HW120423   2.473   1.415   3.587
 6508SOL    HW220424   2.570   1.412   3.456
 6509SOL     OW20425   2.683   2.408   3.773
 6509SOL    HW120426   2.749   2.446   3.838
 6509SOL    HW220427   2.727   2.335   3.721
 6510SOL     OW20428   6.974   4.955   6.759
 6510SOL    HW120429   6.921   4.988   6.837
 6510SOL    HW220430   0.037   4.922   6.790
 6511SOL     OW20431   5.337   0.832   5.072
 6511SOL    HW120432   5.324   0.771   4.994
 6511SOL    HW220433   5.365   0.922   5.040
 6512SOL     OW20434   5.281   0.596   1.825
 6512SOL    HW120435   5.333   0.607   1.910
 6512SOL    HW220436   5.345   0.592   1.748
 6513SOL     OW20437   3.425   5.203   3.223
 6513SOL    HW120438   3.504   5.244   3.268
 6513SOL    HW220439   3.343   5.223   3.277
 6514SOL     OW20440   5.827   7.016   3.252
 6514SOL    HW120441   5.811   0.037   3.165
 6514SOL    HW220442   5.793   0.045   3.327
 6515SOL     OW20443   0.774   5.114   4.069
 6515SOL    HW120444   0.840   5.183   4.098
 6515SOL    HW220445   0.818   5.047   4.010
 6516SOL     OW20446   0.554   3.245   1.004
 6516SOL    HW120447   0.604   3.302   0.939
 6516SOL    HW220448   0.481   3.197   0.956
 6517SOL     OW20449   6.558   1.184   0.988
 6517SOL    HW120450   6.481   1.181   1.053
 6517SOL    HW220451   6.643   1.162   1.036
 6518SOL     OW20452   0.261   6.880   6.707
 6518SOL    HW120453   0.169   6.889   6.746
 6518SOL    HW220454   0.307   6.802   6.748
 6519SOL     OW20455   2.583   1.821   3.632
 6519SOL    HW120456   2.599   1.916   3.607
 6519SOL    HW220457   2.485   1.808   3.650
 6520SOL     OW20458   5.980   5.662   2.614
 6520SOL    HW120459   6.031   5.618   2.539
 6520SOL    HW220460   5.919   5.595   2.656
 6521SOL     OW20461   1.358   2.114   4.148
 6521SOL    HW120462   1.283   2.117   4.214
 6521SOL    HW220463   1.327   2.070   4.064
 6522SOL     OW20464   3.472   4.234   0.014
 6522SOL    HW120465   3.487   4.161   0.081
 6522SOL    HW220466   3.552   4.293   0.010
 6523SOL     OW20467   3.133   0.765   6.979
 6523SOL    HW120468   3.222   0.784   7.021
 6523SOL    HW220469   3.141   0.683   6.923
 6524SOL     OW20470   3.196   3.001   3.018
 6524SOL    HW120471   3.153   2.960   2.937
 6524SOL    HW220472   3.282   3.044   2.992
 6525SOL     OW20473   1.753   3.185   2.841
 6525SOL    HW120474   1.731   3.162   2.746
 6525SOL    HW220475   1.759   3.285   2.851
 6526SOL     OW20476   1.648   6.866   5.318
 6526SOL    HW120477   1.673   6.925   5.395
 6526SOL    HW220478   1.607   6.781   5.352
 6527SOL     OW20479   0.886   1.603   4.547
 6527SOL    HW120480   0.844   1.671   4.606
 6527SOL    HW220481   0.909   1.645   4.459
 6528SOL     OW20482   6.894   0.937   3.632
 6528SOL    HW120483   6.929   0.988   3.711
 6528SOL    HW220484   6.926   0.843   3.636
 6529SOL     OW20485   6.789   1.352   3.289
 6529SOL    HW120486   6.724   1.408   3.342
 6529SOL    HW220487   6.842   1.295   3.351
 6530SOL     OW20488   6.577   3.378   1.328
 6530SOL    HW120489   6.494   3.323   1.336
 6530SOL    HW220490   6.564   3.445   1.255
 6531SOL     OW20491   5.641   3.819   4.913
 6531SOL    HW120492   5.685   3.756   4.848
 6531SOL    HW220493   5.711   3.859   4.972
 6532SOL     OW20494   6.402   0.731   6.977
 6532SOL    HW120495   6.365   0.728   6.884
 6532SOL    HW220496   6.387   0.642   7.021
 6533SOL     OW20497   4.719   6.287   1.428
 6533SOL    HW120498   4.643   6.223   1.445
 6533SOL    HW220499   4.683   6.371   1.388
 6534SOL     OW20500   2.854   4.423   1.376
 6534SOL    HW120501   2.789   4.380   1.314
 6534SOL    HW220502   2.927   4.357   1.398
 6535SOL     OW20503   0.065   3.485   4.125
 6535SOL    HW120504   0.017   3.411   4.171
 6535SOL    HW220505   0.006   3.567   4.124
 6536SOL     OW20506   0.174   2.715   5.788
 6536SOL    HW120507   0.125   2.775   5.725
 6536SOL    HW220508   0.181   2.759   5.878
 6537SOL     OW20509   5.936   5.399   0.170
 6537SOL    HW120510   5.857   5.356   0.213
 6537SOL    HW220511   6.020   5.367   0.215
 6538SOL     OW20512   3.862   4.529   0.156
 6538SOL    HW120513   3.789   4.505   0.220
 6538SOL    HW220514   3.862   4.628   0.141
 6539SOL     OW20515   3.039   1.251   6.300
 6539SOL    HW120516   3.093   1.208   6.373
 6539SOL    HW220517   3.031   1.187   6.224
 6540SOL     OW20518   4.870   1.863   5.249
 6540SOL    HW120519   4.780   1.832   5.219
 6540SOL    HW220520   4.919   1.788   5.292
 6541SOL     OW20521   4.023   1.901   5.053
 6541SOL    HW120522   4.113   1.872   5.085
 6541SOL    HW220523   4.020   2.001   5.049
 6542SOL     OW20524   6.730   5.110   3.545
 6542SOL    HW120525   6.782   5.142   3.466
 6542SOL    HW220526   6.638   5.151   3.544
 6543SOL     OW20527   6.420   3.685   0.050
 6543SOL    HW120528   6.512   3.648   0.038
 6543SOL    HW220529   6.422   3.784   0.037
 6544SOL     OW20530   0.488   5.961   2.812
 6544SOL    HW120531   0.554   6.035   2.824
 6544SOL    HW220532   0.396   5.996   2.825
 6545SOL     OW20533   5.522   1.961   6.483
 6545SOL    HW120534   5.465   1.916   6.414
 6545SOL    HW220535   5.487   2.053   6.500
 6546SOL     OW20536   4.770   4.185   6.600
 6546SOL    HW120537   4.675   4.156   6.596
 6546SOL    HW220538   4.826   4.109   6.635
 6547SOL     OW20539   4.889   1.578   6.049
 6547SOL    HW120540   4.870   1.521   5.970
 6547SOL    HW220541   4.804   1.620   6.081
 6548SOL     OW20542   1.002   3.372   6.882
 6548SOL    HW120543   1.050   3.458   6.866
 6548SOL    HW220544   1.068   3.297   6.885
 6549SOL     OW20545   4.014   1.463   0.722
 6549SOL    HW120546   3.969   1.498   0.639
 6549SOL    HW220547   4.063   1.537   0.767
 6550SOL     OW20548   0.118   6.582   3.446
 6550SOL    HW120549   0.070   6.644   3.509
 6550SOL    HW220550   0.184   6.635   3.392
 6551SOL     OW20551   1.961   4.092   1.774
 6551SOL    HW120552   2.008   4.071   1.688
 6551SOL    HW220553   1.903   4.015   1.800
 6552SOL     OW20554   2.316   6.797   5.219
 6552SOL    HW120555   2.276   6.733   5.284
 6552SOL    HW220556   2.246   6.832   5.158
 6553SOL     OW20557   0.506   1.592   2.394
 6553SOL    HW120558   0.438   1.522   2.417
 6553SOL    HW220559   0.574   1.597   2.467
 6554SOL     OW20560   6.446   1.398   5.842
 6554SOL    HW120561   6.367   1.447   5.879
 6554SOL    HW220562   6.456   1.310   5.888
 6555SOL     OW20563   1.291   1.880   1.661
 6555SOL    HW120564   1.379   1.899   1.705
 6555SOL    HW220565   1.269   1.783   1.669
 6556SOL     OW20566   4.655   4.741   5.001
 6556SOL    HW120567   4.671   4.735   4.902
 6556SOL    HW220568   4.738   4.775   5.046
 6557SOL     OW20569   4.882   5.502   1.184
 6557SOL    HW120570   4.906   5.594   1.150
 6557SOL    HW220571   4.958   5.467   1.239
 6558SOL     OW20572   6.061   5.774   0.665
 6558SOL    HW120573   6.102   5.771   0.756
 6558SOL    HW220574   5.985   5.838   0.664
 6559SOL     OW20575   6.750   4.072   6.569
 6559SOL    HW120576   6.726   4.058   6.665
 6559SOL    HW220577   6.833   4.021   6.548
 6560SOL     OW20578   3.520   3.096   1.243
 6560SOL    HW120579   3.553   3.190   1.253
 6560SOL    HW220580   3.425   3.097   1.210
 6561SOL     OW20581   3.742   3.710   2.546
 6561SOL    HW120582   3.769   3.614   2.542
 6561SOL    HW220583   3.645   3.717   2.569
 6562SOL     OW20584   5.622   4.521   6.908
 6562SOL    HW120585   5.616   4.600   6.847
 6562SOL    HW220586   5.581   4.544   6.996
 6563SOL     OW20587   0.312   6.206   0.036
 6563SOL    HW120588   0.381   6.277   0.051
 6563SOL    HW220589   0.234   6.222   0.096
 6564SOL     OW20590   6.940   4.262   2.312
 6564SOL    HW120591   6.855   4.215   2.290
 6564SOL    HW220592   6.953   4.339   2.248
 6565SOL     OW20593   5.946   2.350   4.042
 6565SOL    HW120594   5.921   2.401   4.124
 6565SOL    HW220595   6.023   2.395   3.996
 6566SOL     OW20596   3.177   6.933   0.881
 6566SOL    HW120597   3.226   6.865   0.936
 6566SOL    HW220598   3.202   6.923   0.785
 6567SOL     OW20599   3.961   2.351   1.272
 6567SOL    HW120600   3.891   2.343   1.201
 6567SOL    HW220601   4.028   2.421   1.244
 6568SOL     OW20602   4.864   5.506   2.948
 6568SOL    HW120603   4.874   5.464   3.038
 6568SOL    HW220604   4.795   5.579   2.953
 6569SOL     OW20605   3.892   3.988   0.562
 6569SOL    HW120606   3.824   4.039   0.615
 6569SOL    HW220607   3.857   3.897   0.541
 6570SOL     OW20608   4.521   6.948   1.762
 6570SOL    HW120609   4.423   6.967   1.764
 6570SOL    HW220610   4.570   0.004   1.733
 6571SOL     OW20611   3.056   6.501   1.983
 6571SOL    HW120612   3.101   6.423   1.940
 6571SOL    HW220613   3.111   6.533   2.060
 6572SOL     OW20614   6.607   5.395   5.361
 6572SOL    HW120615   6.699   5.382   5.325
 6572SOL    HW220616   6.612   5.433   5.454
 6573SOL     OW20617   2.923   1.243   2.917
 6573SOL    HW120618   2.915   1.310   2.842
 6573SOL    HW220619   2.987   1.171   2.891
 6574SOL     OW20620   3.118   5.969   2.252
 6574SOL    HW120621   3.094   6.050   2.198
 6574SOL    HW220622   3.105   5.887   2.196
 6575SOL     OW20623   1.043   1.615   1.676
 6575SOL    HW120624   1.092   1.580   1.756
 6575SOL    HW220625   1.054   1.552   1.600
 6576SOL     OW20626   1.397   6.780   6.790
 6576SOL    HW120627   1.392   6.706   6.723
 6576SOL    HW220628   1.470   6.843   6.765
 6577SOL     OW20629   0.249   1.966   3.492
 6577SOL    HW120630   0.281   1.914   3.413
 6577SOL    HW220631   0.320   1.967   3.563
 6578SOL     OW20632   0.559   4.385   2.701
 6578SOL    HW120633   0.476   4.439   2.683
 6578SOL    HW220634   0.627   4.404   2.630
 6579SOL     OW20635   0.153   3.900   4.450
 6579SOL    HW120636   0.179   3.992   4.481
 6579SOL    HW220637   0.222   3.864   4.388
 6580SOL     OW20638   6.990   1.377   1.278
 6580SOL    HW120639   0.016   1.379   1.364
 6580SOL    HW220640   6.910   1.437   1.287
 6581SOL     OW20641   3.173   1.139   6.536
 6581SOL    HW120642   3.216   1.079   6.604
 6581SOL    HW220643   3.238   1.211   6.510
 6582SOL     OW20644   1.540   0.662   1.898
 6582SOL    HW120645   1.597   0.591   1.856
 6582SOL    HW220646   1.491   0.624   1.976
 6583SOL     OW20647   4.152   0.165   5.431
 6583SOL    HW120648   4.095   0.241   5.399
 6583SOL    HW220649   4.133   0.147   5.527
 6584SOL     OW20650   5.148   1.670   0.397
 6584SOL    HW120651   5.124   1.735   0.469
 6584SOL    HW220652   5.121   1.707   0.308
 6585SOL     OW20653   6.819   0.864   0.484
 6585SOL    HW120654   6.833   0.911   0.571
 6585SOL    HW220655   6.721   0.862   0.462
 6586SOL     OW20656   6.367   2.484   6.068
 6586SOL    HW120657   6.322   2.458   5.983
 6586SOL    HW220658   6.297   2.513   6.134
 6587SOL     OW20659   3.032   5.672   4.059
 6587SOL    HW120660   3.072   5.586   4.026
 6587SOL    HW220661   3.042   5.742   3.988
 6588SOL     OW20662   1.833   3.868   1.811
 6588SOL    HW120663   1.817   3.870   1.910
 6588SOL    HW220664   1.877   3.782   1.785
 6589SOL     OW20665   4.735   0.446   6.535
 6589SOL    HW120666   4.658   0.491   6.489
 6589SOL    HW220667   4.702   0.363   6.581
 6590SOL     OW20668   0.785   1.276   6.068
 6590SOL    HW120669   0.759   1.372   6.063
 6590SOL    HW220670   0.758   1.238   6.156
 6591SOL     OW20671   4.642   6.248   2.588
 6591SOL    HW120672   4.608   6.322   2.530
 6591SOL    HW220673   4.677   6.286   2.674
 6592SOL     OW20674   5.937   6.477   4.194
 6592SOL    HW120675   5.981   6.565   4.209
 6592SOL    HW220676   5.882   6.481   4.110
 6593SOL     OW20677   2.511   2.053   3.464
 6593SOL    HW120678   2.489   2.073   3.368
 6593SOL    HW220679   2.441   2.093   3.523
 6594SOL     OW20680   4.121   1.671   0.449
 6594SOL    HW120681   4.073   1.597   0.402
 6594SOL    HW220682   4.144   1.644   0.542
 6595SOL     OW20683   0.694   3.449   0.798
 6595SOL    HW120684   0.791   3.458   0.776
 6595SOL    HW220685   0.658   3.537   0.829
 6596SOL     OW20686   3.396   6.768   4.944
 6596SOL    HW120687   3.352   6.816   5.020
 6596SOL    HW220688   3.335   6.767   4.865
 6597SOL     OW20689   1.340   6.154   3.069
 6597SOL    HW120690   1.355   6.059   3.094
 6597SOL    HW220691   1.423   6.207   3.088
 6598SOL     OW20692   0.890   0.285   4.577
 6598SOL    HW120693   0.962   0.351   4.555
 6598SOL    HW220694   0.913   0.197   4.537
 6599SOL     OW20695   3.433   5.560   5.571
 6599SOL    HW120696   3.445   5.638   5.633
 6599SOL    HW220697   3.338   5.559   5.538
 6600SOL     OW20698   4.474   5.224   5.946
 6600SOL    HW120699   4.526   5.263   5.870
 6600SOL    HW220700   4.433   5.297   6.000
 6601SOL     OW20701   0.774   0.818   0.044
 6601SOL    HW120702   0.765   0.748   6.998
 6601SOL    HW220703   0.794   0.906   0.002
 6602SOL     OW20704   6.592   1.212   1.933
 6602SOL    HW120705   6.612   1.143   1.864
 6602SOL    HW220706   6.599   1.172   2.024
 6603SOL     OW20707   0.817   2.727   4.234
 6603SOL    HW120708   0.855   2.679   4.313
 6603SOL    HW220709   0.749   2.794   4.264
 6604SOL     OW20710   2.234   6.506   0.877
 6604SOL    HW120711   2.242   6.408   0.899
 6604SOL    HW220712   2.250   6.520   0.780
 6605SOL     OW20713   5.559   4.571   0.545
 6605SOL    HW120714   5.467   4.572   0.584
 6605SOL    HW220715   5.616   4.507   0.597
 6606SOL     OW20716   5.487   0.025   2.361
 6606SOL    HW120717   5.435   0.102   2.398
 6606SOL    HW220718   5.574   0.058   2.325
 6607SOL     OW20719   1.462   2.181   1.375
 6607SOL    HW120720   1.416   2.093   1.374
 6607SOL    HW220721   1.522   2.187   1.454
 6608SOL     OW20722   5.182   5.338   1.890
 6608SOL    HW120723   5.208   5.244   1.866
 6608SOL    HW220724   5.118   5.373   1.822
 6609SOL     OW20725   4.479   0.748   6.131
 6609SOL    HW120726   4.397   0.740   6.188
 6609SOL    HW220727   4.534   0.825   6.163
 6610SOL     OW20728   2.341   1.105   6.157
 6610SOL    HW120729   2.281   1.033   6.192
 6610SOL    HW220730   2.435   1.088   6.187
 6611SOL     OW20731   6.372   2.618   3.178
 6611SOL    HW120732   6.307   2.694   3.166
 6611SOL    HW220733   6.437   2.618   3.102
 6612SOL     OW20734   0.245   2.674   6.725
 6612SOL    HW120735   0.220   2.747   6.790
 6612SOL    HW220736   0.341   2.683   6.701
 6613SOL     OW20737   5.515   5.696   4.309
 6613SOL    HW120738   5.589   5.691   4.376
 6613SOL    HW220739   5.526   5.778   4.253
 6614SOL     OW20740   4.996   6.026   6.881
 6614SOL    HW120741   5.000   6.105   6.943
 6614SOL    HW220742   5.081   5.974   6.888
 6615SOL     OW20743   1.213   4.762   3.822
 6615SOL    HW120744   1.149   4.752   3.897
 6615SOL    HW220745   1.241   4.858   3.813
 6616SOL     OW20746   4.150   1.032   6.412
 6616SOL    HW120747   4.199   0.964   6.358
 6616SOL    HW220748   4.090   0.986   6.478
 6617SOL     OW20749   3.175   5.993   3.141
 6617SOL    HW120750   3.156   6.060   3.213
 6617SOL    HW220751   3.133   6.024   3.055
 6618SOL     OW20752   1.036   3.237   3.189
 6618SOL    HW120753   1.055   3.336   3.193
 6618SOL    HW220754   1.068   3.194   3.273
 6619SOL     OW20755   0.048   6.756   4.383
 6619SOL    HW120756   6.990   6.733   4.334
 6619SOL    HW220757   0.070   6.682   4.447
 6620SOL     OW20758   2.409   2.792   5.313
 6620SOL    HW120759   2.398   2.888   5.287
 6620SOL    HW220760   2.436   2.739   5.234
 6621SOL     OW20761   2.234   3.106   6.992
 6621SOL    HW120762   2.286   3.045   6.932
 6621SOL    HW220763   2.219   3.061   0.054
 6622SOL     OW20764   5.933   6.046   1.462
 6622SOL    HW120765   5.903   6.002   1.547
 6622SOL    HW220766   6.009   6.108   1.482
 6623SOL     OW20767   2.616   3.622   1.071
 6623SOL    HW120768   2.691   3.658   1.126
 6623SOL    HW220769   2.529   3.649   1.113
 6624SOL     OW20770   1.834   0.554   4.212
 6624SOL    HW120771   1.737   0.568   4.235
 6624SOL    HW220772   1.874   0.642   4.185
 6625SOL     OW20773   5.071   1.832   5.998
 6625SOL    HW120774   5.150   1.823   5.937
 6625SOL    HW220775   4.998   1.770   5.968
 6626SOL     OW20776   4.068   4.872   4.791
 6626SOL    HW120777   4.072   4.953   4.850
 6626SOL    HW220778   4.011   4.892   4.711
 6627SOL     OW20779   2.485   0.805   6.031
 6627SOL    HW120780   2.543   0.881   6.059
 6627SOL    HW220781   2.537   0.720   6.035
 6628SOL     OW20782   4.450   5.029   4.233
 6628SOL    HW120783   4.506   5.080   4.299
 6628SOL    HW220784   4.498   4.945   4.207
 6629SOL     OW20785   2.660   5.558   6.721
 6629SOL    HW120786   2.695   5.618   6.792
 6629SOL    HW220787   2.717   5.476   6.715
 6630SOL     OW20788   3.359   1.375   1.594
 6630SOL    HW120789   3.406   1.463   1.604
 6630SOL    HW220790   3.270   1.390   1.551
 6631SOL     OW20791   4.150   0.318   2.287
 6631SOL    HW120792   4.140   0.417   2.290
 6631SOL    HW220793   4.061   0.275   2.271
 6632SOL     OW20794   0.548   0.337   1.788
 6632SOL    HW120795   0.575   0.243   1.771
 6632SOL    HW220796   0.597   0.372   1.868
 6633SOL     OW20797   1.173   4.560   5.739
 6633SOL    HW120798   1.247   4.510   5.694
 6633SOL    HW220799   1.183   4.658   5.720
 6634SOL     OW20800   5.994   2.726   5.054
 6634SOL    HW120801   6.048   2.654   5.097
 6634SOL    HW220802   5.948   2.690   4.973
 6635SOL     OW20803   4.076   5.261   3.517
 6635SOL    HW120804   4.164   5.241   3.561
 6635SOL    HW220805   4.082   5.238   3.420
 6636SOL     OW20806   3.421   2.061   6.085
 6636SOL    HW120807   3.497   2.028   6.140
 6636SOL    HW220808   3.346   2.090   6.145
 6637SOL     OW20809   1.511   0.131   6.248
 6637SOL    HW120810   1.463   0.061   6.301
 6637SOL    HW220811   1.495   0.221   6.289
 6638SOL     OW20812   3.912   4.591   5.378
 6638SOL    HW120813   3.857   4.673   5.393
 6638SOL    HW220814   4.002   4.617   5.343
 6639SOL     OW20815   5.619   5.594   0.097
 6639SOL    HW120816   5.580   5.511   0.058
 6639SOL    HW220817   5.698   5.622   0.042
 6640SOL     OW20818   0.064   2.070   5.144
 6640SOL    HW120819   0.128   2.146   5.137
 6640SOL    HW220820   0.112   1.984   5.123
 6641SOL     OW20821   2.233   2.475   6.864
 6641SOL    HW120822   2.141   2.492   6.901
 6641SOL    HW220823   2.229   2.474   6.764
 6642SOL     OW20824   2.400   5.572   0.336
 6642SOL    HW120825   2.369   5.650   0.390
 6642SOL    HW220826   2.326   5.504   0.330
 6643SOL     OW20827   6.451   4.514   6.716
 6643SOL    HW120828   6.378   4.570   6.757
 6643SOL    HW220829   6.414   4.466   6.637
 6644SOL     OW20830   3.018   4.808   1.802
 6644SOL    HW120831   2.976   4.756   1.728
 6644SOL    HW220832   2.975   4.783   1.889
 6645SOL     OW20833   0.031   5.134   0.218
 6645SOL    HW120834   0.109   5.183   0.258
 6645SOL    HW220835   0.046   5.121   0.120
 6646SOL     OW20836   3.504   6.523   4.603
 6646SOL    HW120837   3.584   6.528   4.543
 6646SOL    HW220838   3.421   6.523   4.547
 6647SOL     OW20839   3.883   1.105   2.177
 6647SOL    HW120840   3.855   1.151   2.093
 6647SOL    HW220841   3.941   1.166   2.231
 6648SOL     OW20842   3.617   5.668   2.185
 6648SOL    HW120843   3.640   5.670   2.088
 6648SOL    HW220844   3.518   5.682   2.196
 6649SOL     OW20845   4.872   1.564   0.211
 6649SOL    HW120846   4.867   1.579   0.309
 6649SOL    HW220847   4.868   1.466   0.191
 6650SOL     OW20848   4.033   1.060   5.308
 6650SOL    HW120849   4.091   1.028   5.233
 6650SOL    HW220850   3.970   1.129   5.274
 6651SOL     OW20851   2.175   1.666   6.785
 6651SOL    HW120852   2.230   1.643   6.866
 6651SOL    HW220853   2.153   1.763   6.786
 6652SOL     OW20854   6.596   5.188   0.551
 6652SOL    HW120855   6.552   5.247   0.484
 6652SOL    HW220856   6.650   5.244   0.614
 6653SOL     OW20857   3.527   3.147   2.609
 6653SOL    HW120858   3.555   3.205   2.532
 6653SOL    HW220859   3.438   3.177   2.643
 6654SOL     OW20860   1.814   3.169   0.928
 6654SOL    HW120861   1.829   3.071   0.939
 6654SOL    HW220862   1.754   3.184   0.849
 6655SOL     OW20863   3.375   6.849   1.259
 6655SOL    HW120864   3.457   6.801   1.289
 6655SOL    HW220865   3.401   6.931   1.209
 6656SOL     OW20866   6.162   1.931   2.348
 6656SOL    HW120867   6.162   2.013   2.292
 6656SOL    HW220868   6.071   1.920   2.390
 6657SOL     OW20869   4.852   6.096   6.467
 6657SOL    HW120870   4.907   6.117   6.386
 6657SOL    HW220871   4.783   6.028   6.443
 6658SOL     OW20872   5.901   1.646   4.898
 6658SOL    HW120873   5.868   1.714   4.833
 6658SOL    HW220874   5.950   1.574   4.849
 6659SOL     OW20875   2.137   2.342   0.861
 6659SOL    HW120876   2.096   2.411   0.801
 6659SOL    HW220877   2.168   2.264   0.807
 6660SOL     OW20878   0.561   5.964   0.888
 6660SOL    HW120879   0.550   6.052   0.934
 6660SOL    HW220880   0.492   5.955   0.816
 6661SOL     OW20881   0.376   5.809   3.775
 6661SOL    HW120882   0.339   5.765   3.856
 6661SOL    HW220883   0.302   5.849   3.721
 6662SOL     OW20884   1.435   0.692   6.937
 6662SOL    HW120885   1.526   0.659   6.959
 6662SOL    HW220886   1.443   0.770   6.874
 6663SOL     OW20887   6.854   5.046   2.567
 6663SOL    HW120888   6.822   5.111   2.499
 6663SOL    HW220889   6.777   4.994   2.604
 6664SOL     OW20890   1.680   6.835   0.708
 6664SOL    HW120891   1.717   6.919   0.669
 6664SOL    HW220892   1.593   6.854   0.753
 6665SOL     OW20893   2.142   0.477   3.527
 6665SOL    HW120894   2.163   0.382   3.502
 6665SOL    HW220895   2.155   0.488   3.626
 6666SOL     OW20896   5.639   1.204   6.321
 6666SOL    HW120897   5.582   1.155   6.386
 6666SOL    HW220898   5.658   1.145   6.242
 6667SOL     OW20899   0.163   5.050   5.444
 6667SOL    HW120900   0.100   4.972   5.436
 6667SOL    HW220901   0.157   5.106   5.361
 6668SOL     OW20902   6.181   5.888   1.853
 6668SOL    HW120903   6.220   5.859   1.940
 6668SOL    HW220904   6.153   5.807   1.800
 6669SOL     OW20905   2.188   2.973   3.797
 6669SOL    HW120906   2.213   2.975   3.894
 6669SOL    HW220907   2.171   3.066   3.766
 6670SOL     OW20908   3.550   2.618   5.838
 6670SOL    HW120909   3.634   2.570   5.866
 6670SOL    HW220910   3.477   2.551   5.826
 6671SOL     OW20911   4.774   6.018   1.362
 6671SOL    HW120912   4.865   5.986   1.334
 6671SOL    HW220913   4.730   6.064   1.286
 6672SOL     OW20914   0.967   1.809   5.208
 6672SOL    HW120915   1.058   1.791   5.171
 6672SOL    HW220916   0.918   1.723   5.220
 6673SOL     OW20917   5.294   6.527   3.270
 6673SOL    HW120918   5.334   6.436   3.260
 6673SOL    HW220919   5.350   6.581   3.334
 6674SOL     OW20920   0.805   5.269   6.338
 6674SOL    HW120921   0.731   5.280   6.405
 6674SOL    HW220922   0.804   5.346   6.274
 6675SOL     OW20923   4.191   3.988   1.680
 6675SOL    HW120924   4.100   4.027   1.666
 6675SOL    HW220925   4.241   4.044   1.746
 6676SOL     OW20926   0.385   4.368   5.346
 6676SOL    HW120927   0.348   4.428   5.417
 6676SOL    HW220928   0.467   4.410   5.307
 6677SOL     OW20929   0.852   2.159   7.022
 6677SOL    HW120930   0.900   2.071   7.015
 6677SOL    HW220931   0.766   2.146   0.045
 6678SOL     OW20932   2.386   2.405   0.564
 6678SOL    HW120933   2.415   2.316   0.529
 6678SOL    HW220934   2.287   2.406   0.576
 6679SOL     OW20935   2.847   1.630   4.281
 6679SOL    HW120936   2.779   1.702   4.297
 6679SOL    HW220937   2.828   1.552   4.341
 6680SOL     OW20938   4.111   6.639   6.349
 6680SOL    HW120939   4.101   6.606   6.255
 6680SOL    HW220940   4.030   6.691   6.375
 6681SOL     OW20941   4.841   5.036   0.282
 6681SOL    HW120942   4.876   5.130   0.285
 6681SOL    HW220943   4.890   4.986   0.210
 6682SOL     OW20944   1.554   4.243   2.097
 6682SOL    HW120945   1.651   4.267   2.102
 6682SOL    HW220946   1.542   4.147   2.124
 6683SOL     OW20947   4.855   2.629   5.744
 6683SOL    HW120948   4.777   2.658   5.687
 6683SOL    HW220949   4.939   2.634   5.690
 6684SOL     OW20950   1.869   6.996   0.584
 6684SOL    HW120951   1.877   6.914   0.527
 6684SOL    HW220952   1.894   0.051   0.531
 6685SOL     OW20953   5.581   3.207   5.073
 6685SOL    HW120954   5.671   3.251   5.078
 6685SOL    HW220955   5.568   3.149   5.153
 6686SOL     OW20956   5.237   5.946   3.856
 6686SOL    HW120957   5.245   5.846   3.852
 6686SOL    HW220958   5.327   5.987   3.872
 6687SOL     OW20959   0.103   2.119   1.150
 6687SOL    HW120960   0.184   2.065   1.131
 6687SOL    HW220961   0.104   2.202   1.093
 6688SOL     OW20962   6.887   4.292   1.931
 6688SOL    HW120963   6.940   4.211   1.906
 6688SOL    HW220964   6.929   4.336   2.010
 6689SOL     OW20965   4.264   2.989   0.459
 6689SOL    HW120966   4.184   2.933   0.437
 6689SOL    HW220967   4.248   3.083   0.430
 6690SOL     OW20968   2.179   0.865   2.090
 6690SOL    HW120969   2.238   0.939   2.122
 6690SOL    HW220970   2.184   0.859   1.990
 6691SOL     OW20971   3.079   6.017   1.932
 6691SOL    HW120972   3.113   6.111   1.921
 6691SOL    HW220973   2.981   6.020   1.955
 6692SOL     OW20974   2.851   4.615   5.407
 6692SOL    HW120975   2.874   4.585   5.315
 6692SOL    HW220976   2.921   4.583   5.471
 6693SOL     OW20977   4.319   3.601   6.056
 6693SOL    HW120978   4.367   3.594   6.144
 6693SOL    HW220979   4.357   3.678   6.004
 6694SOL     OW20980   4.870   6.362   0.238
 6694SOL    HW120981   4.798   6.429   0.256
 6694SOL    HW220982   4.953   6.411   0.211
 6695SOL     OW20983   2.270   2.199   5.704
 6695SOL    HW120984   2.292   2.279   5.648
 6695SOL    HW220985   2.192   2.220   5.763
 6696SOL     OW20986   1.871   1.981   0.185
 6696SOL    HW120987   1.843   2.059   0.240
 6696SOL    HW220988   1.885   1.902   0.244
 6697SOL     OW20989   4.975   2.531   3.431
 6697SOL    HW120990   5.069   2.513   3.462
 6697SOL    HW220991   4.911   2.477   3.485
 6698SOL     OW20992   3.236   3.227   0.482
 6698SOL    HW120993   3.136   3.227   0.483
 6698SOL    HW220994   3.271   3.181   0.563
 6699SOL     OW20995   3.296   4.891   6.835
 6699SOL    HW120996   3.321   4.907   6.740
 6699SOL    HW220997   3.306   4.975   6.888
 6700SOL     OW20998   0.165   6.360   1.119
 6700SOL    HW120999   0.088   6.305   1.087
 6700SOL    HW221000   0.132   6.438   1.172
 6701SOL     OW21001   5.330   3.035   1.273
 6701SOL    HW121002   5.344   3.107   1.342
 6701SOL    HW221003   5.392   3.050   1.196
 6702SOL     OW21004   2.669   2.810   0.464
 6702SOL    HW121005   2.690   2.715   0.442
 6702SOL    HW221006   2.588   2.839   0.413
 6703SOL     OW21007   6.308   1.650   6.826
 6703SOL    HW121008   6.217   1.677   6.856
 6703SOL    HW221009   6.373   1.660   6.902
 6704SOL     OW21010   4.120   2.290   2.769
 6704SOL    HW121011   4.131   2.323   2.862
 6704SOL    HW221012   4.211   2.279   2.727
 6705SOL     OW21013   0.018   2.126   1.828
 6705SOL    HW121014   0.006   2.172   1.916
 6705SOL    HW221015   0.113   2.134   1.798
 6706SOL     OW21016   1.328   3.822   0.995
 6706SOL    HW121017   1.262   3.894   1.015
 6706SOL    HW221018   1.307   3.741   1.050
 6707SOL     OW21019   0.026   5.434   4.849
 6707SOL    HW121020   0.105   5.374   4.859
 6707SOL    HW221021   0.020   5.495   4.929
 6708SOL     OW21022   1.696   5.263   2.321
 6708SOL    HW121023   1.738   5.263   2.231
 6708SOL    HW221024   1.666   5.170   2.344
 6709SOL     OW21025   3.121   5.478   1.966
 6709SOL    HW121026   3.117   5.572   1.998
 6709SOL    HW221027   3.207   5.436   1.994
 6710SOL     OW21028   2.692   1.847   6.026
 6710SOL    HW121029   2.739   1.905   5.959
 6710SOL    HW221030   2.735   1.856   6.115
 6711SOL     OW21031   5.330   4.611   6.678
 6711SOL    HW121032   5.314   4.513   6.682
 6711SOL    HW221033   5.353   4.645   6.770
 6712SOL     OW21034   4.522   5.280   0.277
 6712SOL    HW121035   4.459   5.206   0.298
 6712SOL    HW221036   4.616   5.248   0.288
 6713SOL     OW21037   1.805   1.981   1.394
 6713SOL    HW121038   1.875   2.045   1.363
 6713SOL    HW221039   1.790   1.911   1.324
 6714SOL     OW21040   5.234   0.591   6.077
 6714SOL    HW121041   5.261   0.665   6.015
 6714SOL    HW221042   5.295   0.591   6.156
 6715SOL     OW21043   6.984   0.416   6.916
 6715SOL    HW121044   6.996   0.333   6.860
 6715SOL    HW221045   0.042   0.470   6.914
 6716SOL     OW21046   0.872   5.606   2.145
 6716SOL    HW121047   0.799   5.648   2.091
 6716SOL    HW221048   0.890   5.513   2.110
 6717SOL     OW21049   4.265   2.835   0.838
 6717SOL    HW121050   4.169   2.808   0.847
 6717SOL    HW221051   4.298   2.870   0.926
 6718SOL     OW21052   3.780   6.553   6.419
 6718SOL    HW121053   3.705   6.498   6.455
 6718SOL    HW221054   3.836   6.497   6.358
 6719SOL     OW21055   0.359   0.201   6.103
 6719SOL    HW121056   0.434   0.137   6.118
 6719SOL    HW221057   0.395   0.288   6.070
 6720SOL     OW21058   1.577   6.392   2.124
 6720SOL    HW121059   1.496   6.334   2.133
 6720SOL    HW221060   1.624   6.396   2.212
 6721SOL     OW21061   5.599   6.536   4.723
 6721SOL    HW121062   5.535   6.597   4.771
 6721SOL    HW221063   5.687   6.536   4.770
 6722SOL     OW21064   5.465   3.092   0.975
 6722SOL    HW121065   5.507   3.178   0.948
 6722SOL    HW221066   5.366   3.096   0.957
 6723SOL     OW21067   2.186   6.816   3.394
 6723SOL    HW121068   2.118   6.791   3.463
 6723SOL    HW221069   2.139   6.848   3.311
 6724SOL     OW21070   1.285   3.667   5.857
 6724SOL    HW121071   1.287   3.641   5.760
 6724SOL    HW221072   1.288   3.766   5.865
 6725SOL     OW21073   0.728   4.278   2.073
 6725SOL    HW121074   0.796   4.236   2.012
 6725SOL    HW221075   0.707   4.370   2.040
 6726SOL     OW21076   0.635   1.982   4.375
 6726SOL    HW121077   0.596   1.908   4.320
 6726SOL    HW221078   0.562   2.030   4.423
 6727SOL     OW21079   6.322   3.999   5.770
 6727SOL    HW121080   6.341   4.039   5.680
 6727SOL    HW221081   6.336   4.069   5.840
 6728SOL     OW21082   4.588   1.543   4.427
 6728SOL    HW121083   4.585   1.524   4.329
 6728SOL    HW221084   4.678   1.519   4.464
 6729SOL     OW21085   6.583   1.410   2.250
 6729SOL    HW121086   6.486   1.389   2.234
 6729SOL    HW221087   6.629   1.420   2.162
 6730SOL     OW21088   2.163   6.155   6.513
 6730SOL    HW121089   2.203   6.238   6.550
 6730SOL    HW221090   2.131   6.096   6.587
 6731SOL     OW21091   2.086   4.593   1.281
 6731SOL    HW121092   2.083   4.683   1.323
 6731SOL    HW221093   2.105   4.602   1.183
 6732SOL     OW21094   3.975   5.631   6.292
 6732SOL    HW121095   3.979   5.586   6.381
 6732SOL    HW221096   4.055   5.690   6.281
 6733SOL     OW21097   4.234   5.117   6.761
 6733SOL    HW121098   4.209   5.050   6.831
 6733SOL    HW221099   4.178   5.199   6.773
 6734SOL     OW21100   0.543   3.200   5.719
 6734SOL    HW121101   0.506   3.126   5.662
 6734SOL    HW221102   0.514   3.288   5.682
 6735SOL     OW21103   0.618   5.639   4.733
 6735SOL    HW121104   0.663   5.554   4.757
 6735SOL    HW221105   0.545   5.621   4.666
 6736SOL     OW21106   2.065   3.261   0.534
 6736SOL    HW121107   1.983   3.219   0.495
 6736SOL    HW221108   2.043   3.353   0.566
 6737SOL     OW21109   1.764   2.571   1.032
 6737SOL    HW121110   1.772   2.520   1.117
 6737SOL    HW221111   1.728   2.663   1.051
 6738SOL     OW21112   1.893   3.003   1.961
 6738SOL    HW121113   1.977   2.991   2.015
 6738SOL    HW221114   1.917   3.007   1.864
 6739SOL     OW21115   2.840   5.040   5.800
 6739SOL    HW121116   2.880   4.963   5.850
 6739SOL    HW221117   2.766   5.007   5.741
 6740SOL     OW21118   1.778   1.660   4.635
 6740SOL    HW121119   1.822   1.591   4.691
 6740SOL    HW221120   1.830   1.673   4.550
 6741SOL     OW21121   4.236   1.380   6.225
 6741SOL    HW121122   4.145   1.351   6.254
 6741SOL    HW221123   4.277   1.438   6.295
 6742SOL     OW21124   0.312   5.700   2.764
 6742SOL    HW121125   0.365   5.616   2.766
 6742SOL    HW221126   0.372   5.779   2.776
 6743SOL     OW21127   4.207   4.395   6.861
 6743SOL    HW121128   4.158   4.402   6.773
 6743SOL    HW221129   4.297   4.354   6.846
 6744SOL     OW21130   4.671   5.515   5.893
 6744SOL    HW121131   4.760   5.494   5.933
 6744SOL    HW221132   4.601   5.513   5.963
 6745SOL     OW21133   1.227   6.069   2.458
 6745SOL    HW121134   1.284   6.066   2.540
 6745SOL    HW221135   1.130   6.070   2.484
 6746SOL     OW21136   0.397   0.892   2.966
 6746SOL    HW121137   0.306   0.858   2.991
 6746SOL    HW221138   0.416   0.871   2.870
 6747SOL     OW21139   5.263   6.227   4.524
 6747SOL    HW121140   5.344   6.195   4.475
 6747SOL    HW221141   5.191   6.248   4.459
 6748SOL     OW21142   1.423   0.563   2.737
 6748SOL    HW121143   1.331   0.529   2.753
 6748SOL    HW221144   1.480   0.490   2.700
 6749SOL     OW21145   3.055   6.641   6.612
 6749SOL    HW121146   3.073   6.547   6.639
 6749SOL    HW221147   3.052   6.699   6.693
 6750SOL     OW21148   3.835   1.792   4.645
 6750SOL    HW121149   3.772   1.727   4.602
 6750SOL    HW221150   3.926   1.778   4.607
 6751SOL     OW21151   3.420   1.898   4.019
 6751SOL    HW121152   3.480   1.873   4.095
 6751SOL    HW221153   3.365   1.819   3.993
 6752SOL     OW21154   6.210   3.286   2.080
 6752SOL    HW121155   6.304   3.308   2.052
 6752SOL    HW221156   6.147   3.353   2.040
 6753SOL     OW21157   4.468   1.626   6.439
 6753SOL    HW121158   4.550   1.616   6.496
 6753SOL    HW221159   4.410   1.546   6.449
 6754SOL     OW21160   6.494   2.221   5.396
 6754SOL    HW121161   6.495   2.243   5.298
 6754SOL    HW221162   6.416   2.267   5.439
 6755SOL     OW21163   5.366   1.782   4.050
 6755SOL    HW121164   5.285   1.839   4.037
 6755SOL    HW221165   5.378   1.762   4.147
 6756SOL     OW21166   4.592   4.341   4.207
 6756SOL    HW121167   4.689   4.367   4.212
 6756SOL    HW221168   4.571   4.277   4.281
 6757SOL     OW21169   4.685   6.202   0.681
 6757SOL    HW121170   4.712   6.237   0.771
 6757SOL    HW221171   4.762   6.151   0.641
 6758SOL     OW21172   5.210   3.767   2.061
 6758SOL    HW121173   5.279   3.736   1.996
 6758SOL    HW221174   5.193   3.865   2.047
 6759SOL     OW21175   0.977   3.924   4.273
 6759SOL    HW121176   1.046   3.883   4.213
 6759SOL    HW221177   0.924   3.851   4.316
 6760SOL     OW21178   6.429   4.945   4.690
 6760SOL    HW121179   6.437   5.011   4.765
 6760SOL    HW221180   6.400   4.857   4.726
 6761SOL     OW21181   5.598   2.380   6.020
 6761SOL    HW121182   5.569   2.359   5.926
 6761SOL    HW221183   5.666   2.452   6.018
 6762SOL     OW21184   6.814   5.593   3.017
 6762SOL    HW121185   6.859   5.679   2.994
 6762SOL    HW221186   6.827   5.573   3.114
 6763SOL     OW21187   6.439   6.147   4.121
 6763SOL    HW121188   6.539   6.142   4.114
 6763SOL    HW221189   6.412   6.242   4.137
 6764SOL     OW21190   3.014   3.911   6.627
 6764SOL    HW121191   2.969   3.823   6.612
 6764SOL    HW221192   3.091   3.899   6.689
 6765SOL     OW21193   6.263   4.737   3.626
 6765SOL    HW121194   6.341   4.682   3.594
 6765SOL    HW221195   6.278   4.833   3.602
 6766SOL     OW21196   2.607   0.186   6.135
 6766SOL    HW121197   2.568   0.112   6.080
 6766SOL    HW221198   2.538   0.258   6.147
 6767SOL     OW21199   0.347   2.868   0.895
 6767SOL    HW121200   0.384   2.898   0.807
 6767SOL    HW221201   0.387   2.781   0.921
 6768SOL     OW21202   0.921   0.528   3.538
 6768SOL    HW121203   0.921   0.600   3.608
 6768SOL    HW221204   0.827   0.503   3.516
 6769SOL     OW21205   3.344   1.720   5.211
 6769SOL    HW121206   3.268   1.674   5.258
 6769SOL    HW221207   3.360   1.808   5.255
 6770SOL     OW21208   0.047   2.425   4.628
 6770SOL    HW121209   0.006   2.466   4.547
 6770SOL    HW221210   7.005   2.421   4.701
 6771SOL     OW21211   3.755   2.082   3.621
 6771SOL    HW121212   3.706   2.006   3.662
 6771SOL    HW221213   3.689   2.150   3.588
 6772SOL     OW21214   5.455   2.082   2.359
 6772SOL    HW121215   5.377   2.135   2.326
 6772SOL    HW221216   5.538   2.136   2.348
 6773SOL     OW21217   6.692   6.720   1.356
 6773SOL    HW121218   6.635   6.801   1.351
 6773SOL    HW221219   6.779   6.742   1.401
 6774SOL     OW21220   2.084   1.719   5.537
 6774SOL    HW121221   2.093   1.706   5.438
 6774SOL    HW221222   2.168   1.687   5.582
 6775SOL     OW21223   1.485   1.780   3.421
 6775SOL    HW121224   1.469   1.855   3.486
 6775SOL    HW221225   1.463   1.811   3.328
 6776SOL     OW21226   3.644   3.796   1.370
 6776SOL    HW121227   3.718   3.816   1.435
 6776SOL    HW221228   3.558   3.832   1.406
 6777SOL     OW21229   4.195   5.240   1.178
 6777SOL    HW121230   4.259   5.276   1.111
 6777SOL    HW221231   4.244   5.181   1.243
 6778SOL     OW21232   5.380   3.622   2.380
 6778SOL    HW121233   5.296   3.676   2.380
 6778SOL    HW221234   5.357   3.525   2.385
 6779SOL     OW21235   6.053   4.429   6.207
 6779SOL    HW121236   6.025   4.489   6.282
 6779SOL    HW221237   6.021   4.336   6.224
 6780SOL     OW21238   2.336   2.715   2.730
 6780SOL    HW121239   2.275   2.782   2.688
 6780SOL    HW221240   2.340   2.731   2.828
 6781SOL     OW21241   6.505   0.889   4.001
 6781SOL    HW121242   6.568   0.834   4.056
 6781SOL    HW221243   6.424   0.911   4.055
 6782SOL     OW21244   0.098   1.303   3.517
 6782SOL    HW121245   0.119   1.287   3.613
 6782SOL    HW221246   0.037   1.232   3.484
 6783SOL     OW21247   1.357   4.450   5.184
 6783SOL    HW121248   1.307   4.370   5.151
 6783SOL    HW221249   1.400   4.497   5.107
 6784SOL     OW21250   2.183   3.189   1.834
 6784SOL    HW121251   2.171   3.184   1.933
 6784SOL    HW221252   2.247   3.262   1.812
 6785SOL     OW21253   5.639   4.395   4.928
 6785SOL    HW121254   5.602   4.359   4.842
 6785SOL    HW221255   5.620   4.493   4.934
 6786SOL     OW21256   6.386   3.097   0.694
 6786SOL    HW121257   6.369   3.171   0.758
 6786SOL    HW221258   6.310   3.031   0.698
 6787SOL     OW21259   3.566   2.566   0.719
 6787SOL    HW121260   3.469   2.542   0.717
 6787SOL    HW221261   3.581   2.641   0.783
 6788SOL     OW21262   0.931   4.096   2.916
 6788SOL    HW121263   0.839   4.124   2.943
 6788SOL    HW221264   0.937   4.098   2.816
 6789SOL     OW21265   6.400   4.348   4.464
 6789SOL    HW121266   6.371   4.383   4.375
 6789SOL    HW221267   6.346   4.267   4.488
 6790SOL     OW21268   0.793   4.941   5.976
 6790SOL    HW121269   0.886   4.920   5.946
 6790SOL    HW221270   0.794   4.972   6.071
 6791SOL     OW21271   4.340   1.508   3.912
 6791SOL    HW121272   4.306   1.602   3.903
 6791SOL    HW221273   4.440   1.508   3.906
 6792SOL     OW21274   4.181   6.946   5.034
 6792SOL    HW121275   4.143   0.011   5.054
 6792SOL    HW221276   4.131   6.905   4.958
 6793SOL     OW21277   2.823   2.643   0.049
 6793SOL    HW121278   2.889   2.681   0.114
 6793SOL    HW221279   2.731   2.650   0.088
 6794SOL     OW21280   4.460   1.476   5.740
 6794SOL    HW121281   4.521   1.549   5.711
 6794SOL    HW221282   4.444   1.483   5.839
 6795SOL     OW21283   1.310   0.690   1.315
 6795SOL    HW121284   1.287   0.603   1.359
 6795SOL    HW221285   1.342   0.754   1.384
 6796SOL     OW21286   6.453   0.908   2.202
 6796SOL    HW121287   6.401   0.956   2.132
 6796SOL    HW221288   6.395   0.891   2.281
 6797SOL     OW21289   6.729   2.490   1.861
 6797SOL    HW121290   6.713   2.578   1.817
 6797SOL    HW221291   6.794   2.502   1.937
 6798SOL     OW21292   5.185   0.394   1.475
 6798SOL    HW121293   5.248   0.464   1.510
 6798SOL    HW221294   5.184   0.316   1.538
 6799SOL     OW21295   5.738   7.011   3.595
 6799SOL    HW121296   5.683   6.966   3.525
 6799SOL    HW221297   5.678   0.014   3.670
 6800SOL     OW21298   1.102   0.973   1.298
 6800SOL    HW121299   1.148   0.967   1.210
 6800SOL    HW221300   1.167   0.955   1.372
 6801SOL     OW21301   1.402   6.387   4.637
 6801SOL    HW121302   1.307   6.381   4.669
 6801SOL    HW221303   1.415   6.325   4.560
 6802SOL     OW21304   3.023   6.128   1.531
 6802SOL    HW121305   3.054   6.041   1.570
 6802SOL    HW221306   3.087   6.201   1.556
 6803SOL     OW21307   4.968   4.616   0.325
 6803SOL    HW121308   4.924   4.535   0.286
 6803SOL    HW221309   5.065   4.596   0.340
 6804SOL     OW21310   2.634   4.858   2.794
 6804SOL    HW121311   2.621   4.780   2.856
 6804SOL    HW221312   2.560   4.861   2.727
 6805SOL     OW21313   0.222   5.012   5.709
 6805SOL    HW121314   0.273   4.927   5.716
 6805SOL    HW221315   0.208   5.035   5.612
 6806SOL     OW21316   6.965   0.577   3.967
 6806SOL    HW121317   7.002   0.511   4.031
 6806SOL    HW221318   6.866   0.565   3.959
 6807SOL     OW21319   3.516   4.137   4.039
 6807SOL    HW121320   3.534   4.164   4.133
 6807SOL    HW221321   3.452   4.060   4.038
 6808SOL     OW21322   4.822   1.156   5.137
 6808SOL    HW121323   4.737   1.178   5.186
 6808SOL    HW221324   4.832   1.217   5.059
 6809SOL     OW21325   5.707   4.708   2.054
 6809SOL    HW121326   5.739   4.712   2.149
 6809SOL    HW221327   5.663   4.620   2.037
 6810SOL     OW21328   3.377   1.189   3.488
 6810SOL    HW121329   3.442   1.120   3.518
 6810SOL    HW221330   3.319   1.151   3.417
 6811SOL     OW21331   6.379   1.801   2.407
 6811SOL    HW121332   6.371   1.706   2.436
 6811SOL    HW221333   6.292   1.832   2.370
 6812SOL     OW21334   3.309   3.813   5.791
 6812SOL    HW121335   3.270   3.722   5.805
 6812SOL    HW221336   3.342   3.849   5.878
 6813SOL     OW21337   5.162   3.467   1.130
 6813SOL    HW121338   5.093   3.443   1.062
 6813SOL    HW221339   5.249   3.486   1.084
 6814SOL     OW21340   3.982   1.296   6.339
 6814SOL    HW121341   3.906   1.245   6.298
 6814SOL    HW221342   4.012   1.250   6.422
 6815SOL     OW21343   1.832   5.142   6.492
 6815SOL    HW121344   1.747   5.188   6.469
 6815SOL    HW221345   1.891   5.137   6.411
 6816SOL     OW21346   6.926   1.815   4.596
 6816SOL    HW121347   6.877   1.897   4.570
 6816SOL    HW221348   6.864   1.736   4.594
 6817SOL     OW21349   2.803   2.293   2.912
 6817SOL    HW121350   2.735   2.361   2.936
 6817SOL    HW221351   2.854   2.265   2.994
 6818SOL     OW21352   1.912   6.214   5.893
 6818SOL    HW121353   1.994   6.266   5.914
 6818SOL    HW221354   1.875   6.244   5.805
 6819SOL     OW21355   5.044   5.015   3.010
 6819SOL    HW121356   5.001   5.010   2.919
 6819SOL    HW221357   5.143   5.023   2.999
 6820SOL     OW21358   1.929   6.688   1.470
 6820SOL    HW121359   1.919   6.659   1.375
 6820SOL    HW221360   1.878   6.772   1.485
 6821SOL     OW21361   4.350   2.442   5.365
 6821SOL    HW121362   4.427   2.438   5.429
 6821SOL    HW221363   4.318   2.537   5.359
 6822SOL     OW21364   6.934   3.289   6.038
 6822SOL    HW121365   6.982   3.227   5.976
 6822SOL    HW221366   7.000   3.349   6.084
 6823SOL     OW21367   5.552   3.517   0.057
 6823SOL    HW121368   5.626   3.450   0.062
 6823SOL    HW221369   5.590   3.609   0.051
 6824SOL     OW21370   1.709   1.580   6.853
 6824SOL    HW121371   1.659   1.558   6.770
 6824SOL    HW221372   1.807   1.560   6.840
 6825SOL     OW21373   6.896   6.315   1.262
 6825SOL    HW121374   6.924   6.219   1.258
 6825SOL    HW221375   6.947   6.361   1.334
 6826SOL     OW21376   1.000   3.585   2.994
 6826SOL    HW121377   0.936   3.641   3.045
 6826SOL    HW221378   1.064   3.541   3.056
 6827SOL     OW21379   4.517   5.600   5.333
 6827SOL    HW121380   4.613   5.575   5.341
 6827SOL    HW221381   4.480   5.566   5.246
 6828SOL     OW21382   3.899   1.543   2.859
 6828SOL    HW121383   3.870   1.453   2.888
 6828SOL    HW221384   3.883   1.610   2.932
 6829SOL     OW21385   5.171   0.125   4.964
 6829SOL    HW121386   5.133   0.033   4.970
 6829SOL    HW221387   5.097   0.192   4.960
 6830SOL     OW21388   5.685   0.900   3.167
 6830SOL    HW121389   5.716   0.872   3.258
 6830SOL    HW221390   5.708   0.996   3.153
 6831SOL     OW21391   1.413   1.535   5.321
 6831SOL    HW121392   1.456   1.449   5.292
 6831SOL    HW221393   1.426   1.548   5.419
 6832SOL     OW21394   2.863   1.900   0.742
 6832SOL    HW121395   2.891   1.989   0.777
 6832SOL    HW221396   2.929   1.869   0.674
 6833SOL     OW21397   3.039   5.597   6.172
 6833SOL    HW121398   3.032   5.554   6.082
 6833SOL    HW221399   3.039   5.697   6.161
 6834SOL     OW21400   4.920   0.220   0.643
 6834SOL    HW121401   4.971   0.170   0.573
 6834SOL    HW221402   4.824   0.228   0.616
 6835SOL     OW21403   3.465   2.132   4.262
 6835SOL    HW121404   3.373   2.094   4.273
 6835SOL    HW221405   3.458   2.227   4.231
 6836SOL     OW21406   1.906   4.474   6.335
 6836SOL    HW121407   1.849   4.415   6.277
 6836SOL    HW221408   1.889   4.570   6.311
 6837SOL     OW21409   1.435   0.518   2.110
 6837SOL    HW121410   1.429   0.428   2.151
 6837SOL    HW221411   1.346   0.544   2.072
 6838SOL     OW21412   2.559   4.621   5.128
 6838SOL    HW121413   2.650   4.634   5.088
 6838SOL    HW221414   2.508   4.554   5.074
 6839SOL     OW21415   5.394   1.685   4.337
 6839SOL    HW121416   5.453   1.605   4.348
 6839SOL    HW221417   5.422   1.757   4.400
 6840SOL     OW21418   2.678   6.448   4.944
 6840SOL    HW121419   2.629   6.376   4.993
 6840SOL    HW221420   2.633   6.536   4.961
 6841SOL     OW21421   4.029   5.540   1.527
 6841SOL    HW121422   4.060   5.581   1.613
 6841SOL    HW221423   4.036   5.608   1.454
 6842SOL     OW21424   0.360   3.048   6.914
 6842SOL    HW121425   0.324   3.139   6.895
 6842SOL    HW221426   0.443   3.032   6.860
 6843SOL     OW21427   4.546   2.056   2.000
 6843SOL    HW121428   4.566   2.121   2.073
 6843SOL    HW221429   4.489   2.099   1.931
 6844SOL     OW21430   4.381   5.455   4.740
 6844SOL    HW121431   4.437   5.393   4.685
 6844SOL    HW221432   4.409   5.550   4.723
 6845SOL     OW21433   4.525   4.594   3.036
 6845SOL    HW121434   4.538   4.501   3.071
 6845SOL    HW221435   4.547   4.596   2.938
 6846SOL     OW21436   3.388   3.125   2.007
 6846SOL    HW121437   3.425   3.067   2.079
 6846SOL    HW221438   3.450   3.125   1.929
 6847SOL     OW21439   4.885   3.313   2.041
 6847SOL    HW121440   4.889   3.348   1.947
 6847SOL    HW221441   4.854   3.218   2.040
 6848SOL     OW21442   0.585   4.911   4.379
 6848SOL    HW121443   0.674   4.865   4.380
 6848SOL    HW221444   0.529   4.873   4.306
 6849SOL     OW21445   3.820   5.472   4.283
 6849SOL    HW121446   3.802   5.522   4.197
 6849SOL    HW221447   3.764   5.389   4.285
 6850SOL     OW21448   6.119   2.178   3.608
 6850SOL    HW121449   6.163   2.098   3.566
 6850SOL    HW221450   6.125   2.256   3.545
 6851SOL     OW21451   0.678   4.987   5.706
 6851SOL    HW121452   0.734   4.977   5.788
 6851SOL    HW221453   0.690   4.908   5.647
 6852SOL     OW21454   0.809   4.016   1.825
 6852SOL    HW121455   0.840   4.108   1.801
 6852SOL    HW221456   0.889   3.955   1.834
 6853SOL     OW21457   0.592   5.635   5.902
 6853SOL    HW121458   0.638   5.602   5.819
 6853SOL    HW221459   0.661   5.665   5.967
 6854SOL     OW21460   6.433   1.909   5.990
 6854SOL    HW121461   6.521   1.862   5.997
 6854SOL    HW221462   6.415   1.958   6.076
 6855SOL     OW21463   3.922   6.797   2.769
 6855SOL    HW121464   4.014   6.823   2.739
 6855SOL    HW221465   3.891   6.861   2.839
 6856SOL     OW21466   6.639   4.242   4.919
 6856SOL    HW121467   6.666   4.271   5.011
 6856SOL    HW221468   6.710   4.270   4.854
 6857SOL     OW21469   3.193   1.457   6.257
 6857SOL    HW121470   3.229   1.467   6.164
 6857SOL    HW221471   3.101   1.417   6.252
 6858SOL     OW21472   4.041   3.164   4.091
 6858SOL    HW121473   4.052   3.090   4.025
 6858SOL    HW221474   4.053   3.128   4.183
 6859SOL     OW21475   2.367   6.771   0.408
 6859SOL    HW121476   2.409   6.771   0.499
 6859SOL    HW221477   2.269   6.786   0.416
 6860SOL     OW21478   5.809   4.768   1.794
 6860SOL    HW121479   5.890   4.712   1.777
 6860SOL    HW221480   5.762   4.735   1.876
 6861SOL     OW21481   5.843   5.164   0.518
 6861SOL    HW121482   5.849   5.093   0.588
 6861SOL    HW221483   5.934   5.182   0.481
 6862SOL     OW21484   2.589   4.919   4.851
 6862SOL    HW121485   2.492   4.942   4.846
 6862SOL    HW221486   2.599   4.824   4.880
 6863SOL     OW21487   6.311   1.126   4.588
 6863SOL    HW121488   6.218   1.159   4.572
 6863SOL    HW221489   6.375   1.179   4.533
 6864SOL     OW21490   3.502   5.729   3.604
 6864SOL    HW121491   3.539   5.756   3.516
 6864SOL    HW221492   3.441   5.801   3.639
 6865SOL     OW21493   6.271   4.464   4.228
 6865SOL    HW121494   6.250   4.532   4.298
 6865SOL    HW221495   6.280   4.509   4.139
 6866SOL     OW21496   6.673   4.072   2.228
 6866SOL    HW121497   6.644   4.165   2.250
 6866SOL    HW221498   6.593   4.014   2.212
 6867SOL     OW21499   1.667   3.813   1.604
 6867SOL    HW121500   1.721   3.822   1.688
 6867SOL    HW221501   1.727   3.823   1.525
 6868SOL     OW21502   1.758   6.156   4.573
 6868SOL    HW121503   1.680   6.097   4.593
 6868SOL    HW221504   1.726   6.244   4.537
 6869SOL     OW21505   5.899   3.129   4.934
 6869SOL    HW121506   5.898   3.200   5.004
 6869SOL    HW221507   5.993   3.116   4.901
 6870SOL     OW21508   5.581   3.829   2.918
 6870SOL    HW121509   5.508   3.894   2.894
 6870SOL    HW221510   5.632   3.864   2.997
 6871SOL     OW21511   6.081   4.705   1.731
 6871SOL    HW121512   6.098   4.795   1.691
 6871SOL    HW221513   6.150   4.641   1.697
 6872SOL     OW21514   1.709   3.375   1.155
 6872SOL    HW121515   1.732   3.416   1.067
 6872SOL    HW221516   1.611   3.359   1.160
 6873SOL     OW21517   6.060   2.981   6.006
 6873SOL    HW121518   5.978   2.933   5.974
 6873SOL    HW221519   6.121   2.998   5.929
 6874SOL     OW21520   0.214   3.838   3.947
 6874SOL    HW121521   0.166   3.776   3.886
 6874SOL    HW221522   0.170   3.838   4.037
 6875SOL     OW21523   1.503   1.604   3.103
 6875SOL    HW121524   1.544   1.539   3.166
 6875SOL    HW221525   1.403   1.593   3.104
 6876SOL     OW21526   3.571   5.678   6.485
 6876SOL    HW121527   3.486   5.630   6.509
 6876SOL    HW221528   3.581   5.759   6.543
 6877SOL     OW21529   2.231   4.505   0.040
 6877SOL    HW121530   2.226   4.560   0.124
 6877SOL    HW221531   2.222   4.564   6.986
 6878SOL     OW21532   2.244   2.004   6.100
 6878SOL    HW121533   2.314   1.933   6.094
 6878SOL    HW221534   2.283   2.085   6.143
 6879SOL     OW21535   0.008   1.711   0.196
 6879SOL    HW121536   6.982   1.764   0.263
 6879SOL    HW221537   0.087   1.669   0.241
 6880SOL     OW21538   2.124   3.810   5.047
 6880SOL    HW121539   2.189   3.882   5.023
 6880SOL    HW221540   2.094   3.822   5.142
 6881SOL     OW21541   6.928   4.404   1.556
 6881SOL    HW121542   6.897   4.330   1.497
 6881SOL    HW221543   6.998   4.370   1.619
 6882SOL     OW21544   2.246   0.433   5.196
 6882SOL    HW121545   2.194   0.351   5.173
 6882SOL    HW221546   2.187   0.499   5.241
 6883SOL     OW21547   3.345   0.239   0.997
 6883SOL    HW121548   3.273   0.281   0.942
 6883SOL    HW221549   3.425   0.300   1.000
 6884SOL     OW21550   2.485   4.448   4.094
 6884SOL    HW121551   2.567   4.495   4.125
 6884SOL    HW221552   2.450   4.390   4.168
 6885SOL     OW21553   3.030   5.772   3.244
 6885SOL    HW121554   3.066   5.682   3.271
 6885SOL    HW221555   3.106   5.834   3.226
 6886SOL     OW21556   5.286   1.561   1.982
 6886SOL    HW121557   5.366   1.552   2.040
 6886SOL    HW221558   5.295   1.643   1.925
 6887SOL     OW21559   5.341   0.395   4.688
 6887SOL    HW121560   5.416   0.451   4.654
 6887SOL    HW221561   5.323   0.320   4.624
 6888SOL     OW21562   5.762   0.076   5.514
 6888SOL    HW121563   5.822   0.155   5.529
 6888SOL    HW221564   5.671   0.107   5.488
 6889SOL     OW21565   0.992   2.652   5.489
 6889SOL    HW121566   1.088   2.678   5.492
 6889SOL    HW221567   0.983   2.552   5.489
 6890SOL     OW21568   2.183   0.309   0.849
 6890SOL    HW121569   2.087   0.322   0.872
 6890SOL    HW221570   2.199   0.335   0.754
 6891SOL     OW21571   2.033   3.497   4.615
 6891SOL    HW121572   1.974   3.538   4.684
 6891SOL    HW221573   2.061   3.567   4.549
 6892SOL     OW21574   4.036   0.230   3.943
 6892SOL    HW121575   3.943   0.232   3.978
 6892SOL    HW221576   4.052   0.145   3.893
 6893SOL     OW21577   5.569   5.868   2.315
 6893SOL    HW121578   5.500   5.822   2.259
 6893SOL    HW221579   5.648   5.807   2.327
 6894SOL     OW21580   6.544   5.525   0.720
 6894SOL    HW121581   6.591   5.613   0.733
 6894SOL    HW221582   6.608   5.460   0.679
 6895SOL     OW21583   2.786   4.419   6.826
 6895SOL    HW121584   2.786   4.327   6.864
 6895SOL    HW221585   2.765   4.415   6.728
 6896SOL     OW21586   4.058   0.417   3.733
 6896SOL    HW121587   3.969   0.409   3.689
 6896SOL    HW221588   4.054   0.376   3.825
 6897SOL     OW21589   2.485   3.270   0.273
 6897SOL    HW121590   2.521   3.346   0.219
 6897SOL    HW221591   2.550   3.193   0.271
 6898SOL     OW21592   4.585   1.496   1.967
 6898SOL    HW121593   4.640   1.578   1.981
 6898SOL    HW221594   4.588   1.470   1.871
 6899SOL     OW21595   5.276   6.876   6.447
 6899SOL    HW121596   5.266   6.936   6.526
 6899SOL    HW221597   5.321   6.926   6.373
 6900SOL     OW21598   5.784   0.610   5.982
 6900SOL    HW121599   5.755   0.550   6.056
 6900SOL    HW221600   5.799   0.702   6.019
 6901SOL     OW21601   0.047   0.123   6.369
 6901SOL    HW121602   0.075   0.153   6.460
 6901SOL    HW221603   0.064   0.197   6.303
 6902SOL     OW21604   0.974   6.661   0.340
 6902SOL    HW121605   0.981   6.761   0.346
 6902SOL    HW221606   0.967   6.622   0.432
 6903SOL     OW21607   3.882   3.605   0.359
 6903SOL    HW121608   3.797   3.569   0.397
 6903SOL    HW221609   3.927   3.663   0.426
 6904SOL     OW21610   6.512   1.275   3.624
 6904SOL    HW121611   6.524   1.316   3.714
 6904SOL    HW221612   6.415   1.256   3.609
 6905SOL     OW21613   5.942   6.501   0.326
 6905SOL    HW121614   5.990   6.588   0.340
 6905SOL    HW221615   5.881   6.484   0.404
 6906SOL     OW21616   3.526   1.222   4.511
 6906SOL    HW121617   3.470   1.165   4.452
 6906SOL    HW221618   3.605   1.170   4.543
 6907SOL     OW21619   3.943   2.032   0.538
 6907SOL    HW121620   3.878   2.030   0.614
 6907SOL    HW221621   3.967   2.127   0.518
 6908SOL     OW21622   1.360   0.000   5.491
 6908SOL    HW121623   1.429   7.009   5.561
 6908SOL    HW221624   1.329   0.095   5.496
 6909SOL     OW21625   4.495   4.795   0.997
 6909SOL    HW121626   4.562   4.833   0.932
 6909SOL    HW221627   4.447   4.870   1.042
 6910SOL     OW21628   6.334   1.720   2.942
 6910SOL    HW121629   6.366   1.783   3.013
 6910SOL    HW221630   6.343   1.626   2.974
 6911SOL     OW21631   4.288   0.216   3.634
 6911SOL    HW121632   4.247   0.307   3.628
 6911SOL    HW221633   4.365   0.219   3.698
 6912SOL     OW21634   5.004   5.032   1.198
 6912SOL    HW121635   5.009   4.960   1.129
 6912SOL    HW221636   5.084   5.026   1.258
 6913SOL     OW21637   5.325   4.186   5.207
 6913SOL    HW121638   5.360   4.095   5.232
 6913SOL    HW221639   5.233   4.197   5.243
 6914SOL     OW21640   5.570   5.340   6.953
 6914SOL    HW121641   5.494   5.307   6.896
 6914SOL    HW221642   5.622   5.261   6.987
 6915SOL     OW21643   0.324   4.818   2.183
 6915SOL    HW121644   0.329   4.784   2.277
 6915SOL    HW221645   0.417   4.835   2.150
 6916SOL     OW21646   6.651   4.086   6.856
 6916SOL    HW121647   6.623   4.182   6.853
 6916SOL    HW221648   6.585   4.034   6.910
 6917SOL     OW21649   4.624   5.287   6.744
 6917SOL    HW121650   4.539   5.271   6.693
 6917SOL    HW221651   4.671   5.367   6.705
 6918SOL     OW21652   0.573   4.075   4.080
 6918SOL    HW121653   0.548   4.142   4.149
 6918SOL    HW221654   0.590   4.122   3.993
 6919SOL     OW21655   1.921   5.314   2.506
 6919SOL    HW121656   1.850   5.276   2.447
 6919SOL    HW221657   1.888   5.400   2.546
 6920SOL     OW21658   5.302   5.108   5.717
 6920SOL    HW121659   5.222   5.167   5.703
 6920SOL    HW221660   5.370   5.157   5.770
 6921SOL     OW21661   5.845   5.705   3.694
 6921SOL    HW121662   5.812   5.793   3.728
 6921SOL    HW221663   5.929   5.719   3.642
 6922SOL     OW21664   1.913   6.090   0.149
 6922SOL    HW121665   1.864   6.145   0.081
 6922SOL    HW221666   1.953   6.151   0.218
 6923SOL     OW21667   4.710   6.761   4.036
 6923SOL    HW121668   4.763   6.838   3.999
 6923SOL    HW221669   4.732   6.750   4.133
 6924SOL     OW21670   0.769   3.876   0.539
 6924SOL    HW121671   0.795   3.785   0.505
 6924SOL    HW221672   0.772   3.942   0.464
 6925SOL     OW21673   3.819   6.302   3.981
 6925SOL    HW121674   3.852   6.370   3.915
 6925SOL    HW221675   3.719   6.311   3.990
 6926SOL     OW21676   3.733   3.819   3.106
 6926SOL    HW121677   3.716   3.917   3.097
 6926SOL    HW221678   3.726   3.775   3.016
 6927SOL     OW21679   5.255   3.483   5.615
 6927SOL    HW121680   5.178   3.547   5.618
 6927SOL    HW221681   5.220   3.390   5.621
 6928SOL     OW21682   4.601   0.232   6.639
 6928SOL    HW121683   4.502   0.230   6.631
 6928SOL    HW221684   4.634   0.144   6.673
 6929SOL     OW21685   4.250   6.333   0.010
 6929SOL    HW121686   4.286   6.248   6.997
 6929SOL    HW221687   4.324   6.399   0.019
 6930SOL     OW21688   0.225   6.747   1.857
 6930SOL    HW121689   0.244   6.844   1.867
 6930SOL    HW221690   0.189   6.730   1.765
 6931SOL     OW21691   0.870   0.646   1.756
 6931SOL    HW121692   0.854   0.553   1.722
 6931SOL    HW221693   0.955   0.681   1.718
 6932SOL     OW21694   3.030   0.954   0.210
 6932SOL    HW121695   3.103   0.910   0.264
 6932SOL    HW221696   3.070   0.998   0.130
 6933SOL     OW21697   3.131   5.682   4.862
 6933SOL    HW121698   3.077   5.639   4.935
 6933SOL    HW221699   3.227   5.681   4.887
 6934SOL     OW21700   5.607   3.581   6.466
 6934SOL    HW121701   5.615   3.652   6.536
 6934SOL    HW221702   5.639   3.494   6.503
 6935SOL     OW21703   4.468   6.285   3.005
 6935SOL    HW121704   4.561   6.301   2.972
 6935SOL    HW221705   4.469   6.214   3.075
 6936SOL     OW21706   6.846   1.903   2.931
 6936SOL    HW121707   6.887   1.931   2.844
 6936SOL    HW221708   6.815   1.808   2.924
 6937SOL     OW21709   5.251   6.670   6.758
 6937SOL    HW121710   5.168   6.642   6.711
 6937SOL    HW221711   5.329   6.661   6.696
 6938SOL     OW21712   5.258   3.714   5.327
 6938SOL    HW121713   5.158   3.715   5.340
 6938SOL    HW221714   5.282   3.643   5.261
 6939SOL     OW21715   0.226   4.969   2.859
 6939SOL    HW121716   0.241   4.879   2.899
 6939SOL    HW221717   0.199   4.959   2.763
 6940SOL     OW21718   4.179   1.231   0.912
 6940SOL    HW121719   4.139   1.284   0.987
 6940SOL    HW221720   4.109   1.215   0.842
 6941SOL     OW21721   4.285   3.540   1.712
 6941SOL    HW121722   4.311   3.634   1.691
 6941SOL    HW221723   4.346   3.477   1.664
 6942SOL     OW21724   0.173   2.915   1.114
 6942SOL    HW121725   0.211   2.897   1.024
 6942SOL    HW221726   0.079   2.882   1.119
 6943SOL     OW21727   5.028   6.782   6.395
 6943SOL    HW121728   5.006   6.784   6.297
 6943SOL    HW221729   5.124   6.806   6.408
 6944SOL     OW21730   1.227   5.406   5.100
 6944SOL    HW121731   1.213   5.426   5.003
 6944SOL    HW221732   1.241   5.492   5.150
 6945SOL     OW21733   6.342   3.066   6.823
 6945SOL    HW121734   6.304   3.069   6.730
 6945SOL    HW221735   6.269   3.087   6.888
 6946SOL     OW21736   6.222   5.376   2.575
 6946SOL    HW121737   6.210   5.375   2.674
 6946SOL    HW221738   6.138   5.346   2.530
 6947SOL     OW21739   3.823   6.919   4.005
 6947SOL    HW121740   3.753   6.925   4.076
 6947SOL    HW221741   3.782   6.938   3.916
 6948SOL     OW21742   5.256   0.222   0.588
 6948SOL    HW121743   5.265   0.311   0.632
 6948SOL    HW221744   5.329   0.162   0.620
 6949SOL     OW21745   5.053   6.300   2.781
 6949SOL    HW121746   5.128   6.262   2.728
 6949SOL    HW221747   5.045   6.251   2.868
 6950SOL     OW21748   2.541   0.364   2.976
 6950SOL    HW121749   2.580   0.366   3.068
 6950SOL    HW221750   2.613   0.384   2.909
 6951SOL     OW21751   6.067   6.629   6.114
 6951SOL    HW121752   6.153   6.588   6.145
 6951SOL    HW221753   6.070   6.645   6.016
 6952SOL     OW21754   6.935   5.167   3.366
 6952SOL    HW121755   6.995   5.231   3.415
 6952SOL    HW221756   6.967   5.157   3.272
 6953SOL     OW21757   5.310   0.711   5.816
 6953SOL    HW121758   5.405   0.682   5.814
 6953SOL    HW221759   5.254   0.643   5.767
 6954SOL     OW21760   1.184   3.809   4.172
 6954SOL    HW121761   1.257   3.756   4.216
 6954SOL    HW221762   1.221   3.858   4.093
 6955SOL     OW21763   6.855   0.453   1.934
 6955SOL    HW121764   6.893   0.369   1.973
 6955SOL    HW221765   6.838   0.440   1.836
 6956SOL     OW21766   4.327   6.077   2.612
 6956SOL    HW121767   4.288   6.161   2.575
 6956SOL    HW221768   4.353   6.016   2.537
 6957SOL     OW21769   0.153   4.700   1.396
 6957SOL    HW121770   0.200   4.736   1.316
 6957SOL    HW221771   0.217   4.645   1.450
 6958SOL     OW21772   2.471   2.955   6.098
 6958SOL    HW121773   2.406   2.890   6.059
 6958SOL    HW221774   2.546   2.905   6.142
 6959SOL     OW21775   1.920   1.223   5.106
 6959SOL    HW121776   1.889   1.133   5.137
 6959SOL    HW221777   1.844   1.272   5.064
 6960SOL     OW21778   0.599   5.243   0.362
 6960SOL    HW121779   0.675   5.307   0.375
 6960SOL    HW221780   0.571   5.206   0.451
 6961SOL     OW21781   0.560   2.288   4.046
 6961SOL    HW121782   0.565   2.377   4.002
 6961SOL    HW221783   0.469   2.276   4.087
 6962SOL     OW21784   5.621   5.350   3.104
 6962SOL    HW121785   5.574   5.435   3.127
 6962SOL    HW221786   5.595   5.321   3.012
 6963SOL     OW21787   0.147   5.863   1.380
 6963SOL    HW121788   0.072   5.798   1.372
 6963SOL    HW221789   0.209   5.852   1.302
 6964SOL     OW21790   5.038   4.982   5.272
 6964SOL    HW121791   5.134   4.963   5.253
 6964SOL    HW221792   5.003   4.915   5.337
 6965SOL     OW21793   0.186   3.627   6.465
 6965SOL    HW121794   0.246   3.548   6.478
 6965SOL    HW221795   0.241   3.710   6.455
 6966SOL     OW21796   5.568   2.725   2.886
 6966SOL    HW121797   5.644   2.710   2.950
 6966SOL    HW221798   5.589   2.680   2.799
 6967SOL     OW21799   1.490   1.816   5.321
 6967SOL    HW121800   1.565   1.851   5.377
 6967SOL    HW221801   1.502   1.717   5.308
 6968SOL     OW21802   3.793   6.527   0.896
 6968SOL    HW121803   3.856   6.523   0.973
 6968SOL    HW221804   3.706   6.485   0.923
 6969SOL     OW21805   4.095   1.834   1.556
 6969SOL    HW121806   4.008   1.845   1.603
 6969SOL    HW221807   4.135   1.745   1.580
 6970SOL     OW21808   4.104   4.281   0.569
 6970SOL    HW121809   4.164   4.356   0.541
 6970SOL    HW221810   4.010   4.304   0.548
 6971SOL     OW21811   6.511   3.304   2.457
 6971SOL    HW121812   6.493   3.381   2.395
 6971SOL    HW221813   6.573   3.333   2.529
 6972SOL     OW21814   5.778   4.891   4.464
 6972SOL    HW121815   5.698   4.835   4.442
 6972SOL    HW221816   5.785   4.966   4.398
 6973SOL     OW21817   1.547   4.533   4.476
 6973SOL    HW121818   1.484   4.609   4.488
 6973SOL    HW221819   1.627   4.545   4.536
 6974SOL     OW21820   4.021   3.117   3.510
 6974SOL    HW121821   4.057   3.209   3.524
 6974SOL    HW221822   3.922   3.120   3.500
 6975SOL     OW21823   3.168   6.227   5.807
 6975SOL    HW121824   3.212   6.139   5.794
 6975SOL    HW221825   3.083   6.230   5.754
 6976SOL     OW21826   3.829   4.503   6.483
 6976SOL    HW121827   3.841   4.423   6.541
 6976SOL    HW221828   3.777   4.478   6.402
 6977SOL     OW21829   5.572   2.127   1.419
 6977SOL    HW121830   5.608   2.056   1.478
 6977SOL    HW221831   5.506   2.183   1.469
 6978SOL     OW21832   6.190   0.886   1.810
 6978SOL    HW121833   6.221   0.893   1.715
 6978SOL    HW221834   6.215   0.796   1.846
 6979SOL     OW21835   1.757   5.309   1.832
 6979SOL    HW121836   1.795   5.259   1.910
 6979SOL    HW221837   1.782   5.405   1.839
 6980SOL     OW21838   2.080   0.942   3.888
 6980SOL    HW121839   2.011   0.972   3.822
 6980SOL    HW221840   2.150   1.013   3.897
 6981SOL     OW21841   2.775   3.720   6.524
 6981SOL    HW121842   2.834   3.640   6.512
 6981SOL    HW221843   2.714   3.706   6.602
 6982SOL     OW21844   1.568   1.559   4.103
 6982SOL    HW121845   1.485   1.510   4.075
 6982SOL    HW221846   1.607   1.607   4.024
 6983SOL     OW21847   0.277   1.676   3.768
 6983SOL    HW121848   0.199   1.663   3.830
 6983SOL    HW221849   0.332   1.592   3.767
 6984SOL     OW21850   3.059   1.714   5.286
 6984SOL    HW121851   2.987   1.773   5.324
 6984SOL    HW221852   3.060   1.723   5.186
 6985SOL     OW21853   3.498   5.276   2.479
 6985SOL    HW121854   3.418   5.274   2.538
 6985SOL    HW221855   3.502   5.192   2.424
 6986SOL     OW21856   2.177   5.874   5.663
 6986SOL    HW121857   2.215   5.934   5.593
 6986SOL    HW221858   2.127   5.929   5.730
 6987SOL     OW21859   0.555   1.811   6.162
 6987SOL    HW121860   0.616   1.888   6.180
 6987SOL    HW221861   0.543   1.758   6.246
 6988SOL     OW21862   6.340   0.761   5.098
 6988SOL    HW121863   6.384   0.843   5.061
 6988SOL    HW221864   6.296   0.783   5.185
 6989SOL     OW21865   1.065   2.365   3.269
 6989SOL    HW121866   1.039   2.453   3.310
 6989SOL    HW221867   1.114   2.382   3.184
 6990SOL     OW21868   5.351   1.934   0.328
 6990SOL    HW121869   5.388   1.969   0.242
 6990SOL    HW221870   5.252   1.927   0.322
 6991SOL     OW21871   2.578   4.614   4.752
 6991SOL    HW121872   2.490   4.598   4.798
 6991SOL    HW221873   2.646   4.550   4.788
 6992SOL     OW21874   5.509   5.744   5.051
 6992SOL    HW121875   5.551   5.659   5.022
 6992SOL    HW221876   5.498   5.744   5.150
 6993SOL     OW21877   5.971   6.653   2.943
 6993SOL    HW121878   5.923   6.679   3.027
 6993SOL    HW221879   6.026   6.571   2.960
 6994SOL     OW21880   0.393   3.371   4.912
 6994SOL    HW121881   0.384   3.350   5.010
 6994SOL    HW221882   0.486   3.348   4.882
 6995SOL     OW21883   6.331   5.298   4.676
 6995SOL    HW121884   6.338   5.388   4.719
 6995SOL    HW221885   6.248   5.252   4.707
 6996SOL     OW21886   2.379   1.223   5.084
 6996SOL    HW121887   2.436   1.221   5.166
 6996SOL    HW221888   2.362   1.130   5.053
 6997SOL     OW21889   4.963   6.187   5.683
 6997SOL    HW121890   4.915   6.212   5.767
 6997SOL    HW221891   5.016   6.104   5.698
 6998SOL     OW21892   1.660   2.228   1.582
 6998SOL    HW121893   1.634   2.322   1.560
 6998SOL    HW221894   1.749   2.208   1.541
 6999SOL     OW21895   2.572   1.809   6.790
 6999SOL    HW121896   2.543   1.731   6.846
 6999SOL    HW221897   2.670   1.803   6.772
 7000SOL     OW21898   0.089   6.381   2.687
 7000SOL    HW121899   0.162   6.396   2.754
 7000SOL    HW221900   0.063   6.284   2.688
 7001SOL     OW21901   2.626   2.591   5.594
 7001SOL    HW121902   2.613   2.685   5.626
 7001SOL    HW221903   2.618   2.589   5.494
 7002SOL     OW21904   2.274   4.761   3.054
 7002SOL    HW121905   2.353   4.715   3.095
 7002SOL    HW221906   2.262   4.850   3.096
 7003SOL     OW21907   3.041   6.856   6.789
 7003SOL    HW121908   3.040   6.907   6.703
 7003SOL    HW221909   3.063   6.917   6.865
 7004SOL     OW21910   2.136   5.163   1.777
 7004SOL    HW121911   2.159   5.224   1.853
 7004SOL    HW221912   2.053   5.112   1.799
 7005SOL     OW21913   0.355   5.932   5.204
 7005SOL    HW121914   0.282   5.993   5.236
 7005SOL    HW221915   0.443   5.967   5.236
 7006SOL     OW21916   5.112   5.063   4.919
 7006SOL    HW121917   5.176   5.108   4.982
 7006SOL    HW221918   5.118   4.964   4.932
 7007SOL     OW21919   5.303   6.891   3.039
 7007SOL    HW121920   5.371   6.824   3.008
 7007SOL    HW221921   5.350   6.965   3.087
 7008SOL     OW21922   2.457   5.030   4.129
 7008SOL    HW121923   2.545   5.033   4.176
 7008SOL    HW221924   2.466   4.976   4.045
 7009SOL     OW21925   6.415   5.121   2.069
 7009SOL    HW121926   6.429   5.220   2.061
 7009SOL    HW221927   6.370   5.101   2.155
 7010SOL     OW21928   4.729   4.599   6.059
 7010SOL    HW121929   4.817   4.643   6.039
 7010SOL    HW221930   4.723   4.582   6.158
 7011SOL     OW21931   1.522   0.373   6.414
 7011SOL    HW121932   1.515   0.434   6.335
 7011SOL    HW221933   1.541   0.427   6.496
 7012SOL     OW21934   1.594   0.849   2.099
 7012SOL    HW121935   1.584   0.794   2.016
 7012SOL    HW221936   1.647   0.931   2.078
 7013SOL     OW21937   0.511   6.596   0.419
 7013SOL    HW121938   0.467   6.670   0.471
 7013SOL    HW221939   0.578   6.636   0.356
 7014SOL     OW21940   4.722   3.927   1.436
 7014SOL    HW121941   4.712   3.985   1.355
 7014SOL    HW221942   4.680   3.973   1.514
 7015SOL     OW21943   5.470   3.917   2.060
 7015SOL    HW121944   5.503   3.824   2.070
 7015SOL    HW221945   5.442   3.953   2.149
 7016SOL     OW21946   3.379   4.999   2.311
 7016SOL    HW121947   3.313   4.934   2.349
 7016SOL    HW221948   3.411   4.966   2.222
 7017SOL     OW21949   2.533   0.586   2.032
 7017SOL    HW121950   2.457   0.596   2.095
 7017SOL    HW221951   2.503   0.535   1.951
 7018SOL     OW21952   6.831   4.470   4.796
 7018SOL    HW121953   6.849   4.418   4.713
 7018SOL    HW221954   6.902   4.540   4.808
 7019SOL     OW21955   2.978   4.558   6.347
 7019SOL    HW121956   2.934   4.494   6.411
 7019SOL    HW221957   2.941   4.542   6.255
 7020SOL     OW21958   5.905   6.526   0.021
 7020SOL    HW121959   5.985   6.466   0.019
 7020SOL    HW221960   5.864   6.523   0.112
 7021SOL     OW21961   2.748   0.942   5.662
 7021SOL    HW121962   2.715   0.854   5.697
 7021SOL    HW221963   2.847   0.938   5.651
 7022SOL     OW21964   4.810   4.283   0.454
 7022SOL    HW121965   4.799   4.215   0.527
 7022SOL    HW221966   4.804   4.238   0.365
 7023SOL     OW21967   0.169   2.218   3.360
 7023SOL    HW121968   0.191   2.212   3.262
 7023SOL    HW221969   0.168   2.127   3.400
 7024SOL     OW21970   1.264   5.873   5.882
 7024SOL    HW121971   1.268   5.836   5.789
 7024SOL    HW221972   1.356   5.883   5.918
 7025SOL     OW21973   3.838   1.574   0.108
 7025SOL    HW121974   3.759   1.517   0.086
 7025SOL    HW221975   3.807   1.659   0.151
 7026SOL     OW21976   2.794   1.341   2.073
 7026SOL    HW121977   2.744   1.315   1.990
 7026SOL    HW221978   2.893   1.339   2.054
 7027SOL     OW21979   3.250   5.655   2.457
 7027SOL    HW121980   3.221   5.727   2.519
 7027SOL    HW221981   3.196   5.572   2.473
 7028SOL     OW21982   5.480   6.116   4.390
 7028SOL    HW121983   5.542   6.055   4.441
 7028SOL    HW221984   5.533   6.176   4.331
 7029SOL     OW21985   3.609   6.883   0.047
 7029SOL    HW121986   3.663   6.965   0.065
 7029SOL    HW221987   3.670   6.807   0.022
 7030SOL     OW21988   0.064   2.903   5.624
 7030SOL    HW121989   0.007   2.905   5.542
 7030SOL    HW221990   0.118   2.987   5.630
 7031SOL     OW21991   2.127   5.983   3.587
 7031SOL    HW121992   2.170   5.931   3.660
 7031SOL    HW221993   2.117   6.078   3.615
 7032SOL     OW21994   3.699   6.797   3.726
 7032SOL    HW121995   3.617   6.847   3.754
 7032SOL    HW221996   3.768   6.861   3.693
 7033SOL     OW21997   6.577   1.575   4.104
 7033SOL    HW121998   6.493   1.629   4.100
 7033SOL    HW221999   6.631   1.591   4.021
 7034SOL     OW22000   5.808   0.822   3.398
 7034SOL    HW122001   5.787   0.819   3.495
 7034SOL    HW222002   5.897   0.865   3.384
 7035SOL     OW22003   0.946   6.744   2.038
 7035SOL    HW122004   0.950   6.797   2.122
 7035SOL    HW222005   0.925   6.648   2.060
 7036SOL     OW22006   6.465   6.314   1.778
 7036SOL    HW122007   6.435   6.289   1.686
 7036SOL    HW222008   6.468   6.233   1.836
 7037SOL     OW22009   0.002   6.930   6.229
 7037SOL    HW122010   0.054   6.856   6.271
 7037SOL    HW222011   0.020   7.016   6.277
 7038SOL     OW22012   2.034   3.734   4.489
 7038SOL    HW122013   1.958   3.753   4.551
 7038SOL    HW222014   2.090   3.817   4.479
 7039SOL     OW22015   2.968   6.615   0.238
 7039SOL    HW122016   3.018   6.538   0.276
 7039SOL    HW222017   3.002   6.635   0.146
 7040SOL     OW22018   4.338   2.694   5.836
 7040SOL    HW122019   4.311   2.603   5.805
 7040SOL    HW222020   4.438   2.700   5.838
 7041SOL     OW22021   0.877   1.971   3.412
 7041SOL    HW122022   0.807   1.982   3.483
 7041SOL    HW222023   0.871   1.880   3.372
 7042SOL     OW22024   5.048   5.123   6.686
 7042SOL    HW122025   4.971   5.136   6.748
 7042SOL    HW222026   5.067   5.026   6.676
 7043SOL     OW22027   2.232   2.427   2.968
 7043SOL    HW122028   2.212   2.490   3.043
 7043SOL    HW222029   2.180   2.454   2.887
 7044SOL     OW22030   4.754   4.233   3.026
 7044SOL    HW122031   4.776   4.320   3.071
 7044SOL    HW222032   4.768   4.158   3.089
 7045SOL     OW22033   4.594   6.474   1.770
 7045SOL    HW122034   4.512   6.424   1.743
 7045SOL    HW222035   4.590   6.567   1.734
 7046SOL     OW22036   3.417   2.044   3.634
 7046SOL    HW122037   3.409   2.084   3.543
 7046SOL    HW222038   3.329   2.050   3.681
 7047SOL     OW22039   1.136   2.535   3.052
 7047SOL    HW122040   1.216   2.584   3.086
 7047SOL    HW222041   1.107   2.576   2.965
 7048SOL     OW22042   0.599   6.093   1.223
 7048SOL    HW122043   0.691   6.054   1.227
 7048SOL    HW222044   0.535   6.024   1.191
 7049SOL     OW22045   2.633   0.656   0.631
 7049SOL    HW122046   2.564   0.674   0.701
 7049SOL    HW222047   2.601   0.688   0.543
 7050SOL     OW22048   4.000   3.649   4.189
 7050SOL    HW122049   3.993   3.717   4.115
 7050SOL    HW222050   3.969   3.560   4.155
 7051SOL     OW22051   0.488   0.558   0.941
 7051SOL    HW122052   0.479   0.465   0.905
 7051SOL    HW222053   0.525   0.555   1.034
 7052SOL     OW22054   6.367   2.910   4.466
 7052SOL    HW122055   6.308   2.923   4.545
 7052SOL    HW222056   6.420   2.993   4.450
 7053SOL     OW22057   0.379   3.012   5.602
 7053SOL    HW122058   0.404   3.002   5.505
 7053SOL    HW222059   0.401   2.928   5.651
 7054SOL     OW22060   1.055   6.387   1.397
 7054SOL    HW122061   1.028   6.302   1.441
 7054SOL    HW222062   1.144   6.417   1.433
 7055SOL     OW22063   3.859   6.726   5.156
 7055SOL    HW122064   3.864   6.677   5.069
 7055SOL    HW222065   3.934   6.699   5.215
 7056SOL     OW22066   5.559   4.953   3.644
 7056SOL    HW122067   5.562   4.861   3.684
 7056SOL    HW222068   5.629   5.010   3.687
 7057SOL     OW22069   0.876   4.173   4.417
 7057SOL    HW122070   0.926   4.144   4.498
 7057SOL    HW222071   0.904   4.117   4.339
 7058SOL     OW22072   6.595   5.670   5.467
 7058SOL    HW122073   6.683   5.717   5.462
 7058SOL    HW222074   6.524   5.728   5.426
 7059SOL     OW22075   0.228   0.297   2.871
 7059SOL    HW122076   0.181   0.266   2.788
 7059SOL    HW222077   0.165   0.294   2.948
 7060SOL     OW22078   3.193   0.183   1.206
 7060SOL    HW122079   3.246   0.213   1.126
 7060SOL    HW222080   3.247   0.198   1.289
 7061SOL     OW22081   0.459   1.852   3.708
 7061SOL    HW122082   0.375   1.798   3.708
 7061SOL    HW222083   0.468   1.901   3.794
 7062SOL     OW22084   5.577   1.487   6.114
 7062SOL    HW122085   5.597   1.575   6.158
 7062SOL    HW222086   5.478   1.472   6.114
 7063SOL     OW22087   1.265   6.973   0.407
 7063SOL    HW122088   1.283   0.044   0.393
 7063SOL    HW222089   1.244   6.956   0.503
 7064SOL     OW22090   4.188   2.386   1.778
 7064SOL    HW122091   4.201   2.295   1.741
 7064SOL    HW222092   4.090   2.409   1.775
 7065SOL     OW22093   4.388   3.882   1.190
 7065SOL    HW122094   4.458   3.825   1.235
 7065SOL    HW222095   4.420   3.907   1.099
 7066SOL     OW22096   3.986   0.718   0.757
 7066SOL    HW122097   4.009   0.812   0.782
 7066SOL    HW222098   3.889   0.702   0.774
 7067SOL     OW22099   1.492   2.317   4.894
 7067SOL    HW122100   1.570   2.353   4.947
 7067SOL    HW222101   1.514   2.323   4.796
 7068SOL     OW22102   0.500   4.010   3.472
 7068SOL    HW122103   0.564   4.031   3.398
 7068SOL    HW222104   0.546   3.952   3.540
 7069SOL     OW22105   6.503   2.685   4.574
 7069SOL    HW122106   6.475   2.756   4.509
 7069SOL    HW222107   6.486   2.595   4.533
 7070SOL     OW22108   6.781   6.241   5.202
 7070SOL    HW122109   6.840   6.320   5.217
 7070SOL    HW222110   6.698   6.270   5.154
 7071SOL     OW22111   0.477   6.613   5.699
 7071SOL    HW122112   0.539   6.612   5.620
 7071SOL    HW222113   0.454   6.707   5.722
 7072SOL     OW22114   6.548   6.856   6.205
 7072SOL    HW122115   6.496   6.799   6.140
 7072SOL    HW222116   6.521   6.951   6.194
 7073SOL     OW22117   6.272   0.584   4.416
 7073SOL    HW122118   6.204   0.635   4.363
 7073SOL    HW222119   6.329   0.649   4.467
 7074SOL     OW22120   3.587   3.102   1.835
 7074SOL    HW122121   3.567   3.113   1.737
 7074SOL    HW222122   3.676   3.058   1.846
 7075SOL     OW22123   1.057   6.530   4.378
 7075SOL    HW122124   1.126   6.598   4.352
 7075SOL    HW222125   1.026   6.547   4.471
 7076SOL     OW22126   4.303   2.773   0.191
 7076SOL    HW122127   4.227   2.829   0.158
 7076SOL    HW222128   4.375   2.833   0.226
 7077SOL     OW22129   1.887   5.223   5.697
 7077SOL    HW122130   1.803   5.259   5.656
 7077SOL    HW222131   1.962   5.288   5.680
 7078SOL     OW22132   6.143   0.305   1.476
 7078SOL    HW122133   6.148   0.345   1.568
 7078SOL    HW222134   6.210   0.231   1.469
 7079SOL     OW22135   6.949   6.324   5.583
 7079SOL    HW122136   6.951   6.419   5.554
 7079SOL    HW222137   6.862   6.282   5.557
 7080SOL     OW22138   4.078   2.222   3.962
 7080SOL    HW122139   4.098   2.147   4.025
 7080SOL    HW222140   3.989   2.262   3.985
 7081SOL     OW22141   3.380   0.561   5.590
 7081SOL    HW122142   3.295   0.613   5.588
 7081SOL    HW222143   3.389   0.509   5.505
 7082SOL     OW22144   5.449   6.308   6.966
 7082SOL    HW122145   5.390   6.234   6.934
 7082SOL    HW222146   5.453   6.380   6.896
 7083SOL     OW22147   3.239   1.527   6.682
 7083SOL    HW122148   3.148   1.487   6.688
 7083SOL    HW222149   3.289   1.485   6.606
 7084SOL     OW22150   0.146   7.021   5.516
 7084SOL    HW122151   0.155   6.926   5.548
 7084SOL    HW222152   0.049   0.021   5.519
 7085SOL     OW22153   1.852   0.859   3.002
 7085SOL    HW122154   1.807   0.814   3.079
 7085SOL    HW222155   1.949   0.834   3.001
 7086SOL     OW22156   5.078   1.695   6.273
 7086SOL    HW122157   5.074   1.775   6.213
 7086SOL    HW222158   5.032   1.618   6.228
 7087SOL     OW22159   6.068   4.185   3.381
 7087SOL    HW122160   6.016   4.233   3.452
 7087SOL    HW222161   6.166   4.195   3.398
 7088SOL     OW22162   4.797   3.021   3.958
 7088SOL    HW122163   4.776   2.941   4.015
 7088SOL    HW222164   4.836   3.093   4.016
 7089SOL     OW22165   3.231   2.453   6.136
 7089SOL    HW122166   3.278   2.517   6.196
 7089SOL    HW222167   3.170   2.503   6.074
 7090SOL     OW22168   2.868   1.521   6.442
 7090SOL    HW122169   2.770   1.504   6.438
 7090SOL    HW222170   2.899   1.555   6.353
 7091SOL     OW22171   0.206   2.410   6.845
 7091SOL    HW122172   0.203   2.476   6.771
 7091SOL    HW222173   0.164   2.324   6.815
 7092SOL     OW22174   4.418   2.555   6.322
 7092SOL    HW122175   4.470   2.526   6.402
 7092SOL    HW222176   4.475   2.549   6.240
 7093SOL     OW22177   3.097   3.899   4.444
 7093SOL    HW122178   3.022   3.834   4.430
 7093SOL    HW222179   3.098   3.929   4.540
 7094SOL     OW22180   1.083   6.087   5.871
 7094SOL    HW122181   1.140   6.005   5.868
 7094SOL    HW222182   1.009   6.078   5.804
 7095SOL     OW22183   2.949   2.838   0.533
 7095SOL    HW122184   2.893   2.908   0.488
 7095SOL    HW222185   2.909   2.815   0.621
 7096SOL     OW22186   6.023   0.824   3.735
 7096SOL    HW122187   5.989   0.911   3.770
 7096SOL    HW222188   6.089   0.842   3.662
 7097SOL     OW22189   6.564   0.493   1.992
 7097SOL    HW122190   6.656   0.475   1.958
 7097SOL    HW222191   6.547   0.440   2.075
 7098SOL     OW22192   1.283   6.253   4.334
 7098SOL    HW122193   1.185   6.255   4.315
 7098SOL    HW222194   1.331   6.305   4.264
 7099SOL     OW22195   2.235   0.390   4.475
 7099SOL    HW122196   2.245   0.440   4.561
 7099SOL    HW222197   2.138   0.383   4.452
 7100SOL     OW22198   5.328   3.295   0.854
 7100SOL    HW122199   5.312   3.370   0.790
 7100SOL    HW222200   5.241   3.264   0.892
 7101SOL     OW22201   2.172   6.803   4.593
 7101SOL    HW122202   2.176   6.903   4.604
 7101SOL    HW222203   2.180   6.760   4.683
 7102SOL     OW22204   4.500   0.619   1.086
 7102SOL    HW122205   4.562   0.696   1.104
 7102SOL    HW222206   4.406   0.651   1.086
 7103SOL     OW22207   4.128   5.391   0.302
 7103SOL    HW122208   4.037   5.426   0.324
 7103SOL    HW222209   4.197   5.449   0.345
 7104SOL     OW22210   1.151   2.967   4.409
 7104SOL    HW122211   1.231   2.907   4.411
 7104SOL    HW222212   1.169   3.045   4.349
 7105SOL     OW22213   3.056   2.702   5.536
 7105SOL    HW122214   3.139   2.739   5.577
 7105SOL    HW222215   2.999   2.661   5.608
 7106SOL     OW22216   3.448   3.070   3.459
 7106SOL    HW122217   3.448   3.011   3.378
 7106SOL    HW222218   3.397   3.026   3.533
 7107SOL     OW22219   2.819   0.802   0.850
 7107SOL    HW122220   2.746   0.738   0.873
 7107SOL    HW222221   2.795   0.852   0.767
 7108SOL     OW22222   3.993   6.135   1.414
 7108SOL    HW122223   4.063   6.129   1.486
 7108SOL    HW222224   3.979   6.231   1.390
 7109SOL     OW22225   3.334   0.167   6.741
 7109SOL    HW122226   3.348   0.094   6.809
 7109SOL    HW222227   3.423   0.194   6.704
 7110SOL     OW22228   4.989   5.467   3.922
 7110SOL    HW122229   4.954   5.507   4.006
 7110SOL    HW222230   5.081   5.433   3.937
 7111SOL     OW22231   1.683   2.374   4.404
 7111SOL    HW122232   1.760   2.313   4.383
 7111SOL    HW222233   1.607   2.353   4.343
 7112SOL     OW22234   2.094   5.691   3.595
 7112SOL    HW122235   2.174   5.683   3.535
 7112SOL    HW222236   2.125   5.703   3.689
 7113SOL     OW22237   3.105   4.108   5.418
 7113SOL    HW122238   3.066   4.035   5.363
 7113SOL    HW222239   3.095   4.195   5.370
 7114SOL     OW22240   4.016   6.923   2.265
 7114SOL    HW122241   3.945   6.935   2.195
 7114SOL    HW222242   4.104   6.954   2.229
 7115SOL     OW22243   5.006   2.635   1.890
 7115SOL    HW122244   4.925   2.680   1.927
 7115SOL    HW222245   5.088   2.672   1.934
 7116SOL     OW22246   5.575   3.134   3.438
 7116SOL    HW122247   5.603   3.227   3.415
 7116SOL    HW222248   5.541   3.132   3.532
 7117SOL     OW22249   0.435   0.100   4.530
 7117SOL    HW122250   0.378   0.133   4.606
 7117SOL    HW222251   0.495   0.027   4.563
 7118SOL     OW22252   3.667   3.672   1.072
 7118SOL    HW122253   3.639   3.668   1.168
 7118SOL    HW222254   3.590   3.704   1.017
 7119SOL     OW22255   5.138   1.633   3.351
 7119SOL    HW122256   5.055   1.666   3.397
 7119SOL    HW222257   5.209   1.703   3.356
 7120SOL     OW22258   4.048   1.626   3.150
 7120SOL    HW122259   4.106   1.651   3.072
 7120SOL    HW222260   3.958   1.667   3.138
 7121SOL     OW22261   3.148   0.247   2.406
 7121SOL    HW122262   3.088   0.242   2.487
 7121SOL    HW222263   3.096   0.220   2.325
 7122SOL     OW22264   6.610   1.484   6.423
 7122SOL    HW122265   6.550   1.518   6.496
 7122SOL    HW222266   6.648   1.396   6.449
 7123SOL     OW22267   3.115   4.755   1.383
 7123SOL    HW122268   3.107   4.721   1.477
 7123SOL    HW222269   3.068   4.693   1.321
 7124SOL     OW22270   0.781   3.495   0.366
 7124SOL    HW122271   0.812   3.406   0.331
 7124SOL    HW222272   0.701   3.481   0.425
 7125SOL     OW22273   6.648   6.460   1.450
 7125SOL    HW122274   6.648   6.556   1.426
 7125SOL    HW222275   6.632   6.404   1.368
 7126SOL     OW22276   2.976   4.919   6.574
 7126SOL    HW122277   3.034   4.840   6.597
 7126SOL    HW222278   2.989   4.943   6.478
 7127SOL     OW22279   2.939   6.003   4.064
 7127SOL    HW122280   2.981   6.033   4.149
 7127SOL    HW222281   2.860   5.945   4.084
 7128SOL     OW22282   2.502   5.241   0.117
 7128SOL    HW122283   2.522   5.209   0.210
 7128SOL    HW222284   2.546   5.181   0.051
 7129SOL     OW22285   3.452   0.718   0.565
 7129SOL    HW122286   3.359   0.741   0.594
 7129SOL    HW222287   3.459   0.619   0.552
 7130SOL     OW22288   3.164   4.900   5.077
 7130SOL    HW122289   3.102   4.861   5.010
 7130SOL    HW222290   3.228   4.962   5.031
 7131SOL     OW22291   2.748   1.500   0.689
 7131SOL    HW122292   2.770   1.559   0.767
 7131SOL    HW222293   2.700   1.553   0.620
 7132SOL     OW22294   3.248   4.337   1.160
 7132SOL    HW122295   3.150   4.320   1.156
 7132SOL    HW222296   3.269   4.391   1.242
 7133SOL     OW22297   4.870   5.029   3.889
 7133SOL    HW122298   4.829   5.119   3.882
 7133SOL    HW222299   4.902   5.000   3.798
 7134SOL     OW22300   6.295   5.735   2.545
 7134SOL    HW122301   6.226   5.698   2.483
 7134SOL    HW222302   6.384   5.732   2.500
 7135SOL     OW22303   1.983   1.779   3.202
 7135SOL    HW122304   2.004   1.863   3.153
 7135SOL    HW222305   1.884   1.766   3.206
 7136SOL     OW22306   1.708   2.798   0.776
 7136SOL    HW122307   1.611   2.777   0.764
 7136SOL    HW222308   1.758   2.773   0.693
 7137SOL     OW22309   5.104   0.908   5.811
 7137SOL    HW122310   5.063   0.940   5.725
 7137SOL    HW222311   5.175   0.840   5.790
 7138SOL     OW22312   2.674   2.524   0.673
 7138SOL    HW122313   2.673   2.586   0.752
 7138SOL    HW222314   2.588   2.474   0.670
 7139SOL     OW22315   5.119   3.442   2.422
 7139SOL    HW122316   5.058   3.520   2.415
 7139SOL    HW222317   5.133   3.402   2.331
 7140SOL     OW22318   6.590   3.366   4.693
 7140SOL    HW122319   6.570   3.394   4.787
 7140SOL    HW222320   6.671   3.306   4.692
 7141SOL     OW22321   3.475   6.294   0.655
 7141SOL    HW122322   3.419   6.355   0.711
 7141SOL    HW222323   3.471   6.202   0.693
 7142SOL     OW22324   4.808   6.376   3.051
 7142SOL    HW122325   4.898   6.414   3.075
 7142SOL    HW222326   4.749   6.377   3.132
 7143SOL     OW22327   1.322   2.598   6.333
 7143SOL    HW122328   1.385   2.672   6.356
 7143SOL    HW222329   1.233   2.637   6.309
 7144SOL     OW22330   1.766   1.533   3.604
 7144SOL    HW122331   1.734   1.624   3.577
 7144SOL    HW222332   1.830   1.499   3.536
 7145SOL     OW22333   4.299   6.368   5.927
 7145SOL    HW122334   4.296   6.403   5.834
 7145SOL    HW222335   4.365   6.293   5.933
 7146SOL     OW22336   2.016   0.231   6.913
 7146SOL    HW122337   2.037   0.184   6.828
 7146SOL    HW222338   2.102   0.256   6.960
 7147SOL     OW22339   6.372   6.413   3.064
 7147SOL    HW122340   6.448   6.463   3.022
 7147SOL    HW222341   6.407   6.333   3.112
 7148SOL     OW22342   6.862   5.776   1.498
 7148SOL    HW122343   6.845   5.862   1.546
 7148SOL    HW222344   6.899   5.708   1.563
 7149SOL     OW22345   6.661   6.814   3.107
 7149SOL    HW122346   6.760   6.831   3.113
 7149SOL    HW222347   6.615   6.898   3.077
 7150SOL     OW22348   4.715   2.544   1.646
 7150SOL    HW122349   4.621   2.550   1.678
 7150SOL    HW222350   4.750   2.451   1.661
 7151SOL     OW22351   0.886   5.711   0.945
 7151SOL    HW122352   0.933   5.645   0.885
 7151SOL    HW222353   0.787   5.695   0.941
 7152SOL     OW22354   0.758   2.456   5.278
 7152SOL    HW122355   0.659   2.463   5.287
 7152SOL    HW222356   0.798   2.548   5.275
 7153SOL     OW22357   3.820   6.086   3.400
 7153SOL    HW122358   3.798   6.179   3.430
 7153SOL    HW222359   3.736   6.040   3.370
 7154SOL     OW22360   3.676   6.998   4.669
 7154SOL    HW122361   3.654   6.935   4.594
 7154SOL    HW222362   3.674   6.948   4.756
 7155SOL     OW22363   2.246   5.803   1.356
 7155SOL    HW122364   2.311   5.879   1.351
 7155SOL    HW222365   2.292   5.723   1.395
 7156SOL     OW22366   0.547   4.603   4.528
 7156SOL    HW122367   0.529   4.684   4.473
 7156SOL    HW222368   0.461   4.556   4.549
 7157SOL     OW22369   6.336   4.578   1.052
 7157SOL    HW122370   6.248   4.537   1.073
 7157SOL    HW222371   6.394   4.576   1.134
 7158SOL     OW22372   0.600   6.918   2.936
 7158SOL    HW122373   0.663   6.843   2.960
 7158SOL    HW222374   0.529   6.884   2.875
 7159SOL     OW22375   0.325   4.517   2.619
 7159SOL    HW122376   0.324   4.462   2.535
 7159SOL    HW222377   0.253   4.485   2.681
 7160SOL     OW22378   6.443   0.012   3.166
 7160SOL    HW122379   6.435   6.971   3.240
 7160SOL    HW222380   6.457   0.103   3.205
 7161SOL     OW22381   3.361   4.084   5.387
 7161SOL    HW122382   3.265   4.106   5.404
 7161SOL    HW222383   3.390   4.011   5.448
 7162SOL     OW22384   3.027   6.195   6.075
 7162SOL    HW122385   3.091   6.272   6.079
 7162SOL    HW222386   3.047   6.139   5.995
 7163SOL     OW22387   2.995   6.609   3.664
 7163SOL    HW122388   2.976   6.700   3.628
 7163SOL    HW222389   3.038   6.553   3.592
 7164SOL     OW22390   2.128   1.773   3.459
 7164SOL    HW122391   2.215   1.790   3.412
 7164SOL    HW222392   2.053   1.773   3.392
 7165SOL     OW22393   6.317   0.973   1.169
 7165SOL    HW122394   6.324   0.892   1.227
 7165SOL    HW222395   6.226   0.976   1.128
 7166SOL     OW22396   5.136   3.409   0.484
 7166SOL    HW122397   5.062   3.355   0.524
 7166SOL    HW222398   5.099   3.471   0.415
 7167SOL     OW22399   5.322   3.627   5.028
 7167SOL    HW122400   5.409   3.638   5.077
 7167SOL    HW222401   5.303   3.530   5.017
 7168SOL     OW22402   0.913   2.315   3.582
 7168SOL    HW122403   0.905   2.220   3.550
 7168SOL    HW222404   0.935   2.316   3.679
 7169SOL     OW22405   0.738   3.154   5.018
 7169SOL    HW122406   0.797   3.224   5.058
 7169SOL    HW222407   0.794   3.078   4.984
 7170SOL     OW22408   4.610   5.897   4.158
 7170SOL    HW122409   4.518   5.934   4.143
 7170SOL    HW222410   4.603   5.807   4.201
 7171SOL     OW22411   5.705   3.793   6.142
 7171SOL    HW122412   5.669   3.875   6.096
 7171SOL    HW222413   5.629   3.734   6.169
 7172SOL     OW22414   1.371   0.290   5.712
 7172SOL    HW122415   1.318   0.362   5.757
 7172SOL    HW222416   1.448   0.265   5.770
 7173SOL     OW22417   7.022   4.855   5.403
 7173SOL    HW122418   6.949   4.833   5.338
 7173SOL    HW222419   6.991   4.839   5.496
 7174SOL     OW22420   1.020   5.160   6.528
 7174SOL    HW122421   0.941   5.166   6.468
 7174SOL    HW222422   1.013   5.231   6.599
 7175SOL     OW22423   5.637   3.769   0.447
 7175SOL    HW122424   5.698   3.783   0.525
 7175SOL    HW222425   5.608   3.674   0.443
 7176SOL     OW22426   0.293   5.250   2.779
 7176SOL    HW122427   0.303   5.155   2.807
 7176SOL    HW222428   0.203   5.264   2.738
 7177SOL     OW22429   2.509   0.180   4.252
 7177SOL    HW122430   2.587   0.183   4.189
 7177SOL    HW222431   2.474   0.273   4.267
 7178SOL     OW22432   2.694   3.029   5.700
 7178SOL    HW122433   2.750   3.050   5.619
 7178SOL    HW222434   2.660   3.114   5.740
 7179SOL     OW22435   1.494   3.330   4.765
 7179SOL    HW122436   1.509   3.387   4.846
 7179SOL    HW222437   1.547   3.245   4.773
 7180SOL     OW22438   1.464   5.174   6.232
 7180SOL    HW122439   1.468   5.263   6.187
 7180SOL    HW222440   1.530   5.112   6.190
 7181SOL     OW22441   2.728   6.570   0.579
 7181SOL    HW122442   2.705   6.534   0.669
 7181SOL    HW222443   2.798   6.641   0.588
 7182SOL     OW22444   1.978   3.320   5.589
 7182SOL    HW122445   1.985   3.300   5.491
 7182SOL    HW222446   1.882   3.323   5.616
 7183SOL     OW22447   1.768   5.215   1.212
 7183SOL    HW122448   1.753   5.295   1.271
 7183SOL    HW222449   1.721   5.136   1.251
 7184SOL     OW22450   0.771   0.209   3.206
 7184SOL    HW122451   0.864   0.233   3.178
 7184SOL    HW222452   0.762   0.110   3.211
 7185SOL     OW22453   5.041   1.685   5.400
 7185SOL    HW122454   5.118   1.646   5.349
 7185SOL    HW222455   5.061   1.684   5.497
 7186SOL     OW22456   6.955   0.158   5.883
 7186SOL    HW122457   6.919   0.074   5.923
 7186SOL    HW222458   0.027   0.147   5.867
 7187SOL     OW22459   2.219   4.886   0.924
 7187SOL    HW122460   2.261   4.917   1.009
 7187SOL    HW222461   2.122   4.912   0.923
 7188SOL     OW22462   5.116   6.617   0.453
 7188SOL    HW122463   5.102   6.680   0.377
 7188SOL    HW222464   5.045   6.547   0.452
 7189SOL     OW22465   6.270   1.282   6.419
 7189SOL    HW122466   6.177   1.264   6.388
 7189SOL    HW222467   6.326   1.312   6.341
 7190SOL     OW22468   5.308   3.368   3.144
 7190SOL    HW122469   5.350   3.455   3.118
 7190SOL    HW222470   5.300   3.310   3.063
 7191SOL     OW22471   0.485   4.560   2.369
 7191SOL    HW122472   0.552   4.634   2.369
 7191SOL    HW222473   0.531   4.474   2.343
 7192SOL     OW22474   1.989   5.422   4.903
 7192SOL    HW122475   2.021   5.375   4.986
 7192SOL    HW222476   1.938   5.504   4.929
 7193SOL     OW22477   2.758   1.778   2.941
 7193SOL    HW122478   2.729   1.820   3.027
 7193SOL    HW222479   2.684   1.785   2.874
 7194SOL     OW22480   2.898   2.500   1.065
 7194SOL    HW122481   2.870   2.443   1.142
 7194SOL    HW222482   2.850   2.588   1.069
 7195SOL     OW22483   0.585   5.232   6.545
 7195SOL    HW122484   0.648   5.220   6.621
 7195SOL    HW222485   0.538   5.320   6.554
 7196SOL     OW22486   3.282   4.070   2.263
 7196SOL    HW122487   3.374   4.099   2.237
 7196SOL    HW222488   3.222   4.073   2.183
 7197SOL     OW22489   6.847   2.463   6.242
 7197SOL    HW122490   6.863   2.514   6.158
 7197SOL    HW222491   6.757   2.419   6.238
 7198SOL     OW22492   1.080   1.100   5.791
 7198SOL    HW122493   1.065   1.126   5.695
 7198SOL    HW222494   1.105   1.181   5.844
 7199SOL     OW22495   2.277   0.614   2.157
 7199SOL    HW122496   2.226   0.688   2.113
 7199SOL    HW222497   2.213   0.544   2.189
 7200SOL     OW22498   2.514   1.170   0.207
 7200SOL    HW122499   2.453   1.110   0.155
 7200SOL    HW222500   2.587   1.203   0.147
 7201SOL     OW22501   1.585   5.704   3.588
 7201SOL    HW122502   1.661   5.758   3.624
 7201SOL    HW222503   1.538   5.658   3.664
 7202SOL     OW22504   4.023   0.063   5.951
 7202SOL    HW122505   3.934   0.107   5.967
 7202SOL    HW222506   4.083   0.081   6.029
 7203SOL     OW22507   0.035   1.203   0.783
 7203SOL    HW122508   7.016   1.222   0.870
 7203SOL    HW222509   0.132   1.225   0.790
 7204SOL     OW22510   5.881   6.850   5.050
 7204SOL    HW122511   5.923   6.812   4.967
 7204SOL    HW222512   5.819   6.924   5.025
 7205SOL     OW22513   1.884   5.877   3.269
 7205SOL    HW122514   1.971   5.912   3.303
 7205SOL    HW222515   1.868   5.913   3.177
 7206SOL     OW22516   2.009   0.428   1.781
 7206SOL    HW122517   2.005   0.450   1.683
 7206SOL    HW222518   2.078   0.358   1.797
 7207SOL     OW22519   3.466   6.440   1.347
 7207SOL    HW122520   3.474   6.513   1.279
 7207SOL    HW222521   3.388   6.382   1.324
 7208SOL     OW22522   4.236   6.434   4.626
 7208SOL    HW122523   4.306   6.438   4.554
 7208SOL    HW222524   4.269   6.377   4.701
 7209SOL     OW22525   2.952   3.674   3.046
 7209SOL    HW122526   2.967   3.740   3.119
 7209SOL    HW222527   2.936   3.722   2.959
 7210SOL     OW22528   4.718   6.963   3.728
 7210SOL    HW122529   4.755   6.926   3.813
 7210SOL    HW222530   4.744   6.904   3.651
 7211SOL     OW22531   2.169   5.803   3.824
 7211SOL    HW122532   2.091   5.807   3.886
 7211SOL    HW222533   2.253   5.794   3.877
 7212SOL     OW22534   0.906   6.307   3.073
 7212SOL    HW122535   0.983   6.340   3.127
 7212SOL    HW222536   0.860   6.233   3.122
 7213SOL     OW22537   5.692   0.481   6.414
 7213SOL    HW122538   5.672   0.543   6.490
 7213SOL    HW222539   5.639   0.397   6.426
 7214SOL     OW22540   1.967   5.509   4.291
 7214SOL    HW122541   1.953   5.608   4.297
 7214SOL    HW222542   2.059   5.491   4.256
 7215SOL     OW22543   0.515   3.269   3.922
 7215SOL    HW122544   0.536   3.210   4.000
 7215SOL    HW222545   0.426   3.312   3.936
 7216SOL     OW22546   2.309   5.935   6.824
 7216SOL    HW122547   2.327   5.893   6.913
 7216SOL    HW222548   2.281   5.864   6.759
 7217SOL     OW22549   2.212   4.105   1.876
 7217SOL    HW122550   2.279   4.155   1.820
 7217SOL    HW222551   2.120   4.121   1.840
 7218SOL     OW22552   4.473   2.817   5.289
 7218SOL    HW122553   4.398   2.794   5.351
 7218SOL    HW222554   4.509   2.908   5.313
 7219SOL     OW22555   5.245   5.668   3.814
 7219SOL    HW122556   5.242   5.595   3.882
 7219SOL    HW222557   5.194   5.640   3.733
 7220SOL     OW22558   0.230   5.454   3.966
 7220SOL    HW122559   0.165   5.506   3.911
 7220SOL    HW222560   0.310   5.512   3.987
 7221SOL     OW22561   5.307   4.969   5.203
 7221SOL    HW122562   5.341   4.882   5.168
 7221SOL    HW222563   5.377   5.039   5.193
 7222SOL     OW22564   6.319   6.847   0.744
 7222SOL    HW122565   6.393   6.855   0.677
 7222SOL    HW222566   6.280   6.938   0.761
 7223SOL     OW22567   2.794   1.900   1.795
 7223SOL    HW122568   2.893   1.900   1.786
 7223SOL    HW222569   2.767   1.967   1.865
 7224SOL     OW22570   5.887   1.910   4.738
 7224SOL    HW122571   5.973   1.917   4.686
 7224SOL    HW222572   5.815   1.874   4.678
 7225SOL     OW22573   1.556   5.951   6.340
 7225SOL    HW122574   1.630   5.885   6.328
 7225SOL    HW222575   1.594   6.039   6.368
 7226SOL     OW22576   1.105   0.382   0.240
 7226SOL    HW122577   1.196   0.423   0.249
 7226SOL    HW222578   1.035   0.453   0.257
 7227SOL     OW22579   0.852   2.084   1.069
 7227SOL    HW122580   0.790   2.149   1.024
 7227SOL    HW222581   0.857   2.105   1.166
 7228SOL     OW22582   0.173   0.996   2.153
 7228SOL    HW122583   0.242   1.066   2.138
 7228SOL    HW222584   0.185   0.923   2.086
 7229SOL     OW22585   1.360   1.022   3.877
 7229SOL    HW122586   1.412   0.939   3.897
 7229SOL    HW222587   1.396   1.064   3.794
 7230SOL     OW22588   4.575   5.985   5.069
 7230SOL    HW122589   4.614   5.970   5.161
 7230SOL    HW222590   4.590   6.080   5.042
 7231SOL     OW22591   4.669   0.145   0.138
 7231SOL    HW122592   4.762   0.167   0.168
 7231SOL    HW222593   4.667   0.053   0.100
 7232SOL     OW22594   3.750   4.919   3.401
 7232SOL    HW122595   3.742   5.007   3.447
 7232SOL    HW222596   3.667   4.865   3.418
 7233SOL     OW22597   0.532   2.651   4.816
 7233SOL    HW122598   0.433   2.640   4.829
 7233SOL    HW222599   0.563   2.588   4.745
 7234SOL     OW22600   5.936   2.649   2.920
 7234SOL    HW122601   5.932   2.596   2.836
 7234SOL    HW222602   5.880   2.605   2.991
 7235SOL     OW22603   6.322   4.247   2.984
 7235SOL    HW122604   6.390   4.304   3.029
 7235SOL    HW222605   6.230   4.278   3.009
 7236SOL     OW22606   2.819   1.996   2.537
 7236SOL    HW122607   2.767   1.911   2.544
 7236SOL    HW222608   2.914   1.975   2.514
 7237SOL     OW22609   6.595   6.626   5.118
 7237SOL    HW122610   6.621   6.596   5.026
 7237SOL    HW222611   6.576   6.546   5.175
 7238SOL     OW22612   2.269   2.274   1.075
 7238SOL    HW122613   2.215   2.190   1.073
 7238SOL    HW222614   2.241   2.334   1.001
 7239SOL     OW22615   2.823   1.968   3.765
 7239SOL    HW122616   2.769   1.893   3.805
 7239SOL    HW222617   2.918   1.958   3.793
 7240SOL     OW22618   2.483   4.285   6.813
 7240SOL    HW122619   2.433   4.282   6.900
 7240SOL    HW222620   2.539   4.203   6.804
 7241SOL     OW22621   2.807   0.345   6.538
 7241SOL    HW122622   2.823   0.349   6.637
 7241SOL    HW222623   2.797   0.437   6.502
 7242SOL     OW22624   6.294   4.461   7.014
 7242SOL    HW122625   6.393   4.446   7.011
 7242SOL    HW222626   6.260   4.438   0.079
 7243SOL     OW22627   0.682   4.408   6.939
 7243SOL    HW122628   0.626   4.382   6.861
 7243SOL    HW222629   0.728   4.495   6.921
 7244SOL     OW22630   4.247   0.558   1.340
 7244SOL    HW122631   4.235   0.649   1.299
 7244SOL    HW222632   4.174   0.497   1.309
 7245SOL     OW22633   0.774   2.357   5.001
 7245SOL    HW122634   0.736   2.268   5.029
 7245SOL    HW222635   0.816   2.401   5.080
 7246SOL     OW22636   6.644   6.859   4.470
 7246SOL    HW122637   6.682   6.941   4.428
 7246SOL    HW222638   6.716   6.789   4.477
 7247SOL     OW22639   2.806   6.864   2.898
 7247SOL    HW122640   2.750   6.898   2.974
 7247SOL    HW222641   2.825   6.767   2.913
 7248SOL     OW22642   3.287   1.223   3.788
 7248SOL    HW122643   3.328   1.239   3.698
 7248SOL    HW222644   3.353   1.244   3.860
 7249SOL     OW22645   5.919   4.983   2.179
 7249SOL    HW122646   5.990   4.916   2.159
 7249SOL    HW222647   5.838   4.963   2.123
 7250SOL     OW22648   2.686   4.748   6.204
 7250SOL    HW122649   2.666   4.846   6.205
 7250SOL    HW222650   2.780   4.733   6.175
 7251SOL     OW22651   6.932   6.549   5.426
 7251SOL    HW122652   6.974   6.488   5.359
 7251SOL    HW222653   6.862   6.605   5.380
 7252SOL     OW22654   3.546   3.175   4.757
 7252SOL    HW122655   3.584   3.126   4.836
 7252SOL    HW222656   3.617   3.187   4.688
 7253SOL     OW22657   1.627   6.396   0.419
 7253SOL    HW122658   1.582   6.333   0.356
 7253SOL    HW222659   1.700   6.348   0.468
 7254SOL     OW22660   3.616   5.500   5.134
 7254SOL    HW122661   3.674   5.535   5.060
 7254SOL    HW222662   3.648   5.536   5.222
 7255SOL     OW22663   3.519   3.814   1.977
 7255SOL    HW122664   3.554   3.762   2.055
 7255SOL    HW222665   3.419   3.810   1.976
 7256SOL     OW22666   4.896   4.856   4.817
 7256SOL    HW122667   4.877   4.908   4.900
 7256SOL    HW222668   4.921   4.918   4.743
 7257SOL     OW22669   5.812   3.293   3.328
 7257SOL    HW122670   5.896   3.284   3.275
 7257SOL    HW222671   5.767   3.379   3.306
 7258SOL     OW22672   4.216   0.077   4.597
 7258SOL    HW122673   4.188   0.154   4.654
 7258SOL    HW222674   4.145   0.007   4.599
 7259SOL     OW22675   3.088   3.907   1.179
 7259SOL    HW122676   3.160   3.964   1.138
 7259SOL    HW222677   3.056   3.949   1.264
 7260SOL     OW22678   3.532   1.592   3.185
 7260SOL    HW122679   3.434   1.573   3.197
 7260SOL    HW222680   3.543   1.666   3.119
 7261SOL     OW22681   2.589   2.876   1.702
 7261SOL    HW122682   2.521   2.943   1.672
 7261SOL    HW222683   2.548   2.785   1.706
 7262SOL     OW22684   6.209   2.360   4.318
 7262SOL    HW122685   6.146   2.414   4.262
 7262SOL    HW222686   6.267   2.305   4.258
 7263SOL     OW22687   1.131   5.464   1.807
 7263SOL    HW122688   1.176   5.446   1.720
 7263SOL    HW222689   1.141   5.385   1.867
 7264SOL     OW22690   0.120   1.893   6.773
 7264SOL    HW122691   0.092   1.899   6.677
 7264SOL    HW222692   0.170   1.976   6.799
 7265SOL     OW22693   5.518   5.170   6.186
 7265SOL    HW122694   5.488   5.157   6.280
 7265SOL    HW222695   5.615   5.146   6.178
 7266SOL     OW22696   4.045   0.540   0.961
 7266SOL    HW122697   4.010   0.600   0.889
 7266SOL    HW222698   3.970   0.517   1.024
 7267SOL     OW22699   6.411   4.703   5.148
 7267SOL    HW122700   6.467   4.665   5.075
 7267SOL    HW222701   6.315   4.702   5.120
 7268SOL     OW22702   4.144   5.054   2.968
 7268SOL    HW122703   4.113   4.964   2.939
 7268SOL    HW222704   4.087   5.087   3.043
 7269SOL     OW22705   0.722   5.846   1.435
 7269SOL    HW122706   0.714   5.852   1.535
 7269SOL    HW222707   0.794   5.908   1.404
 7270SOL     OW22708   2.349   1.836   3.336
 7270SOL    HW122709   2.344   1.769   3.262
 7270SOL    HW222710   2.440   1.833   3.377
 7271SOL     OW22711   0.448   4.372   3.087
 7271SOL    HW122712   0.409   4.414   3.169
 7271SOL    HW222713   0.501   4.440   3.037
 7272SOL     OW22714   5.562   3.004   3.002
 7272SOL    HW122715   5.579   3.102   2.996
 7272SOL    HW222716   5.620   2.955   2.936
 7273SOL     OW22717   5.694   4.158   1.489
 7273SOL    HW122718   5.749   4.196   1.415
 7273SOL    HW222719   5.600   4.190   1.481
 7274SOL     OW22720   7.000   5.477   6.290
 7274SOL    HW122721   6.993   5.476   6.190
 7274SOL    HW222722   0.040   5.547   6.318
 7275SOL     OW22723   6.459   0.617   0.432
 7275SOL    HW122724   6.385   0.616   0.499
 7275SOL    HW222725   6.478   0.711   0.404
 7276SOL     OW22726   2.846   1.493   3.514
 7276SOL    HW122727   2.792   1.450   3.443
 7276SOL    HW222728   2.913   1.556   3.473
 7277SOL     OW22729   4.740   1.182   5.685
 7277SOL    HW122730   4.656   1.128   5.686
 7277SOL    HW222731   4.718   1.279   5.680
 7278SOL     OW22732   3.997   1.866   3.374
 7278SOL    HW122733   4.022   1.950   3.423
 7278SOL    HW222734   4.078   1.811   3.358
 7279SOL     OW22735   4.200   4.367   0.797
 7279SOL    HW122736   4.286   4.354   0.846
 7279SOL    HW222737   4.199   4.310   0.715
 7280SOL     OW22738   5.301   2.542   5.270
 7280SOL    HW122739   5.311   2.581   5.361
 7280SOL    HW222740   5.290   2.615   5.203
 7281SOL     OW22741   3.359   0.129   0.728
 7281SOL    HW122742   3.348   0.165   0.821
 7281SOL    HW222743   3.340   0.201   0.662
 7282SOL     OW22744   6.756   5.457   1.746
 7282SOL    HW122745   6.847   5.484   1.716
 7282SOL    HW222746   6.720   5.525   1.810
 7283SOL     OW22747   3.078   6.856   2.273
 7283SOL    HW122748   3.062   6.811   2.361
 7283SOL    HW222749   2.992   6.895   2.240
 7284SOL     OW22750   6.521   2.721   3.869
 7284SOL    HW122751   6.479   2.812   3.872
 7284SOL    HW222752   6.611   2.727   3.827
 7285SOL     OW22753   5.020   2.822   1.450
 7285SOL    HW122754   4.977   2.764   1.519
 7285SOL    HW222755   5.095   2.773   1.407
 7286SOL     OW22756   0.974   1.323   0.460
 7286SOL    HW122757   0.919   1.278   0.389
 7286SOL    HW222758   1.000   1.255   0.529
 7287SOL     OW22759   0.081   2.523   3.927
 7287SOL    HW122760   0.038   2.562   3.845
 7287SOL    HW222761   0.013   2.515   4.000
 7288SOL     OW22762   2.541   2.536   2.819
 7288SOL    HW122763   2.512   2.631   2.825
 7288SOL    HW222764   2.562   2.502   2.911
 7289SOL     OW22765   5.303   2.879   1.751
 7289SOL    HW122766   5.285   2.835   1.840
 7289SOL    HW222767   5.273   2.818   1.678
 7290SOL     OW22768   4.124   0.571   5.802
 7290SOL    HW122769   4.027   0.595   5.805
 7290SOL    HW222770   4.178   0.646   5.840
 7291SOL     OW22771   3.095   0.024   0.001
 7291SOL    HW122772   3.164   0.044   0.071
 7291SOL    HW222773   3.029   0.100   7.022
 7292SOL     OW22774   1.768   6.921   3.492
 7292SOL    HW122775   1.845   6.978   3.520
 7292SOL    HW222776   1.767   6.913   3.392
 7293SOL     OW22777   1.173   1.361   5.582
 7293SOL    HW122778   1.217   1.304   5.653
 7293SOL    HW222779   1.146   1.302   5.506
 7294SOL     OW22780   2.888   4.611   1.609
 7294SOL    HW122781   2.899   4.555   1.691
 7294SOL    HW222782   2.853   4.554   1.534
 7295SOL     OW22783   6.181   4.973   1.639
 7295SOL    HW122784   6.132   5.027   1.571
 7295SOL    HW222785   6.276   4.961   1.610
 7296SOL     OW22786   3.388   4.954   2.786
 7296SOL    HW122787   3.471   4.970   2.732
 7296SOL    HW222788   3.384   5.020   2.861
 7297SOL     OW22789   3.156   6.293   1.874
 7297SOL    HW122790   3.145   6.315   1.777
 7297SOL    HW222791   3.234   6.231   1.885
 7298SOL     OW22792   4.606   6.356   6.560
 7298SOL    HW122793   4.556   6.272   6.539
 7298SOL    HW222794   4.599   6.419   6.484
 7299SOL     OW22795   1.118   2.763   6.984
 7299SOL    HW122796   1.020   2.753   7.003
 7299SOL    HW222797   1.157   2.674   6.962
 7300SOL     OW22798   0.849   4.894   2.114
 7300SOL    HW122799   0.906   4.916   2.193
 7300SOL    HW222800   0.794   4.974   2.089
 7301SOL     OW22801   6.727   0.685   5.886
 7301SOL    HW122802   6.656   0.701   5.955
 7301SOL    HW222803   6.707   0.741   5.805
 7302SOL     OW22804   5.815   2.835   5.989
 7302SOL    HW122805   5.744   2.906   5.995
 7302SOL    HW222806   5.781   2.752   6.033
 7303SOL     OW22807   3.267   1.498   0.615
 7303SOL    HW122808   3.322   1.550   0.549
 7303SOL    HW222809   3.229   1.417   0.569
 7304SOL     OW22810   2.443   5.459   2.060
 7304SOL    HW122811   2.463   5.367   2.092
 7304SOL    HW222812   2.344   5.474   2.060
 7305SOL     OW22813   5.496   2.405   0.214
 7305SOL    HW122814   5.423   2.425   0.148
 7305SOL    HW222815   5.466   2.332   0.276
 7306SOL     OW22816   3.686   1.848   1.117
 7306SOL    HW122817   3.740   1.921   1.075
 7306SOL    HW222818   3.595   1.883   1.140
 7307SOL     OW22819   3.652   6.540   1.827
 7307SOL    HW122820   3.563   6.511   1.792
 7307SOL    HW222821   3.657   6.517   1.925
 7308SOL     OW22822   6.180   1.097   2.248
 7308SOL    HW122823   6.218   1.033   2.314
 7308SOL    HW222824   6.227   1.086   2.160
 7309SOL     OW22825   2.774   6.000   2.939
 7309SOL    HW122826   2.716   6.042   3.009
 7309SOL    HW222827   2.727   6.002   2.851
 7310SOL     OW22828   1.536   3.275   0.447
 7310SOL    HW122829   1.568   3.370   0.438
 7310SOL    HW222830   1.537   3.231   0.357
 7311SOL     OW22831   1.014   0.629   0.385
 7311SOL    HW122832   0.928   0.665   0.421
 7311SOL    HW222833   1.066   0.703   0.343
 7312SOL     OW22834   0.232   1.854   5.262
 7312SOL    HW122835   0.275   1.873   5.350
 7312SOL    HW222836   0.162   1.783   5.274
 7313SOL     OW22837   2.702   0.938   1.230
 7313SOL    HW122838   2.702   0.839   1.217
 7313SOL    HW222839   2.776   0.978   1.175
 7314SOL     OW22840   7.012   3.922   6.975
 7314SOL    HW122841   7.016   3.872   6.889
 7314SOL    HW222842   0.072   3.910   7.025
 7315SOL     OW22843   6.500   5.399   2.534
 7315SOL    HW122844   6.400   5.403   2.533
 7315SOL    HW222845   6.537   5.492   2.530
 7316SOL     OW22846   3.237   2.184   6.281
 7316SOL    HW122847   3.214   2.280   6.265
 7316SOL    HW222848   3.206   2.157   6.372
 7317SOL     OW22849   3.361   1.683   1.861
 7317SOL    HW122850   3.375   1.598   1.912
 7317SOL    HW222851   3.400   1.673   1.769
 7318SOL     OW22852   4.024   6.713   2.432
 7318SOL    HW122853   4.015   6.794   2.374
 7318SOL    HW222854   4.088   6.732   2.507
 7319SOL     OW22855   0.056   3.827   6.725
 7319SOL    HW122856   0.016   3.865   6.641
 7319SOL    HW222857   0.155   3.833   6.721
 7320SOL     OW22858   0.132   3.958   1.244
 7320SOL    HW122859   0.217   3.972   1.293
 7320SOL    HW222860   0.088   4.047   1.228
 7321SOL     OW22861   1.889   6.315   6.238
 7321SOL    HW122862   1.966   6.252   6.234
 7321SOL    HW222863   1.804   6.264   6.245
 7322SOL     OW22864   1.111   1.504   3.029
 7322SOL    HW122865   1.055   1.577   2.991
 7322SOL    HW222866   1.156   1.537   3.112
 7323SOL     OW22867   2.161   1.225   1.969
 7323SOL    HW122868   2.219   1.232   2.051
 7323SOL    HW222869   2.160   1.313   1.922
 7324SOL     OW22870   5.882   4.411   2.273
 7324SOL    HW122871   5.841   4.334   2.226
 7324SOL    HW222872   5.812   4.461   2.323
 7325SOL     OW22873   3.481   0.463   5.845
 7325SOL    HW122874   3.576   0.440   5.827
 7325SOL    HW222875   3.434   0.481   5.759
 7326SOL     OW22876   3.234   0.629   6.268
 7326SOL    HW122877   3.173   0.558   6.233
 7326SOL    HW222878   3.328   0.594   6.273
 7327SOL     OW22879   5.800   3.674   2.841
 7327SOL    HW122880   5.712   3.631   2.820
 7327SOL    HW222881   5.784   3.769   2.869
 7328SOL     OW22882   3.871   5.316   6.100
 7328SOL    HW122883   3.941   5.277   6.040
 7328SOL    HW222884   3.808   5.372   6.046
 7329SOL     OW22885   1.437   2.696   6.802
 7329SOL    HW122886   1.521   2.644   6.786
 7329SOL    HW222887   1.358   2.635   6.792
 7330SOL     OW22888   2.964   3.107   1.228
 7330SOL    HW122889   3.045   3.140   1.277
 7330SOL    HW222890   2.933   3.021   1.268
 7331SOL     OW22891   5.051   0.436   1.887
 7331SOL    HW122892   4.980   0.506   1.891
 7331SOL    HW222893   5.131   0.471   1.839
 7332SOL     OW22894   4.189   4.155   0.177
 7332SOL    HW122895   4.288   4.155   0.161
 7332SOL    HW222896   4.149   4.238   0.139
 7333SOL     OW22897   6.036   3.327   3.169
 7333SOL    HW122898   6.030   3.378   3.083
 7333SOL    HW222899   6.063   3.232   3.149
 7334SOL     OW22900   2.848   6.474   6.283
 7334SOL    HW122901   2.943   6.450   6.264
 7334SOL    HW222902   2.845   6.552   6.345
 7335SOL     OW22903   6.653   3.764   2.993
 7335SOL    HW122904   6.668   3.665   2.989
 7335SOL    HW222905   6.678   3.806   2.906
 7336SOL     OW22906   1.692   6.189   0.911
 7336SOL    HW122907   1.737   6.121   0.853
 7336SOL    HW222908   1.744   6.199   0.996
 7337SOL     OW22909   3.640   2.623   1.782
 7337SOL    HW122910   3.579   2.683   1.834
 7337SOL    HW222911   3.633   2.530   1.818
 7338SOL     OW22912   5.588   2.837   1.233
 7338SOL    HW122913   5.567   2.850   1.136
 7338SOL    HW222914   5.677   2.879   1.253
 7339SOL     OW22915   0.101   6.066   4.814
 7339SOL    HW122916   0.024   6.062   4.878
 7339SOL    HW222917   0.187   6.060   4.864
 7340SOL     OW22918   3.460   1.257   0.311
 7340SOL    HW122919   3.536   1.198   0.285
 7340SOL    HW222920   3.378   1.202   0.324
 7341SOL     OW22921   0.520   4.883   3.805
 7341SOL    HW122922   0.464   4.955   3.846
 7341SOL    HW222923   0.594   4.925   3.752
 7342SOL     OW22924   6.667   0.658   0.657
 7342SOL    HW122925   6.602   0.673   0.731
 7342SOL    HW222926   6.617   0.635   0.573
 7343SOL     OW22927   6.105   3.845   1.903
 7343SOL    HW122928   6.070   3.835   1.996
 7343SOL    HW222929   6.041   3.899   1.849
 7344SOL     OW22930   1.506   6.604   6.606
 7344SOL    HW122931   1.597   6.601   6.646
 7344SOL    HW222932   1.507   6.556   6.518
 7345SOL     OW22933   4.505   4.618   5.723
 7345SOL    HW122934   4.468   4.667   5.802
 7345SOL    HW222935   4.429   4.579   5.670
 7346SOL     OW22936   3.566   4.119   1.385
 7346SOL    HW122937   3.631   4.191   1.409
 7346SOL    HW222938   3.499   4.109   1.458
 7347SOL     OW22939   6.070   2.509   2.193
 7347SOL    HW122940   6.090   2.576   2.121
 7347SOL    HW222941   6.136   2.434   2.188
 7348SOL     OW22942   1.194   3.326   3.968
 7348SOL    HW122943   1.239   3.248   3.927
 7348SOL    HW222944   1.170   3.305   4.063
 7349SOL     OW22945   3.383   2.040   1.465
 7349SOL    HW122946   3.479   2.051   1.491
 7349SOL    HW222947   3.377   2.005   1.372
 7350SOL     OW22948   0.386   2.435   3.717
 7350SOL    HW122949   0.334   2.461   3.798
 7350SOL    HW222950   0.323   2.404   3.645
 7351SOL     OW22951   4.260   4.682   6.931
 7351SOL    HW122952   4.347   4.701   6.886
 7351SOL    HW222953   4.241   4.583   6.928
 7352SOL     OW22954   1.662   1.554   2.898
 7352SOL    HW122955   1.592   1.594   2.958
 7352SOL    HW222956   1.678   1.459   2.925
 7353SOL     OW22957   6.846   2.043   5.260
 7353SOL    HW122958   6.926   2.066   5.206
 7353SOL    HW222959   6.874   1.994   5.343
 7354SOL     OW22960   6.475   1.165   5.976
 7354SOL    HW122961   6.571   1.138   5.977
 7354SOL    HW222962   6.431   1.131   6.059
 7355SOL     OW22963   1.725   5.866   1.304
 7355SOL    HW122964   1.802   5.827   1.354
 7355SOL    HW222965   1.756   5.948   1.255
 7356SOL     OW22966   5.558   2.531   6.478
 7356SOL    HW122967   5.477   2.550   6.534
 7356SOL    HW222968   5.628   2.600   6.496
 7357SOL     OW22969   4.948   0.899   1.207
 7357SOL    HW122970   4.963   0.814   1.258
 7357SOL    HW222971   4.930   0.878   1.111
 7358SOL     OW22972   3.461   1.856   3.039
 7358SOL    HW122973   3.522   1.934   3.026
 7358SOL    HW222974   3.375   1.887   3.080
 7359SOL     OW22975   3.315   2.638   1.699
 7359SOL    HW122976   3.298   2.659   1.603
 7359SOL    HW222977   3.369   2.711   1.740
 7360SOL     OW22978   1.490   2.761   4.712
 7360SOL    HW122979   1.470   2.822   4.788
 7360SOL    HW222980   1.586   2.736   4.712
 7361SOL     OW22981   4.902   0.145   0.896
 7361SOL    HW122982   4.885   0.225   0.954
 7361SOL    HW222983   4.920   0.175   0.802
 7362SOL     OW22984   0.857   0.173   5.180
 7362SOL    HW122985   0.938   0.226   5.207
 7362SOL    HW222986   0.785   0.186   5.247
 7363SOL     OW22987   5.408   2.208   0.422
 7363SOL    HW122988   5.481   2.140   0.428
 7363SOL    HW222989   5.405   2.261   0.507
 7364SOL     OW22990   4.182   6.458   1.349
 7364SOL    HW122991   4.221   6.391   1.286
 7364SOL    HW222992   4.177   6.418   1.441
 7365SOL     OW22993   3.408   6.425   2.325
 7365SOL    HW122994   3.455   6.340   2.304
 7365SOL    HW222995   3.466   6.483   2.383
 7366SOL     OW22996   0.863   5.344   0.108
 7366SOL    HW122997   0.805   5.423   0.125
 7366SOL    HW222998   0.906   5.314   0.193
 7367SOL     OW22999   4.375   4.035   1.431
 7367SOL    HW123000   4.307   4.019   1.502
 7367SOL    HW223001   4.364   3.966   1.359
 7368SOL     OW23002   3.244   3.474   4.590
 7368SOL    HW123003   3.217   3.553   4.645
 7368SOL    HW223004   3.171   3.405   4.593
 7369SOL     OW23005   4.779   3.344   1.273
 7369SOL    HW123006   4.875   3.329   1.295
 7369SOL    HW223007   4.766   3.440   1.245
 7370SOL     OW23008   1.592   0.473   6.662
 7370SOL    HW123009   1.646   0.541   6.612
 7370SOL    HW223010   1.652   0.420   6.722
 7371SOL     OW23011   2.903   5.370   3.806
 7371SOL    HW123012   2.821   5.312   3.806
 7371SOL    HW223013   2.876   5.465   3.796
 7372SOL     OW23014   3.589   6.930   5.510
 7372SOL    HW123015   3.516   6.905   5.573
 7372SOL    HW223016   3.648   6.851   5.493
 7373SOL     OW23017   4.933   1.259   3.345
 7373SOL    HW123018   4.985   1.179   3.314
 7373SOL    HW223019   4.992   1.339   3.346
 7374SOL     OW23020   2.161   2.881   5.110
 7374SOL    HW123021   2.204   2.834   5.188
 7374SOL    HW223022   2.231   2.927   5.056
 7375SOL     OW23023   1.654   1.676   3.884
 7375SOL    HW123024   1.608   1.751   3.932
 7375SOL    HW223025   1.696   1.710   3.801
 7376SOL     OW23026   3.000   2.741   6.880
 7376SOL    HW123027   3.029   2.688   6.800
 7376SOL    HW223028   2.952   2.682   6.944
 7377SOL     OW23029   4.605   5.536   1.850
 7377SOL    HW123030   4.668   5.610   1.873
 7377SOL    HW223031   4.541   5.521   1.926
 7378SOL     OW23032   6.285   1.984   4.291
 7378SOL    HW123033   6.232   1.986   4.206
 7378SOL    HW223034   6.283   1.891   4.328
 7379SOL     OW23035   4.493   0.925   2.665
 7379SOL    HW123036   4.497   0.990   2.589
 7379SOL    HW223037   4.580   0.875   2.671
 7380SOL     OW23038   6.505   3.430   6.082
 7380SOL    HW123039   6.579   3.407   6.019
 7380SOL    HW223040   6.507   3.366   6.159
 7381SOL     OW23041   4.608   2.668   2.736
 7381SOL    HW123042   4.557   2.747   2.771
 7381SOL    HW223043   4.630   2.606   2.811
 7382SOL     OW23044   0.428   4.844   4.785
 7382SOL    HW123045   0.367   4.869   4.860
 7382SOL    HW223046   0.374   4.817   4.705
 7383SOL     OW23047   6.735   6.784   2.349
 7383SOL    HW123048   6.828   6.762   2.321
 7383SOL    HW223049   6.725   6.767   2.448
 7384SOL     OW23050   5.302   1.120   1.898
 7384SOL    HW123051   5.348   1.032   1.890
 7384SOL    HW223052   5.311   1.170   1.812
 7385SOL     OW23053   4.366   5.394   2.118
 7385SOL    HW123054   4.294   5.425   2.056
 7385SOL    HW223055   4.326   5.339   2.191
 7386SOL     OW23056   0.796   2.846   5.462
 7386SOL    HW123057   0.836   2.931   5.427
 7386SOL    HW223058   0.865   2.774   5.461
 7387SOL     OW23059   4.048   6.228   4.516
 7387SOL    HW123060   4.076   6.324   4.520
 7387SOL    HW223061   4.123   6.173   4.479
 7388SOL     OW23062   6.765   5.889   4.115
 7388SOL    HW123063   6.787   5.968   4.057
 7388SOL    HW223064   6.797   5.805   4.071
 7389SOL     OW23065   1.414   4.577   6.757
 7389SOL    HW123066   1.350   4.533   6.694
 7389SOL    HW223067   1.381   4.564   6.851
 7390SOL     OW23068   1.240   1.788   6.519
 7390SOL    HW123069   1.294   1.872   6.513
 7390SOL    HW223070   1.150   1.803   6.479
 7391SOL     OW23071   4.774   4.269   5.397
 7391SOL    HW123072   4.793   4.184   5.446
 7391SOL    HW223073   4.858   4.322   5.389
 7392SOL     OW23074   1.997   5.960   5.885
 7392SOL    HW123075   1.968   6.056   5.887
 7392SOL    HW223076   1.916   5.902   5.882
 7393SOL     OW23077   5.745   5.383   1.569
 7393SOL    HW123078   5.729   5.477   1.599
 7393SOL    HW223079   5.740   5.379   1.469
 7394SOL     OW23080   3.745   3.110   6.112
 7394SOL    HW123081   3.834   3.068   6.130
 7394SOL    HW223082   3.758   3.202   6.076
 7395SOL     OW23083   0.599   0.202   6.604
 7395SOL    HW123084   0.548   0.215   6.689
 7395SOL    HW223085   0.684   0.154   6.624
 7396SOL     OW23086   1.597   0.949   6.558
 7396SOL    HW123087   1.689   0.940   6.596
 7396SOL    HW223088   1.600   1.006   6.476
 7397SOL     OW23089   6.252   4.978   4.471
 7397SOL    HW123090   6.282   4.962   4.565
 7397SOL    HW223091   6.213   5.070   4.464
 7398SOL     OW23092   3.635   5.253   4.247
 7398SOL    HW123093   3.584   5.230   4.164
 7398SOL    HW223094   3.572   5.282   4.319
 7399SOL     OW23095   0.378   4.008   5.524
 7399SOL    HW123096   0.394   3.910   5.508
 7399SOL    HW223097   0.465   4.056   5.528
 7400SOL     OW23098   3.247   4.259   6.869
 7400SOL    HW123099   3.194   4.177   6.893
 7400SOL    HW223100   3.338   4.253   6.910
 7401SOL     OW23101   0.557   1.152   3.570
 7401SOL    HW123102   0.544   1.164   3.668
 7401SOL    HW223103   0.625   1.218   3.537
 7402SOL     OW23104   2.093   0.090   4.017
 7402SOL    HW123105   2.103   0.002   3.970
 7402SOL    HW223106   2.005   0.131   3.993
 7403SOL     OW23107   2.292   2.860   3.022
 7403SOL    HW123108   2.287   2.924   3.099
 7403SOL    HW223109   2.272   2.768   3.055
 7404SOL     OW23110   2.112   0.224   1.296
 7404SOL    HW123111   2.160   0.312   1.293
 7404SOL    HW223112   2.047   0.219   1.220
 7405SOL     OW23113   1.141   4.668   4.318
 7405SOL    HW123114   1.184   4.703   4.402
 7405SOL    HW223115   1.153   4.569   4.313
 7406SOL     OW23116   1.633   3.800   2.745
 7406SOL    HW123117   1.725   3.823   2.777
 7406SOL    HW223118   1.570   3.801   2.823
 7407SOL     OW23119   0.497   6.394   4.494
 7407SOL    HW123120   0.418   6.335   4.482
 7407SOL    HW223121   0.546   6.368   4.577
 7408SOL     OW23122   1.366   4.294   5.502
 7408SOL    HW123123   1.407   4.239   5.429
 7408SOL    HW223124   1.427   4.297   5.580
 7409SOL     OW23125   0.711   0.933   4.550
 7409SOL    HW123126   0.708   1.027   4.584
 7409SOL    HW223127   0.761   0.876   4.615
 7410SOL     OW23128   6.911   4.777   1.148
 7410SOL    HW123129   6.819   4.737   1.150
 7410SOL    HW223130   6.969   4.732   1.216
 7411SOL     OW23131   2.545   0.027   4.497
 7411SOL    HW123132   2.473   0.033   4.428
 7411SOL    HW223133   2.610   0.101   4.483
 7412SOL     OW23134   3.036   1.154   1.309
 7412SOL    HW123135   3.041   1.072   1.254
 7412SOL    HW223136   3.005   1.231   1.253
 7413SOL     OW23137   0.375   4.479   3.493
 7413SOL    HW123138   0.423   4.533   3.562
 7413SOL    HW223139   0.361   4.535   3.411
 7414SOL     OW23140   0.093   0.436   2.459
 7414SOL    HW123141   0.055   0.371   2.525
 7414SOL    HW223142   0.116   0.522   2.506
 7415SOL     OW23143   0.873   3.682   3.450
 7415SOL    HW123144   0.823   3.726   3.525
 7415SOL    HW223145   0.909   3.753   3.389
 7416SOL     OW23146   3.540   1.031   4.124
 7416SOL    HW123147   3.539   1.063   4.029
 7416SOL    HW223148   3.626   1.059   4.167
 7417SOL     OW23149   1.136   0.013   5.777
 7417SOL    HW123150   1.059   6.975   5.784
 7417SOL    HW223151   1.218   6.989   5.751
 7418SOL     OW23152   3.604   4.513   0.876
 7418SOL    HW123153   3.506   4.519   0.895
 7418SOL    HW223154   3.653   4.576   0.936
 7419SOL     OW23155   5.802   2.064   5.214
 7419SOL    HW123156   5.808   1.970   5.180
 7419SOL    HW223157   5.722   2.073   5.274
 7420SOL     OW23158   6.312   6.970   2.459
 7420SOL    HW123159   6.317   7.002   2.554
 7420SOL    HW223160   6.269   0.014   2.402
 7421SOL     OW23161   2.682   3.157   1.195
 7421SOL    HW123162   2.664   3.235   1.136
 7421SOL    HW223163   2.781   3.140   1.198
 7422SOL     OW23164   6.812   3.349   2.308
 7422SOL    HW123165   6.754   3.374   2.385
 7422SOL    HW223166   6.775   3.269   2.262
 7423SOL     OW23167   0.514   4.449   6.174
 7423SOL    HW123168   0.594   4.487   6.222
 7423SOL    HW223169   0.451   4.524   6.152
 7424SOL     OW23170   6.019   1.293   4.063
 7424SOL    HW123171   5.990   1.383   4.031
 7424SOL    HW223172   5.982   1.223   4.001
 7425SOL     OW23173   3.832   4.913   6.841
 7425SOL    HW123174   3.925   4.933   6.871
 7425SOL    HW223175   3.830   4.823   6.796
 7426SOL     OW23176   0.563   2.199   6.703
 7426SOL    HW123177   0.658   2.167   6.704
 7426SOL    HW223178   0.555   2.279   6.762
 7427SOL     OW23179   3.184   5.817   4.554
 7427SOL    HW123180   3.138   5.903   4.537
 7427SOL    HW223181   3.121   5.753   4.599
 7428SOL     OW23182   3.781   1.701   5.721
 7428SOL    HW123183   3.771   1.738   5.629
 7428SOL    HW223184   3.842   1.622   5.719
 7429SOL     OW23185   6.053   0.111   2.894
 7429SOL    HW123186   6.031   0.024   2.849
 7429SOL    HW223187   6.106   0.093   2.977
 7430SOL     OW23188   0.220   4.562   5.512
 7430SOL    HW123189   0.265   4.615   5.584
 7430SOL    HW223190   0.127   4.540   5.540
 7431SOL     OW23191   0.906   3.957   2.209
 7431SOL    HW123192   1.004   3.972   2.197
 7431SOL    HW223193   0.891   3.876   2.265
 7432SOL     OW23194   0.109   6.309   3.965
 7432SOL    HW123195   0.162   6.296   4.049
 7432SOL    HW223196   0.170   6.341   3.892
 7433SOL     OW23197   6.389   4.976   0.949
 7433SOL    HW123198   6.412   4.974   1.046
 7433SOL    HW223199   6.294   5.003   0.937
 7434SOL     OW23200   3.315   1.059   6.901
 7434SOL    HW123201   3.319   0.980   6.962
 7434SOL    HW223202   3.315   1.027   6.806
 7435SOL     OW23203   3.572   6.659   6.644
 7435SOL    HW123204   3.595   6.571   6.603
 7435SOL    HW223205   3.484   6.691   6.609
 7436SOL     OW23206   6.571   2.749   6.595
 7436SOL    HW123207   6.573   2.803   6.511
 7436SOL    HW223208   6.553   2.653   6.573
 7437SOL     OW23209   6.856   5.236   6.775
 7437SOL    HW123210   6.853   5.195   6.683
 7437SOL    HW223211   6.933   5.199   6.826
 7438SOL     OW23212   1.414   3.716   1.460
 7438SOL    HW123213   1.411   3.803   1.411
 7438SOL    HW223214   1.503   3.706   1.505
 7439SOL     OW23215   2.714   6.906   4.080
 7439SOL    HW123216   2.737   6.995   4.119
 7439SOL    HW223217   2.798   6.854   4.064
 7440SOL     OW23218   0.635   3.303   4.819
 7440SOL    HW123219   0.678   3.244   4.888
 7440SOL    HW223220   0.691   3.385   4.806
 7441SOL     OW23221   5.785   6.324   4.369
 7441SOL    HW123222   5.776   6.373   4.455
 7441SOL    HW223223   5.850   6.372   4.310
 7442SOL     OW23224   1.185   0.516   6.539
 7442SOL    HW123225   1.130   0.511   6.622
 7442SOL    HW223226   1.170   0.605   6.494
 7443SOL     OW23227   0.408   1.748   0.549
 7443SOL    HW123228   0.465   1.670   0.577
 7443SOL    HW223229   0.363   1.787   0.630
 7444SOL     OW23230   0.381   3.345   6.175
 7444SOL    HW123231   0.450   3.339   6.104
 7444SOL    HW223232   0.370   3.256   6.219
 7445SOL     OW23233   4.241   1.597   1.538
 7445SOL    HW123234   4.298   1.618   1.617
 7445SOL    HW223235   4.298   1.591   1.456
 7446SOL     OW23236   5.817   4.600   0.326
 7446SOL    HW123237   5.720   4.614   0.310
 7446SOL    HW223238   5.870   4.669   0.277
 7447SOL     OW23239   2.593   4.031   6.149
 7447SOL    HW123240   2.659   4.035   6.074
 7447SOL    HW223241   2.593   3.939   6.189
 7448SOL     OW23242   5.471   6.730   5.701
 7448SOL    HW123243   5.454   6.793   5.625
 7448SOL    HW223244   5.458   6.778   5.788
 7449SOL     OW23245   4.829   2.470   2.474
 7449SOL    HW123246   4.850   2.559   2.434
 7449SOL    HW223247   4.730   2.462   2.488
 7450SOL     OW23248   5.007   2.805   4.334
 7450SOL    HW123249   5.039   2.856   4.253
 7450SOL    HW223250   5.084   2.754   4.373
 7451SOL     OW23251   1.528   0.631   3.748
 7451SOL    HW123252   1.483   0.640   3.659
 7451SOL    HW223253   1.627   0.626   3.733
 7452SOL     OW23254   1.798   0.264   4.704
 7452SOL    HW123255   1.826   0.308   4.789
 7452SOL    HW223256   1.714   0.306   4.671
 7453SOL     OW23257   5.340   5.925   5.349
 7453SOL    HW123258   5.417   5.869   5.321
 7453SOL    HW223259   5.344   6.014   5.302
 7454SOL     OW23260   1.044   2.935   1.432
 7454SOL    HW123261   0.967   2.936   1.369
 7454SOL    HW223262   1.080   2.843   1.441
 7455SOL     OW23263   6.768   1.379   1.558
 7455SOL    HW123264   6.808   1.339   1.640
 7455SOL    HW223265   6.827   1.452   1.524
 7456SOL     OW23266   1.614   2.324   4.657
 7456SOL    HW123267   1.633   2.226   4.664
 7456SOL    HW223268   1.646   2.358   4.568
 7457SOL     OW23269   4.976   0.466   6.099
 7457SOL    HW123270   5.065   0.505   6.077
 7457SOL    HW223271   4.914   0.539   6.128
 7458SOL     OW23272   1.946   6.758   6.654
 7458SOL    HW123273   1.936   6.855   6.678
 7458SOL    HW223274   2.026   6.746   6.595
 7459SOL     OW23275   4.256   0.119   0.343
 7459SOL    HW123276   4.334   0.181   0.340
 7459SOL    HW223277   4.236   0.087   0.250
 7460SOL     OW23278   1.983   5.341   0.052
 7460SOL    HW123279   1.941   5.342   0.143
 7460SOL    HW223280   2.065   5.397   0.053
 7461SOL     OW23281   5.250   1.487   5.318
 7461SOL    HW123282   5.251   1.439   5.405
 7461SOL    HW223283   5.339   1.528   5.301
 7462SOL     OW23284   1.308   2.365   2.089
 7462SOL    HW123285   1.278   2.336   1.998
 7462SOL    HW223286   1.404   2.338   2.103
 7463SOL     OW23287   3.591   3.377   1.262
 7463SOL    HW123288   3.670   3.418   1.308
 7463SOL    HW223289   3.575   3.425   1.176
 7464SOL     OW23290   3.669   6.159   6.632
 7464SOL    HW123291   3.717   6.238   6.672
 7464SOL    HW223292   3.737   6.091   6.603
 7465SOL     OW23293   1.684   6.885   1.131
 7465SOL    HW123294   1.601   6.856   1.083
 7465SOL    HW223295   1.659   6.928   1.218
 7466SOL     OW23296   0.413   0.157   6.422
 7466SOL    HW123297   0.496   0.168   6.476
 7466SOL    HW223298   0.435   0.156   6.325
 7467SOL     OW23299   6.092   2.217   0.924
 7467SOL    HW123300   6.032   2.214   1.004
 7467SOL    HW223301   6.181   2.179   0.947
 7468SOL     OW23302   5.189   2.351   2.350
 7468SOL    HW123303   5.150   2.442   2.368
 7468SOL    HW223304   5.230   2.315   2.434
 7469SOL     OW23305   1.394   6.858   0.029
 7469SOL    HW123306   1.391   6.836   6.958
 7469SOL    HW223307   1.442   6.945   0.043
 7470SOL     OW23308   0.196   2.761   3.484
 7470SOL    HW123309   0.136   2.793   3.410
 7470SOL    HW223310   0.285   2.806   3.476
 7471SOL     OW23311   5.835   6.683   4.535
 7471SOL    HW123312   5.876   6.714   4.621
 7471SOL    HW223313   5.892   6.612   4.494
 7472SOL     OW23314   5.055   6.560   4.190
 7472SOL    HW123315   5.057   6.602   4.099
 7472SOL    HW223316   5.124   6.604   4.247
 7473SOL     OW23317   6.898   4.332   3.158
 7473SOL    HW123318   6.868   4.238   3.171
 7473SOL    HW223319   6.931   4.370   3.244
 7474SOL     OW23320   2.685   1.042   4.915
 7474SOL    HW123321   2.672   0.946   4.940
 7474SOL    HW223322   2.606   1.074   4.863
 7475SOL     OW23323   4.518   1.546   2.799
 7475SOL    HW123324   4.550   1.607   2.726
 7475SOL    HW223325   4.594   1.492   2.833
 7476SOL     OW23326   3.705   6.544   4.420
 7476SOL    HW123327   3.738   6.613   4.356
 7476SOL    HW223328   3.728   6.453   4.386
 7477SOL     OW23329   4.829   0.994   3.977
 7477SOL    HW123330   4.848   0.980   3.880
 7477SOL    HW223331   4.915   0.996   4.028
 7478SOL     OW23332   3.869   3.911   6.564
 7478SOL    HW123333   3.792   3.961   6.602
 7478SOL    HW223334   3.837   3.847   6.494
 7479SOL     OW23335   3.591   1.816   0.540
 7479SOL    HW123336   3.633   1.728   0.520
 7479SOL    HW223337   3.631   1.886   0.480
 7480SOL     OW23338   6.081   5.338   1.096
 7480SOL    HW123339   6.128   5.267   1.148
 7480SOL    HW223340   6.126   5.426   1.111
 7481SOL     OW23341   5.696   5.669   1.630
 7481SOL    HW123342   5.666   5.708   1.717
 7481SOL    HW223343   5.636   5.702   1.557
 7482SOL     OW23344   4.508   1.724   2.272
 7482SOL    HW123345   4.481   1.713   2.176
 7482SOL    HW223346   4.455   1.798   2.313
 7483SOL     OW23347   3.924   2.157   4.997
 7483SOL    HW123348   4.005   2.157   4.938
 7483SOL    HW223349   3.842   2.141   4.942
 7484SOL     OW23350   6.791   6.934   1.791
 7484SOL    HW123351   6.795   6.835   1.794
 7484SOL    HW223352   6.806   6.972   1.883
 7485SOL     OW23353   2.557   6.136   5.111
 7485SOL    HW123354   2.657   6.135   5.116
 7485SOL    HW223355   2.519   6.177   5.193
 7486SOL     OW23356   1.916   6.670   5.619
 7486SOL    HW123357   1.870   6.753   5.651
 7486SOL    HW223358   1.969   6.691   5.537
 7487SOL     OW23359   2.708   6.843   2.642
 7487SOL    HW123360   2.718   6.850   2.741
 7487SOL    HW223361   2.619   6.881   2.615
 7488SOL     OW23362   1.924   6.599   5.194
 7488SOL    HW123363   1.880   6.684   5.165
 7488SOL    HW223364   1.878   6.521   5.152
 7489SOL     OW23365   4.851   2.188   5.024
 7489SOL    HW123366   4.878   2.231   4.938
 7489SOL    HW223367   4.925   2.195   5.090
 7490SOL     OW23368   1.012   1.176   1.133
 7490SOL    HW123369   1.105   1.190   1.099
 7490SOL    HW223370   1.016   1.128   1.221
 7491SOL     OW23371   0.345   5.015   0.115
 7491SOL    HW123372   0.425   5.075   0.126
 7491SOL    HW223373   0.341   4.982   0.021
 7492SOL     OW23374   2.694   1.568   5.072
 7492SOL    HW123375   2.618   1.562   5.137
 7492SOL    HW223376   2.705   1.480   5.026
 7493SOL     OW23377   6.019   4.495   6.556
 7493SOL    HW123378   5.974   4.517   6.643
 7493SOL    HW223379   6.031   4.578   6.503
 7494SOL     OW23380   5.868   0.978   2.655
 7494SOL    HW123381   5.866   1.041   2.733
 7494SOL    HW223382   5.900   1.027   2.574
 7495SOL     OW23383   2.463   1.134   1.618
 7495SOL    HW123384   2.536   1.126   1.550
 7495SOL    HW223385   2.423   1.225   1.613
 7496SOL     OW23386   0.746   4.016   6.296
 7496SOL    HW123387   0.775   4.040   6.203
 7496SOL    HW223388   0.812   3.952   6.336
 7497SOL     OW23389   2.928   4.943   1.239
 7497SOL    HW123390   2.872   4.989   1.308
 7497SOL    HW223391   2.997   4.886   1.284
 7498SOL     OW23392   2.570   1.150   4.112
 7498SOL    HW123393   2.661   1.168   4.076
 7498SOL    HW223394   2.522   1.237   4.127
 7499SOL     OW23395   6.088   0.899   3.070
 7499SOL    HW123396   6.085   0.977   3.131
 7499SOL    HW223397   6.044   0.820   3.114
 7500SOL     OW23398   4.259   6.178   2.864
 7500SOL    HW123399   4.299   6.165   2.773
 7500SOL    HW223400   4.325   6.225   2.923
 7501SOL     OW23401   6.117   4.687   4.581
 7501SOL    HW123402   6.197   4.677   4.640
 7501SOL    HW223403   6.148   4.704   4.487
 7502SOL     OW23404   1.217   1.727   5.104
 7502SOL    HW123405   1.205   1.649   5.041
 7502SOL    HW223406   1.308   1.766   5.092
 7503SOL     OW23407   2.613   1.137   6.894
 7503SOL    HW123408   2.527   1.115   6.849
 7503SOL    HW223409   2.649   1.056   6.939
 7504SOL     OW23410   3.585   6.945   3.371
 7504SOL    HW123411   3.574   0.016   3.391
 7504SOL    HW223412   3.578   6.929   3.273
 7505SOL     OW23413   2.461   0.895   5.429
 7505SOL    HW123414   2.437   0.866   5.336
 7505SOL    HW223415   2.378   0.903   5.484
 7506SOL     OW23416   4.514   0.538   2.718
 7506SOL    HW123417   4.436   0.593   2.688
 7506SOL    HW223418   4.516   0.452   2.666
 7507SOL     OW23419   0.116   6.722   0.503
 7507SOL    HW123420   0.101   6.665   0.421
 7507SOL    HW223421   0.063   6.684   0.579
 7508SOL     OW23422   5.445   6.783   2.595
 7508SOL    HW123423   5.474   6.856   2.657
 7508SOL    HW223424   5.354   6.805   2.558
 7509SOL     OW23425   4.936   4.492   0.600
 7509SOL    HW123426   4.936   4.573   0.541
 7509SOL    HW223427   4.888   4.417   0.554
 7510SOL     OW23428   2.885   3.864   5.366
 7510SOL    HW123429   2.940   3.846   5.284
 7510SOL    HW223430   2.815   3.932   5.345
 7511SOL     OW23431   1.731   0.647   2.824
 7511SOL    HW123432   1.696   0.735   2.856
 7511SOL    HW223433   1.716   0.639   2.725
 7512SOL     OW23434   3.087   4.266   1.460
 7512SOL    HW123435   3.184   4.241   1.448
 7512SOL    HW223436   3.065   4.267   1.558
 7513SOL     OW23437   1.733   2.153   0.630
 7513SOL    HW123438   1.696   2.222   0.566
 7513SOL    HW223439   1.763   2.198   0.714
 7514SOL     OW23440   2.822   6.126   2.162
 7514SOL    HW123441   2.840   6.194   2.234
 7514SOL    HW223442   2.729   6.092   2.171
 7515SOL     OW23443   1.135   6.761   2.598
 7515SOL    HW123444   1.127   6.851   2.555
 7515SOL    HW223445   1.215   6.714   2.560
 7516SOL     OW23446   6.861   5.446   4.593
 7516SOL    HW123447   6.815   5.364   4.560
 7516SOL    HW223448   6.890   5.432   4.688
 7517SOL     OW23449   6.871   3.434   1.792
 7517SOL    HW123450   6.865   3.534   1.788
 7517SOL    HW223451   6.783   3.395   1.764
 7518SOL     OW23452   4.003   5.651   4.074
 7518SOL    HW123453   3.908   5.668   4.101
 7518SOL    HW223454   4.006   5.585   3.999
 7519SOL     OW23455   6.997   6.716   3.634
 7519SOL    HW123456   6.933   6.693   3.707
 7519SOL    HW223457   0.045   6.772   3.672
 7520SOL     OW23458   2.728   0.515   1.718
 7520SOL    HW123459   2.811   0.488   1.767
 7520SOL    HW223460   2.752   0.584   1.650
 7521SOL     OW23461   4.468   4.720   5.297
 7521SOL    HW123462   4.417   4.791   5.249
 7521SOL    HW223463   4.440   4.717   5.393
 7522SOL     OW23464   2.552   0.834   6.468
 7522SOL    HW123465   2.565   0.933   6.479
 7522SOL    HW223466   2.640   0.791   6.449
 7523SOL     OW23467   5.493   1.439   5.752
 7523SOL    HW123468   5.558   1.500   5.797
 7523SOL    HW223469   5.404   1.446   5.797
 7524SOL     OW23470   0.418   2.289   5.688
 7524SOL    HW123471   0.464   2.366   5.645
 7524SOL    HW223472   0.323   2.284   5.654
 7525SOL     OW23473   2.587   6.782   6.248
 7525SOL    HW123474   2.581   6.835   6.163
 7525SOL    HW223475   2.502   6.730   6.261
 7526SOL     OW23476   3.863   3.076   2.614
 7526SOL    HW123477   3.947   3.118   2.648
 7526SOL    HW223478   3.818   3.027   2.689
 7527SOL     OW23479   4.840   5.049   3.239
 7527SOL    HW123480   4.884   4.994   3.169
 7527SOL    HW223481   4.745   5.020   3.252
 7528SOL     OW23482   4.673   2.595   0.235
 7528SOL    HW123483   4.749   2.533   0.251
 7528SOL    HW223484   4.587   2.549   0.256
 7529SOL     OW23485   5.381   1.283   4.109
 7529SOL    HW123486   5.332   1.341   4.045
 7529SOL    HW223487   5.477   1.275   4.080
 7530SOL     OW23488   6.289   3.468   2.729
 7530SOL    HW123489   6.242   3.448   2.643
 7530SOL    HW223490   6.355   3.542   2.715
 7531SOL     OW23491   4.308   2.394   4.013
 7531SOL    HW123492   4.306   2.491   3.993
 7531SOL    HW223493   4.215   2.356   4.007
 7532SOL     OW23494   5.598   5.818   1.885
 7532SOL    HW123495   5.586   5.743   1.950
 7532SOL    HW223496   5.509   5.844   1.847
 7533SOL     OW23497   2.200   0.961   3.172
 7533SOL    HW123498   2.167   1.038   3.117
 7533SOL    HW223499   2.297   0.976   3.194
 7534SOL     OW23500   3.534   6.537   4.872
 7534SOL    HW123501   3.475   6.605   4.916
 7534SOL    HW223502   3.501   6.520   4.779
 7535SOL     OW23503   3.012   1.013   5.632
 7535SOL    HW123504   2.988   1.032   5.537
 7535SOL    HW223505   2.982   1.088   5.690
 7536SOL     OW23506   5.259   5.101   4.647
 7536SOL    HW123507   5.212   5.066   4.728
 7536SOL    HW223508   5.296   5.024   4.595
 7537SOL     OW23509   1.875   4.425   5.169
 7537SOL    HW123510   1.971   4.454   5.170
 7537SOL    HW223511   1.849   4.393   5.260
 7538SOL     OW23512   3.270   3.770   2.320
 7538SOL    HW123513   3.203   3.723   2.262
 7538SOL    HW223514   3.251   3.868   2.320
 7539SOL     OW23515   2.499   2.378   4.843
 7539SOL    HW123516   2.542   2.367   4.932
 7539SOL    HW223517   2.466   2.290   4.810
 7540SOL     OW23518   3.468   1.131   5.835
 7540SOL    HW123519   3.401   1.133   5.908
 7540SOL    HW223520   3.422   1.118   5.747
 7541SOL     OW23521   6.574   3.488   4.931
 7541SOL    HW123522   6.500   3.554   4.925
 7541SOL    HW223523   6.662   3.535   4.920
 7542SOL     OW23524   0.013   6.552   6.465
 7542SOL    HW123525   0.085   6.582   6.402
 7542SOL    HW223526   7.015   6.457   6.445
 7543SOL     OW23527   4.383   2.081   0.911
 7543SOL    HW123528   4.348   2.117   0.824
 7543SOL    HW223529   4.443   2.148   0.953
 7544SOL     OW23530   0.448   2.213   3.470
 7544SOL    HW123531   0.488   2.281   3.408
 7544SOL    HW223532   0.349   2.224   3.471
 7545SOL     OW23533   5.118   6.770   2.753
 7545SOL    HW123534   5.211   6.733   2.748
 7545SOL    HW223535   5.052   6.695   2.753
 7546SOL     OW23536   4.242   0.706   1.051
 7546SOL    HW123537   4.191   0.793   1.056
 7546SOL    HW223538   4.182   0.634   1.018
 7547SOL     OW23539   3.725   6.237   0.332
 7547SOL    HW123540   3.694   6.213   0.424
 7547SOL    HW223541   3.646   6.249   0.272
 7548SOL     OW23542   2.592   1.947   0.588
 7548SOL    HW123543   2.587   2.047   0.591
 7548SOL    HW223544   2.688   1.919   0.587
 7549SOL     OW23545   5.519   1.888   1.594
 7549SOL    HW123546   5.529   1.910   1.692
 7549SOL    HW223547   5.433   1.926   1.561
 7550SOL     OW23548   2.676   4.989   2.164
 7550SOL    HW123549   2.651   4.908   2.218
 7550SOL    HW223550   2.775   5.002   2.168
 7551SOL     OW23551   4.776   4.129   0.212
 7551SOL    HW123552   4.770   4.051   0.274
 7551SOL    HW223553   4.704   4.123   0.143
 7552SOL     OW23554   1.650   5.511   4.094
 7552SOL    HW123555   1.644   5.521   4.194
 7552SOL    HW223556   1.744   5.494   4.067
 7553SOL     OW23557   3.667   4.891   5.776
 7553SOL    HW123558   3.633   4.800   5.750
 7553SOL    HW223559   3.754   4.881   5.824
 7554SOL     OW23560   5.205   1.115   0.819
 7554SOL    HW123561   5.260   1.033   0.802
 7554SOL    HW223562   5.109   1.094   0.805
 7555SOL     OW23563   1.286   5.219   4.801
 7555SOL    HW123564   1.301   5.153   4.874
 7555SOL    HW223565   1.374   5.257   4.773
 7556SOL     OW23566   0.420   2.025   5.769
 7556SOL    HW123567   0.412   2.038   5.868
 7556SOL    HW223568   0.453   2.109   5.726
 7557SOL     OW23569   5.428   3.121   5.833
 7557SOL    HW123570   5.408   3.216   5.855
 7557SOL    HW223571   5.348   3.064   5.850
 7558SOL     OW23572   2.281   2.797   3.595
 7558SOL    HW123573   2.339   2.720   3.622
 7558SOL    HW223574   2.251   2.847   3.677
 7559SOL     OW23575   6.446   5.582   1.306
 7559SOL    HW123576   6.409   5.510   1.247
 7559SOL    HW223577   6.517   5.543   1.365
 7560SOL     OW23578   5.288   6.656   0.013
 7560SOL    HW123579   5.382   6.634   0.040
 7560SOL    HW223580   5.282   6.659   6.940
 7561SOL     OW23581   0.734   3.304   0.127
 7561SOL    HW123582   0.819   3.293   0.179
 7561SOL    HW223583   0.664   3.243   0.166
 7562SOL     OW23584   4.370   6.291   4.827
 7562SOL    HW123585   4.372   6.195   4.856
 7562SOL    HW223586   4.356   6.349   4.907
 7563SOL     OW23587   2.801   0.133   0.462
 7563SOL    HW123588   2.807   0.036   0.436
 7563SOL    HW223589   2.786   0.139   0.560
 7564SOL     OW23590   4.780   1.017   2.893
 7564SOL    HW123591   4.739   1.049   2.979
 7564SOL    HW223592   4.740   1.069   2.817
 7565SOL     OW23593   4.929   4.312   6.412
 7565SOL    HW123594   5.007   4.251   6.395
 7565SOL    HW223595   4.855   4.260   6.454
 7566SOL     OW23596   0.728   4.938   3.644
 7566SOL    HW123597   0.797   4.872   3.674
 7566SOL    HW223598   0.773   5.015   3.599
 7567SOL     OW23599   1.767   2.374   5.434
 7567SOL    HW123600   1.781   2.422   5.520
 7567SOL    HW223601   1.675   2.392   5.400
 7568SOL     OW23602   5.568   5.922   4.194
 7568SOL    HW123603   5.505   5.985   4.147
 7568SOL    HW223604   5.636   5.975   4.244
 7569SOL     OW23605   4.137   4.879   6.230
 7569SOL    HW123606   4.129   4.900   6.132
 7569SOL    HW223607   4.170   4.960   6.279
 7570SOL     OW23608   5.516   4.819   5.161
 7570SOL    HW123609   5.479   4.787   5.248
 7570SOL    HW223610   5.608   4.855   5.175
 7571SOL     OW23611   5.148   4.971   2.025
 7571SOL    HW123612   5.098   5.004   2.105
 7571SOL    HW223613   5.102   4.889   1.989
 7572SOL     OW23614   5.135   0.843   3.598
 7572SOL    HW123615   5.054   0.889   3.632
 7572SOL    HW223616   5.194   0.818   3.675
 7573SOL     OW23617   5.741   5.669   4.451
 7573SOL    HW123618   5.772   5.604   4.382
 7573SOL    HW223619   5.815   5.732   4.474
 7574SOL     OW23620   6.411   1.161   4.838
 7574SOL    HW123621   6.398   1.130   4.744
 7574SOL    HW223622   6.385   1.257   4.845
 7575SOL     OW23623   4.482   0.746   5.663
 7575SOL    HW123624   4.462   0.669   5.603
 7575SOL    HW223625   4.581   0.759   5.668
 7576SOL     OW23626   6.405   5.378   0.066
 7576SOL    HW123627   6.320   5.327   0.053
 7576SOL    HW223628   6.400   5.430   0.151
 7577SOL     OW23629   6.744   0.054   5.349
 7577SOL    HW123630   6.748   0.052   5.249
 7577SOL    HW223631   6.822   0.106   5.384
 7578SOL     OW23632   1.824   6.429   3.652
 7578SOL    HW123633   1.787   6.461   3.564
 7578SOL    HW223634   1.858   6.508   3.704
 7579SOL     OW23635   4.320   1.860   2.409
 7579SOL    HW123636   4.368   1.916   2.476
 7579SOL    HW223637   4.297   1.914   2.329
 7580SOL     OW23638   1.654   3.840   4.123
 7580SOL    HW123639   1.630   3.894   4.042
 7580SOL    HW223640   1.630   3.745   4.108
 7581SOL     OW23641   4.667   0.833   1.344
 7581SOL    HW123642   4.697   0.890   1.420
 7581SOL    HW223643   4.603   0.885   1.287
 7582SOL     OW23644   3.651   1.052   0.224
 7582SOL    HW123645   3.663   1.015   0.132
 7582SOL    HW223646   3.635   0.977   0.289
 7583SOL     OW23647   6.283   3.586   2.028
 7583SOL    HW123648   6.291   3.679   1.993
 7583SOL    HW223649   6.354   3.570   2.097
 7584SOL     OW23650   3.253   6.685   1.066
 7584SOL    HW123651   3.306   6.756   1.111
 7584SOL    HW223652   3.156   6.698   1.085
 7585SOL     OW23653   1.531   2.719   5.878
 7585SOL    HW123654   1.511   2.788   5.809
 7585SOL    HW223655   1.627   2.692   5.872
 7586SOL     OW23656   3.633   0.864   3.197
 7586SOL    HW123657   3.732   0.880   3.199
 7586SOL    HW223658   3.589   0.936   3.143
 7587SOL     OW23659   3.114   1.660   6.441
 7587SOL    HW123660   3.035   1.621   6.489
 7587SOL    HW223661   3.164   1.588   6.394
 7588SOL     OW23662   0.482   3.291   2.178
 7588SOL    HW123663   0.404   3.327   2.126
 7588SOL    HW223664   0.481   3.191   2.172
 7589SOL     OW23665   6.185   6.398   0.329
 7589SOL    HW123666   6.214   6.393   0.425
 7589SOL    HW223667   6.089   6.428   0.325
 7590SOL     OW23668   2.809   1.882   6.277
 7590SOL    HW123669   2.908   1.885   6.290
 7590SOL    HW223670   2.771   1.806   6.330
 7591SOL     OW23671   0.548   5.139   0.595
 7591SOL    HW123672   0.478   5.185   0.649
 7591SOL    HW223673   0.520   5.044   0.578
 7592SOL     OW23674   0.391   4.773   6.441
 7592SOL    HW123675   0.295   4.781   6.415
 7592SOL    HW223676   0.435   4.862   6.431
 7593SOL     OW23677   5.802   2.420   0.134
 7593SOL    HW123678   5.711   2.404   0.172
 7593SOL    HW223679   5.810   2.374   0.046
 7594SOL     OW23680   0.419   4.494   2.081
 7594SOL    HW123681   0.513   4.492   2.047
 7594SOL    HW223682   0.413   4.552   2.162
 7595SOL     OW23683   0.398   2.695   5.643
 7595SOL    HW123684   0.362   2.682   5.550
 7595SOL    HW223685   0.324   2.687   5.709
 7596SOL     OW23686   4.484   5.263   3.011
 7596SOL    HW123687   4.419   5.250   3.086
 7596SOL    HW223688   4.565   5.312   3.045
 7597SOL     OW23689   3.019   5.507   1.717
 7597SOL    HW123690   2.940   5.568   1.718
 7597SOL    HW223691   3.055   5.498   1.810
 7598SOL     OW23692   6.491   1.159   2.914
 7598SOL    HW123693   6.531   1.158   2.822
 7598SOL    HW223694   6.551   1.207   2.976
 7599SOL     OW23695   5.164   0.742   3.331
 7599SOL    HW123696   5.149   0.800   3.411
 7599SOL    HW223697   5.219   0.663   3.357
 7600SOL     OW23698   2.074   0.338   2.471
 7600SOL    HW123699   1.994   0.398   2.477
 7600SOL    HW223700   2.079   0.281   2.553
 7601SOL     OW23701   1.838   5.415   2.795
 7601SOL    HW123702   1.772   5.353   2.837
 7601SOL    HW223703   1.790   5.492   2.753
 7602SOL     OW23704   2.013   3.608   5.638
 7602SOL    HW123705   2.104   3.581   5.668
 7602SOL    HW223706   1.965   3.528   5.602
 7603SOL     OW23707   1.331   5.832   6.409
 7603SOL    HW123708   1.409   5.895   6.407
 7603SOL    HW223709   1.252   5.879   6.447
 7604SOL     OW23710   2.233   5.426   4.218
 7604SOL    HW123711   2.302   5.413   4.147
 7604SOL    HW223712   2.237   5.349   4.283
 7605SOL     OW23713   1.804   6.225   0.507
 7605SOL    HW123714   1.845   6.134   0.508
 7605SOL    HW223715   1.819   6.269   0.596
 7606SOL     OW23716   6.864   2.622   2.656
 7606SOL    HW123717   6.844   2.572   2.572
 7606SOL    HW223718   6.838   2.566   2.735
 7607SOL     OW23719   4.044   6.282   0.203
 7607SOL    HW123720   3.981   6.352   0.238
 7607SOL    HW223721   4.131   6.326   0.180
 7608SOL     OW23722   3.377   3.711   3.841
 7608SOL    HW123723   3.466   3.686   3.804
 7608SOL    HW223724   3.377   3.697   3.940
 7609SOL     OW23725   6.707   4.172   3.442
 7609SOL    HW123726   6.736   4.136   3.353
 7609SOL    HW223727   6.654   4.102   3.490
 7610SOL     OW23728   6.237   6.965   0.256
 7610SOL    HW123729   6.199   6.927   0.172
 7610SOL    HW223730   6.245   6.893   0.325
 7611SOL     OW23731   0.983   1.933   0.068
 7611SOL    HW123732   0.994   1.986   0.153
 7611SOL    HW223733   0.904   1.873   0.076
 7612SOL     OW23734   4.383   2.148   4.707
 7612SOL    HW123735   4.451   2.091   4.753
 7612SOL    HW223736   4.421   2.240   4.692
 7613SOL     OW23737   5.174   2.053   1.908
 7613SOL    HW123738   5.200   2.101   1.992
 7613SOL    HW223739   5.109   1.980   1.930
 7614SOL     OW23740   4.662   2.616   1.350
 7614SOL    HW123741   4.664   2.559   1.432
 7614SOL    HW223742   4.747   2.605   1.299
 7615SOL     OW23743   4.982   4.277   5.985
 7615SOL    HW123744   5.034   4.251   5.903
 7615SOL    HW223745   4.964   4.196   6.040
 7616SOL     OW23746   0.197   4.373   4.352
 7616SOL    HW123747   0.124   4.399   4.415
 7616SOL    HW223748   0.159   4.350   4.263
 7617SOL     OW23749   3.180   5.872   2.640
 7617SOL    HW123750   3.107   5.936   2.620
 7617SOL    HW223751   3.150   5.806   2.709
 7618SOL     OW23752   0.559   2.544   0.085
 7618SOL    HW123753   0.501   2.496   0.151
 7618SOL    HW223754   0.644   2.493   0.073
 7619SOL     OW23755   5.879   3.434   4.299
 7619SOL    HW123756   5.960   3.457   4.352
 7619SOL    HW223757   5.817   3.513   4.297
 7620SOL     OW23758   3.925   5.136   0.088
 7620SOL    HW123759   3.836   5.111   0.051
 7620SOL    HW223760   3.931   5.109   0.184
 7621SOL     OW23761   0.738   1.512   0.841
 7621SOL    HW123762   0.686   1.445   0.893
 7621SOL    HW223763   0.827   1.528   0.885
 7622SOL     OW23764   5.043   4.643   1.549
 7622SOL    HW123765   5.018   4.654   1.645
 7622SOL    HW223766   5.068   4.547   1.531
 7623SOL     OW23767   4.488   4.551   6.361
 7623SOL    HW123768   4.585   4.535   6.342
 7623SOL    HW223769   4.475   4.560   6.460
 7624SOL     OW23770   0.259   2.905   4.425
 7624SOL    HW123771   0.341   2.867   4.469
 7624SOL    HW223772   0.254   3.003   4.444
 7625SOL     OW23773   4.243   0.509   1.790
 7625SOL    HW123774   4.181   0.587   1.799
 7625SOL    HW223775   4.307   0.525   1.715
 7626SOL     OW23776   0.007   6.398   5.232
 7626SOL    HW123777   0.068   6.326   5.267
 7626SOL    HW223778   0.026   6.413   5.135
 7627SOL     OW23779   5.753   3.327   0.100
 7627SOL    HW123780   5.735   3.236   0.062
 7627SOL    HW223781   5.788   3.318   0.194
 7628SOL     OW23782   3.092   0.715   1.374
 7628SOL    HW123783   3.128   0.623   1.390
 7628SOL    HW223784   3.049   0.749   1.457
 7629SOL     OW23785   6.306   6.706   2.919
 7629SOL    HW123786   6.303   6.628   2.981
 7629SOL    HW223787   6.272   6.680   2.829
 7630SOL     OW23788   5.646   6.328   2.314
 7630SOL    HW123789   5.549   6.323   2.290
 7630SOL    HW223790   5.656   6.344   2.412
 7631SOL     OW23791   0.455   1.650   5.469
 7631SOL    HW123792   0.432   1.747   5.455
 7631SOL    HW223793   0.465   1.633   5.567
 7632SOL     OW23794   3.544   2.293   1.656
 7632SOL    HW123795   3.560   2.343   1.571
 7632SOL    HW223796   3.611   2.321   1.725
 7633SOL     OW23797   5.000   2.551   0.259
 7633SOL    HW123798   5.011   2.482   0.188
 7633SOL    HW223799   5.024   2.641   0.222
 7634SOL     OW23800   1.360   1.026   2.042
 7634SOL    HW123801   1.456   0.999   2.032
 7634SOL    HW223802   1.354   1.125   2.048
 7635SOL     OW23803   2.487   5.393   5.317
 7635SOL    HW123804   2.473   5.423   5.412
 7635SOL    HW223805   2.549   5.315   5.316
 7636SOL     OW23806   1.335   1.316   3.301
 7636SOL    HW123807   1.361   1.383   3.371
 7636SOL    HW223808   1.296   1.364   3.223
 7637SOL     OW23809   2.822   6.592   2.372
 7637SOL    HW123810   2.894   6.646   2.415
 7637SOL    HW223811   2.745   6.584   2.435
 7638SOL     OW23812   4.358   6.013   1.841
 7638SOL    HW123813   4.265   6.020   1.875
 7638SOL    HW223814   4.397   5.926   1.869
 7639SOL     OW23815   1.213   2.294   0.650
 7639SOL    HW123816   1.174   2.271   0.739
 7639SOL    HW223817   1.228   2.210   0.598
 7640SOL     OW23818   3.267   2.301   0.443
 7640SOL    HW123819   3.227   2.280   0.354
 7640SOL    HW223820   3.335   2.231   0.465
 7641SOL     OW23821   0.589   4.467   1.383
 7641SOL    HW123822   0.662   4.524   1.344
 7641SOL    HW223823   0.528   4.437   1.311
 7642SOL     OW23824   2.661   1.486   2.891
 7642SOL    HW123825   2.738   1.424   2.902
 7642SOL    HW223826   2.648   1.539   2.974
 7643SOL     OW23827   4.974   2.324   4.048
 7643SOL    HW123828   5.050   2.386   4.070
 7643SOL    HW223829   4.949   2.336   3.952
 7644SOL     OW23830   6.065   2.273   2.580
 7644SOL    HW123831   6.149   2.279   2.526
 7644SOL    HW223832   6.042   2.177   2.595
 7645SOL     OW23833   4.801   4.076   5.806
 7645SOL    HW123834   4.896   4.105   5.801
 7645SOL    HW223835   4.769   4.053   5.714
 7646SOL     OW23836   1.977   2.429   2.251
 7646SOL    HW123837   2.035   2.356   2.214
 7646SOL    HW223838   2.035   2.496   2.298
 7647SOL     OW23839   0.816   2.900   1.272
 7647SOL    HW123840   0.755   2.971   1.236
 7647SOL    HW223841   0.760   2.827   1.313
 7648SOL     OW23842   3.822   2.160   3.966
 7648SOL    HW123843   3.892   2.138   3.898
 7648SOL    HW223844   3.733   2.166   3.921
 7649SOL     OW23845   1.012   0.926   2.737
 7649SOL    HW123846   0.916   0.951   2.752
 7649SOL    HW223847   1.064   0.940   2.821
 7650SOL     OW23848   5.573   3.171   1.466
 7650SOL    HW123849   5.610   3.194   1.556
 7650SOL    HW223850   5.520   3.086   1.473
 7651SOL     OW23851   2.598   6.938   4.759
 7651SOL    HW123852   2.585   6.987   4.672
 7651SOL    HW223853   2.670   6.870   4.748
 7652SOL     OW23854   0.112   4.287   4.096
 7652SOL    HW123855   0.165   4.239   4.026
 7652SOL    HW223856   0.045   4.346   4.052
 7653SOL     OW23857   2.471   1.934   0.927
 7653SOL    HW123858   2.550   1.966   0.979
 7653SOL    HW223859   2.497   1.858   0.868
 7654SOL     OW23860   4.885   3.472   3.837
 7654SOL    HW123861   4.982   3.494   3.829
 7654SOL    HW223862   4.872   3.373   3.831
 7655SOL     OW23863   3.771   0.222   3.477
 7655SOL    HW123864   3.672   0.237   3.481
 7655SOL    HW223865   3.813   0.293   3.421
 7656SOL     OW23866   1.445   5.444   6.155
 7656SOL    HW123867   1.359   5.491   6.174
 7656SOL    HW223868   1.462   5.444   6.057
 7657SOL     OW23869   2.626   2.472   3.096
 7657SOL    HW123870   2.559   2.534   3.137
 7657SOL    HW223871   2.680   2.429   3.169
 7658SOL     OW23872   4.002   6.311   5.718
 7658SOL    HW123873   4.097   6.284   5.701
 7658SOL    HW223874   4.000   6.402   5.759
 7659SOL     OW23875   5.256   5.543   6.603
 7659SOL    HW123876   5.348   5.579   6.619
 7659SOL    HW223877   5.254   5.445   6.622
 7660SOL     OW23878   6.109   6.067   4.104
 7660SOL    HW123879   6.109   5.987   4.164
 7660SOL    HW223880   6.109   6.150   4.159
 7661SOL     OW23881   6.024   2.035   4.951
 7661SOL    HW123882   5.965   2.004   4.877
 7661SOL    HW223883   5.998   1.989   5.036
 7662SOL     OW23884   0.686   2.150   2.621
 7662SOL    HW123885   0.710   2.241   2.654
 7662SOL    HW223886   0.769   2.099   2.599
 7663SOL     OW23887   6.402   7.010   6.578
 7663SOL    HW123888   6.498   7.014   6.550
 7663SOL    HW223889   6.345   6.985   6.500
 7664SOL     OW23890   4.047   1.306   2.310
 7664SOL    HW123891   3.995   1.390   2.323
 7664SOL    HW223892   4.137   1.328   2.271
 7665SOL     OW23893   3.946   0.191   4.259
 7665SOL    HW123894   3.981   0.104   4.225
 7665SOL    HW223895   4.012   0.264   4.240
 7666SOL     OW23896   0.987   6.655   1.120
 7666SOL    HW123897   0.910   6.697   1.072
 7666SOL    HW223898   1.066   6.654   1.059
 7667SOL     OW23899   4.421   6.014   1.547
 7667SOL    HW123900   4.386   5.925   1.518
 7667SOL    HW223901   4.424   6.018   1.647
 7668SOL     OW23902   2.977   4.270   1.103
 7668SOL    HW123903   2.939   4.220   1.180
 7668SOL    HW223904   2.917   4.260   1.023
 7669SOL     OW23905   5.159   1.993   5.388
 7669SOL    HW123906   5.211   1.978   5.304
 7669SOL    HW223907   5.064   1.965   5.374
 7670SOL     OW23908   1.509   5.466   5.862
 7670SOL    HW123909   1.542   5.376   5.831
 7670SOL    HW223910   1.424   5.488   5.813
 7671SOL     OW23911   4.298   0.715   5.029
 7671SOL    HW123912   4.389   0.742   5.061
 7671SOL    HW223913   4.306   0.667   4.942
 7672SOL     OW23914   5.757   6.272   3.941
 7672SOL    HW123915   5.856   6.264   3.931
 7672SOL    HW223916   5.731   6.252   4.036
 7673SOL     OW23917   2.139   5.352   0.309
 7673SOL    HW123918   2.097   5.431   0.353
 7673SOL    HW223919   2.186   5.382   0.225
 7674SOL     OW23920   6.345   2.588   4.039
 7674SOL    HW123921   6.420   2.636   3.993
 7674SOL    HW223922   6.321   2.636   4.123
 7675SOL     OW23923   4.660   1.017   3.188
 7675SOL    HW123924   4.721   0.948   3.226
 7675SOL    HW223925   4.565   0.991   3.207
 7676SOL     OW23926   1.593   2.265   0.412
 7676SOL    HW123927   1.681   2.246   0.369
 7676SOL    HW223928   1.596   2.355   0.456
 7677SOL     OW23929   0.373   4.061   2.177
 7677SOL    HW123930   0.367   4.082   2.079
 7677SOL    HW223931   0.400   3.966   2.189
 7678SOL     OW23932   1.932   1.316   5.959
 7678SOL    HW123933   1.932   1.322   6.059
 7678SOL    HW223934   1.907   1.224   5.931
 7679SOL     OW23935   1.856   6.119   5.277
 7679SOL    HW123936   1.891   6.072   5.358
 7679SOL    HW223937   1.882   6.068   5.195
 7680SOL     OW23938   1.950   2.478   0.142
 7680SOL    HW123939   1.954   2.568   0.186
 7680SOL    HW223940   1.910   2.488   0.051
 7681SOL     OW23941   2.950   6.859   0.403
 7681SOL    HW123942   3.002   6.792   0.350
 7681SOL    HW223943   2.944   6.830   0.499
 7682SOL     OW23944   3.111   0.150   1.587
 7682SOL    HW123945   3.106   0.204   1.671
 7682SOL    HW223946   3.203   0.159   1.547
 7683SOL     OW23947   6.711   1.996   4.415
 7683SOL    HW123948   6.662   2.067   4.366
 7683SOL    HW223949   6.709   1.911   4.362
 7684SOL     OW23950   4.912   1.982   0.691
 7684SOL    HW123951   4.937   2.012   0.783
 7684SOL    HW223952   4.829   2.030   0.662
 7685SOL     OW23953   3.352   3.349   0.269
 7685SOL    HW123954   3.317   3.301   0.350
 7685SOL    HW223955   3.294   3.428   0.250
 7686SOL     OW23956   5.000   0.433   3.348
 7686SOL    HW123957   5.009   0.484   3.433
 7686SOL    HW223958   4.979   0.496   3.273
 7687SOL     OW23959   6.017   5.307   5.626
 7687SOL    HW123960   6.037   5.210   5.614
 7687SOL    HW223961   5.985   5.346   5.539
 7688SOL     OW23962   0.234   0.522   5.857
 7688SOL    HW123963   0.317   0.468   5.874
 7688SOL    HW223964   0.173   0.470   5.797
 7689SOL     OW23965   5.219   5.874   3.305
 7689SOL    HW123966   5.263   5.877   3.215
 7689SOL    HW223967   5.281   5.831   3.370
 7690SOL     OW23968   6.200   4.822   1.332
 7690SOL    HW123969   6.127   4.765   1.295
 7690SOL    HW223970   6.161   4.897   1.385
 7691SOL     OW23971   5.424   2.907   4.255
 7691SOL    HW123972   5.492   2.977   4.235
 7691SOL    HW223973   5.350   2.946   4.309
 7692SOL     OW23974   0.837   6.958   1.335
 7692SOL    HW123975   0.878   6.869   1.357
 7692SOL    HW223976   0.871   6.989   1.246
 7693SOL     OW23977   4.118   6.731   0.716
 7693SOL    HW123978   4.091   6.657   0.777
 7693SOL    HW223979   4.200   6.776   0.753
 7694SOL     OW23980   6.814   4.378   4.209
 7694SOL    HW123981   6.753   4.421   4.143
 7694SOL    HW223982   6.852   4.294   4.170
 7695SOL     OW23983   3.533   7.000   0.321
 7695SOL    HW123984   3.518   0.065   0.359
 7695SOL    HW223985   3.489   6.994   0.231
 7696SOL     OW23986   6.858   1.548   4.927
 7696SOL    HW123987   6.831   1.481   4.858
 7696SOL    HW223988   6.807   1.532   5.011
 7697SOL     OW23989   3.233   0.538   2.710
 7697SOL    HW123990   3.298   0.524   2.635
 7697SOL    HW223991   3.276   0.597   2.780
 7698SOL     OW23992   0.099   2.732   4.586
 7698SOL    HW123993   0.041   2.663   4.544
 7698SOL    HW223994   0.137   2.792   4.516
 7699SOL     OW23995   4.064   5.524   6.544
 7699SOL    HW123996   4.148   5.494   6.500
 7699SOL    HW223997   4.068   5.503   6.642
 7700SOL     OW23998   4.590   6.571   5.379
 7700SOL    HW123999   4.547   6.558   5.469
 7700SOL    HW224000   4.554   6.503   5.315
 7701SOL     OW24001   6.644   1.876   6.748
 7701SOL    HW124002   6.696   1.937   6.688
 7701SOL    HW224003   6.593   1.930   6.815
 7702SOL     OW24004   3.226   6.446   5.982
 7702SOL    HW124005   3.184   6.381   5.919
 7702SOL    HW224006   3.180   6.535   5.973
 7703SOL     OW24007   6.831   1.347   4.733
 7703SOL    HW124008   6.930   1.346   4.719
 7703SOL    HW224009   6.801   1.260   4.771
 7704SOL     OW24010   5.061   4.760   5.420
 7704SOL    HW124011   5.040   4.723   5.511
 7704SOL    HW224012   5.160   4.778   5.414
 7705SOL     OW24013   3.672   5.163   6.249
 7705SOL    HW124014   3.746   5.173   6.183
 7705SOL    HW224015   3.587   5.196   6.209
 7706SOL     OW24016   4.892   1.409   5.860
 7706SOL    HW124017   4.916   1.340   5.929
 7706SOL    HW224018   4.925   1.379   5.770
 7707SOL     OW24019   1.319   6.305   6.265
 7707SOL    HW124020   1.399   6.284   6.210
 7707SOL    HW224021   1.334   6.276   6.360
 7708SOL     OW24022   5.034   5.965   5.269
 7708SOL    HW124023   5.004   5.946   5.176
 7708SOL    HW224024   5.132   5.949   5.276
 7709SOL     OW24025   5.385   4.221   1.806
 7709SOL    HW124026   5.406   4.165   1.726
 7709SOL    HW224027   5.352   4.162   1.880
 7710SOL     OW24028   3.201   0.967   0.924
 7710SOL    HW124029   3.144   1.039   0.883
 7710SOL    HW224030   3.297   0.994   0.920
 7711SOL     OW24031   6.233   6.291   5.256
 7711SOL    HW124032   6.144   6.246   5.263
 7711SOL    HW224033   6.262   6.322   5.347
 7712SOL     OW24034   6.267   3.804   1.595
 7712SOL    HW124035   6.280   3.895   1.633
 7712SOL    HW224036   6.194   3.757   1.645
 7713SOL     OW24037   1.566   4.390   0.162
 7713SOL    HW124038   1.663   4.414   0.165
 7713SOL    HW224039   1.557   4.293   0.138
 7714SOL     OW24040   6.309   5.766   5.193
 7714SOL    HW124041   6.302   5.667   5.204
 7714SOL    HW224042   6.404   5.791   5.177
 7715SOL     OW24043   4.877   1.328   0.918
 7715SOL    HW124044   4.866   1.408   0.860
 7715SOL    HW224045   4.884   1.357   1.014
 7716SOL     OW24046   6.196   4.032   3.736
 7716SOL    HW124047   6.235   3.969   3.669
 7716SOL    HW224048   6.224   4.004   3.828
 7717SOL     OW24049   2.387   0.915   4.770
 7717SOL    HW124050   2.341   0.955   4.849
 7717SOL    HW224051   2.326   0.849   4.726
 7718SOL     OW24052   1.967   1.868   2.748
 7718SOL    HW124053   1.981   1.774   2.780
 7718SOL    HW224054   2.047   1.899   2.698
 7719SOL     OW24055   6.786   4.161   3.919
 7719SOL    HW124056   6.838   4.136   3.837
 7719SOL    HW224057   6.845   4.153   4.000
 7720SOL     OW24058   0.034   0.096   0.184
 7720SOL    HW124059   6.960   0.098   0.177
 7720SOL    HW224060   0.061   0.023   0.247
 7721SOL     OW24061   1.407   4.594   2.543
 7721SOL    HW124062   1.467   4.574   2.466
 7721SOL    HW224063   1.438   4.677   2.589
 7722SOL     OW24064   0.433   5.261   2.232
 7722SOL    HW124065   0.415   5.338   2.171
 7722SOL    HW224066   0.366   5.260   2.306
 7723SOL     OW24067   6.725   3.771   7.018
 7723SOL    HW124068   6.712   3.850   6.959
 7723SOL    HW224069   6.805   3.719   6.988
 7724SOL     OW24070   2.267   4.046   2.196
 7724SOL    HW124071   2.225   4.084   2.278
 7724SOL    HW224072   2.221   4.082   2.115
 7725SOL     OW24073   5.267   2.722   3.490
 7725SOL    HW124074   5.227   2.668   3.416
 7725SOL    HW224075   5.286   2.814   3.458
 7726SOL     OW24076   0.194   5.639   4.412
 7726SOL    HW124077   0.140   5.582   4.349
 7726SOL    HW224078   0.165   5.734   4.403
 7727SOL     OW24079   6.707   1.252   3.046
 7727SOL    HW124080   6.744   1.286   3.132
 7727SOL    HW224081   6.775   1.263   2.974
 7728SOL     OW24082   0.990   4.262   3.487
 7728SOL    HW124083   1.038   4.342   3.522
 7728SOL    HW224084   0.986   4.266   3.387
 7729SOL     OW24085   6.200   3.077   1.708
 7729SOL    HW124086   6.119   3.025   1.736
 7729SOL    HW224087   6.280   3.018   1.715
 7730SOL     OW24088   5.998   5.524   1.799
 7730SOL    HW124089   5.943   5.591   1.849
 7730SOL    HW224090   6.003   5.551   1.703
 7731SOL     OW24091   6.605   1.032   0.738
 7731SOL    HW124092   6.699   0.999   0.727
 7731SOL    HW224093   6.603   1.104   0.807
 7732SOL     OW24094   4.584   6.100   1.160
 7732SOL    HW124095   4.608   6.180   1.106
 7732SOL    HW224096   4.547   6.130   1.248
 7733SOL     OW24097   4.456   6.712   2.391
 7733SOL    HW124098   4.512   6.773   2.448
 7733SOL    HW224099   4.361   6.716   2.422
 7734SOL     OW24100   2.323   4.220   3.629
 7734SOL    HW124101   2.334   4.232   3.727
 7734SOL    HW224102   2.302   4.309   3.587
 7735SOL     OW24103   3.907   6.058   6.273
 7735SOL    HW124104   3.880   6.032   6.366
 7735SOL    HW224105   3.825   6.070   6.217
 7736SOL     OW24106   4.790   4.170   6.882
 7736SOL    HW124107   4.808   4.252   6.828
 7736SOL    HW224108   4.875   4.136   6.922
 7737SOL     OW24109   3.999   0.695   1.379
 7737SOL    HW124110   4.076   0.726   1.435
 7737SOL    HW224111   3.914   0.737   1.413
 7738SOL     OW24112   1.659   5.758   6.833
 7738SOL    HW124113   1.749   5.802   6.833
 7738SOL    HW224114   1.630   5.741   6.739
 7739SOL     OW24115   0.388   1.446   1.931
 7739SOL    HW124116   0.393   1.440   1.831
 7739SOL    HW224117   0.470   1.404   1.971
 7740SOL     OW24118   1.353   0.879   3.341
 7740SOL    HW124119   1.391   0.967   3.312
 7740SOL    HW224120   1.286   0.848   3.274
 7741SOL     OW24121   1.130   5.963   3.947
 7741SOL    HW124122   1.103   6.028   3.875
 7741SOL    HW224123   1.091   5.991   4.034
 7742SOL     OW24124   6.364   2.128   3.390
 7742SOL    HW124125   6.341   2.105   3.295
 7742SOL    HW224126   6.374   2.227   3.399
 7743SOL     OW24127   4.629   2.273   6.352
 7743SOL    HW124128   4.531   2.255   6.357
 7743SOL    HW224129   4.680   2.193   6.384
 7744SOL     OW24130   0.632   6.152   4.060
 7744SOL    HW124131   0.628   6.071   4.002
 7744SOL    HW224132   0.565   6.143   4.133
 7745SOL     OW24133   3.564   1.658   5.895
 7745SOL    HW124134   3.518   1.577   5.860
 7745SOL    HW224135   3.644   1.678   5.838
 7746SOL     OW24136   2.345   6.693   6.792
 7746SOL    HW124137   2.319   6.728   6.882
 7746SOL    HW224138   2.427   6.741   6.760
 7747SOL     OW24139   4.168   6.056   1.030
 7747SOL    HW124140   4.098   6.012   1.087
 7747SOL    HW224141   4.133   6.066   0.937
 7748SOL     OW24142   3.152   4.248   5.690
 7748SOL    HW124143   3.130   4.171   5.630
 7748SOL    HW224144   3.071   4.272   5.744
 7749SOL     OW24145   3.485   3.322   5.970
 7749SOL    HW124146   3.457   3.227   5.957
 7749SOL    HW224147   3.422   3.366   6.035
 7750SOL     OW24148   0.094   6.034   1.602
 7750SOL    HW124149   0.130   6.123   1.573
 7750SOL    HW224150   0.140   5.961   1.551
 7751SOL     OW24151   1.246   1.220   2.432
 7751SOL    HW124152   1.254   1.206   2.531
 7751SOL    HW224153   1.199   1.141   2.392
 7752SOL     OW24154   5.096   0.353   5.377
 7752SOL    HW124155   5.181   0.383   5.420
 7752SOL    HW224156   5.042   0.300   5.442
 7753SOL     OW24157   2.142   1.716   4.775
 7753SOL    HW124158   2.045   1.705   4.758
 7753SOL    HW224159   2.157   1.735   4.872
 7754SOL     OW24160   3.738   6.044   1.482
 7754SOL    HW124161   3.672   6.112   1.514
 7754SOL    HW224162   3.827   6.087   1.468
 7755SOL     OW24163   1.332   3.033   6.060
 7755SOL    HW124164   1.265   2.969   6.021
 7755SOL    HW224165   1.297   3.069   6.146
 7756SOL     OW24166   3.439   6.138   1.551
 7756SOL    HW124167   3.423   6.136   1.452
 7756SOL    HW224168   3.382   6.068   1.595
 7757SOL     OW24169   6.948   4.538   1.332
 7757SOL    HW124170   6.933   4.483   1.414
 7757SOL    HW224171   7.023   4.603   1.349
 7758SOL     OW24172   1.612   6.253   6.406
 7758SOL    HW124173   1.546   6.225   6.474
 7758SOL    HW224174   1.623   6.353   6.409
 7759SOL     OW24175   3.000   1.892   5.758
 7759SOL    HW124176   2.953   1.951   5.824
 7759SOL    HW224177   2.933   1.857   5.692
 7760SOL     OW24178   5.030   2.354   1.931
 7760SOL    HW124179   5.079   2.439   1.912
 7760SOL    HW224180   5.093   2.277   1.921
 7761SOL     OW24181   5.755   6.120   4.674
 7761SOL    HW124182   5.700   6.162   4.746
 7761SOL    HW224183   5.695   6.076   4.607
 7762SOL     OW24184   1.828   0.639   3.698
 7762SOL    HW124185   1.811   0.738   3.694
 7762SOL    HW224186   1.864   0.608   3.610
 7763SOL     OW24187   1.968   6.954   5.380
 7763SOL    HW124188   1.985   7.018   5.455
 7763SOL    HW224189   1.927   7.002   5.303
 7764SOL     OW24190   3.010   4.539   5.793
 7764SOL    HW124191   2.973   4.447   5.781
 7764SOL    HW224192   3.036   4.576   5.704
 7765SOL     OW24193   6.666   3.376   4.377
 7765SOL    HW124194   6.608   3.422   4.445
 7765SOL    HW224195   6.628   3.390   4.286
 7766SOL     OW24196   0.254   3.975   0.017
 7766SOL    HW124197   0.266   4.059   6.988
 7766SOL    HW224198   0.301   3.899   6.998
 7767SOL     OW24199   4.735   6.804   2.558
 7767SOL    HW124200   4.802   6.742   2.517
 7767SOL    HW224201   4.781   6.861   2.626
 7768SOL     OW24202   4.625   4.285   3.363
 7768SOL    HW124203   4.645   4.210   3.301
 7768SOL    HW224204   4.681   4.276   3.445
 7769SOL     OW24205   3.857   1.702   4.892
 7769SOL    HW124206   3.824   1.736   4.803
 7769SOL    HW224207   3.939   1.752   4.918
 7770SOL     OW24208   6.876   3.667   4.635
 7770SOL    HW124209   6.871   3.749   4.693
 7770SOL    HW224210   6.908   3.590   4.690
 7771SOL     OW24211   2.587   2.059   6.295
 7771SOL    HW124212   2.512   2.024   6.351
 7771SOL    HW224213   2.664   1.995   6.298
 7772SOL     OW24214   4.945   1.078   0.799
 7772SOL    HW124215   4.868   1.026   0.763
 7772SOL    HW224216   4.912   1.154   0.855
 7773SOL     OW24217   2.513   5.820   5.944
 7773SOL    HW124218   2.554   5.786   6.028
 7773SOL    HW224219   2.488   5.916   5.956
 7774SOL     OW24220   4.644   2.209   4.434
 7774SOL    HW124221   4.625   2.135   4.369
 7774SOL    HW224222   4.591   2.194   4.518
 7775SOL     OW24223   3.878   0.424   7.007
 7775SOL    HW124224   3.843   0.459   0.068
 7775SOL    HW224225   3.926   0.338   7.023
 7776SOL     OW24226   0.348   6.625   6.077
 7776SOL    HW124227   0.432   6.595   6.030
 7776SOL    HW224228   0.277   6.642   6.010
 7777SOL     OW24229   6.424   5.600   4.733
 7777SOL    HW124230   6.383   5.687   4.703
 7777SOL    HW224231   6.514   5.618   4.773
 7778SOL     OW24232   5.335   4.265   2.209
 7778SOL    HW124233   5.424   4.230   2.239
 7778SOL    HW224234   5.346   4.310   2.120
 7779SOL     OW24235   3.569   0.434   2.901
 7779SOL    HW124236   3.565   0.485   2.815
 7779SOL    HW224237   3.648   0.464   2.954
 7780SOL     OW24238   0.049   6.339   5.846
 7780SOL    HW124239   7.025   6.414   5.891
 7780SOL    HW224240   0.003   6.315   5.761
 7781SOL     OW24241   1.298   3.963   0.511
 7781SOL    HW124242   1.210   3.994   0.547
 7781SOL    HW224243   1.341   4.037   0.459
 7782SOL     OW24244   5.856   4.914   3.348
 7782SOL    HW124245   5.791   4.892   3.275
 7782SOL    HW224246   5.840   4.853   3.426
 7783SOL     OW24247   0.479   0.141   5.812
 7783SOL    HW124248   0.502   0.194   5.894
 7783SOL    HW224249   0.548   0.156   5.742
 7784SOL     OW24250   2.864   2.446   1.622
 7784SOL    HW124251   2.804   2.366   1.617
 7784SOL    HW224252   2.910   2.448   1.711
 7785SOL     OW24253   1.232   6.716   3.487
 7785SOL    HW124254   1.233   6.638   3.550
 7785SOL    HW224255   1.325   6.734   3.455
 7786SOL     OW24256   4.506   0.993   0.138
 7786SOL    HW124257   4.500   1.051   0.219
 7786SOL    HW224258   4.427   1.009   0.079
 7787SOL     OW24259   2.303   2.875   1.024
 7787SOL    HW124260   2.236   2.816   0.979
 7787SOL    HW224261   2.366   2.913   0.955
 7788SOL     OW24262   1.325   6.608   1.984
 7788SOL    HW124263   1.334   6.566   2.074
 7788SOL    HW224264   1.414   6.643   1.955
 7789SOL     OW24265   3.023   0.166   6.304
 7789SOL    HW124266   2.961   0.133   6.233
 7789SOL    HW224267   2.973   0.175   6.390
 7790SOL     OW24268   6.413   5.015   2.538
 7790SOL    HW124269   6.486   5.059   2.590
 7790SOL    HW224270   6.410   4.918   2.560
 7791SOL     OW24271   2.205   5.761   1.718
 7791SOL    HW124272   2.195   5.673   1.672
 7791SOL    HW224273   2.265   5.751   1.797
 7792SOL     OW24274   0.544   0.850   2.728
 7792SOL    HW124275   0.556   0.763   2.774
 7792SOL    HW224276   0.543   0.836   2.629
 7793SOL     OW24277   5.121   0.956   6.491
 7793SOL    HW124278   5.159   0.947   6.583
 7793SOL    HW224279   5.195   0.978   6.427
 7794SOL     OW24280   0.327   5.751   2.023
 7794SOL    HW124281   0.258   5.753   2.096
 7794SOL    HW224282   0.301   5.682   1.955
 7795SOL     OW24283   3.173   5.559   5.514
 7795SOL    HW124284   3.156   5.465   5.487
 7795SOL    HW224285   3.105   5.588   5.581
 7796SOL     OW24286   3.906   3.439   5.799
 7796SOL    HW124287   4.005   3.447   5.815
 7796SOL    HW224288   3.877   3.512   5.737
 7797SOL     OW24289   1.420   5.185   1.203
 7797SOL    HW124290   1.468   5.203   1.117
 7797SOL    HW224291   1.322   5.175   1.185
 7798SOL     OW24292   1.293   1.258   2.163
 7798SOL    HW124293   1.284   1.243   2.261
 7798SOL    HW224294   1.204   1.283   2.125
 7799SOL     OW24295   3.037   6.025   2.896
 7799SOL    HW124296   2.937   6.032   2.894
 7799SOL    HW224297   3.065   5.934   2.865
 7800SOL     OW24298   0.694   6.014   1.880
 7800SOL    HW124299   0.614   6.063   1.915
 7800SOL    HW224300   0.749   6.075   1.824
 7801SOL     OW24301   1.946   1.623   2.853
 7801SOL    HW124302   1.950   1.551   2.784
 7801SOL    HW224303   1.861   1.616   2.905
 7802SOL     OW24304   6.943   4.379   6.690
 7802SOL    HW124305   6.997   4.462   6.680
 7802SOL    HW224306   6.904   4.354   6.601
 7803SOL     OW24307   5.375   2.139   0.088
 7803SOL    HW124308   5.307   2.200   0.128
 7803SOL    HW224309   5.341   2.102   0.001
 7804SOL     OW24310   3.328   1.423   4.289
 7804SOL    HW124311   3.416   1.459   4.321
 7804SOL    HW224312   3.258   1.495   4.297
 7805SOL     OW24313   5.111   3.274   2.222
 7805SOL    HW124314   5.159   3.201   2.270
 7805SOL    HW224315   5.020   3.243   2.197
 7806SOL     OW24316   6.587   2.378   6.203
 7806SOL    HW124317   6.524   2.450   6.172
 7806SOL    HW224318   6.581   2.300   6.141
 7807SOL     OW24319   1.348   4.451   5.966
 7807SOL    HW124320   1.271   4.478   6.024
 7807SOL    HW224321   1.386   4.532   5.922
 7808SOL     OW24322   4.723   4.412   2.416
 7808SOL    HW124323   4.712   4.370   2.326
 7808SOL    HW224324   4.806   4.467   2.417
 7809SOL     OW24325   4.881   5.178   4.903
 7809SOL    HW124326   4.973   5.141   4.919
 7809SOL    HW224327   4.881   5.276   4.922
 7810SOL     OW24328   3.577   0.235   4.559
 7810SOL    HW124329   3.592   0.171   4.634
 7810SOL    HW224330   3.575   0.329   4.594
 7811SOL     OW24331   1.674   5.762   3.039
 7811SOL    HW124332   1.648   5.690   2.974
 7811SOL    HW224333   1.696   5.720   3.127
 7812SOL     OW24334   2.319   3.110   5.421
 7812SOL    HW124335   2.373   3.176   5.473
 7812SOL    HW224336   2.364   3.091   5.334
 7813SOL     OW24337   4.615   2.875   1.481
 7813SOL    HW124338   4.687   2.887   1.549
 7813SOL    HW224339   4.639   2.799   1.420
 7814SOL     OW24340   6.716   3.426   2.597
 7814SOL    HW124341   6.761   3.337   2.598
 7814SOL    HW224342   6.784   3.499   2.605
 7815SOL     OW24343   5.547   2.101   5.393
 7815SOL    HW124344   5.509   2.189   5.365
 7815SOL    HW224345   5.523   2.083   5.488
 7816SOL     OW24346   0.245   1.443   5.927
 7816SOL    HW124347   0.250   1.423   5.829
 7816SOL    HW224348   0.331   1.484   5.956
 7817SOL     OW24349   4.133   4.132   6.043
 7817SOL    HW124350   4.052   4.179   6.008
 7817SOL    HW224351   4.113   4.035   6.055
 7818SOL     OW24352   4.832   1.416   2.357
 7818SOL    HW124353   4.887   1.477   2.298
 7818SOL    HW224354   4.737   1.417   2.327
 7819SOL     OW24355   0.322   3.695   4.328
 7819SOL    HW124356   0.418   3.702   4.298
 7819SOL    HW224357   0.262   3.723   4.253
 7820SOL     OW24358   1.816   1.086   5.575
 7820SOL    HW124359   1.782   1.122   5.488
 7820SOL    HW224360   1.757   1.117   5.649
 7821SOL     OW24361   6.055   5.730   0.399
 7821SOL    HW124362   6.071   5.729   0.498
 7821SOL    HW224363   5.957   5.722   0.381
 7822SOL     OW24364   1.000   1.481   6.111
 7822SOL    HW124365   0.960   1.561   6.067
 7822SOL    HW224366   0.935   1.440   6.174
 7823SOL     OW24367   1.045   4.330   6.321
 7823SOL    HW124368   1.067   4.251   6.263
 7823SOL    HW224369   1.000   4.298   6.405
 7824SOL     OW24370   5.796   0.680   4.391
 7824SOL    HW124371   5.750   0.599   4.354
 7824SOL    HW224372   5.819   0.665   4.487
 7825SOL     OW24373   2.203   2.777   1.884
 7825SOL    HW124374   2.163   2.808   1.798
 7825SOL    HW224375   2.208   2.854   1.948
 7826SOL     OW24376   5.635   1.831   6.980
 7826SOL    HW124377   5.702   1.757   6.977
 7826SOL    HW224378   5.543   1.792   6.970
 7827SOL     OW24379   3.610   4.537   1.334
 7827SOL    HW124380   3.619   4.593   1.416
 7827SOL    HW224381   3.555   4.586   1.266
 7828SOL     OW24382   0.569   5.463   0.621
 7828SOL    HW124383   0.550   5.413   0.705
 7828SOL    HW224384   0.536   5.411   0.542
 7829SOL     OW24385   2.652   3.385   1.445
 7829SOL    HW124386   2.695   3.467   1.408
 7829SOL    HW224387   2.553   3.390   1.430
 7830SOL     OW24388   5.592   3.992   6.026
 7830SOL    HW124389   5.661   4.064   6.037
 7830SOL    HW224390   5.549   4.001   5.936
 7831SOL     OW24391   0.802   4.652   6.930
 7831SOL    HW124392   0.754   4.721   6.877
 7831SOL    HW224393   0.900   4.653   6.907
 7832SOL     OW24394   3.380   1.249   5.036
 7832SOL    HW124395   3.379   1.343   5.001
 7832SOL    HW224396   3.309   1.195   4.990
 7833SOL     OW24397   0.864   0.682   0.630
 7833SOL    HW124398   0.856   0.778   0.656
 7833SOL    HW224399   0.808   0.664   0.550
 7834SOL     OW24400   0.089   1.532   2.317
 7834SOL    HW124401   0.121   1.484   2.235
 7834SOL    HW224402   0.138   1.497   2.397
 7835SOL     OW24403   2.415   2.744   4.626
 7835SOL    HW124404   2.489   2.679   4.609
 7835SOL    HW224405   2.366   2.762   4.541
 7836SOL     OW24406   2.881   0.850   6.768
 7836SOL    HW124407   2.952   0.838   6.838
 7836SOL    HW224408   2.794   0.872   6.813
 7837SOL     OW24409   5.794   6.431   1.634
 7837SOL    HW124410   5.878   6.459   1.587
 7837SOL    HW224411   5.722   6.498   1.617
 7838SOL     OW24412   4.777   6.246   5.872
 7838SOL    HW124413   4.768   6.314   5.945
 7838SOL    HW224414   4.687   6.223   5.836
 7839SOL     OW24415   6.356   4.235   4.825
 7839SOL    HW124416   6.315   4.319   4.861
 7839SOL    HW224417   6.454   4.235   4.846
 7840SOL     OW24418   4.892   2.646   4.065
 7840SOL    HW124419   4.885   2.685   4.157
 7840SOL    HW224420   4.986   2.618   4.048
 7841SOL     OW24421   5.285   2.201   6.338
 7841SOL    HW124422   5.311   2.184   6.243
 7841SOL    HW224423   5.204   2.260   6.340
 7842SOL     OW24424   1.048   1.219   3.362
 7842SOL    HW124425   1.056   1.263   3.272
 7842SOL    HW224426   1.138   1.218   3.406
 7843SOL     OW24427   5.981   4.224   1.370
 7843SOL    HW124428   5.960   4.249   1.275
 7843SOL    HW224429   6.050   4.286   1.406
 7844SOL     OW24430   4.182   0.890   3.969
 7844SOL    HW124431   4.127   0.807   3.961
 7844SOL    HW224432   4.164   0.949   3.891
 7845SOL     OW24433   0.676   0.829   3.793
 7845SOL    HW124434   0.594   0.862   3.745
 7845SOL    HW224435   0.696   0.891   3.869
 7846SOL     OW24436   2.404   0.833   1.326
 7846SOL    HW124437   2.324   0.879   1.365
 7846SOL    HW224438   2.487   0.866   1.371
 7847SOL     OW24439   0.639   1.335   1.024
 7847SOL    HW124440   0.567   1.266   1.037
 7847SOL    HW224441   0.671   1.367   1.113
 7848SOL     OW24442   3.340   4.528   0.949
 7848SOL    HW124443   3.318   4.440   0.992
 7848SOL    HW224444   3.263   4.590   0.961
 7849SOL     OW24445   5.040   3.673   4.094
 7849SOL    HW124446   5.092   3.624   4.024
 7849SOL    HW224447   5.027   3.768   4.065
 7850SOL     OW24448   0.088   0.820   3.941
 7850SOL    HW124449   0.011   0.756   3.936
 7850SOL    HW224450   0.172   0.773   3.915
 7851SOL     OW24451   6.197   6.472   0.592
 7851SOL    HW124452   6.254   6.390   0.603
 7851SOL    HW224453   6.254   6.554   0.603
 7852SOL     OW24454   2.819   6.686   6.500
 7852SOL    HW124455   2.893   6.672   6.565
 7852SOL    HW224456   2.810   6.784   6.481
 7853SOL     OW24457   3.553   1.708   0.231
 7853SOL    HW124458   3.506   1.697   0.144
 7853SOL    HW224459   3.607   1.792   0.230
 7854SOL     OW24460   3.779   4.146   0.763
 7854SOL    HW124461   3.701   4.098   0.803
 7854SOL    HW224462   3.854   4.149   0.829
 7855SOL     OW24463   4.630   5.935   6.357
 7855SOL    HW124464   4.603   5.948   6.262
 7855SOL    HW224465   4.550   5.942   6.417
 7856SOL     OW24466   6.223   4.741   4.348
 7856SOL    HW124467   6.268   4.728   4.260
 7856SOL    HW224468   6.242   4.833   4.381
 7857SOL     OW24469   6.818   2.562   5.866
 7857SOL    HW124470   6.780   2.490   5.807
 7857SOL    HW224471   6.904   2.531   5.905
 7858SOL     OW24472   5.268   4.742   3.336
 7858SOL    HW124473   5.185   4.797   3.342
 7858SOL    HW224474   5.347   4.803   3.330
 7859SOL     OW24475   0.130   3.923   5.960
 7859SOL    HW124476   0.149   3.961   5.869
 7859SOL    HW224477   0.112   3.998   6.024
 7860SOL     OW24478   4.048   6.452   2.908
 7860SOL    HW124479   4.003   6.477   2.822
 7860SOL    HW224480   4.022   6.359   2.933
 7861SOL     OW24481   4.474   5.364   1.672
 7861SOL    HW124482   4.523   5.422   1.738
 7861SOL    HW224483   4.466   5.412   1.585
 7862SOL     OW24484   3.007   4.260   1.745
 7862SOL    HW124485   2.946   4.333   1.775
 7862SOL    HW224486   2.958   4.173   1.746
 7863SOL     OW24487   6.490   5.864   3.177
 7863SOL    HW124488   6.557   5.857   3.102
 7863SOL    HW224489   6.423   5.791   3.169
 7864SOL     OW24490   6.804   5.994   5.575
 7864SOL    HW124491   6.761   6.061   5.515
 7864SOL    HW224492   6.796   6.024   5.670
 7865SOL     OW24493   4.161   6.625   4.122
 7865SOL    HW124494   4.082   6.564   4.128
 7865SOL    HW224495   4.133   6.711   4.080
 7866SOL     OW24496   2.484   1.321   2.172
 7866SOL    HW124497   2.452   1.415   2.182
 7866SOL    HW224498   2.583   1.318   2.179
 7867SOL     OW24499   5.389   5.247   2.492
 7867SOL    HW124500   5.316   5.255   2.425
 7867SOL    HW224501   5.352   5.255   2.584
 7868SOL     OW24502   4.992   0.054   2.206
 7868SOL    HW124503   5.006   6.983   2.187
 7868SOL    HW224504   5.058   0.108   2.153
 7869SOL     OW24505   6.267   3.885   1.044
 7869SOL    HW124506   6.249   3.788   1.026
 7869SOL    HW224507   6.286   3.898   1.141
 7870SOL     OW24508   5.948   5.383   3.537
 7870SOL    HW124509   5.907   5.297   3.508
 7870SOL    HW224510   5.968   5.379   3.635
 7871SOL     OW24511   5.492   4.170   3.323
 7871SOL    HW124512   5.506   4.112   3.243
 7871SOL    HW224513   5.525   4.263   3.303
 7872SOL     OW24514   0.914   4.627   2.086
 7872SOL    HW124515   0.905   4.727   2.085
 7872SOL    HW224516   0.983   4.601   2.153
 7873SOL     OW24517   6.551   0.744   5.641
 7873SOL    HW124518   6.453   0.757   5.634
 7873SOL    HW224519   6.598   0.828   5.613
 7874SOL     OW24520   6.366   1.530   6.586
 7874SOL    HW124521   6.331   1.437   6.589
 7874SOL    HW224522   6.330   1.582   6.664
 7875SOL     OW24523   4.585   3.995   6.890
 7875SOL    HW124524   4.538   4.015   6.804
 7875SOL    HW224525   4.674   4.040   6.889
 7876SOL     OW24526   6.744   0.205   4.770
 7876SOL    HW124527   6.702   0.291   4.800
 7876SOL    HW224528   6.804   0.223   4.692
 7877SOL     OW24529   0.270   2.624   2.690
 7877SOL    HW124530   0.327   2.552   2.730
 7877SOL    HW224531   0.234   2.681   2.763
 7878SOL     OW24532   5.046   4.890   3.385
 7878SOL    HW124533   4.947   4.878   3.375
 7878SOL    HW224534   5.065   4.938   3.470
 7879SOL     OW24535   4.403   5.885   3.205
 7879SOL    HW124536   4.462   5.959   3.172
 7879SOL    HW224537   4.340   5.858   3.132
 7880SOL     OW24538   0.451   6.213   0.932
 7880SOL    HW124539   0.387   6.166   0.994
 7880SOL    HW224540   0.410   6.220   0.841
 7881SOL     OW24541   0.068   3.909   4.733
 7881SOL    HW124542   0.134   3.984   4.740
 7881SOL    HW224543   0.086   3.857   4.650
 7882SOL     OW24544   1.753   2.096   2.400
 7882SOL    HW124545   1.723   2.191   2.398
 7882SOL    HW224546   1.836   2.086   2.345
 7883SOL     OW24547   1.910   1.024   1.442
 7883SOL    HW124548   1.821   0.978   1.442
 7883SOL    HW224549   1.899   1.117   1.406
 7884SOL     OW24550   1.435   4.459   3.231
 7884SOL    HW124551   1.423   4.360   3.226
 7884SOL    HW224552   1.423   4.499   3.140
 7885SOL     OW24553   5.767   5.629   2.969
 7885SOL    HW124554   5.681   5.655   2.925
 7885SOL    HW224555   5.775   5.675   3.058
 7886SOL     OW24556   6.026   3.960   1.416
 7886SOL    HW124557   5.958   3.896   1.381
 7886SOL    HW224558   5.988   4.053   1.416
 7887SOL     OW24559   3.356   2.766   5.291
 7887SOL    HW124560   3.456   2.767   5.297
 7887SOL    HW224561   3.322   2.678   5.323
 7888SOL     OW24562   0.097   0.938   4.200
 7888SOL    HW124563   0.088   0.920   4.102
 7888SOL    HW224564   0.193   0.940   4.225
 7889SOL     OW24565   0.341   5.384   6.503
 7889SOL    HW124566   0.273   5.416   6.570
 7889SOL    HW224567   0.414   5.451   6.495
 7890SOL     OW24568   1.359   2.683   3.997
 7890SOL    HW124569   1.446   2.682   4.045
 7890SOL    HW224570   1.284   2.690   4.063
 7891SOL     OW24571   1.029   3.008   4.067
 7891SOL    HW124572   1.060   2.917   4.095
 7891SOL    HW224573   1.065   3.076   4.131
 7892SOL     OW24574   1.297   2.017   3.901
 7892SOL    HW124575   1.238   1.950   3.858
 7892SOL    HW224576   1.316   2.091   3.837
 7893SOL     OW24577   5.791   6.204   1.809
 7893SOL    HW124578   5.792   6.298   1.775
 7893SOL    HW224579   5.828   6.201   1.902
 7894SOL     OW24580   2.740   1.212   0.684
 7894SOL    HW124581   2.741   1.311   0.675
 7894SOL    HW224582   2.733   1.187   0.780
 7895SOL     OW24583   3.493   6.190   4.463
 7895SOL    HW124584   3.433   6.110   4.468
 7895SOL    HW224585   3.589   6.160   4.469
 7896SOL     OW24586   5.241   3.243   1.507
 7896SOL    HW124587   5.243   3.260   1.605
 7896SOL    HW224588   5.165   3.182   1.484
 7897SOL     OW24589   3.425   3.510   6.818
 7897SOL    HW124590   3.421   3.556   6.730
 7897SOL    HW224591   3.518   3.515   6.855
 7898SOL     OW24592   4.574   0.048   4.324
 7898SOL    HW124593   4.548   6.981   4.353
 7898SOL    HW224594   4.652   0.043   4.262
 7899SOL     OW24595   5.176   6.471   1.715
 7899SOL    HW124596   5.265   6.427   1.704
 7899SOL    HW224597   5.163   6.497   1.811
 7900SOL     OW24598   0.964   3.649   0.853
 7900SOL    HW124599   0.872   3.687   0.847
 7900SOL    HW224600   1.012   3.663   0.766
 7901SOL     OW24601   5.316   1.553   6.143
 7901SOL    HW124602   5.254   1.617   6.190
 7901SOL    HW224603   5.280   1.531   6.053
 7902SOL     OW24604   6.926   6.482   3.280
 7902SOL    HW124605   6.975   6.503   3.365
 7902SOL    HW224606   6.926   6.563   3.221
 7903SOL     OW24607   4.330   1.797   3.747
 7903SOL    HW124608   4.303   1.874   3.806
 7903SOL    HW224609   4.426   1.806   3.722
 7904SOL     OW24610   5.994   6.983   3.515
 7904SOL    HW124611   5.905   6.995   3.558
 7904SOL    HW224612   5.990   7.017   3.421
 7905SOL     OW24613   5.440   1.091   0.511
 7905SOL    HW124614   5.384   1.138   0.443
 7905SOL    HW224615   5.517   1.149   0.538
 7906SOL     OW24616   1.180   5.097   1.081
 7906SOL    HW124617   1.152   5.188   1.051
 7906SOL    HW224618   1.193   5.038   1.002
 7907SOL     OW24619   6.035   1.182   2.961
 7907SOL    HW124620   6.062   1.267   2.916
 7907SOL    HW224621   6.061   1.104   2.904
 7908SOL     OW24622   1.077   2.078   6.728
 7908SOL    HW124623   1.037   1.987   6.722
 7908SOL    HW224624   1.118   2.103   6.640
 7909SOL     OW24625   5.028   4.345   3.258
 7909SOL    HW124626   4.940   4.390   3.244
 7909SOL    HW224627   5.013   4.257   3.302
 7910SOL     OW24628   1.437   2.917   1.150
 7910SOL    HW124629   1.428   2.868   1.063
 7910SOL    HW224630   1.408   2.857   1.225
 7911SOL     OW24631   0.882   3.854   1.413
 7911SOL    HW124632   0.946   3.879   1.485
 7911SOL    HW224633   0.926   3.864   1.324
 7912SOL     OW24634   5.195   4.883   0.475
 7912SOL    HW124635   5.102   4.902   0.507
 7912SOL    HW224636   5.216   4.786   0.491
 7913SOL     OW24637   1.575   4.623   0.954
 7913SOL    HW124638   1.486   4.653   0.923
 7913SOL    HW224639   1.608   4.549   0.895
 7914SOL     OW24640   0.140   4.587   6.704
 7914SOL    HW124641   0.131   4.686   6.690
 7914SOL    HW224642   0.237   4.561   6.695
 7915SOL     OW24643   4.161   1.316   2.836
 7915SOL    HW124644   4.127   1.228   2.804
 7915SOL    HW224645   4.123   1.389   2.780
 7916SOL     OW24646   0.733   0.736   4.740
 7916SOL    HW124647   0.782   0.713   4.824
 7916SOL    HW224648   0.651   0.679   4.733
 7917SOL     OW24649   4.014   2.472   5.755
 7917SOL    HW124650   3.980   2.378   5.754
 7917SOL    HW224651   3.939   2.535   5.734
 7918SOL     OW24652   0.842   1.565   5.262
 7918SOL    HW124653   0.788   1.489   5.225
 7918SOL    HW224654   0.934   1.533   5.283
 7919SOL     OW24655   1.145   5.036   2.567
 7919SOL    HW124656   1.124   5.052   2.663
 7919SOL    HW224657   1.241   5.056   2.550
 7920SOL     OW24658   4.709   1.127   1.972
 7920SOL    HW124659   4.781   1.117   1.903
 7920SOL    HW224660   4.702   1.043   2.025
 7921SOL     OW24661   5.571   0.681   1.351
 7921SOL    HW124662   5.622   0.751   1.401
 7921SOL    HW224663   5.633   0.608   1.322
 7922SOL     OW24664   0.488   6.421   6.722
 7922SOL    HW124665   0.434   6.385   6.646
 7922SOL    HW224666   0.524   6.345   6.776
 7923SOL     OW24667   3.224   2.204   6.948
 7923SOL    HW124668   3.163   2.130   6.976
 7923SOL    HW224669   3.285   2.171   6.875
 7924SOL     OW24670   5.061   6.741   1.139
 7924SOL    HW124671   5.060   6.651   1.183
 7924SOL    HW224672   5.137   6.746   1.074
 7925SOL     OW24673   1.787   6.647   0.873
 7925SOL    HW124674   1.724   6.584   0.919
 7925SOL    HW224675   1.734   6.717   0.826
 7926SOL     OW24676   5.482   1.541   6.600
 7926SOL    HW124677   5.475   1.461   6.660
 7926SOL    HW224678   5.559   1.528   6.538
 7927SOL     OW24679   5.208   0.166   1.665
 7927SOL    HW124680   5.291   0.151   1.719
 7927SOL    HW224681   5.128   0.163   1.725
 7928SOL     OW24682   6.942   1.124   3.447
 7928SOL    HW124683   6.917   1.050   3.510
 7928SOL    HW224684   6.932   1.092   3.353
 7929SOL     OW24685   4.683   3.677   6.189
 7929SOL    HW124686   4.637   3.763   6.168
 7929SOL    HW224687   4.614   3.608   6.211
 7930SOL     OW24688   3.477   5.328   6.112
 7930SOL    HW124689   3.399   5.299   6.167
 7930SOL    HW224690   3.447   5.391   6.041
 7931SOL     OW24691   3.511   2.763   0.346
 7931SOL    HW124692   3.452   2.693   0.305
 7931SOL    HW224693   3.464   2.852   0.342
 7932SOL     OW24694   0.475   4.990   1.425
 7932SOL    HW124695   0.525   4.918   1.378
 7932SOL    HW224696   0.408   4.949   1.487
 7933SOL     OW24697   6.898   0.904   5.938
 7933SOL    HW124698   6.824   0.956   5.980
 7933SOL    HW224699   6.880   0.806   5.948
 7934SOL     OW24700   1.539   4.970   0.451
 7934SOL    HW124701   1.507   4.932   0.364
 7934SOL    HW224702   1.524   4.903   0.524
 7935SOL     OW24703   4.899   4.827   2.816
 7935SOL    HW124704   4.801   4.848   2.819
 7935SOL    HW224705   4.942   4.883   2.745
 7936SOL     OW24706   3.381   5.581   3.291
 7936SOL    HW124707   3.455   5.647   3.302
 7936SOL    HW224708   3.361   5.568   3.194
 7937SOL     OW24709   2.195   5.194   3.660
 7937SOL    HW124710   2.252   5.273   3.638
 7937SOL    HW224711   2.164   5.200   3.755
 7938SOL     OW24712   5.261   6.413   5.240
 7938SOL    HW124713   5.169   6.418   5.279
 7938SOL    HW224714   5.258   6.442   5.144
 7939SOL     OW24715   0.323   1.771   5.747
 7939SOL    HW124716   0.389   1.845   5.736
 7939SOL    HW224717   0.370   1.683   5.746
 7940SOL     OW24718   3.633   1.513   2.422
 7940SOL    HW124719   3.555   1.497   2.362
 7940SOL    HW224720   3.630   1.607   2.457
 7941SOL     OW24721   5.027   6.481   3.201
 7941SOL    HW124722   5.114   6.519   3.232
 7941SOL    HW224723   4.999   6.408   3.263
 7942SOL     OW24724   0.534   2.552   2.901
 7942SOL    HW124725   0.489   2.559   2.990
 7942SOL    HW224726   0.615   2.611   2.901
 7943SOL     OW24727   0.948   4.486   5.577
 7943SOL    HW124728   0.973   4.397   5.540
 7943SOL    HW224729   1.020   4.518   5.638
 7944SOL     OW24730   0.416   2.251   1.628
 7944SOL    HW124731   0.451   2.344   1.635
 7944SOL    HW224732   0.357   2.232   1.706
 7945SOL     OW24733   6.197   5.311   2.844
 7945SOL    HW124734   6.159   5.219   2.832
 7945SOL    HW224735   6.195   5.335   2.942
 7946SOL     OW24736   3.744   0.122   5.976
 7946SOL    HW124737   3.664   0.163   6.020
 7946SOL    HW224738   3.717   0.037   5.931
 7947SOL     OW24739   2.512   1.856   5.200
 7947SOL    HW124740   2.495   1.862   5.102
 7947SOL    HW224741   2.461   1.928   5.247
 7948SOL     OW24742   1.001   4.788   1.371
 7948SOL    HW124743   1.005   4.886   1.349
 7948SOL    HW224744   1.064   4.738   1.313
 7949SOL     OW24745   4.324   4.145   5.840
 7949SOL    HW124746   4.406   4.150   5.896
 7949SOL    HW224747   4.247   4.115   5.896
 7950SOL     OW24748   5.081   6.332   4.729
 7950SOL    HW124749   5.008   6.298   4.670
 7950SOL    HW224750   5.170   6.304   4.692
 7951SOL     OW24751   2.088   5.020   2.724
 7951SOL    HW124752   2.037   5.020   2.637
 7951SOL    HW224753   2.129   5.109   2.738
 7952SOL     OW24754   6.780   3.228   6.956
 7952SOL    HW124755   6.878   3.212   6.963
 7952SOL    HW224756   6.735   3.146   6.919
 7953SOL     OW24757   4.631   2.083   1.708
 7953SOL    HW124758   4.568   2.128   1.645
 7953SOL    HW224759   4.593   2.087   1.801
 7954SOL     OW24760   4.413   3.747   6.454
 7954SOL    HW124761   4.387   3.833   6.409
 7954SOL    HW224762   4.336   3.683   6.450
 7955SOL     OW24763   2.581   1.510   6.385
 7955SOL    HW124764   2.506   1.504   6.451
 7955SOL    HW224765   2.544   1.507   6.293
 7956SOL     OW24766   6.020   1.383   1.881
 7956SOL    HW124767   5.987   1.379   1.975
 7956SOL    HW224768   5.956   1.435   1.825
 7957SOL     OW24769   3.226   0.884   5.892
 7957SOL    HW124770   3.242   0.908   5.796
 7957SOL    HW224771   3.302   0.919   5.948
 7958SOL     OW24772   5.306   4.200   5.927
 7958SOL    HW124773   5.400   4.201   5.894
 7958SOL    HW224774   5.244   4.207   5.849
 7959SOL     OW24775   5.326   0.648   6.558
 7959SOL    HW124776   5.251   0.669   6.621
 7959SOL    HW224777   5.296   0.578   6.493
 7960SOL     OW24778   0.824   1.472   6.327
 7960SOL    HW124779   0.857   1.507   6.414
 7960SOL    HW224780   0.803   1.374   6.336
 7961SOL     OW24781   6.703   0.067   0.727
 7961SOL    HW124782   6.672   0.129   0.656
 7961SOL    HW224783   6.685   0.107   0.817
 7962SOL     OW24784   0.073   1.617   5.771
 7962SOL    HW124785   0.124   1.668   5.702
 7962SOL    HW224786   0.133   1.594   5.847
 7963SOL     OW24787   6.751   5.421   3.694
 7963SOL    HW124788   6.653   5.401   3.705
 7963SOL    HW224789   6.801   5.337   3.677
 7964SOL     OW24790   6.376   2.653   2.097
 7964SOL    HW124791   6.456   2.708   2.073
 7964SOL    HW224792   6.294   2.695   2.059
 7965SOL     OW24793   3.781   2.240   6.469
 7965SOL    HW124794   3.720   2.209   6.396
 7965SOL    HW224795   3.785   2.339   6.470
 7966SOL     OW24796   3.953   3.767   6.041
 7966SOL    HW124797   3.902   3.682   6.031
 7966SOL    HW224798   3.993   3.772   6.133
 7967SOL     OW24799   2.179   5.138   2.126
 7967SOL    HW124800   2.232   5.212   2.168
 7967SOL    HW224801   2.238   5.086   2.064
 7968SOL     OW24802   5.995   2.327   5.282
 7968SOL    HW124803   5.965   2.395   5.349
 7968SOL    HW224804   5.926   2.254   5.274
 7969SOL     OW24805   5.032   6.098   0.382
 7969SOL    HW124806   5.028   6.165   0.456
 7969SOL    HW224807   5.128   6.078   0.360
 7970SOL     OW24808   5.845   2.929   2.836
 7970SOL    HW124809   5.923   2.871   2.859
 7970SOL    HW224810   5.805   2.899   2.750
 7971SOL     OW24811   2.904   0.847   1.758
 7971SOL    HW124812   2.883   0.778   1.689
 7971SOL    HW224813   2.958   0.921   1.717
 7972SOL     OW24814   3.665   3.822   1.744
 7972SOL    HW124815   3.610   3.870   1.676
 7972SOL    HW224816   3.621   3.831   1.834
 7973SOL     OW24817   5.510   4.300   4.658
 7973SOL    HW124818   5.440   4.261   4.717
 7973SOL    HW224819   5.572   4.228   4.627
 7974SOL     OW24820   5.965   0.744   5.242
 7974SOL    HW124821   6.010   0.697   5.318
 7974SOL    HW224822   5.992   0.841   5.243
 7975SOL     OW24823   4.739   0.571   0.618
 7975SOL    HW124824   4.683   0.497   0.656
 7975SOL    HW224825   4.717   0.582   0.521
 7976SOL     OW24826   0.804   0.089   5.636
 7976SOL    HW124827   0.782   0.001   5.594
 7976SOL    HW224828   0.837   0.074   5.729
 7977SOL     OW24829   5.363   6.348   2.175
 7977SOL    HW124830   5.310   6.433   2.164
 7977SOL    HW224831   5.413   6.329   2.090
 7978SOL     OW24832   0.443   3.115   6.321
 7978SOL    HW124833   0.478   3.171   6.395
 7978SOL    HW224834   0.519   3.081   6.265
 7979SOL     OW24835   2.048   4.306   5.627
 7979SOL    HW124836   2.097   4.386   5.661
 7979SOL    HW224837   2.033   4.241   5.702
 7980SOL     OW24838   3.029   5.624   6.440
 7980SOL    HW124839   2.993   5.547   6.493
 7980SOL    HW224840   3.038   5.598   6.344
 7981SOL     OW24841   1.038   5.105   1.758
 7981SOL    HW124842   1.003   5.014   1.739
 7981SOL    HW224843   0.974   5.173   1.722
 7982SOL     OW24844   1.497   1.854   6.020
 7982SOL    HW124845   1.436   1.923   6.059
 7982SOL    HW224846   1.563   1.898   5.959
 7983SOL     OW24847   6.540   1.065   1.562
 7983SOL    HW124848   6.457   1.010   1.555
 7983SOL    HW224849   6.543   1.108   1.652
 7984SOL     OW24850   0.751   1.751   0.692
 7984SOL    HW124851   0.825   1.693   0.659
 7984SOL    HW224852   0.665   1.700   0.687
 7985SOL     OW24853   2.291   2.265   4.498
 7985SOL    HW124854   2.303   2.329   4.574
 7985SOL    HW224855   2.380   2.240   4.461
 7986SOL     OW24856   3.666   0.870   5.498
 7986SOL    HW124857   3.639   0.789   5.550
 7986SOL    HW224858   3.589   0.902   5.442
 7987SOL     OW24859   2.312   3.182   0.621
 7987SOL    HW124860   2.304   3.127   0.704
 7987SOL    HW224861   2.221   3.201   0.584
 7988SOL     OW24862   1.099   0.951   1.813
 7988SOL    HW124863   1.138   0.898   1.888
 7988SOL    HW224864   1.004   0.974   1.834
 7989SOL     OW24865   2.104   4.024   0.382
 7989SOL    HW124866   2.012   3.991   0.399
 7989SOL    HW224867   2.121   4.026   0.283
 7990SOL     OW24868   2.434   5.486   4.448
 7990SOL    HW124869   2.402   5.393   4.429
 7990SOL    HW224870   2.413   5.546   4.371
 7991SOL     OW24871   5.813   1.073   4.411
 7991SOL    HW124872   5.733   1.100   4.358
 7991SOL    HW224873   5.860   0.998   4.365
 7992SOL     OW24874   1.853   0.117   0.079
 7992SOL    HW124875   1.900   0.031   0.099
 7992SOL    HW224876   1.911   0.173   0.020
 7993SOL     OW24877   0.613   0.141   1.091
 7993SOL    HW124878   0.621   0.240   1.105
 7993SOL    HW224879   0.578   0.098   1.174
 7994SOL     OW24880   5.296   0.655   2.980
 7994SOL    HW124881   5.338   0.577   3.026
 7994SOL    HW224882   5.211   0.680   3.027
 7995SOL     OW24883   5.662   4.880   3.171
 7995SOL    HW124884   5.646   4.940   3.093
 7995SOL    HW224885   5.605   4.798   3.162
 7996SOL     OW24886   4.068   6.386   4.195
 7996SOL    HW124887   3.979   6.344   4.216
 7996SOL    HW224888   4.141   6.324   4.224
 7997SOL     OW24889   0.270   1.616   0.345
 7997SOL    HW124890   0.308   1.626   0.436
 7997SOL    HW224891   0.332   1.656   0.278
 7998SOL     OW24892   3.096   6.379   6.713
 7998SOL    HW124893   3.174   6.327   6.676
 7998SOL    HW224894   3.108   6.391   6.811
 7999SOL     OW24895   1.402   1.628   5.855
 7999SOL    HW124896   1.313   1.642   5.811
 7999SOL    HW224897   1.431   1.713   5.899
 8000SOL     OW24898   5.997   0.194   6.121
 8000SOL    HW124899   5.924   0.167   6.057
 8000SOL    HW224900   5.973   0.165   6.213
 8001SOL     OW24901   4.464   6.217   1.379
 8001SOL    HW124902   4.467   6.307   1.422
 8001SOL    HW224903   4.433   6.149   1.446
 8002SOL     OW24904   0.893   1.365   5.651
 8002SOL    HW124905   0.992   1.372   5.638
 8002SOL    HW224906   0.857   1.292   5.593
 8003SOL     OW24907   1.961   6.049   1.327
 8003SOL    HW124908   2.027   6.013   1.392
 8003SOL    HW224909   1.892   6.103   1.376
 8004SOL     OW24910   1.753   3.173   3.447
 8004SOL    HW124911   1.737   3.108   3.521
 8004SOL    HW224912   1.765   3.124   3.361
 8005SOL     OW24913   2.865   0.543   3.186
 8005SOL    HW124914   2.826   0.635   3.192
 8005SOL    HW224915   2.791   0.476   3.181
 8006SOL     OW24916   2.717   5.767   5.508
 8006SOL    HW124917   2.742   5.696   5.442
 8006SOL    HW224918   2.637   5.816   5.476
 8007SOL     OW24919   5.760   2.252   6.204
 8007SOL    HW124920   5.851   2.273   6.169
 8007SOL    HW224921   5.691   2.293   6.143
 8008SOL     OW24922   3.370   5.478   6.852
 8008SOL    HW124923   3.454   5.441   6.809
 8008SOL    HW224924   3.383   5.483   6.951
 8009SOL     OW24925   4.341   1.379   0.288
 8009SOL    HW124926   4.397   1.451   0.248
 8009SOL    HW224927   4.244   1.400   0.276
 8010SOL     OW24928   2.960   2.488   5.301
 8010SOL    HW124929   3.033   2.445   5.248
 8010SOL    HW224930   2.938   2.431   5.380
 8011SOL     OW24931   3.616   2.002   1.667
 8011SOL    HW124932   3.647   1.976   1.759
 8011SOL    HW224933   3.588   2.098   1.667
 8012SOL     OW24934   1.130   2.881   5.905
 8012SOL    HW124935   1.087   2.793   5.885
 8012SOL    HW224936   1.157   2.925   5.819
 8013SOL     OW24937   1.297   3.565   3.871
 8013SOL    HW124938   1.281   3.471   3.901
 8013SOL    HW224939   1.280   3.573   3.773
 8014SOL     OW24940   1.968   0.371   4.371
 8014SOL    HW124941   1.917   0.286   4.357
 8014SOL    HW224942   1.929   0.443   4.314
 8015SOL     OW24943   2.003   0.193   5.842
 8015SOL    HW124944   1.962   0.183   5.932
 8015SOL    HW224945   2.010   0.104   5.798
 8016SOL     OW24946   3.893   1.300   5.271
 8016SOL    HW124947   3.819   1.310   5.204
 8016SOL    HW224948   3.874   1.358   5.350
 8017SOL     OW24949   6.441   0.007   6.867
 8017SOL    HW124950   6.436   7.021   6.768
 8017SOL    HW224951   6.529   7.000   6.901
 8018SOL     OW24952   3.743   2.538   6.498
 8018SOL    HW124953   3.760   2.583   6.586
 8018SOL    HW224954   3.725   2.608   6.429
 8019SOL     OW24955   1.784   3.806   1.361
 8019SOL    HW124956   1.700   3.775   1.317
 8019SOL    HW224957   1.836   3.862   1.297
 8020SOL     OW24958   6.342   0.709   5.953
 8020SOL    HW124959   6.271   0.749   6.011
 8020SOL    HW224960   6.428   0.758   5.967
 8021SOL     OW24961   1.715   2.956   1.171
 8021SOL    HW124962   1.617   2.940   1.160
 8021SOL    HW224963   1.744   2.928   1.262
 8022SOL     OW24964   5.724   0.400   1.574
 8022SOL    HW124965   5.645   0.387   1.634
 8022SOL    HW224966   5.770   0.312   1.561
 8023SOL     OW24967   5.836   5.031   2.470
 8023SOL    HW124968   5.851   5.016   2.373
 8023SOL    HW224969   5.887   4.962   2.523
 8024SOL     OW24970   1.283   5.512   5.699
 8024SOL    HW124971   1.205   5.497   5.760
 8024SOL    HW224972   1.289   5.609   5.676
 8025SOL     OW24973   1.697   5.366   1.008
 8025SOL    HW124974   1.698   5.301   1.084
 8025SOL    HW224975   1.755   5.445   1.029
 8026SOL     OW24976   7.005   4.212   1.250
 8026SOL    HW124977   6.986   4.267   1.169
 8026SOL    HW224978   6.926   4.215   1.311
 8027SOL     OW24979   3.336   6.411   5.397
 8027SOL    HW124980   3.369   6.380   5.486
 8027SOL    HW224981   3.329   6.511   5.397
 8028SOL     OW24982   2.681   5.505   4.621
 8028SOL    HW124983   2.644   5.529   4.711
 8028SOL    HW224984   2.606   5.489   4.557
 8029SOL     OW24985   4.987   2.769   2.223
 8029SOL    HW124986   4.939   2.752   2.137
 8029SOL    HW224987   4.950   2.852   2.266
 8030SOL     OW24988   6.217   5.414   0.613
 8030SOL    HW124989   6.133   5.460   0.640
 8030SOL    HW224990   6.277   5.404   0.693
 8031SOL     OW24991   6.558   6.477   2.626
 8031SOL    HW124992   6.481   6.453   2.686
 8031SOL    HW224993   6.557   6.575   2.606
 8032SOL     OW24994   5.221   3.688   1.662
 8032SOL    HW124995   5.304   3.648   1.623
 8032SOL    HW224996   5.143   3.630   1.639
 8033SOL     OW24997   4.797   3.375   0.651
 8033SOL    HW124998   4.775   3.409   0.559
 8033SOL    HW224999   4.721   3.319   0.684
 8034SOL     OW25000   5.736   0.131   5.987
 8034SOL    HW125001   5.734   0.034   5.965
 8034SOL    HW225002   5.721   0.144   6.085
 8035SOL     OW25003   4.924   1.595   1.869
 8035SOL    HW125004   4.983   1.525   1.910
 8035SOL    HW225005   4.829   1.575   1.891
 8036SOL     OW25006   6.783   3.447   3.430
 8036SOL    HW125007   6.724   3.393   3.490
 8036SOL    HW225008   6.726   3.497   3.365
 8037SOL     OW25009   1.859   3.445   6.957
 8037SOL    HW125010   1.936   3.383   6.965
 8037SOL    HW225011   1.882   3.533   7.000
 8038SOL     OW25012   4.787   6.456   2.340
 8038SOL    HW125013   4.691   6.435   2.361
 8038SOL    HW225014   4.800   6.457   2.241
 8039SOL     OW25015   6.976   2.353   4.875
 8039SOL    HW125016   6.914   2.366   4.953
 8039SOL    HW225017   0.039   2.323   4.909
 8040SOL     OW25018   2.177   6.081   0.028
 8040SOL    HW125019   2.230   5.997   0.039
 8040SOL    HW225020   2.121   6.095   0.110
 8041SOL     OW25021   3.261   0.920   3.094
 8041SOL    HW125022   3.303   0.834   3.124
 8041SOL    HW225023   3.330   0.992   3.092
 8042SOL     OW25024   4.440   4.211   5.409
 8042SOL    HW125025   4.502   4.272   5.459
 8042SOL    HW225026   4.400   4.146   5.474
 8043SOL     OW25027   3.832   4.187   0.288
 8043SOL    HW125028   3.909   4.133   0.258
 8043SOL    HW225029   3.777   4.214   0.209
 8044SOL     OW25030   3.653   3.484   0.523
 8044SOL    HW125031   3.601   3.569   0.514
 8044SOL    HW225032   3.595   3.415   0.567
 8045SOL     OW25033   6.685   2.113   2.852
 8045SOL    HW125034   6.726   2.026   2.878
 8045SOL    HW225035   6.623   2.100   2.776
 8046SOL     OW25036   0.549   4.916   2.067
 8046SOL    HW125037   0.567   4.885   1.973
 8046SOL    HW225038   0.543   5.016   2.068
 8047SOL     OW25039   4.205   6.477   6.747
 8047SOL    HW125040   4.230   6.444   6.656
 8047SOL    HW225041   4.127   6.425   6.782
 8048SOL     OW25042   3.133   2.528   6.708
 8048SOL    HW125043   3.058   2.475   6.670
 8048SOL    HW225044   3.149   2.501   6.803
 8049SOL     OW25045   0.699   6.640   6.956
 8049SOL    HW125046   0.791   6.678   6.952
 8049SOL    HW225047   0.700   6.556   7.011
 8050SOL     OW25048   2.101   3.250   4.267
 8050SOL    HW125049   2.115   3.347   4.283
 8050SOL    HW225050   2.081   3.205   4.355
 8051SOL     OW25051   4.608   5.989   4.654
 8051SOL    HW125052   4.515   5.999   4.620
 8051SOL    HW225053   4.665   5.949   4.583
 8052SOL     OW25054   2.452   2.214   1.594
 8052SOL    HW125055   2.398   2.131   1.583
 8052SOL    HW225056   2.447   2.245   1.689
 8053SOL     OW25057   3.110   2.875   5.268
 8053SOL    HW125058   3.195   2.843   5.309
 8053SOL    HW225059   3.129   2.949   5.204
 8054SOL     OW25060   6.225   4.135   4.598
 8054SOL    HW125061   6.292   4.101   4.533
 8054SOL    HW225062   6.272   4.173   4.678
 8055SOL     OW25063   0.006   0.821   5.651
 8055SOL    HW125064   6.987   0.823   5.740
 8055SOL    HW225065   6.974   0.773   5.585
 8056SOL     OW25066   3.204   0.032   3.698
 8056SOL    HW125067   3.115   0.012   3.738
 8056SOL    HW225068   3.193   0.048   3.600
 8057SOL     OW25069   2.686   2.083   2.750
 8057SOL    HW125070   2.742   2.056   2.672
 8057SOL    HW225071   2.745   2.119   2.823
 8058SOL     OW25072   3.519   6.536   2.944
 8058SOL    HW125073   3.485   6.470   2.876
 8058SOL    HW225074   3.603   6.501   2.984
 8059SOL     OW25075   3.104   0.690   5.590
 8059SOL    HW125076   3.088   0.783   5.555
 8059SOL    HW225077   3.105   0.626   5.513
 8060SOL     OW25078   0.267   1.926   6.296
 8060SOL    HW125079   0.342   1.865   6.270
 8060SOL    HW225080   0.207   1.941   6.217
 8061SOL     OW25081   0.508   0.538   2.515
 8061SOL    HW125082   0.546   0.531   2.423
 8061SOL    HW225083   0.504   0.447   2.557
 8062SOL     OW25084   4.032   5.581   5.123
 8062SOL    HW125085   3.951   5.640   5.131
 8062SOL    HW225086   4.044   5.555   5.027
 8063SOL     OW25087   2.727   1.019   3.325
 8063SOL    HW125088   2.742   0.940   3.267
 8063SOL    HW225089   2.739   1.103   3.272
 8064SOL     OW25090   6.141   2.524   0.305
 8064SOL    HW125091   6.110   2.434   0.277
 8064SOL    HW225092   6.217   2.515   0.370
 8065SOL     OW25093   3.168   6.596   4.135
 8065SOL    HW125094   3.093   6.620   4.196
 8065SOL    HW225095   3.253   6.590   4.187
 8066SOL     OW25096   6.291   0.103   4.653
 8066SOL    HW125097   6.281   0.174   4.723
 8066SOL    HW225098   6.384   0.066   4.657
 8067SOL     OW25099   4.772   2.420   3.563
 8067SOL    HW125100   4.739   2.381   3.649
 8067SOL    HW225101   4.786   2.347   3.496
 8068SOL     OW25102   0.439   4.557   1.106
 8068SOL    HW125103   0.454   4.524   1.013
 8068SOL    HW225104   0.376   4.497   1.154
 8069SOL     OW25105   2.330   4.918   2.019
 8069SOL    HW125106   2.355   4.864   1.939
 8069SOL    HW225107   2.413   4.951   2.065
 8070SOL     OW25108   4.028   2.843   0.407
 8070SOL    HW125109   4.049   2.782   0.330
 8070SOL    HW225110   4.014   2.788   0.490
 8071SOL     OW25111   3.316   6.502   5.120
 8071SOL    HW125112   3.267   6.467   5.040
 8071SOL    HW225113   3.283   6.455   5.202
 8072SOL     OW25114   3.125   1.972   0.632
 8072SOL    HW125115   3.062   2.008   0.564
 8072SOL    HW225116   3.141   2.041   0.702
 8073SOL     OW25117   2.669   5.607   5.274
 8073SOL    HW125118   2.585   5.569   5.312
 8073SOL    HW225119   2.646   5.683   5.212
 8074SOL     OW25120   2.666   1.138   1.445
 8074SOL    HW125121   2.671   1.062   1.381
 8074SOL    HW225122   2.741   1.201   1.429
 8075SOL     OW25123   0.518   0.245   0.123
 8075SOL    HW125124   0.494   0.208   0.034
 8075SOL    HW225125   0.558   0.173   0.180
 8076SOL     OW25126   6.507   0.361   5.525
 8076SOL    HW125127   6.502   0.402   5.616
 8076SOL    HW225128   6.447   0.410   5.462
 8077SOL     OW25129   3.902   6.396   2.514
 8077SOL    HW125130   3.834   6.394   2.441
 8077SOL    HW225131   3.875   6.464   2.583
 8078SOL     OW25132   0.744   1.750   1.201
 8078SOL    HW125133   0.754   1.812   1.279
 8078SOL    HW225134   0.700   1.798   1.125
 8079SOL     OW25135   6.455   1.564   3.784
 8079SOL    HW125136   6.490   1.658   3.783
 8079SOL    HW225137   6.528   1.502   3.813
 8080SOL     OW25138   0.955   2.467   2.401
 8080SOL    HW125139   0.868   2.418   2.402
 8080SOL    HW225140   0.996   2.460   2.310
 8081SOL     OW25141   6.091   5.517   6.273
 8081SOL    HW125142   6.123   5.479   6.360
 8081SOL    HW225143   6.144   5.478   6.198
 8082SOL     OW25144   3.721   0.801   2.403
 8082SOL    HW125145   3.634   0.788   2.450
 8082SOL    HW225146   3.720   0.751   2.316
 8083SOL     OW25147   5.375   2.452   4.169
 8083SOL    HW125148   5.380   2.355   4.146
 8083SOL    HW225149   5.353   2.463   4.266
 8084SOL     OW25150   2.443   0.751   6.944
 8084SOL    HW125151   2.486   0.728   6.857
 8084SOL    HW225152   2.344   0.762   6.931
 8085SOL     OW25153   6.322   6.125   2.838
 8085SOL    HW125154   6.385   6.066   2.788
 8085SOL    HW225155   6.285   6.076   2.916
 8086SOL     OW25156   0.409   1.165   1.203
 8086SOL    HW125157   0.455   1.124   1.125
 8086SOL    HW225158   0.358   1.246   1.173
 8087SOL     OW25159   1.846   0.839   6.634
 8087SOL    HW125160   1.843   0.817   6.732
 8087SOL    HW225161   1.924   0.899   6.616
 8088SOL     OW25162   5.813   0.500   0.070
 8088SOL    HW125163   5.812   0.561   0.150
 8088SOL    HW225164   5.884   0.530   0.007
 8089SOL     OW25165   5.993   3.057   6.756
 8089SOL    HW125166   5.961   3.096   6.670
 8089SOL    HW225167   5.917   3.012   6.803
 8090SOL     OW25168   3.418   1.062   6.275
 8090SOL    HW125169   3.503   1.017   6.245
 8090SOL    HW225170   3.398   1.035   6.369
 8091SOL     OW25171   1.190   3.956   5.345
 8091SOL    HW125172   1.152   3.902   5.420
 8091SOL    HW225173   1.274   4.001   5.375
 8092SOL     OW25174   4.730   2.044   5.434
 8092SOL    HW125175   4.685   1.988   5.504
 8092SOL    HW225176   4.778   1.984   5.370
 8093SOL     OW25177   2.952   5.501   3.342
 8093SOL    HW125178   3.044   5.464   3.349
 8093SOL    HW225179   2.907   5.462   3.262
 8094SOL     OW25180   0.535   2.955   5.077
 8094SOL    HW125181   0.603   3.022   5.047
 8094SOL    HW225182   0.455   2.960   5.018
 8095SOL     OW25183   0.751   4.208   5.174
 8095SOL    HW125184   0.847   4.192   5.197
 8095SOL    HW225185   0.743   4.290   5.117
 8096SOL     OW25186   2.461   0.829   2.401
 8096SOL    HW125187   2.508   0.841   2.488
 8096SOL    HW225188   2.455   0.732   2.379
 8097SOL     OW25189   3.963   6.861   4.378
 8097SOL    HW125190   4.020   6.781   4.396
 8097SOL    HW225191   3.991   6.903   4.292
 8098SOL     OW25192   2.634   6.366   3.787
 8098SOL    HW125193   2.660   6.368   3.690
 8098SOL    HW225194   2.705   6.410   3.842
 8099SOL     OW25195   4.430   6.444   4.430
 8099SOL    HW125196   4.442   6.514   4.360
 8099SOL    HW225197   4.507   6.447   4.494
 8100SOL     OW25198   6.850   1.359   0.007
 8100SOL    HW125199   6.784   1.371   6.959
 8100SOL    HW225200   6.942   1.352   6.994
 8101SOL     OW25201   1.500   5.918   0.666
 8101SOL    HW125202   1.521   6.009   0.702
 8101SOL    HW225203   1.409   5.918   0.624
 8102SOL     OW25204   0.681   4.231   3.029
 8102SOL    HW125205   0.756   4.285   3.067
 8102SOL    HW225206   0.595   4.280   3.041
 8103SOL     OW25207   3.794   0.289   1.835
 8103SOL    HW125208   3.793   0.244   1.924
 8103SOL    HW225209   3.887   0.312   1.810
 8104SOL     OW25210   1.452   0.579   6.180
 8104SOL    HW125211   1.462   0.645   6.106
 8104SOL    HW225212   1.481   0.621   6.267
 8105SOL     OW25213   7.009   2.763   2.274
 8105SOL    HW125214   0.044   2.834   2.240
 8105SOL    HW225215   0.032   2.704   2.338
 8106SOL     OW25216   2.820   6.321   3.130
 8106SOL    HW125217   2.909   6.307   3.088
 8106SOL    HW225218   2.810   6.417   3.155
 8107SOL     OW25219   1.345   5.806   3.978
 8107SOL    HW125220   1.276   5.876   3.993
 8107SOL    HW225221   1.391   5.785   4.064
 8108SOL     OW25222   6.762   2.467   6.640
 8108SOL    HW125223   6.790   2.535   6.573
 8108SOL    HW225224   6.688   2.411   6.602
 8109SOL     OW25225   0.328   3.385   6.548
 8109SOL    HW125226   0.285   3.302   6.584
 8109SOL    HW225227   0.414   3.361   6.503
 8110SOL     OW25228   3.902   5.269   2.057
 8110SOL    HW125229   3.900   5.185   2.110
 8110SOL    HW225230   3.996   5.299   2.045
 8111SOL     OW25231   4.936   1.212   4.509
 8111SOL    HW125232   4.986   1.218   4.422
 8111SOL    HW225233   4.931   1.303   4.550
 8112SOL     OW25234   2.459   2.537   4.349
 8112SOL    HW125235   2.366   2.501   4.340
 8112SOL    HW225236   2.479   2.555   4.445
 8113SOL     OW25237   0.125   3.433   0.574
 8113SOL    HW125238   0.165   3.411   0.663
 8113SOL    HW225239   0.081   3.351   0.536
 8114SOL     OW25240   1.842   3.655   2.543
 8114SOL    HW125241   1.826   3.640   2.446
 8114SOL    HW225242   1.809   3.746   2.568
 8115SOL     OW25243   3.199   6.975   6.161
 8115SOL    HW125244   3.187   6.877   6.147
 8115SOL    HW225245   3.176   7.000   6.255
 8116SOL     OW25246   4.073   4.361   0.069
 8116SOL    HW125247   4.101   4.386   7.002
 8116SOL    HW225248   3.990   4.413   0.094
 8117SOL     OW25249   2.109   0.127   3.299
 8117SOL    HW125250   2.106   0.206   3.237
 8117SOL    HW225251   2.126   0.044   3.246
 8118SOL     OW25252   5.501   3.798   5.819
 8118SOL    HW125253   5.533   3.725   5.880
 8118SOL    HW225254   5.465   3.758   5.735
 8119SOL     OW25255   5.409   6.642   6.338
 8119SOL    HW125256   5.348   6.707   6.384
 8119SOL    HW225257   5.403   6.655   6.239
 8120SOL     OW25258   3.081   4.642   0.969
 8120SOL    HW125259   3.045   4.735   0.970
 8120SOL    HW225260   3.051   4.593   1.051
 8121SOL     OW25261   0.770   4.651   1.292
 8121SOL    HW125262   0.850   4.701   1.324
 8121SOL    HW225263   0.784   4.621   1.198
 8122SOL     OW25264   0.215   4.703   2.907
 8122SOL    HW125265   0.314   4.707   2.922
 8122SOL    HW225266   0.195   4.630   2.841
 8123SOL     OW25267   0.289   2.120   6.833
 8123SOL    HW125268   0.318   2.088   6.743
 8123SOL    HW225269   0.320   2.214   6.847
 8124SOL     OW25270   5.517   5.757   2.903
 8124SOL    HW125271   5.485   5.850   2.882
 8124SOL    HW225272   5.523   5.746   3.002
 8125SOL     OW25273   1.519   1.104   3.287
 8125SOL    HW125274   1.449   1.175   3.278
 8125SOL    HW225275   1.569   1.094   3.201
 8126SOL     OW25276   5.470   4.937   3.375
 8126SOL    HW125277   5.485   4.954   3.473
 8126SOL    HW225278   5.555   4.950   3.325
 8127SOL     OW25279   3.226   3.157   6.401
 8127SOL    HW125280   3.154   3.088   6.412
 8127SOL    HW225281   3.271   3.172   6.489
 8128SOL     OW25282   3.010   2.159   2.262
 8128SOL    HW125283   2.962   2.192   2.343
 8128SOL    HW225284   2.963   2.191   2.179
 8129SOL     OW25285   3.510   1.742   6.427
 8129SOL    HW125286   3.464   1.709   6.345
 8129SOL    HW225287   3.498   1.841   6.434
 8130SOL     OW25288   0.832   5.562   6.587
 8130SOL    HW125289   0.790   5.624   6.653
 8130SOL    HW225290   0.929   5.551   6.608
 8131SOL     OW25291   3.094   1.612   1.895
 8131SOL    HW125292   3.075   1.680   1.965
 8131SOL    HW225293   3.186   1.626   1.858
 8132SOL     OW25294   5.580   6.773   5.299
 8132SOL    HW125295   5.579   6.676   5.273
 8132SOL    HW225296   5.538   6.827   5.226
 8133SOL     OW25297   3.297   5.236   2.686
 8133SOL    HW125298   3.340   5.298   2.751
 8133SOL    HW225299   3.288   5.145   2.728
 8134SOL     OW25300   0.037   1.775   6.543
 8134SOL    HW125301   0.117   1.717   6.527
 8134SOL    HW225302   6.982   1.718   6.555
 8135SOL     OW25303   2.483   0.799   1.758
 8135SOL    HW125304   2.536   0.747   1.825
 8135SOL    HW225305   2.437   0.875   1.804
 8136SOL     OW25306   4.874   5.236   2.252
 8136SOL    HW125307   4.872   5.194   2.161
 8136SOL    HW225308   4.864   5.335   2.243
 8137SOL     OW25309   2.947   0.768   4.799
 8137SOL    HW125310   3.042   0.788   4.778
 8137SOL    HW225311   2.922   0.812   4.885
 8138SOL     OW25312   5.205   1.321   1.455
 8138SOL    HW125313   5.160   1.245   1.408
 8138SOL    HW225314   5.304   1.315   1.441
 8139SOL     OW25315   0.379   0.913   1.617
 8139SOL    HW125316   0.411   0.888   1.708
 8139SOL    HW225317   0.429   0.860   1.548
 8140SOL     OW25318   5.535   0.318   5.940
 8140SOL    HW125319   5.600   0.242   5.937
 8140SOL    HW225320   5.454   0.294   5.886
 8141SOL     OW25321   4.406   5.480   6.028
 8141SOL    HW125322   4.334   5.443   6.087
 8141SOL    HW225323   4.370   5.493   5.936
 8142SOL     OW25324   6.776   5.350   0.704
 8142SOL    HW125325   6.800   5.404   0.785
 8142SOL    HW225326   6.808   5.397   0.622
 8143SOL     OW25327   6.567   4.286   0.595
 8143SOL    HW125328   6.497   4.295   0.524
 8143SOL    HW225329   6.531   4.231   0.670
 8144SOL     OW25330   5.771   5.951   6.824
 8144SOL    HW125331   5.846   5.891   6.798
 8144SOL    HW225332   5.801   6.013   6.896
 8145SOL     OW25333   5.276   5.932   1.484
 8145SOL    HW125334   5.370   5.964   1.497
 8145SOL    HW225335   5.267   5.840   1.522
 8146SOL     OW25336   3.501   0.772   5.070
 8146SOL    HW125337   3.438   0.742   5.142
 8146SOL    HW225338   3.555   0.849   5.103
 8147SOL     OW25339   5.730   2.636   3.142
 8147SOL    HW125340   5.794   2.658   3.216
 8147SOL    HW225341   5.646   2.688   3.154
 8148SOL     OW25342   5.420   4.464   1.902
 8148SOL    HW125343   5.351   4.534   1.883
 8148SOL    HW225344   5.397   4.380   1.853
 8149SOL     OW25345   2.436   5.993   2.029
 8149SOL    HW125346   2.433   6.089   2.003
 8149SOL    HW225347   2.486   5.983   2.115
 8150SOL     OW25348   0.217   4.896   6.791
 8150SOL    HW125349   0.294   4.845   6.828
 8150SOL    HW225350   0.239   4.994   6.790
 8151SOL     OW25351   6.714   2.431   2.489
 8151SOL    HW125352   6.655   2.412   2.567
 8151SOL    HW225353   6.785   2.362   2.483
 8152SOL     OW25354   0.776   2.399   2.749
 8152SOL    HW125355   0.872   2.423   2.765
 8152SOL    HW225356   0.721   2.431   2.826
 8153SOL     OW25357   3.808   0.537   3.017
 8153SOL    HW125358   3.788   0.610   3.082
 8153SOL    HW225359   3.814   0.575   2.925
 8154SOL     OW25360   2.917   5.920   3.646
 8154SOL    HW125361   2.843   5.986   3.656
 8154SOL    HW225362   2.970   5.915   3.730
 8155SOL     OW25363   2.650   3.247   1.714
 8155SOL    HW125364   2.740   3.258   1.757
 8155SOL    HW225365   2.659   3.263   1.616
 8156SOL     OW25366   5.407   6.973   6.216
 8156SOL    HW125367   5.380   6.956   6.121
 8156SOL    HW225368   5.366   0.033   6.247
 8157SOL     OW25369   5.833   5.430   6.306
 8157SOL    HW125370   5.919   5.481   6.308
 8157SOL    HW225371   5.786   5.447   6.218
 8158SOL     OW25372   0.383   5.579   1.071
 8158SOL    HW125373   0.426   5.542   1.154
 8158SOL    HW225374   0.291   5.612   1.094
 8159SOL     OW25375   3.056   6.104   2.542
 8159SOL    HW125376   3.063   6.106   2.442
 8159SOL    HW225377   2.964   6.130   2.569
 8160SOL     OW25378   4.541   1.815   1.419
 8160SOL    HW125379   4.492   1.901   1.437
 8160SOL    HW225380   4.476   1.740   1.418
 8161SOL     OW25381   5.091   1.244   0.560
 8161SOL    HW125382   5.125   1.226   0.652
 8161SOL    HW225383   5.037   1.328   0.561
 8162SOL     OW25384   6.326   0.048   6.308
 8162SOL    HW125385   6.411   0.097   6.288
 8162SOL    HW225386   6.251   0.088   6.254
 8163SOL     OW25387   2.072   4.122   5.826
 8163SOL    HW125388   2.106   4.028   5.832
 8163SOL    HW225389   2.091   4.170   5.912
 8164SOL     OW25390   5.813   3.776   0.661
 8164SOL    HW125391   5.824   3.869   0.626
 8164SOL    HW225392   5.898   3.725   0.649
 8165SOL     OW25393   1.078   4.658   6.840
 8165SOL    HW125394   1.119   4.729   6.897
 8165SOL    HW225395   1.086   4.684   6.744
 8166SOL     OW25396   2.573   1.047   2.262
 8166SOL    HW125397   2.518   0.980   2.312
 8166SOL    HW225398   2.514   1.097   2.199
 8167SOL     OW25399   5.648   1.237   3.998
 8167SOL    HW125400   5.705   1.258   4.078
 8167SOL    HW225401   5.639   1.318   3.941
 8168SOL     OW25402   3.277   1.129   2.621
 8168SOL    HW125403   3.371   1.097   2.606
 8168SOL    HW225404   3.275   1.229   2.616
 8169SOL     OW25405   5.005   3.099   1.439
 8169SOL    HW125406   4.910   3.119   1.462
 8169SOL    HW225407   5.014   3.004   1.410
 8170SOL     OW25408   1.780   6.037   3.059
 8170SOL    HW125409   1.731   5.952   3.036
 8170SOL    HW225410   1.714   6.106   3.089
 8171SOL     OW25411   0.935   1.619   6.545
 8171SOL    HW125412   0.953   1.693   6.480
 8171SOL    HW225413   0.941   1.655   6.639
 8172SOL     OW25414   0.432   0.353   1.253
 8172SOL    HW125415   0.430   0.293   1.333
 8172SOL    HW225416   0.526   0.381   1.234
 8173SOL     OW25417   3.352   1.921   0.431
 8173SOL    HW125418   3.299   1.971   0.500
 8173SOL    HW225419   3.445   1.906   0.465
 8174SOL     OW25420   5.216   1.627   1.371
 8174SOL    HW125421   5.279   1.625   1.293
 8174SOL    HW225422   5.196   1.534   1.400
 8175SOL     OW25423   0.249   2.942   6.238
 8175SOL    HW125424   0.222   2.883   6.314
 8175SOL    HW225425   0.311   3.013   6.271
 8176SOL     OW25426   2.805   5.822   2.077
 8176SOL    HW125427   2.779   5.754   2.008
 8176SOL    HW225428   2.865   5.779   2.145
 8177SOL     OW25429   1.518   6.003   3.844
 8177SOL    HW125430   1.450   5.931   3.835
 8177SOL    HW225431   1.501   6.054   3.929
 8178SOL     OW25432   1.363   0.052   6.588
 8178SOL    HW125433   1.348   0.150   6.597
 8178SOL    HW225434   1.450   0.026   6.628
 8179SOL     OW25435   3.595   3.482   0.235
 8179SOL    HW125436   3.630   3.478   0.329
 8179SOL    HW225437   3.518   3.420   0.226
 8180SOL     OW25438   6.262   0.031   3.824
 8180SOL    HW125439   6.201   6.998   3.771
 8180SOL    HW225440   6.211   0.110   3.858
 8181SOL     OW25441   2.339   1.302   2.892
 8181SOL    HW125442   2.411   1.371   2.879
 8181SOL    HW225443   2.350   1.228   2.826
 8182SOL     OW25444   3.646   1.576   6.602
 8182SOL    HW125445   3.604   1.647   6.546
 8182SOL    HW225446   3.676   1.501   6.544
 8183SOL     OW25447   0.697   2.759   4.980
 8183SOL    HW125448   0.646   2.830   5.029
 8183SOL    HW225449   0.637   2.711   4.917
 8184SOL     OW25450   5.703   1.579   5.874
 8184SOL    HW125451   5.768   1.647   5.907
 8184SOL    HW225452   5.672   1.522   5.950
 8185SOL     OW25453   2.800   0.399   0.402
 8185SOL    HW125454   2.834   0.439   0.488
 8185SOL    HW225455   2.776   0.303   0.418
 8186SOL     OW25456   3.139   6.457   6.275
 8186SOL    HW125457   3.219   6.409   6.311
 8186SOL    HW225458   3.151   6.556   6.289
 8187SOL     OW25459   1.441   1.822   5.023
 8187SOL    HW125460   1.417   1.909   4.981
 8187SOL    HW225461   1.467   1.837   5.118
 8188SOL     OW25462   5.176   1.782   2.184
 8188SOL    HW125463   5.271   1.755   2.201
 8188SOL    HW225464   5.143   1.835   2.262
 8189SOL     OW25465   4.996   4.282   2.000
 8189SOL    HW125466   4.915   4.306   2.052
 8189SOL    HW225467   4.985   4.311   1.905
 8190SOL     OW25468   5.002   4.944   4.115
 8190SOL    HW125469   4.946   4.956   4.034
 8190SOL    HW225470   5.099   4.957   4.091
 8191SOL     OW25471   1.906   5.508   3.684
 8191SOL    HW125472   1.975   5.575   3.654
 8191SOL    HW225473   1.829   5.509   3.620
 8192SOL     OW25474   2.826   5.660   0.204
 8192SOL    HW125475   2.844   5.731   0.271
 8192SOL    HW225476   2.872   5.576   0.231
 8193SOL     OW25477   5.566   6.766   4.936
 8193SOL    HW125478   5.504   6.695   4.970
 8193SOL    HW225479   5.544   6.853   4.979
 8194SOL     OW25480   6.302   2.501   6.812
 8194SOL    HW125481   6.209   2.512   6.846
 8194SOL    HW225482   6.345   2.591   6.802
 8195SOL     OW25483   0.468   0.800   0.759
 8195SOL    HW125484   0.480   0.740   0.838
 8195SOL    HW225485   0.450   0.744   0.678
 8196SOL     OW25486   3.875   6.719   5.503
 8196SOL    HW125487   3.902   6.789   5.569
 8196SOL    HW225488   3.929   6.729   5.419
 8197SOL     OW25489   5.791   1.611   6.246
 8197SOL    HW125490   5.698   1.646   6.244
 8197SOL    HW225491   5.846   1.657   6.177
 8198SOL     OW25492   3.423   6.517   2.000
 8198SOL    HW125493   3.430   6.428   2.046
 8198SOL    HW225494   3.331   6.554   2.014
 8199SOL     OW25495   7.018   4.052   0.257
 8199SOL    HW125496   0.049   3.976   0.289
 8199SOL    HW225497   0.006   4.066   0.159
 8200SOL     OW25498   4.374   4.716   1.428
 8200SOL    HW125499   4.405   4.810   1.414
 8200SOL    HW225500   4.275   4.715   1.439
 8201SOL     OW25501   5.220   0.837   4.466
 8201SOL    HW125502   5.298   0.899   4.453
 8201SOL    HW225503   5.175   0.858   4.553
 8202SOL     OW25504   1.337   4.972   4.280
 8202SOL    HW125505   1.253   5.009   4.319
 8202SOL    HW225506   1.394   4.935   4.354
 8203SOL     OW25507   5.163   3.645   0.898
 8203SOL    HW125508   5.068   3.616   0.893
 8203SOL    HW225509   5.217   3.592   0.832
 8204SOL     OW25510   3.580   6.402   1.019
 8204SOL    HW125511   3.604   6.414   1.115
 8204SOL    HW225512   3.480   6.405   1.009
 8205SOL     OW25513   5.494   4.990   1.368
 8205SOL    HW125514   5.534   5.012   1.457
 8205SOL    HW225515   5.531   4.903   1.335
 8206SOL     OW25516   3.074   2.591   5.962
 8206SOL    HW125517   3.024   2.586   5.876
 8206SOL    HW225518   3.055   2.679   6.006
 8207SOL     OW25519   3.430   4.676   5.312
 8207SOL    HW125520   3.336   4.707   5.331
 8207SOL    HW225521   3.467   4.727   5.235
 8208SOL     OW25522   2.868   6.335   1.692
 8208SOL    HW125523   2.951   6.297   1.650
 8208SOL    HW225524   2.796   6.344   1.623
 8209SOL     OW25525   1.484   1.289   5.215
 8209SOL    HW125526   1.413   1.232   5.174
 8209SOL    HW225527   1.528   1.344   5.143
 8210SOL     OW25528   2.768   0.948   0.607
 8210SOL    HW125529   2.754   1.044   0.629
 8210SOL    HW225530   2.778   0.937   0.508
 8211SOL     OW25531   3.517   4.125   4.683
 8211SOL    HW125532   3.590   4.136   4.751
 8211SOL    HW225533   3.465   4.210   4.675
 8212SOL     OW25534   2.668   0.307   0.677
 8212SOL    HW125535   2.635   0.218   0.707
 8212SOL    HW225536   2.623   0.379   0.731
 8213SOL     OW25537   4.388   5.249   3.609
 8213SOL    HW125538   4.449   5.178   3.575
 8213SOL    HW225539   4.307   5.208   3.649
 8214SOL     OW25540   2.389   5.761   3.956
 8214SOL    HW125541   2.471   5.712   3.928
 8214SOL    HW225542   2.367   5.739   4.051
 8215SOL     OW25543   4.535   6.348   0.042
 8215SOL    HW125544   4.625   6.306   0.029
 8215SOL    HW225545   4.512   6.402   6.987
 8216SOL     OW25546   5.221   6.817   2.458
 8216SOL    HW125547   5.143   6.759   2.482
 8216SOL    HW225548   5.195   6.913   2.468
 8217SOL     OW25549   2.258   4.169   2.543
 8217SOL    HW125550   2.276   4.077   2.577
 8217SOL    HW225551   2.162   4.175   2.514
 8218SOL     OW25552   1.850   6.827   5.078
 8218SOL    HW125553   1.766   6.843   5.129
 8218SOL    HW225554   1.865   6.903   5.014
 8219SOL     OW25555   3.083   3.944   1.548
 8219SOL    HW125556   3.171   3.990   1.556
 8219SOL    HW225557   3.029   3.959   1.631
 8220SOL     OW25558   3.517   4.294   5.309
 8220SOL    HW125559   3.602   4.298   5.361
 8220SOL    HW225560   3.475   4.204   5.321
 8221SOL     OW25561   5.689   3.975   3.121
 8221SOL    HW125562   5.738   3.920   3.188
 8221SOL    HW225563   5.747   4.050   3.090
 8222SOL     OW25564   6.245   3.030   1.117
 8222SOL    HW125565   6.249   2.999   1.212
 8222SOL    HW225566   6.197   2.963   1.061
 8223SOL     OW25567   0.130   5.219   5.234
 8223SOL    HW125568   0.068   5.200   5.158
 8223SOL    HW225569   0.214   5.259   5.199
 8224SOL     OW25570   4.844   1.554   0.778
 8224SOL    HW125571   4.813   1.532   0.686
 8224SOL    HW225572   4.801   1.639   0.808
 8225SOL     OW25573   3.760   0.414   0.251
 8225SOL    HW125574   3.751   0.317   0.276
 8225SOL    HW225575   3.809   0.462   0.323
 8226SOL     OW25576   3.624   0.912   0.686
 8226SOL    HW125577   3.686   0.877   0.756
 8226SOL    HW225578   3.579   0.836   0.640
 8227SOL     OW25579   5.643   1.556   2.801
 8227SOL    HW125580   5.608   1.484   2.861
 8227SOL    HW225581   5.742   1.562   2.809
 8228SOL     OW25582   1.074   1.100   5.516
 8228SOL    HW125583   0.983   1.064   5.534
 8228SOL    HW225584   1.126   1.034   5.462
 8229SOL     OW25585   3.968   4.906   1.036
 8229SOL    HW125586   3.994   4.810   1.044
 8229SOL    HW225587   4.047   4.961   1.009
 8230SOL     OW25588   4.389   0.132   5.329
 8230SOL    HW125589   4.400   0.230   5.310
 8230SOL    HW225590   4.298   0.115   5.366
 8231SOL     OW25591   3.392   1.471   2.020
 8231SOL    HW125592   3.420   1.375   2.015
 8231SOL    HW225593   3.406   1.505   2.113
 8232SOL     OW25594   4.626   1.312   2.186
 8232SOL    HW125595   4.657   1.249   2.115
 8232SOL    HW225596   4.588   1.394   2.144
 8233SOL     OW25597   0.571   0.760   5.929
 8233SOL    HW125598   0.657   0.781   5.975
 8233SOL    HW225599   0.494   0.788   5.986
 8234SOL     OW25600   2.923   3.608   0.389
 8234SOL    HW125601   2.874   3.641   0.470
 8234SOL    HW225602   2.991   3.676   0.361
 8235SOL     OW25603   6.552   4.927   6.780
 8235SOL    HW125604   6.616   4.863   6.738
 8235SOL    HW225605   6.604   5.002   6.822
 8236SOL     OW25606   0.188   5.939   5.880
 8236SOL    HW125607   0.141   5.944   5.792
 8236SOL    HW225608   0.242   5.855   5.884
 8237SOL     OW25609   4.425   5.615   6.698
 8237SOL    HW125610   4.497   5.663   6.748
 8237SOL    HW225611   4.363   5.571   6.763
 8238SOL     OW25612   1.910   5.649   0.249
 8238SOL    HW125613   1.984   5.691   0.196
 8238SOL    HW225614   1.832   5.632   0.190
 8239SOL     OW25615   0.633   1.389   4.837
 8239SOL    HW125616   0.622   1.482   4.801
 8239SOL    HW225617   0.564   1.372   4.907
 8240SOL     OW25618   3.256   2.914   3.654
 8240SOL    HW125619   3.241   2.940   3.750
 8240SOL    HW225620   3.211   2.826   3.636
 8241SOL     OW25621   1.606   3.432   6.684
 8241SOL    HW125622   1.580   3.429   6.781
 8241SOL    HW225623   1.675   3.503   6.670
 8242SOL     OW25624   0.904   3.826   4.690
 8242SOL    HW125625   0.877   3.823   4.593
 8242SOL    HW225626   0.994   3.783   4.700
 8243SOL     OW25627   0.377   4.664   6.145
 8243SOL    HW125628   0.389   4.685   6.241
 8243SOL    HW225629   0.314   4.729   6.103
 8244SOL     OW25630   0.725   0.449   3.340
 8244SOL    HW125631   0.632   0.471   3.370
 8244SOL    HW225632   0.727   0.357   3.302
 8245SOL     OW25633   4.962   1.503   3.888
 8245SOL    HW125634   4.925   1.475   3.799
 8245SOL    HW225635   4.899   1.477   3.961
 8246SOL     OW25636   1.302   4.119   6.603
 8246SOL    HW125637   1.302   4.039   6.663
 8246SOL    HW225638   1.376   4.181   6.629
 8247SOL     OW25639   2.957   5.037   3.791
 8247SOL    HW125640   2.869   5.002   3.823
 8247SOL    HW225641   3.016   5.054   3.870
 8248SOL     OW25642   1.107   5.667   3.206
 8248SOL    HW125643   1.113   5.761   3.240
 8248SOL    HW225644   1.128   5.665   3.109
 8249SOL     OW25645   2.252   2.369   5.209
 8249SOL    HW125646   2.254   2.285   5.264
 8249SOL    HW225647   2.246   2.448   5.270
 8250SOL     OW25648   2.546   1.716   0.762
 8250SOL    HW125649   2.556   1.779   0.685
 8250SOL    HW225650   2.630   1.716   0.817
 8251SOL     OW25651   6.733   2.093   4.692
 8251SOL    HW125652   6.729   2.067   4.595
 8251SOL    HW225653   6.729   2.193   4.700
 8252SOL     OW25654   2.336   2.207   6.820
 8252SOL    HW125655   2.267   2.263   6.866
 8252SOL    HW225656   2.321   2.212   6.721
 8253SOL     OW25657   3.573   5.567   6.223
 8253SOL    HW125658   3.553   5.596   6.317
 8253SOL    HW225659   3.524   5.482   6.203
 8254SOL     OW25660   5.941   4.873   6.804
 8254SOL    HW125661   6.016   4.816   6.839
 8254SOL    HW225662   5.854   4.826   6.819
 8255SOL     OW25663   0.579   0.069   6.211
 8255SOL    HW125664   0.659   0.129   6.211
 8255SOL    HW225665   0.608   6.999   6.216
 8256SOL     OW25666   1.023   6.518   2.500
 8256SOL    HW125667   1.051   6.611   2.525
 8256SOL    HW225668   0.929   6.519   2.466
 8257SOL     OW25669   5.714   4.256   4.149
 8257SOL    HW125670   5.651   4.275   4.073
 8257SOL    HW225671   5.732   4.341   4.199
 8258SOL     OW25672   5.981   2.702   1.529
 8258SOL    HW125673   5.964   2.673   1.624
 8258SOL    HW225674   5.948   2.631   1.467
 8259SOL     OW25675   4.234   2.361   4.449
 8259SOL    HW125676   4.236   2.302   4.529
 8259SOL    HW225677   4.142   2.365   4.412
 8260SOL     OW25678   2.461   6.907   0.191
 8260SOL    HW125679   2.431   6.867   0.277
 8260SOL    HW225680   2.558   6.888   0.178
 8261SOL     OW25681   5.709   6.075   3.046
 8261SOL    HW125682   5.656   6.008   3.097
 8261SOL    HW225683   5.693   6.063   2.948
 8262SOL     OW25684   0.167   4.711   0.736
 8262SOL    HW125685   0.093   4.707   0.803
 8262SOL    HW225686   0.132   4.684   0.646
 8263SOL     OW25687   6.824   2.658   6.426
 8263SOL    HW125688   6.861   2.595   6.357
 8263SOL    HW225689   6.762   2.722   6.381
 8264SOL     OW25690   2.265   6.896   1.619
 8264SOL    HW125691   2.291   6.911   1.714
 8264SOL    HW225692   2.197   6.964   1.592
 8265SOL     OW25693   3.936   0.331   1.496
 8265SOL    HW125694   3.857   0.383   1.464
 8265SOL    HW225695   4.007   0.332   1.426
 8266SOL     OW25696   3.025   0.295   4.130
 8266SOL    HW125697   3.084   0.230   4.082
 8266SOL    HW225698   3.076   0.378   4.149
 8267SOL     OW25699   1.537   4.960   2.292
 8267SOL    HW125700   1.534   4.957   2.192
 8267SOL    HW225701   1.567   4.872   2.327
 8268SOL     OW25702   3.085   3.518   6.706
 8268SOL    HW125703   3.169   3.568   6.723
 8268SOL    HW225704   3.093   3.425   6.744
 8269SOL     OW25705   4.432   2.435   3.036
 8269SOL    HW125706   4.424   2.509   3.102
 8269SOL    HW225707   4.350   2.378   3.040
 8270SOL     OW25708   3.387   6.970   5.724
 8270SOL    HW125709   3.342   6.903   5.783
 8270SOL    HW225710   3.335   0.029   5.724
 8271SOL     OW25711   5.251   5.988   4.288
 8271SOL    HW125712   5.221   6.018   4.197
 8271SOL    HW225713   5.338   6.032   4.311
 8272SOL     OW25714   0.800   0.185   2.371
 8272SOL    HW125715   0.722   0.208   2.428
 8272SOL    HW225716   0.769   0.163   2.278
 8273SOL     OW25717   2.801   6.949   6.901
 8273SOL    HW125718   2.862   6.892   6.847
 8273SOL    HW225719   2.753   7.013   6.841
 8274SOL     OW25720   4.816   5.114   6.845
 8274SOL    HW125721   4.743   5.178   6.821
 8274SOL    HW225722   4.802   5.082   6.939
 8275SOL     OW25723   6.993   0.017   4.377
 8275SOL    HW125724   7.001   6.943   4.375
 8275SOL    HW225725   0.021   0.056   4.303
 8276SOL     OW25726   6.857   2.603   5.506
 8276SOL    HW125727   6.788   2.552   5.557
 8276SOL    HW225728   6.941   2.550   5.501
 8277SOL     OW25729   1.309   6.029   5.122
 8277SOL    HW125730   1.403   6.043   5.089
 8277SOL    HW225731   1.281   6.106   5.178
 8278SOL     OW25732   3.416   1.691   6.156
 8278SOL    HW125733   3.323   1.655   6.154
 8278SOL    HW225734   3.463   1.664   6.072
 8279SOL     OW25735   4.458   6.058   6.744
 8279SOL    HW125736   4.464   5.986   6.675
 8279SOL    HW225737   4.545   6.107   6.749
 8280SOL     OW25738   5.316   2.572   0.461
 8280SOL    HW125739   5.394   2.605   0.410
 8280SOL    HW225740   5.244   2.642   0.462
 8281SOL     OW25741   1.174   5.275   0.533
 8281SOL    HW125742   1.263   5.275   0.487
 8281SOL    HW225743   1.157   5.365   0.571
 8282SOL     OW25744   2.283   2.614   1.535
 8282SOL    HW125745   2.298   2.525   1.491
 8282SOL    HW225746   2.329   2.685   1.482
 8283SOL     OW25747   0.453   5.369   3.678
 8283SOL    HW125748   0.499   5.323   3.602
 8283SOL    HW225749   0.498   5.344   3.764
 8284SOL     OW25750   2.244   2.445   2.653
 8284SOL    HW125751   2.298   2.527   2.674
 8284SOL    HW225752   2.302   2.364   2.662
 8285SOL     OW25753   2.934   4.281   5.848
 8285SOL    HW125754   2.983   4.277   5.935
 8285SOL    HW225755   2.836   4.274   5.864
 8286SOL     OW25756   5.569   0.785   4.635
 8286SOL    HW125757   5.510   0.787   4.715
 8286SOL    HW225758   5.551   0.702   4.582
 8287SOL     OW25759   1.279   0.114   3.820
 8287SOL    HW125760   1.345   0.137   3.748
 8287SOL    HW225761   1.277   0.015   3.833
 8288SOL     OW25762   2.509   1.899   2.228
 8288SOL    HW125763   2.412   1.890   2.206
 8288SOL    HW225764   2.553   1.959   2.162
 8289SOL     OW25765   5.928   1.531   5.601
 8289SOL    HW125766   5.882   1.620   5.608
 8289SOL    HW225767   5.935   1.504   5.505
 8290SOL     OW25768   3.599   2.681   1.522
 8290SOL    HW125769   3.594   2.600   1.462
 8290SOL    HW225770   3.622   2.652   1.615
 8291SOL     OW25771   5.646   6.889   6.622
 8291SOL    HW125772   5.699   6.878   6.538
 8291SOL    HW225773   5.630   6.986   6.640
 8292SOL     OW25774   0.735   5.175   5.495
 8292SOL    HW125775   0.702   5.118   5.570
 8292SOL    HW225776   0.657   5.216   5.447
 8293SOL     OW25777   1.947   4.680   2.368
 8293SOL    HW125778   2.031   4.689   2.315
 8293SOL    HW225779   1.908   4.589   2.353
 8294SOL     OW25780   6.967   3.868   5.567
 8294SOL    HW125781   6.892   3.854   5.632
 8294SOL    HW225782   6.972   3.965   5.543
 8295SOL     OW25783   4.971   3.834   3.111
 8295SOL    HW125784   5.029   3.913   3.129
 8295SOL    HW225785   5.018   3.751   3.143
 8296SOL     OW25786   3.327   5.256   0.171
 8296SOL    HW125787   3.387   5.203   0.230
 8296SOL    HW225788   3.348   5.353   0.180
 8297SOL     OW25789   6.844   4.733   2.935
 8297SOL    HW125790   6.835   4.726   3.035
 8297SOL    HW225791   6.896   4.655   2.901
 8298SOL     OW25792   1.025   0.790   6.783
 8298SOL    HW125793   1.086   0.792   6.704
 8298SOL    HW225794   1.068   0.839   6.859
 8299SOL     OW25795   0.043   3.825   2.200
 8299SOL    HW125796   0.030   3.756   2.271
 8299SOL    HW225797   0.065   3.913   2.243
 8300SOL     OW25798   5.839   5.476   4.292
 8300SOL    HW125799   5.781   5.508   4.217
 8300SOL    HW225800   5.935   5.480   4.263
 8301SOL     OW25801   4.182   7.023   0.120
 8301SOL    HW125802   4.122   6.961   0.170
 8301SOL    HW225803   4.196   6.988   0.027
 8302SOL     OW25804   3.365   6.196   4.113
 8302SOL    HW125805   3.361   6.273   4.177
 8302SOL    HW225806   3.337   6.112   4.160
 8303SOL     OW25807   6.374   0.132   2.200
 8303SOL    HW125808   6.422   0.188   2.268
 8303SOL    HW225809   6.406   0.037   2.207
 8304SOL     OW25810   5.849   3.874   3.991
 8304SOL    HW125811   5.793   3.792   3.978
 8304SOL    HW225812   5.846   3.929   3.908
 8305SOL     OW25813   4.735   5.364   4.257
 8305SOL    HW125814   4.801   5.290   4.243
 8305SOL    HW225815   4.664   5.334   4.321
 8306SOL     OW25816   6.404   0.827   2.667
 8306SOL    HW125817   6.373   0.821   2.762
 8306SOL    HW225818   6.503   0.843   2.666
 8307SOL     OW25819   1.408   5.018   1.450
 8307SOL    HW125820   1.358   5.013   1.536
 8307SOL    HW225821   1.365   5.085   1.390
 8308SOL     OW25822   1.155   4.613   0.151
 8308SOL    HW125823   1.250   4.590   0.133
 8308SOL    HW225824   1.098   4.579   0.075
 8309SOL     OW25825   6.327   4.697   4.748
 8309SOL    HW125826   6.390   4.656   4.682
 8309SOL    HW225827   6.352   4.669   4.841
 8310SOL     OW25828   0.385   6.824   0.564
 8310SOL    HW125829   0.390   6.839   0.663
 8310SOL    HW225830   0.302   6.771   0.543
 8311SOL     OW25831   5.028   6.341   3.845
 8311SOL    HW125832   5.061   6.428   3.881
 8311SOL    HW225833   5.087   6.313   3.769
 8312SOL     OW25834   5.170   6.830   0.205
 8312SOL    HW125835   5.209   6.787   0.123
 8312SOL    HW225836   5.245   6.859   0.266
 8313SOL     OW25837   3.967   7.012   5.288
 8313SOL    HW125838   3.919   7.019   5.201
 8313SOL    HW225839   4.002   0.076   5.314
 8314SOL     OW25840   5.220   6.420   6.286
 8314SOL    HW125841   5.161   6.448   6.210
 8314SOL    HW225842   5.298   6.482   6.293
 8315SOL     OW25843   3.777   3.214   4.575
 8315SOL    HW125844   3.859   3.269   4.595
 8315SOL    HW225845   3.803   3.137   4.517
 8316SOL     OW25846   1.146   3.146   6.873
 8316SOL    HW125847   1.245   3.164   6.869
 8316SOL    HW225848   1.120   3.089   6.794
 8317SOL     OW25849   1.936   1.982   5.055
 8317SOL    HW125850   1.996   2.061   5.070
 8317SOL    HW225851   1.891   1.990   4.966
 8318SOL     OW25852   4.176   0.308   6.440
 8318SOL    HW125853   4.206   0.384   6.381
 8318SOL    HW225854   4.108   0.253   6.391
 8319SOL     OW25855   0.949   0.128   6.054
 8319SOL    HW125856   0.995   0.178   5.981
 8319SOL    HW225857   0.863   0.174   6.077
 8320SOL     OW25858   3.141   3.950   4.748
 8320SOL    HW125859   3.221   3.974   4.802
 8320SOL    HW225860   3.059   3.959   4.804
 8321SOL     OW25861   0.051   0.166   6.792
 8321SOL    HW125862   0.127   0.174   6.726
 8321SOL    HW225863   0.083   0.119   6.874
 8322SOL     OW25864   0.371   1.081   0.469
 8322SOL    HW125865   0.411   1.037   0.388
 8322SOL    HW225866   0.300   1.021   0.507
 8323SOL     OW25867   4.770   4.526   1.271
 8323SOL    HW125868   4.720   4.543   1.186
 8323SOL    HW225869   4.756   4.431   1.299
 8324SOL     OW25870   6.049   0.627   6.390
 8324SOL    HW125871   5.982   0.687   6.435
 8324SOL    HW225872   6.051   0.539   6.436
 8325SOL     OW25873   1.612   5.297   4.706
 8325SOL    HW125874   1.605   5.242   4.622
 8325SOL    HW225875   1.658   5.243   4.777
 8326SOL     OW25876   2.459   3.947   0.188
 8326SOL    HW125877   2.466   3.860   0.140
 8326SOL    HW225878   2.550   3.975   0.218
 8327SOL     OW25879   0.748   0.834   5.704
 8327SOL    HW125880   0.663   0.794   5.737
 8327SOL    HW225881   0.774   0.911   5.762
 8328SOL     OW25882   0.855   6.059   5.681
 8328SOL    HW125883   0.783   6.024   5.741
 8328SOL    HW225884   0.861   6.000   5.600
 8329SOL     OW25885   0.862   2.693   5.198
 8329SOL    HW125886   0.888   2.758   5.270
 8329SOL    HW225887   0.798   2.736   5.135
 8330SOL     OW25888   3.969   0.897   6.581
 8330SOL    HW125889   4.014   0.871   6.667
 8330SOL    HW225890   3.882   0.942   6.601
 8331SOL     OW25891   2.211   1.946   0.690
 8331SOL    HW125892   2.234   1.916   0.598
 8331SOL    HW225893   2.279   2.011   0.723
 8332SOL     OW25894   5.332   4.711   1.754
 8332SOL    HW125895   5.403   4.774   1.724
 8332SOL    HW225896   5.263   4.760   1.807
 8333SOL     OW25897   1.856   4.832   1.372
 8333SOL    HW125898   1.822   4.746   1.334
 8333SOL    HW225899   1.780   4.896   1.381
 8334SOL     OW25900   3.402   2.158   6.643
 8334SOL    HW125901   3.462   2.203   6.577
 8334SOL    HW225902   3.425   2.061   6.649
 8335SOL     OW25903   4.715   3.110   0.031
 8335SOL    HW125904   4.702   3.019   7.018
 8335SOL    HW225905   4.737   3.102   0.128
 8336SOL     OW25906   1.385   3.475   2.954
 8336SOL    HW125907   1.409   3.453   3.049
 8336SOL    HW225908   1.378   3.390   2.902
 8337SOL     OW25909   0.899   1.012   5.033
 8337SOL    HW125910   0.927   1.035   4.940
 8337SOL    HW225911   0.978   1.014   5.093
 8338SOL     OW25912   3.839   4.880   1.983
 8338SOL    HW125913   3.858   4.970   1.945
 8338SOL    HW225914   3.751   4.847   1.950
 8339SOL     OW25915   0.180   0.685   0.461
 8339SOL    HW125916   0.275   0.654   0.458
 8339SOL    HW225917   0.177   0.781   0.489
 8340SOL     OW25918   5.101   2.931   1.042
 8340SOL    HW125919   5.176   2.920   1.107
 8340SOL    HW225920   5.018   2.888   1.078
 8341SOL     OW25921   3.594   0.185   6.616
 8341SOL    HW125922   3.605   0.247   6.538
 8341SOL    HW225923   3.684   0.154   6.647
 8342SOL     OW25924   3.323   6.624   0.246
 8342SOL    HW125925   3.341   6.677   0.163
 8342SOL    HW225926   3.406   6.572   0.270
 8343SOL     OW25927   6.548   4.749   3.554
 8343SOL    HW125928   6.640   4.730   3.520
 8343SOL    HW225929   6.510   4.829   3.507
 8344SOL     OW25930   0.455   4.762   4.198
 8344SOL    HW125931   0.504   4.698   4.138
 8344SOL    HW225932   0.366   4.724   4.222
 8345SOL     OW25933   5.276   1.048   2.872
 8345SOL    HW125934   5.240   1.125   2.925
 8345SOL    HW225935   5.219   1.033   2.792
 8346SOL     OW25936   4.425   3.018   6.278
 8346SOL    HW125937   4.472   2.968   6.206
 8346SOL    HW225938   4.374   2.954   6.335
 8347SOL     OW25939   2.278   0.130   5.964
 8347SOL    HW125940   2.278   0.051   6.025
 8347SOL    HW225941   2.208   0.120   5.894
 8348SOL     OW25942   3.545   6.641   1.178
 8348SOL    HW125943   3.533   6.687   1.091
 8348SOL    HW225944   3.609   6.693   1.234
 8349SOL     OW25945   0.280   6.830   2.264
 8349SOL    HW125946   0.352   6.838   2.332
 8349SOL    HW225947   0.198   6.877   2.297
 8350SOL     OW25948   2.858   6.823   6.240
 8350SOL    HW125949   2.766   6.786   6.232
 8350SOL    HW225950   2.855   6.923   6.233
 8351SOL     OW25951   6.128   5.541   4.258
 8351SOL    HW125952   6.169   5.629   4.283
 8351SOL    HW225953   6.131   5.479   4.336
 8352SOL     OW25954   2.796   6.432   2.010
 8352SOL    HW125955   2.890   6.464   2.004
 8352SOL    HW225956   2.734   6.510   2.016
 8353SOL     OW25957   0.994   3.781   1.781
 8353SOL    HW125958   0.946   3.712   1.835
 8353SOL    HW225959   1.062   3.737   1.722
 8354SOL     OW25960   3.461   6.471   3.800
 8354SOL    HW125961   3.381   6.527   3.821
 8354SOL    HW225962   3.490   6.488   3.705
 8355SOL     OW25963   1.325   6.965   6.357
 8355SOL    HW125964   1.265   7.000   6.285
 8355SOL    HW225965   1.317   7.022   6.438
 8356SOL     OW25966   1.033   5.829   2.193
 8356SOL    HW125967   0.971   5.752   2.181
 8356SOL    HW225968   1.105   5.824   2.124
 8357SOL     OW25969   4.240   5.408   5.721
 8357SOL    HW125970   4.312   5.453   5.667
 8357SOL    HW225971   4.183   5.354   5.661
 8358SOL     OW25972   1.537   2.909   5.664
 8358SOL    HW125973   1.537   3.009   5.657
 8358SOL    HW225974   1.540   2.869   5.573
 8359SOL     OW25975   2.568   0.329   4.845
 8359SOL    HW125976   2.562   0.239   4.889
 8359SOL    HW225977   2.612   0.319   4.756
 8360SOL     OW25978   4.609   6.800   0.652
 8360SOL    HW125979   4.701   6.783   0.619
 8360SOL    HW225980   4.591   6.745   0.733
 8361SOL     OW25981   1.789   0.177   6.257
 8361SOL    HW125982   1.831   0.118   6.325
 8361SOL    HW225983   1.689   0.169   6.263
 8362SOL     OW25984   6.507   2.740   0.299
 8362SOL    HW125985   6.580   2.806   0.282
 8362SOL    HW225986   6.462   2.717   0.213
 8363SOL     OW25987   4.068   2.259   0.494
 8363SOL    HW125988   4.062   2.359   0.503
 8363SOL    HW225989   4.116   2.236   0.409
 8364SOL     OW25990   0.178   2.930   3.740
 8364SOL    HW125991   0.163   2.865   3.665
 8364SOL    HW225992   0.268   2.913   3.781
 8365SOL     OW25993   1.860   2.566   1.967
 8365SOL    HW125994   1.806   2.505   2.026
 8365SOL    HW225995   1.855   2.534   1.873
 8366SOL     OW25996   4.107   5.655   0.850
 8366SOL    HW125997   4.098   5.736   0.791
 8366SOL    HW225998   4.187   5.665   0.909
 8367SOL     OW25999   2.997   5.183   4.602
 8367SOL    HW126000   2.905   5.148   4.585
 8367SOL    HW226001   3.052   5.113   4.647
 8368SOL     OW26002   0.595   6.190   6.835
 8368SOL    HW126003   0.666   6.137   6.789
 8368SOL    HW226004   0.510   6.138   6.836
 8369SOL     OW26005   0.991   1.744   1.069
 8369SOL    HW126006   0.901   1.744   1.112
 8369SOL    HW226007   0.998   1.666   1.006
 8370SOL     OW26008   2.779   2.100   6.959
 8370SOL    HW126009   2.727   2.177   6.923
 8370SOL    HW226010   2.842   2.066   6.889
 8371SOL     OW26011   1.521   3.167   5.603
 8371SOL    HW126012   1.581   3.238   5.639
 8371SOL    HW226013   1.429   3.204   5.590
 8372SOL     OW26014   2.623   6.638   2.088
 8372SOL    HW126015   2.604   6.728   2.049
 8372SOL    HW226016   2.592   6.636   2.183
 8373SOL     OW26017   0.786   1.859   4.588
 8373SOL    HW126018   0.714   1.896   4.647
 8373SOL    HW226019   0.773   1.892   4.494
 8374SOL     OW26020   1.539   0.798   3.979
 8374SOL    HW126021   1.630   0.775   4.012
 8374SOL    HW226022   1.518   0.745   3.897
 8375SOL     OW26023   4.311   0.791   5.919
 8375SOL    HW126024   4.306   0.881   5.874
 8375SOL    HW226025   4.387   0.791   5.984
 8376SOL     OW26026   1.458   1.168   3.627
 8376SOL    HW126027   1.397   1.171   3.548
 8376SOL    HW226028   1.437   1.244   3.688
 8377SOL     OW26029   5.258   5.581   0.166
 8377SOL    HW126030   5.229   5.672   0.136
 8377SOL    HW226031   5.272   5.583   0.265
 8378SOL     OW26032   5.124   5.358   3.049
 8378SOL    HW126033   5.029   5.364   3.080
 8378SOL    HW226034   5.139   5.270   3.004
 8379SOL     OW26035   4.956   2.187   1.385
 8379SOL    HW126036   5.011   2.116   1.429
 8379SOL    HW226037   4.884   2.216   1.448
 8380SOL     OW26038   6.897   6.530   0.113
 8380SOL    HW126039   6.814   6.495   0.157
 8380SOL    HW226040   6.933   6.606   0.166
 8381SOL     OW26041   0.431   2.353   2.749
 8381SOL    HW126042   0.492   2.334   2.672
 8381SOL    HW226043   0.478   2.409   2.816
 8382SOL     OW26044   2.438   0.410   0.205
 8382SOL    HW126045   2.352   0.360   0.204
 8382SOL    HW226046   2.512   0.350   0.173
 8383SOL     OW26047   2.533   0.095   4.958
 8383SOL    HW126048   2.561   0.039   4.879
 8383SOL    HW226049   2.615   0.127   5.006
 8384SOL     OW26050   6.761   1.786   1.415
 8384SOL    HW126051   6.671   1.742   1.408
 8384SOL    HW226052   6.809   1.778   1.328
 8385SOL     OW26053   4.274   3.215   1.149
 8385SOL    HW126054   4.365   3.222   1.192
 8385SOL    HW226055   4.207   3.263   1.205
 8386SOL     OW26056   1.994   6.156   1.030
 8386SOL    HW126057   1.941   6.198   1.104
 8386SOL    HW226058   2.007   6.059   1.049
 8387SOL     OW26059   2.317   1.748   1.658
 8387SOL    HW126060   2.222   1.772   1.677
 8387SOL    HW226061   2.359   1.819   1.601
 8388SOL     OW26062   1.617   6.956   0.348
 8388SOL    HW126063   1.589   6.973   0.443
 8388SOL    HW226064   1.642   6.860   0.338
 8389SOL     OW26065   1.775   3.237   4.234
 8389SOL    HW126066   1.851   3.230   4.170
 8389SOL    HW226067   1.810   3.240   4.327
 8390SOL     OW26068   2.814   0.836   6.294
 8390SOL    HW126069   2.835   0.930   6.319
 8390SOL    HW226070   2.771   0.834   6.204
 8391SOL     OW26071   5.270   5.654   1.389
 8391SOL    HW126072   5.367   5.649   1.364
 8391SOL    HW226073   5.237   5.563   1.413
 8392SOL     OW26074   6.208   5.958   4.991
 8392SOL    HW126075   6.277   5.924   5.055
 8392SOL    HW226076   6.128   5.990   5.042
 8393SOL     OW26077   0.122   0.042   3.770
 8393SOL    HW126078   0.028   0.065   3.746
 8393SOL    HW226079   0.130   6.968   3.779
 8394SOL     OW26080   0.911   1.438   2.588
 8394SOL    HW126081   0.936   1.376   2.663
 8394SOL    HW226082   0.925   1.392   2.501
 8395SOL     OW26083   0.648   6.462   4.253
 8395SOL    HW126084   0.587   6.510   4.317
 8395SOL    HW226085   0.695   6.388   4.302
 8396SOL     OW26086   4.245   4.684   2.918
 8396SOL    HW126087   4.332   4.672   2.870
 8396SOL    HW226088   4.174   4.708   2.852
 8397SOL     OW26089   2.314   0.251   2.879
 8397SOL    HW126090   2.340   0.160   2.848
 8397SOL    HW226091   2.396   0.302   2.904
 8398SOL     OW26092   4.169   1.690   0.085
 8398SOL    HW126093   4.122   1.761   0.138
 8398SOL    HW226094   4.130   1.600   0.108
 8399SOL     OW26095   6.031   6.161   0.500
 8399SOL    HW126096   6.057   6.244   0.450
 8399SOL    HW226097   6.109   6.130   0.554
 8400SOL     OW26098   0.653   0.146   2.939
 8400SOL    HW126099   0.653   0.047   2.952
 8400SOL    HW226100   0.661   0.191   3.029
 8401SOL     OW26101   4.520   3.115   5.885
 8401SOL    HW126102   4.534   3.204   5.929
 8401SOL    HW226103   4.510   3.045   5.955
 8402SOL     OW26104   3.107   1.605   5.538
 8402SOL    HW126105   3.194   1.621   5.584
 8402SOL    HW226106   3.092   1.677   5.469
 8403SOL     OW26107   0.427   1.478   3.372
 8403SOL    HW126108   0.463   1.393   3.411
 8403SOL    HW226109   0.496   1.520   3.313
 8404SOL     OW26110   5.790   6.884   6.399
 8404SOL    HW126111   5.867   6.867   6.338
 8404SOL    HW226112   5.709   6.904   6.345
 8405SOL     OW26113   2.070   2.153   0.027
 8405SOL    HW126114   2.117   2.225   0.078
 8405SOL    HW226115   2.034   2.085   0.091
 8406SOL     OW26116   4.460   1.497   0.562
 8406SOL    HW126117   4.397   1.564   0.523
 8406SOL    HW226118   4.425   1.465   0.650
 8407SOL     OW26119   5.774   5.090   4.276
 8407SOL    HW126120   5.861   5.134   4.295
 8407SOL    HW226121   5.725   5.140   4.205
 8408SOL     OW26122   5.385   0.354   3.822
 8408SOL    HW126123   5.469   0.401   3.849
 8408SOL    HW226124   5.359   0.288   3.893
 8409SOL     OW26125   0.501   2.175   3.795
 8409SOL    HW126126   0.482   2.250   3.732
 8409SOL    HW226127   0.546   2.210   3.876
 8410SOL     OW26128   4.304   1.021   1.249
 8410SOL    HW126129   4.351   1.051   1.166
 8410SOL    HW226130   4.264   1.100   1.296
 8411SOL     OW26131   1.492   5.337   3.480
 8411SOL    HW126132   1.520   5.247   3.445
 8411SOL    HW226133   1.424   5.376   3.418
 8412SOL     OW26134   4.452   1.872   1.160
 8412SOL    HW126135   4.517   1.833   1.225
 8412SOL    HW226136   4.484   1.962   1.131
 8413SOL     OW26137   4.090   4.804   0.484
 8413SOL    HW126138   4.056   4.713   0.458
 8413SOL    HW226139   4.032   4.874   0.442
 8414SOL     OW26140   3.978   0.519   2.534
 8414SOL    HW126141   4.041   0.453   2.576
 8414SOL    HW226142   4.016   0.552   2.448
 8415SOL     OW26143   0.191   4.828   3.579
 8415SOL    HW126144   0.170   4.838   3.481
 8415SOL    HW226145   0.241   4.909   3.610
 8416SOL     OW26146   5.028   4.164   2.940
 8416SOL    HW126147   4.939   4.197   2.971
 8416SOL    HW226148   5.059   4.218   2.861
 8417SOL     OW26149   2.273   5.982   5.377
 8417SOL    HW126150   2.248   5.949   5.286
 8417SOL    HW226151   2.230   6.071   5.393
 8418SOL     OW26152   5.487   5.086   1.836
 8418SOL    HW126153   5.482   5.146   1.915
 8418SOL    HW226154   5.395   5.072   1.798
 8419SOL     OW26155   4.387   0.577   2.016
 8419SOL    HW126156   4.369   0.670   2.049
 8419SOL    HW226157   4.316   0.550   1.951
 8420SOL     OW26158   3.844   6.753   0.764
 8420SOL    HW126159   3.816   6.666   0.803
 8420SOL    HW226160   3.939   6.773   0.791
 8421SOL     OW26161   2.992   6.734   1.147
 8421SOL    HW126162   2.979   6.653   1.205
 8421SOL    HW226163   2.903   6.766   1.114
 8422SOL     OW26164   5.565   6.242   1.057
 8422SOL    HW126165   5.621   6.238   1.139
 8422SOL    HW226166   5.617   6.286   0.983
 8423SOL     OW26167   3.815   4.667   6.692
 8423SOL    HW126168   3.786   4.607   6.767
 8423SOL    HW226169   3.837   4.611   6.611
 8424SOL     OW26170   2.949   2.275   2.677
 8424SOL    HW126171   2.891   2.279   2.758
 8424SOL    HW226172   3.039   2.239   2.702
 8425SOL     OW26173   0.100   5.483   0.851
 8425SOL    HW126174   0.117   5.441   0.940
 8425SOL    HW226175   0.058   5.415   0.790
 8426SOL     OW26176   3.724   2.910   3.511
 8426SOL    HW126177   3.720   2.862   3.423
 8426SOL    HW226178   3.720   3.009   3.495
 8427SOL     OW26179   1.778   4.221   5.806
 8427SOL    HW126180   1.696   4.197   5.858
 8427SOL    HW226181   1.859   4.183   5.850
 8428SOL     OW26182   6.738   4.541   2.283
 8428SOL    HW126183   6.786   4.558   2.369
 8428SOL    HW226184   6.791   4.580   2.208
 8429SOL     OW26185   2.237   4.481   4.633
 8429SOL    HW126186   2.226   4.513   4.539
 8429SOL    HW226187   2.305   4.407   4.636
 8430SOL     OW26188   4.190   5.183   2.721
 8430SOL    HW126189   4.240   5.262   2.757
 8430SOL    HW226190   4.167   5.121   2.796
 8431SOL     OW26191   2.384   5.299   1.392
 8431SOL    HW126192   2.453   5.248   1.341
 8431SOL    HW226193   2.402   5.291   1.490
 8432SOL     OW26194   4.145   5.276   5.970
 8432SOL    HW126195   4.184   5.260   6.060
 8432SOL    HW226196   4.201   5.343   5.920
 8433SOL     OW26197   0.791   2.892   6.758
 8433SOL    HW126198   0.756   2.886   6.852
 8433SOL    HW226199   0.800   2.800   6.721
 8434SOL     OW26200   3.031   6.717   5.366
 8434SOL    HW126201   2.947   6.766   5.390
 8434SOL    HW226202   3.061   6.661   5.444
 8435SOL     OW26203   5.062   1.948   1.478
 8435SOL    HW126204   5.032   1.853   1.482
 8435SOL    HW226205   5.154   1.956   1.517
 8436SOL     OW26206   3.816   6.494   3.776
 8436SOL    HW126207   3.913   6.503   3.755
 8436SOL    HW226208   3.778   6.584   3.800
 8437SOL     OW26209   1.474   0.239   1.880
 8437SOL    HW126210   1.521   0.254   1.967
 8437SOL    HW226211   1.376   0.240   1.894
 8438SOL     OW26212   2.915   4.792   2.366
 8438SOL    HW126213   2.899   4.791   2.465
 8438SOL    HW226214   2.833   4.763   2.318
 8439SOL     OW26215   6.747   5.910   1.278
 8439SOL    HW126216   6.787   5.868   1.359
 8439SOL    HW226217   6.820   5.952   1.223
 8440SOL     OW26218   6.932   0.720   2.716
 8440SOL    HW126219   7.021   0.696   2.678
 8440SOL    HW226220   6.918   0.671   2.802
 8441SOL     OW26221   5.857   5.951   0.604
 8441SOL    HW126222   5.833   5.885   0.533
 8441SOL    HW226223   5.836   6.043   0.572
 8442SOL     OW26224   3.919   3.229   6.833
 8442SOL    HW126225   3.879   3.196   6.918
 8442SOL    HW226226   3.864   3.197   6.756
 8443SOL     OW26227   1.414   6.985   3.066
 8443SOL    HW126228   1.316   6.969   3.052
 8443SOL    HW226229   1.427   0.017   3.147
 8444SOL     OW26230   3.083   6.126   3.365
 8444SOL    HW126231   2.993   6.084   3.379
 8444SOL    HW226232   3.154   6.068   3.403
 8445SOL     OW26233   2.918   5.127   2.142
 8445SOL    HW126234   2.983   5.152   2.214
 8445SOL    HW226235   2.938   5.036   2.108
 8446SOL     OW26236   5.033   5.449   1.667
 8446SOL    HW126237   5.008   5.540   1.635
 8446SOL    HW226238   5.002   5.381   1.600
 8447SOL     OW26239   5.749   2.372   2.617
 8447SOL    HW126240   5.712   2.318   2.542
 8447SOL    HW226241   5.837   2.411   2.591
 8448SOL     OW26242   0.201   3.992   5.334
 8448SOL    HW126243   0.215   3.915   5.273
 8448SOL    HW226244   0.280   4.001   5.395
 8449SOL     OW26245   0.073   2.961   4.015
 8449SOL    HW126246   0.102   2.908   3.936
 8449SOL    HW226247   0.072   3.058   3.991
 8450SOL     OW26248   2.238   6.023   2.242
 8450SOL    HW126249   2.151   6.071   2.246
 8450SOL    HW226250   2.274   6.027   2.149
 8451SOL     OW26251   3.980   2.576   0.900
 8451SOL    HW126252   3.983   2.476   0.894
 8451SOL    HW226253   4.016   2.605   0.989
 8452SOL     OW26254   0.365   6.776   1.152
 8452SOL    HW126255   0.364   6.678   1.133
 8452SOL    HW226256   0.446   6.799   1.206
 8453SOL     OW26257   6.760   5.293   6.045
 8453SOL    HW126258   6.803   5.203   6.050
 8453SOL    HW226259   6.685   5.291   5.979
 8454SOL     OW26260   1.775   5.840   1.948
 8454SOL    HW126261   1.681   5.875   1.956
 8454SOL    HW226262   1.809   5.858   1.856
 8455SOL     OW26263   5.004   1.718   1.217
 8455SOL    HW126264   5.067   1.724   1.294
 8455SOL    HW226265   5.041   1.655   1.148
 8456SOL     OW26266   5.953   5.582   3.346
 8456SOL    HW126267   5.936   5.513   3.416
 8456SOL    HW226268   5.867   5.630   3.326
 8457SOL     OW26269   6.782   6.678   5.683
 8457SOL    HW126270   6.813   6.669   5.589
 8457SOL    HW226271   6.773   6.775   5.706
 8458SOL     OW26272   2.031   1.223   6.728
 8458SOL    HW126273   2.021   1.267   6.818
 8458SOL    HW226274   1.940   1.211   6.687
 8459SOL     OW26275   3.773   6.596   1.582
 8459SOL    HW126276   3.771   6.505   1.539
 8459SOL    HW226277   3.722   6.593   1.668
 8460SOL     OW26278   4.270   2.772   6.342
 8460SOL    HW126279   4.327   2.691   6.331
 8460SOL    HW226280   4.185   2.760   6.289
 8461SOL     OW26281   0.988   3.022   0.977
 8461SOL    HW126282   1.061   3.048   0.914
 8461SOL    HW226283   1.020   3.033   1.071
 8462SOL     OW26284   3.503   2.377   6.459
 8462SOL    HW126285   3.575   2.441   6.483
 8462SOL    HW226286   3.450   2.414   6.382
 8463SOL     OW26287   0.064   2.107   0.093
 8463SOL    HW126288   0.139   2.045   0.071
 8463SOL    HW226289   7.014   2.055   0.133
 8464SOL     OW26290   0.037   4.445   5.225
 8464SOL    HW126291   0.097   4.372   5.260
 8464SOL    HW226292   7.004   4.477   5.299
 8465SOL     OW26293   2.889   2.126   0.967
 8465SOL    HW126294   2.850   2.166   0.885
 8465SOL    HW226295   2.817   2.107   1.033
 8466SOL     OW26296   6.467   0.168   5.345
 8466SOL    HW126297   6.542   0.102   5.341
 8466SOL    HW226298   6.485   0.235   5.417
 8467SOL     OW26299   3.790   1.002   1.051
 8467SOL    HW126300   3.844   1.022   1.132
 8467SOL    HW226301   3.772   1.087   1.001
 8468SOL     OW26302   6.192   2.887   6.538
 8468SOL    HW126303   6.229   2.804   6.496
 8468SOL    HW226304   6.172   2.869   6.635
 8469SOL     OW26305   2.758   2.685   5.947
 8469SOL    HW126306   2.825   2.756   5.971
 8469SOL    HW226307   2.731   2.636   6.030
 8470SOL     OW26308   0.829   4.700   0.572
 8470SOL    HW126309   0.855   4.751   0.490
 8470SOL    HW226310   0.852   4.603   0.560
 8471SOL     OW26311   3.558   0.338   5.362
 8471SOL    HW126312   3.588   0.244   5.378
 8471SOL    HW226313   3.634   0.401   5.380
 8472SOL     OW26314   5.323   1.723   5.615
 8472SOL    HW126315   5.398   1.746   5.677
 8472SOL    HW226316   5.361   1.692   5.528
 8473SOL     OW26317   4.822   5.100   0.854
 8473SOL    HW126318   4.857   5.167   0.919
 8473SOL    HW226319   4.797   5.146   0.768
 8474SOL     OW26320   3.132   4.072   2.498
 8474SOL    HW126321   3.170   4.073   2.405
 8474SOL    HW226322   3.097   4.163   2.520
 8475SOL     OW26323   6.752   3.050   2.292
 8475SOL    HW126324   6.734   2.965   2.342
 8475SOL    HW226325   6.820   3.033   2.220
 8476SOL     OW26326   0.125   0.786   1.985
 8476SOL    HW126327   0.041   0.737   2.006
 8476SOL    HW226328   0.182   0.731   1.924
 8477SOL     OW26329   4.525   6.409   2.402
 8477SOL    HW126330   4.456   6.346   2.364
 8477SOL    HW226331   4.493   6.503   2.391
 8478SOL     OW26332   0.749   1.485   5.839
 8478SOL    HW126333   0.800   1.433   5.770
 8478SOL    HW226334   0.808   1.556   5.878
 8479SOL     OW26335   0.790   2.740   1.692
 8479SOL    HW126336   0.874   2.702   1.654
 8479SOL    HW226337   0.716   2.732   1.625
 8480SOL     OW26338   4.927   2.785   6.846
 8480SOL    HW126339   4.954   2.689   6.855
 8480SOL    HW226340   4.830   2.795   6.869
 8481SOL     OW26341   4.365   2.192   5.087
 8481SOL    HW126342   4.433   2.119   5.076
 8481SOL    HW226343   4.365   2.250   5.005
 8482SOL     OW26344   4.593   0.304   1.611
 8482SOL    HW126345   4.565   0.328   1.704
 8482SOL    HW226346   4.693   0.310   1.604
 8483SOL     OW26347   2.323   5.537   3.050
 8483SOL    HW126348   2.281   5.620   3.088
 8483SOL    HW226349   2.357   5.556   2.958
 8484SOL     OW26350   6.877   6.115   4.960
 8484SOL    HW126351   6.862   6.160   5.049
 8484SOL    HW226352   6.829   6.028   4.959
 8485SOL     OW26353   3.967   2.537   0.378
 8485SOL    HW126354   3.969   2.583   0.290
 8485SOL    HW226355   3.881   2.560   0.425
 8486SOL     OW26356   1.899   1.168   2.816
 8486SOL    HW126357   1.886   1.232   2.740
 8486SOL    HW226358   1.875   1.076   2.786
 8487SOL     OW26359   5.324   2.206   6.038
 8487SOL    HW126360   5.404   2.265   6.049
 8487SOL    HW226361   5.351   2.121   5.994
 8488SOL     OW26362   5.463   5.601   3.145
 8488SOL    HW126363   5.383   5.601   3.084
 8488SOL    HW226364   5.436   5.633   3.236
 8489SOL     OW26365   6.903   0.151   1.078
 8489SOL    HW126366   6.979   0.200   1.035
 8489SOL    HW226367   6.937   0.067   1.120
 8490SOL     OW26368   3.217   6.708   5.606
 8490SOL    HW126369   3.137   6.648   5.609
 8490SOL    HW226370   3.249   6.726   5.699
 8491SOL     OW26371   2.150   6.294   2.518
 8491SOL    HW126372   2.238   6.289   2.471
 8491SOL    HW226373   2.076   6.281   2.453
 8492SOL     OW26374   5.965   5.208   3.924
 8492SOL    HW126375   6.039   5.185   3.987
 8492SOL    HW226376   5.988   5.291   3.874
 8493SOL     OW26377   2.786   1.613   0.084
 8493SOL    HW126378   2.768   1.711   0.075
 8493SOL    HW226379   2.806   1.575   7.020
 8494SOL     OW26380   4.574   5.003   2.234
 8494SOL    HW126381   4.562   5.102   2.236
 8494SOL    HW226382   4.668   4.981   2.208
 8495SOL     OW26383   0.348   5.225   0.723
 8495SOL    HW126384   0.251   5.212   0.705
 8495SOL    HW226385   0.363   5.314   0.765
 8496SOL     OW26386   5.509   1.567   2.363
 8496SOL    HW126387   5.467   1.653   2.392
 8496SOL    HW226388   5.559   1.582   2.277
 8497SOL     OW26389   0.975   0.271   3.543
 8497SOL    HW126390   0.977   0.371   3.545
 8497SOL    HW226391   1.037   0.238   3.473
 8498SOL     OW26392   5.867   6.397   3.470
 8498SOL    HW126393   5.847   6.351   3.383
 8498SOL    HW226394   5.944   6.459   3.457
 8499SOL     OW26395   0.504   4.430   0.120
 8499SOL    HW126396   0.557   4.474   0.193
 8499SOL    HW226397   0.563   4.415   0.041
 8500SOL     OW26398   1.698   6.603   5.833
 8500SOL    HW126399   1.768   6.570   5.897
 8500SOL    HW226400   1.716   6.566   5.742
 8501SOL     OW26401   0.925   2.536   6.584
 8501SOL    HW126402   1.019   2.543   6.618
 8501SOL    HW226403   0.862   2.571   6.654
 8502SOL     OW26404   0.868   2.710   1.061
 8502SOL    HW126405   0.939   2.729   0.993
 8502SOL    HW226406   0.827   2.796   1.093
 8503SOL     OW26407   6.551   5.845   5.142
 8503SOL    HW126408   6.556   5.879   5.048
 8503SOL    HW226409   6.587   5.914   5.204
 8504SOL     OW26410   1.479   5.232   1.863
 8504SOL    HW126411   1.578   5.244   1.852
 8504SOL    HW226412   1.447   5.283   1.943
 8505SOL     OW26413   5.576   3.492   2.748
 8505SOL    HW126414   5.501   3.450   2.697
 8505SOL    HW226415   5.542   3.523   2.837
 8506SOL     OW26416   1.150   0.647   0.027
 8506SOL    HW126417   1.164   0.571   0.089
 8506SOL    HW226418   1.233   0.661   6.998
 8507SOL     OW26419   3.952   6.991   4.614
 8507SOL    HW126420   3.864   7.007   4.660
 8507SOL    HW226421   3.937   6.933   4.534
 8508SOL     OW26422   4.180   1.410   5.451
 8508SOL    HW126423   4.208   1.469   5.376
 8508SOL    HW226424   4.081   1.401   5.452
 8509SOL     OW26425   5.788   6.564   3.973
 8509SOL    HW126426   5.837   6.591   3.890
 8509SOL    HW226427   5.735   6.481   3.956
 8510SOL     OW26428   5.428   3.735   3.455
 8510SOL    HW126429   5.408   3.644   3.490
 8510SOL    HW226430   5.526   3.749   3.449
 8511SOL     OW26431   6.817   3.181   2.561
 8511SOL    HW126432   6.811   3.171   2.461
 8511SOL    HW226433   6.798   3.093   2.605
 8512SOL     OW26434   2.583   0.148   2.700
 8512SOL    HW126435   2.670   0.147   2.749
 8512SOL    HW226436   2.517   0.092   2.748
 8513SOL     OW26437   0.252   5.648   0.689
 8513SOL    HW126438   0.206   5.680   0.606
 8513SOL    HW226439   0.185   5.607   0.750
 8514SOL     OW26440   3.254   0.077   3.261
 8514SOL    HW126441   3.244   0.111   3.167
 8514SOL    HW226442   3.350   0.058   3.279
 8515SOL     OW26443   4.693   2.632   0.878
 8515SOL    HW126444   4.701   2.691   0.798
 8515SOL    HW226445   4.646   2.681   0.951
 8516SOL     OW26446   6.914   2.019   2.409
 8516SOL    HW126447   6.982   1.985   2.344
 8516SOL    HW226448   6.825   1.978   2.388
 8517SOL     OW26449   0.968   2.659   5.834
 8517SOL    HW126450   1.007   2.571   5.807
 8517SOL    HW226451   0.871   2.661   5.810
 8518SOL     OW26452   4.028   4.554   0.402
 8518SOL    HW126453   4.097   4.482   0.398
 8518SOL    HW226454   3.960   4.538   0.330
 8519SOL     OW26455   1.955   5.876   2.153
 8519SOL    HW126456   2.044   5.904   2.115
 8519SOL    HW226457   1.891   5.859   2.079
 8520SOL     OW26458   4.215   1.087   0.156
 8520SOL    HW126459   4.130   1.035   0.170
 8520SOL    HW226460   4.275   1.074   0.235
 8521SOL     OW26461   1.522   5.911   5.512
 8521SOL    HW126462   1.560   5.940   5.424
 8521SOL    HW226463   1.594   5.912   5.582
 8522SOL     OW26464   2.013   5.836   2.428
 8522SOL    HW126465   1.992   5.843   2.330
 8522SOL    HW226466   1.929   5.847   2.481
 8523SOL     OW26467   2.177   0.456   5.911
 8523SOL    HW126468   2.192   0.503   5.998
 8523SOL    HW226469   2.120   0.375   5.926
 8524SOL     OW26470   1.400   2.774   4.452
 8524SOL    HW126471   1.481   2.777   4.395
 8524SOL    HW226472   1.426   2.752   4.546
 8525SOL     OW26473   6.317   3.775   2.865
 8525SOL    HW126474   6.311   3.873   2.886
 8525SOL    HW226475   6.412   3.750   2.847
 8526SOL     OW26476   2.858   3.752   1.803
 8526SOL    HW126477   2.800   3.696   1.743
 8526SOL    HW226478   2.920   3.693   1.854
 8527SOL     OW26479   3.967   0.643   4.653
 8527SOL    HW126480   4.011   0.639   4.563
 8527SOL    HW226481   4.026   0.602   4.722
 8528SOL     OW26482   4.935   3.650   6.075
 8528SOL    HW126483   4.839   3.652   6.105
 8528SOL    HW226484   4.979   3.568   6.109
 8529SOL     OW26485   1.001   6.193   0.119
 8529SOL    HW126486   1.091   6.163   0.149
 8529SOL    HW226487   0.967   6.130   0.048
 8530SOL     OW26488   0.884   5.194   4.914
 8530SOL    HW126489   0.879   5.180   5.013
 8530SOL    HW226490   0.905   5.107   4.870
 8531SOL     OW26491   5.486   4.428   3.326
 8531SOL    HW126492   5.402   4.401   3.278
 8531SOL    HW226493   5.465   4.448   3.422
 8532SOL     OW26494   4.302   4.823   4.966
 8532SOL    HW126495   4.223   4.827   4.904
 8532SOL    HW226496   4.344   4.733   4.961
 8533SOL     OW26497   1.891   1.034   5.879
 8533SOL    HW126498   1.800   1.061   5.847
 8533SOL    HW226499   1.922   0.954   5.828
 8534SOL     OW26500   0.448   4.865   2.516
 8534SOL    HW126501   0.407   4.776   2.531
 8534SOL    HW226502   0.518   4.858   2.444
 8535SOL     OW26503   0.617   1.929   4.784
 8535SOL    HW126504   0.518   1.932   4.803
 8535SOL    HW226505   0.667   1.962   4.864
 8536SOL     OW26506   6.370   2.702   5.136
 8536SOL    HW126507   6.320   2.617   5.119
 8536SOL    HW226508   6.351   2.734   5.229
 8537SOL     OW26509   6.303   1.256   1.081
 8537SOL    HW126510   6.344   1.313   1.010
 8537SOL    HW226511   6.281   1.166   1.043
 8538SOL     OW26512   0.234   0.796   5.153
 8538SOL    HW126513   0.224   0.874   5.215
 8538SOL    HW226514   0.329   0.764   5.155
 8539SOL     OW26515   6.465   2.497   2.917
 8539SOL    HW126516   6.375   2.526   2.884
 8539SOL    HW226517   6.523   2.577   2.933
 8540SOL     OW26518   3.424   1.338   1.110
 8540SOL    HW126519   3.371   1.373   1.033
 8540SOL    HW226520   3.477   1.413   1.151
 8541SOL     OW26521   2.882   1.371   5.293
 8541SOL    HW126522   2.885   1.453   5.351
 8541SOL    HW226523   2.899   1.396   5.198
 8542SOL     OW26524   2.843   4.349   6.480
 8542SOL    HW126525   2.845   4.251   6.503
 8542SOL    HW226526   2.749   4.383   6.487
 8543SOL     OW26527   2.604   2.065   5.381
 8543SOL    HW126528   2.582   1.986   5.438
 8543SOL    HW226529   2.622   2.144   5.439
 8544SOL     OW26530   5.315   3.358   5.032
 8544SOL    HW126531   5.358   3.363   5.122
 8544SOL    HW226532   5.332   3.268   4.993
 8545SOL     OW26533   2.830   6.500   4.668
 8545SOL    HW126534   2.786   6.561   4.735
 8545SOL    HW226535   2.861   6.417   4.715
 8546SOL     OW26536   5.435   0.646   0.935
 8546SOL    HW126537   5.365   0.672   1.001
 8546SOL    HW226538   5.398   0.575   0.874
 8547SOL     OW26539   6.925   0.088   5.563
 8547SOL    HW126540   6.873   0.012   5.601
 8547SOL    HW226541   6.888   0.174   5.597
 8548SOL     OW26542   0.269   3.099   5.349
 8548SOL    HW126543   0.249   3.040   5.270
 8548SOL    HW226544   0.188   3.102   5.408
 8549SOL     OW26545   1.289   1.978   3.582
 8549SOL    HW126546   1.370   2.027   3.549
 8549SOL    HW226547   1.207   2.024   3.550
 8550SOL     OW26548   0.443   3.953   6.212
 8550SOL    HW126549   0.535   3.989   6.225
 8550SOL    HW226550   0.421   3.955   6.114
 8551SOL     OW26551   2.022   2.307   6.667
 8551SOL    HW126552   2.012   2.405   6.649
 8551SOL    HW226553   1.984   2.285   6.756
 8552SOL     OW26554   3.252   0.524   1.866
 8552SOL    HW126555   3.162   0.564   1.849
 8552SOL    HW226556   3.319   0.596   1.884
 8553SOL     OW26557   3.868   3.688   0.634
 8553SOL    HW126558   3.894   3.689   0.731
 8553SOL    HW226559   3.809   3.610   0.616
 8554SOL     OW26560   0.954   0.008   1.091
 8554SOL    HW126561   1.053   0.009   1.087
 8554SOL    HW226562   0.917   6.991   1.008
 8555SOL     OW26563   4.363   1.614   3.524
 8555SOL    HW126564   4.431   1.542   3.532
 8555SOL    HW226565   4.350   1.657   3.614
 8556SOL     OW26566   1.475   6.377   5.912
 8556SOL    HW126567   1.497   6.309   5.983
 8556SOL    HW226568   1.524   6.462   5.932
 8557SOL     OW26569   6.889   0.977   0.747
 8557SOL    HW126570   6.948   0.910   0.790
 8557SOL    HW226571   6.936   1.066   0.744
 8558SOL     OW26572   1.985   4.661   3.460
 8558SOL    HW126573   2.039   4.712   3.527
 8558SOL    HW226574   2.024   4.672   3.369
 8559SOL     OW26575   0.402   6.746   2.804
 8559SOL    HW126576   0.337   6.739   2.728
 8559SOL    HW226577   0.461   6.665   2.805
 8560SOL     OW26578   1.391   5.498   1.213
 8560SOL    HW126579   1.429   5.425   1.269
 8560SOL    HW226580   1.462   5.564   1.191
 8561SOL     OW26581   3.938   0.631   3.271
 8561SOL    HW126582   3.957   0.558   3.206
 8561SOL    HW226583   4.014   0.696   3.271
 8562SOL     OW26584   3.976   0.848   6.849
 8562SOL    HW126585   4.054   0.795   6.883
 8562SOL    HW226586   3.892   0.815   6.892
 8563SOL     OW26587   1.393   6.104   2.205
 8563SOL    HW126588   1.330   6.068   2.136
 8563SOL    HW226589   1.350   6.182   2.251
 8564SOL     OW26590   3.871   6.348   6.281
 8564SOL    HW126591   3.819   6.360   6.196
 8564SOL    HW226592   3.893   6.251   6.294
 8565SOL     OW26593   3.626   5.371   1.491
 8565SOL    HW126594   3.639   5.278   1.456
 8565SOL    HW226595   3.540   5.376   1.541
 8566SOL     OW26596   2.931   0.872   2.863
 8566SOL    HW126597   3.013   0.929   2.867
 8566SOL    HW226598   2.948   0.794   2.803
 8567SOL     OW26599   1.550   2.009   1.698
 8567SOL    HW126600   1.629   2.001   1.759
 8567SOL    HW226601   1.565   2.085   1.635
 8568SOL     OW26602   0.171   1.361   0.316
 8568SOL    HW126603   0.096   1.349   0.380
 8568SOL    HW226604   0.199   1.457   0.314
 8569SOL     OW26605   4.827   2.198   6.142
 8569SOL    HW126606   4.878   2.277   6.108
 8569SOL    HW226607   4.773   2.226   6.221
 8570SOL     OW26608   1.526   1.579   4.568
 8570SOL    HW126609   1.611   1.613   4.608
 8570SOL    HW226610   1.455   1.575   4.639
 8571SOL     OW26611   1.343   1.183   4.992
 8571SOL    HW126612   1.385   1.241   4.922
 8571SOL    HW226613   1.345   1.088   4.962
 8572SOL     OW26614   2.611   3.949   5.680
 8572SOL    HW126615   2.609   3.885   5.603
 8572SOL    HW226616   2.562   4.032   5.655
 8573SOL     OW26617   2.714   5.942   6.807
 8573SOL    HW126618   2.653   5.927   6.729
 8573SOL    HW226619   2.777   6.016   6.786
 8574SOL     OW26620   6.255   6.795   6.346
 8574SOL    HW126621   6.303   6.759   6.426
 8574SOL    HW226622   6.279   6.891   6.333
 8575SOL     OW26623   3.400   0.928   2.342
 8575SOL    HW126624   3.442   0.873   2.415
 8575SOL    HW226625   3.471   0.983   2.298
 8576SOL     OW26626   1.345   4.030   4.594
 8576SOL    HW126627   1.334   3.930   4.591
 8576SOL    HW226628   1.398   4.060   4.516
 8577SOL     OW26629   1.526   1.150   6.027
 8577SOL    HW126630   1.546   1.242   5.992
 8577SOL    HW226631   1.431   1.127   6.009
 8578SOL     OW26632   6.249   6.405   5.505
 8578SOL    HW126633   6.300   6.365   5.580
 8578SOL    HW226634   6.152   6.409   5.529
 8579SOL     OW26635   2.316   6.344   2.305
 8579SOL    HW126636   2.397   6.290   2.328
 8579SOL    HW226637   2.319   6.370   2.208
 8580SOL     OW26638   1.213   6.240   0.771
 8580SOL    HW126639   1.206   6.176   0.848
 8580SOL    HW226640   1.177   6.196   0.689
 8581SOL     OW26641   3.873   5.130   1.573
 8581SOL    HW126642   3.909   5.200   1.512
 8581SOL    HW226643   3.777   5.112   1.550
 8582SOL     OW26644   4.759   4.661   5.581
 8582SOL    HW126645   4.828   4.610   5.632
 8582SOL    HW226646   4.672   4.657   5.630
 8583SOL     OW26647   4.092   0.036   3.212
 8583SOL    HW126648   4.153   0.095   3.159
 8583SOL    HW226649   4.123   0.032   3.307
 8584SOL     OW26650   0.115   0.684   4.645
 8584SOL    HW126651   0.072   0.766   4.606
 8584SOL    HW226652   0.135   0.619   4.572
 8585SOL     OW26653   5.973   1.501   1.290
 8585SOL    HW126654   5.909   1.525   1.217
 8585SOL    HW226655   5.922   1.460   1.366
 8586SOL     OW26656   5.039   6.552   1.317
 8586SOL    HW126657   5.027   6.600   1.404
 8586SOL    HW226658   5.022   6.455   1.330
 8587SOL     OW26659   1.012   2.002   4.608
 8587SOL    HW126660   0.936   1.938   4.623
 8587SOL    HW226661   1.013   2.070   4.682
 8588SOL     OW26662   4.394   0.988   6.754
 8588SOL    HW126663   4.385   1.044   6.837
 8588SOL    HW226664   4.414   0.894   6.780
 8589SOL     OW26665   6.610   3.023   4.927
 8589SOL    HW126666   6.584   2.977   4.841
 8589SOL    HW226667   6.700   3.066   4.916
 8590SOL     OW26668   0.116   0.244   3.119
 8590SOL    HW126669   0.203   0.195   3.115
 8590SOL    HW226670   0.104   0.282   3.210
 8591SOL     OW26671   6.511   4.413   0.364
 8591SOL    HW126672   6.580   4.357   0.319
 8591SOL    HW226673   6.555   4.477   0.427
 8592SOL     OW26674   6.996   2.608   0.313
 8592SOL    HW126675   6.981   2.595   0.215
 8592SOL    HW226676   7.007   2.519   0.357
 8593SOL     OW26677   3.048   1.120   6.959
 8593SOL    HW126678   3.144   1.098   6.941
 8593SOL    HW226679   2.997   1.119   6.873
 8594SOL     OW26680   6.205   2.957   5.790
 8594SOL    HW126681   6.259   3.040   5.806
 8594SOL    HW226682   6.127   2.979   5.732
 8595SOL     OW26683   5.663   0.517   3.901
 8595SOL    HW126684   5.701   0.511   3.809
 8595SOL    HW226685   5.636   0.612   3.920
 8596SOL     OW26686   1.226   4.086   3.454
 8596SOL    HW126687   1.226   4.008   3.517
 8596SOL    HW226688   1.150   4.147   3.477
 8597SOL     OW26689   6.112   2.427   0.744
 8597SOL    HW126690   6.088   2.349   0.802
 8597SOL    HW226691   6.063   2.508   0.776
 8598SOL     OW26692   5.707   0.406   5.418
 8598SOL    HW126693   5.647   0.434   5.493
 8598SOL    HW226694   5.792   0.368   5.455
 8599SOL     OW26695   1.349   2.908   3.835
 8599SOL    HW126696   1.412   2.880   3.761
 8599SOL    HW226697   1.329   2.829   3.893
 8600SOL     OW26698   5.159   3.855   1.073
 8600SOL    HW126699   5.169   3.776   1.013
 8600SOL    HW226700   5.167   3.826   1.168
 8601SOL     OW26701   0.022   1.073   3.789
 8601SOL    HW126702   0.038   1.014   3.869
 8601SOL    HW226703   0.054   1.165   3.810
 8602SOL     OW26704   2.713   6.622   3.112
 8602SOL    HW126705   2.640   6.624   3.044
 8602SOL    HW226706   2.801   6.632   3.066
 8603SOL     OW26707   6.027   1.138   6.366
 8603SOL    HW126708   5.994   1.092   6.283
 8603SOL    HW226709   6.000   1.234   6.363
 8604SOL     OW26710   0.661   2.701   6.098
 8604SOL    HW126711   0.656   2.798   6.075
 8604SOL    HW226712   0.655   2.690   6.197
 8605SOL     OW26713   1.202   4.391   4.322
 8605SOL    HW126714   1.155   4.352   4.244
 8605SOL    HW226715   1.293   4.351   4.330
 8606SOL     OW26716   3.202   2.191   0.195
 8606SOL    HW126717   3.234   2.232   0.110
 8606SOL    HW226718   3.239   2.098   0.203
 8607SOL     OW26719   2.168   4.958   0.040
 8607SOL    HW126720   2.152   4.877   7.010
 8607SOL    HW226721   2.201   5.033   7.008
 8608SOL     OW26722   2.194   4.898   2.421
 8608SOL    HW126723   2.128   4.908   2.346
 8608SOL    HW226724   2.150   4.853   2.499
 8609SOL     OW26725   4.884   0.669   3.993
 8609SOL    HW126726   4.864   0.703   4.085
 8609SOL    HW226727   4.812   0.697   3.930
 8610SOL     OW26728   6.915   6.900   3.196
 8610SOL    HW126729   6.952   6.976   3.144
 8610SOL    HW226730   6.939   6.814   3.151
 8611SOL     OW26731   2.647   1.076   4.372
 8611SOL    HW126732   2.715   1.149   4.382
 8611SOL    HW226733   2.606   1.081   4.281
 8612SOL     OW26734   2.998   3.484   2.259
 8612SOL    HW126735   2.966   3.409   2.318
 8612SOL    HW226736   3.003   3.453   2.165
 8613SOL     OW26737   2.428   2.648   1.779
 8613SOL    HW126738   2.356   2.706   1.818
 8613SOL    HW226739   2.397   2.610   1.692
 8614SOL     OW26740   1.135   2.667   2.799
 8614SOL    HW126741   1.164   2.642   2.706
 8614SOL    HW226742   1.048   2.717   2.794
 8615SOL     OW26743   4.329   1.793   5.138
 8615SOL    HW126744   4.322   1.837   5.048
 8615SOL    HW226745   4.417   1.815   5.179
 8616SOL     OW26746   2.357   4.704   1.814
 8616SOL    HW126747   2.341   4.648   1.895
 8616SOL    HW226748   2.447   4.685   1.776
 8617SOL     OW26749   5.660   0.484   4.257
 8617SOL    HW126750   5.735   0.430   4.218
 8617SOL    HW226751   5.573   0.455   4.216
 8618SOL     OW26752   6.877   3.959   0.827
 8618SOL    HW126753   6.939   3.978   0.750
 8618SOL    HW226754   6.930   3.929   0.906
 8619SOL     OW26755   4.371   5.233   3.262
 8619SOL    HW126756   4.279   5.203   3.284
 8619SOL    HW226757   4.436   5.159   3.281
 8620SOL     OW26758   1.671   0.266   4.373
 8620SOL    HW126759   1.693   0.335   4.305
 8620SOL    HW226760   1.609   0.306   4.442
 8621SOL     OW26761   4.857   3.027   2.270
 8621SOL    HW126762   4.790   3.038   2.343
 8621SOL    HW226763   4.816   3.053   2.183
 8622SOL     OW26764   6.131   5.237   1.808
 8622SOL    HW126765   6.126   5.171   1.733
 8622SOL    HW226766   6.227   5.260   1.825
 8623SOL     OW26767   0.062   3.672   4.848
 8623SOL    HW126768   0.071   3.758   4.798
 8623SOL    HW226769   0.087   3.596   4.788
 8624SOL     OW26770   3.720   3.769   6.379
 8624SOL    HW126771   3.645   3.829   6.352
 8624SOL    HW226772   3.745   3.710   6.302
 8625SOL     OW26773   4.519   1.205   6.144
 8625SOL    HW126774   4.452   1.232   6.075
 8625SOL    HW226775   4.539   1.284   6.203
 8626SOL     OW26776   3.961   3.264   0.342
 8626SOL    HW126777   3.955   3.309   0.253
 8626SOL    HW226778   4.055   3.270   0.375
 8627SOL     OW26779   2.329   1.566   2.673
 8627SOL    HW126780   2.415   1.612   2.694
 8627SOL    HW226781   2.344   1.500   2.599
 8628SOL     OW26782   6.945   6.782   0.272
 8628SOL    HW126783   0.019   6.791   0.265
 8628SOL    HW226784   6.902   6.850   0.212
 8629SOL     OW26785   1.225   6.811   4.967
 8629SOL    HW126786   1.309   6.856   4.995
 8629SOL    HW226787   1.157   6.819   5.040
 8630SOL     OW26788   4.756   3.963   3.792
 8630SOL    HW126789   4.742   3.905   3.872
 8630SOL    HW226790   4.733   4.058   3.814
 8631SOL     OW26791   1.865   6.528   6.059
 8631SOL    HW126792   1.799   6.533   6.134
 8631SOL    HW226793   1.912   6.439   6.062
 8632SOL     OW26794   4.014   4.235   5.571
 8632SOL    HW126795   4.079   4.239   5.495
 8632SOL    HW226796   4.050   4.286   5.649
 8633SOL     OW26797   5.858   3.561   5.995
 8633SOL    HW126798   5.846   3.652   6.034
 8633SOL    HW226799   5.882   3.497   6.068
 8634SOL     OW26800   5.415   4.550   0.232
 8634SOL    HW126801   5.440   4.482   0.163
 8634SOL    HW226802   5.493   4.565   0.294
 8635SOL     OW26803   6.163   1.985   6.751
 8635SOL    HW126804   6.241   2.029   6.794
 8635SOL    HW226805   6.089   1.976   6.819
 8636SOL     OW26806   4.339   5.349   0.640
 8636SOL    HW126807   4.375   5.401   0.563
 8636SOL    HW226808   4.239   5.341   0.631
 8637SOL     OW26809   2.193   1.372   6.196
 8637SOL    HW126810   2.245   1.288   6.179
 8637SOL    HW226811   2.163   1.374   6.291
 8638SOL     OW26812   3.913   2.564   5.373
 8638SOL    HW126813   3.992   2.547   5.313
 8638SOL    HW226814   3.834   2.514   5.339
 8639SOL     OW26815   4.708   3.709   6.784
 8639SOL    HW126816   4.703   3.809   6.782
 8639SOL    HW226817   4.757   3.676   6.703
 8640SOL     OW26818   4.053   3.319   1.318
 8640SOL    HW126819   4.002   3.394   1.276
 8640SOL    HW226820   3.990   3.245   1.343
 8641SOL     OW26821   4.265   5.174   4.023
 8641SOL    HW126822   4.188   5.138   3.970
 8641SOL    HW226823   4.315   5.098   4.064
 8642SOL     OW26824   0.216   0.111   3.510
 8642SOL    HW126825   0.176   0.191   3.466
 8642SOL    HW226826   0.176   0.099   3.601
 8643SOL     OW26827   1.963   0.179   0.416
 8643SOL    HW126828   1.952   0.278   0.410
 8643SOL    HW226829   2.051   0.153   0.376
 8644SOL     OW26830   6.617   2.285   6.483
 8644SOL    HW126831   6.617   2.320   6.389
 8644SOL    HW226832   6.538   2.225   6.495
 8645SOL     OW26833   4.806   5.299   1.500
 8645SOL    HW126834   4.873   5.347   1.444
 8645SOL    HW226835   4.795   5.206   1.466
 8646SOL     OW26836   0.555   1.944   6.574
 8646SOL    HW126837   0.538   2.030   6.623
 8646SOL    HW226838   0.617   1.887   6.627
 8647SOL     OW26839   2.905   5.456   0.803
 8647SOL    HW126840   2.835   5.402   0.758
 8647SOL    HW226841   2.990   5.453   0.749
 8648SOL     OW26842   5.675   6.301   0.811
 8648SOL    HW126843   5.773   6.323   0.810
 8648SOL    HW226844   5.662   6.204   0.790
 8649SOL     OW26845   4.911   6.473   6.945
 8649SOL    HW126846   4.830   6.506   6.895
 8649SOL    HW226847   4.993   6.498   6.895
 8650SOL     OW26848   1.598   6.752   4.169
 8650SOL    HW126849   1.567   6.846   4.185
 8650SOL    HW226850   1.676   6.732   4.227
 8651SOL     OW26851   2.793   1.678   0.895
 8651SOL    HW126852   2.857   1.674   0.972
 8651SOL    HW226853   2.810   1.761   0.843
 8652SOL     OW26854   0.886   4.813   4.063
 8652SOL    HW126855   0.963   4.750   4.072
 8652SOL    HW226856   0.814   4.771   4.007
 8653SOL     OW26857   6.696   1.570   5.329
 8653SOL    HW126858   6.675   1.603   5.422
 8653SOL    HW226859   6.757   1.491   5.334
 8654SOL     OW26860   1.012   5.071   1.308
 8654SOL    HW126861   1.068   5.071   1.225
 8654SOL    HW226862   0.932   5.130   1.294
 8655SOL     OW26863   6.546   1.193   5.149
 8655SOL    HW126864   6.505   1.110   5.109
 8655SOL    HW226865   6.547   1.185   5.248
 8656SOL     OW26866   5.428   0.608   2.042
 8656SOL    HW126867   5.413   0.661   2.126
 8656SOL    HW226868   5.509   0.551   2.053
 8657SOL     OW26869   5.644   6.028   0.267
 8657SOL    HW126870   5.589   5.961   0.218
 8657SOL    HW226871   5.706   6.073   0.204
 8658SOL     OW26872   5.644   5.496   0.616
 8658SOL    HW126873   5.586   5.527   0.541
 8658SOL    HW226874   5.610   5.409   0.651
 8659SOL     OW26875   4.574   2.217   2.921
 8659SOL    HW126876   4.523   2.134   2.943
 8659SOL    HW226877   4.531   2.295   2.966
 8660SOL     OW26878   0.123   2.480   2.264
 8660SOL    HW126879   0.164   2.530   2.341
 8660SOL    HW226880   0.166   2.390   2.257
 8661SOL     OW26881   6.016   3.851   2.613
 8661SOL    HW126882   6.116   3.856   2.602
 8661SOL    HW226883   5.991   3.760   2.645
 8662SOL     OW26884   3.664   6.405   2.106
 8662SOL    HW126885   3.654   6.490   2.157
 8662SOL    HW226886   3.664   6.328   2.170
 8663SOL     OW26887   2.627   5.352   2.876
 8663SOL    HW126888   2.613   5.396   2.965
 8663SOL    HW226889   2.542   5.355   2.824
 8664SOL     OW26890   2.935   5.715   2.570
 8664SOL    HW126891   2.985   5.707   2.656
 8664SOL    HW226892   2.907   5.625   2.539
 8665SOL     OW26893   6.634   5.423   5.013
 8665SOL    HW126894   6.621   5.514   4.975
 8665SOL    HW226895   6.719   5.421   5.067
 8666SOL     OW26896   5.742   0.148   4.396
 8666SOL    HW126897   5.650   0.111   4.401
 8666SOL    HW226898   5.773   0.147   4.301
 8667SOL     OW26899   5.396   1.088   4.572
 8667SOL    HW126900   5.353   1.046   4.652
 8667SOL    HW226901   5.348   1.172   4.549
 8668SOL     OW26902   5.047   3.053   4.571
 8668SOL    HW126903   5.037   2.982   4.640
 8668SOL    HW226904   5.091   3.133   4.611
 8669SOL     OW26905   6.740   6.702   6.983
 8669SOL    HW126906   6.778   6.618   7.022
 8669SOL    HW226907   6.736   6.693   6.883
 8670SOL     OW26908   5.018   5.044   5.921
 8670SOL    HW126909   4.948   5.109   5.950
 8670SOL    HW226910   4.989   5.000   5.836
 8671SOL     OW26911   0.685   1.484   2.195
 8671SOL    HW126912   0.746   1.563   2.203
 8671SOL    HW226913   0.624   1.481   2.274
 8672SOL     OW26914   0.385   6.934   3.575
 8672SOL    HW126915   0.312   7.000   3.557
 8672SOL    HW226916   0.451   6.936   3.501
 8673SOL     OW26917   0.100   1.082   0.256
 8673SOL    HW126918   0.159   1.139   0.313
 8673SOL    HW226919   0.141   0.992   0.245
 8674SOL     OW26920   6.690   4.381   2.974
 8674SOL    HW126921   6.760   4.362   3.043
 8674SOL    HW226922   6.617   4.435   3.014
 8675SOL     OW26923   3.841   1.063   6.027
 8675SOL    HW126924   3.925   1.110   6.053
 8675SOL    HW226925   3.799   1.110   5.949
 8676SOL     OW26926   5.045   1.131   1.296
 8676SOL    HW126927   5.113   1.154   1.227
 8676SOL    HW226928   4.999   1.046   1.270
 8677SOL     OW26929   1.606   5.972   5.771
 8677SOL    HW126930   1.672   5.900   5.750
 8677SOL    HW226931   1.621   6.005   5.864
 8678SOL     OW26932   0.750   6.722   0.548
 8678SOL    HW126933   0.730   6.706   0.451
 8678SOL    HW226934   0.820   6.792   0.556
 8679SOL     OW26935   2.010   1.243   4.170
 8679SOL    HW126936   1.934   1.302   4.145
 8679SOL    HW226937   2.088   1.300   4.199
 8680SOL     OW26938   6.450   2.493   6.560
 8680SOL    HW126939   6.507   2.413   6.539
 8680SOL    HW226940   6.390   2.471   6.637
 8681SOL     OW26941   4.585   5.388   1.221
 8681SOL    HW126942   4.681   5.412   1.208
 8681SOL    HW226943   4.577   5.289   1.232
 8682SOL     OW26944   0.163   6.945   1.171
 8682SOL    HW126945   0.134   7.001   1.093
 8682SOL    HW226946   0.233   6.881   1.141
 8683SOL     OW26947   1.694   3.100   4.732
 8683SOL    HW126948   1.674   3.062   4.641
 8683SOL    HW226949   1.781   3.063   4.765
 8684SOL     OW26950   6.856   4.074   4.863
 8684SOL    HW126951   6.880   4.099   4.957
 8684SOL    HW226952   6.934   4.031   4.819
 8685SOL     OW26953   5.477   2.704   6.256
 8685SOL    HW126954   5.507   2.776   6.319
 8685SOL    HW226955   5.419   2.638   6.305
 8686SOL     OW26956   6.015   6.872   2.767
 8686SOL    HW126957   6.019   6.809   2.845
 8686SOL    HW226958   5.927   6.863   2.721
 8687SOL     OW26959   5.996   4.760   2.827
 8687SOL    HW126960   5.935   4.710   2.888
 8687SOL    HW226961   6.088   4.763   2.866
 8688SOL     OW26962   1.504   4.267   6.638
 8688SOL    HW126963   1.534   4.362   6.629
 8688SOL    HW226964   1.567   4.208   6.586
 8689SOL     OW26965   4.888   3.544   0.853
 8689SOL    HW126966   4.811   3.608   0.854
 8689SOL    HW226967   4.876   3.478   0.778
 8690SOL     OW26968   0.614   2.806   3.134
 8690SOL    HW126969   0.526   2.823   3.090
 8690SOL    HW226970   0.637   2.883   3.192
 8691SOL     OW26971   3.555   1.314   5.334
 8691SOL    HW126972   3.493   1.247   5.295
 8691SOL    HW226973   3.531   1.405   5.301
 8692SOL     OW26974   3.433   1.267   5.596
 8692SOL    HW126975   3.503   1.286   5.528
 8692SOL    HW226976   3.467   1.291   5.687
 8693SOL     OW26977   6.782   1.313   6.594
 8693SOL    HW126978   6.837   1.388   6.631
 8693SOL    HW226979   6.837   1.230   6.588
 8694SOL     OW26980   5.675   1.985   4.910
 8694SOL    HW126981   5.751   1.984   4.846
 8694SOL    HW226982   5.589   1.977   4.860
 8695SOL     OW26983   4.260   3.374   6.206
 8695SOL    HW126984   4.179   3.401   6.154
 8695SOL    HW226985   4.333   3.349   6.143
 8696SOL     OW26986   2.533   6.014   4.553
 8696SOL    HW126987   2.567   5.993   4.461
 8696SOL    HW226988   2.520   6.113   4.562
 8697SOL     OW26989   1.007   4.521   5.946
 8697SOL    HW126990   1.064   4.524   5.864
 8697SOL    HW226991   1.065   4.523   6.027
 8698SOL     OW26992   5.351   6.170   6.003
 8698SOL    HW126993   5.442   6.209   6.013
 8698SOL    HW226994   5.345   6.086   6.058
 8699SOL     OW26995   1.984   3.409   6.139
 8699SOL    HW126996   1.920   3.332   6.135
 8699SOL    HW226997   2.055   3.397   6.070
 8700SOL     OW26998   1.350   1.182   5.768
 8700SOL    HW126999   1.392   1.143   5.686
 8700SOL    HW227000   1.417   1.236   5.818
 8701SOL     OW27001   1.970   1.393   6.967
 8701SOL    HW127002   1.906   1.333   7.014
 8701SOL    HW227003   2.030   1.436   0.009
 8702SOL     OW27004   4.856   5.145   1.951
 8702SOL    HW127005   4.831   5.067   1.894
 8702SOL    HW227006   4.877   5.223   1.892
 8703SOL     OW27007   3.080   4.481   6.813
 8703SOL    HW127008   2.986   4.471   6.844
 8703SOL    HW227009   3.134   4.402   6.843
 8704SOL     OW27010   6.996   3.258   3.962
 8704SOL    HW127011   6.911   3.229   4.007
 8704SOL    HW227012   7.004   3.358   3.968
 8705SOL     OW27013   4.401   2.187   6.782
 8705SOL    HW127014   4.460   2.267   6.787
 8705SOL    HW227015   4.455   2.107   6.755
 8706SOL     OW27016   5.879   2.655   0.259
 8706SOL    HW127017   5.828   2.577   0.224
 8706SOL    HW227018   5.975   2.630   0.269
 8707SOL     OW27019   0.735   2.631   3.412
 8707SOL    HW127020   0.753   2.703   3.345
 8707SOL    HW227021   0.820   2.584   3.435
 8708SOL     OW27022   4.547   1.754   4.045
 8708SOL    HW127023   4.558   1.831   3.982
 8708SOL    HW227024   4.628   1.695   4.039
 8709SOL     OW27025   6.735   6.967   6.837
 8709SOL    HW127026   6.742   0.035   6.801
 8709SOL    HW227027   6.780   6.904   6.774
 8710SOL     OW27028   1.926   2.273   3.524
 8710SOL    HW127029   2.011   2.321   3.546
 8710SOL    HW227030   1.896   2.220   3.603
 8711SOL     OW27031   1.466   0.518   1.549
 8711SOL    HW127032   1.458   0.609   1.588
 8711SOL    HW227033   1.378   0.493   1.507
 8712SOL     OW27034   2.884   1.787   4.672
 8712SOL    HW127035   2.909   1.881   4.650
 8712SOL    HW227036   2.866   1.780   4.770
 8713SOL     OW27037   0.305   3.989   1.445
 8713SOL    HW127038   0.377   4.059   1.439
 8713SOL    HW227039   0.347   3.899   1.451
 8714SOL     OW27040   0.598   6.362   0.050
 8714SOL    HW127041   0.601   6.310   0.136
 8714SOL    HW227042   0.609   6.299   6.999
 8715SOL     OW27043   3.197   1.932   6.982
 8715SOL    HW127044   3.265   1.945   0.029
 8715SOL    HW227045   3.239   1.882   6.906
 8716SOL     OW27046   6.799   6.652   0.892
 8716SOL    HW127047   6.848   6.590   0.831
 8716SOL    HW227048   6.800   6.744   0.853
 8717SOL     OW27049   2.244   3.101   6.120
 8717SOL    HW127050   2.193   3.038   6.179
 8717SOL    HW227051   2.329   3.058   6.091
 8718SOL     OW27052   1.535   2.792   6.355
 8718SOL    HW127053   1.590   2.854   6.410
 8718SOL    HW227054   1.526   2.828   6.262
 8719SOL     OW27055   4.331   1.161   6.953
 8719SOL    HW127056   4.287   1.128   0.010
 8719SOL    HW227057   4.314   1.259   6.943
 8720SOL     OW27058   0.014   5.188   5.758
 8720SOL    HW127059   0.064   5.101   5.753
 8720SOL    HW227060   0.042   5.238   5.839
 8721SOL     OW27061   6.535   6.853   0.322
 8721SOL    HW127062   6.542   6.951   0.304
 8721SOL    HW227063   6.602   6.828   0.392
 8722SOL     OW27064   3.252   1.047   0.543
 8722SOL    HW127065   3.304   1.082   0.622
 8722SOL    HW227066   3.224   1.123   0.485
 8723SOL     OW27067   5.561   6.727   2.356
 8723SOL    HW127068   5.593   6.804   2.300
 8723SOL    HW227069   5.510   6.761   2.434
 8724SOL     OW27070   5.284   0.239   4.448
 8724SOL    HW127071   5.329   0.258   4.361
 8724SOL    HW227072   5.186   0.261   4.440
 8725SOL     OW27073   0.590   6.290   4.718
 8725SOL    HW127074   0.654   6.222   4.684
 8725SOL    HW227075   0.554   6.260   4.806
 8726SOL     OW27076   7.017   1.310   0.518
 8726SOL    HW127077   6.921   1.291   0.501
 8726SOL    HW227078   0.014   1.288   0.613
 8727SOL     OW27079   5.852   6.948   0.023
 8727SOL    HW127080   5.859   6.926   0.120
 8727SOL    HW227081   5.823   6.867   6.998
 8728SOL     OW27082   5.148   1.432   2.224
 8728SOL    HW127083   5.155   1.513   2.165
 8728SOL    HW227084   5.169   1.458   2.318
 8729SOL     OW27085   2.962   5.600   5.676
 8729SOL    HW127086   2.879   5.565   5.632
 8729SOL    HW227087   2.938   5.645   5.763
 8730SOL     OW27088   4.711   4.749   3.311
 8730SOL    HW127089   4.614   4.763   3.292
 8730SOL    HW227090   4.764   4.763   3.227
 8731SOL     OW27091   0.521   2.964   2.789
 8731SOL    HW127092   0.487   2.937   2.880
 8731SOL    HW227093   0.523   3.064   2.783
 8732SOL     OW27094   5.274   4.634   1.315
 8732SOL    HW127095   5.183   4.675   1.305
 8732SOL    HW227096   5.302   4.640   1.411
 8733SOL     OW27097   0.535   5.827   1.208
 8733SOL    HW127098   0.603   5.785   1.147
 8733SOL    HW227099   0.573   5.834   1.300
 8734SOL     OW27100   0.015   3.336   2.472
 8734SOL    HW127101   6.967   3.371   2.414
 8734SOL    HW227102   7.004   3.270   2.538
 8735SOL     OW27103   1.272   3.656   5.078
 8735SOL    HW127104   1.281   3.564   5.040
 8735SOL    HW227105   1.176   3.674   5.098
 8736SOL     OW27106   0.678   5.179   2.132
 8736SOL    HW127107   0.676   5.189   2.032
 8736SOL    HW227108   0.596   5.219   2.172
 8737SOL     OW27109   2.633   6.154   6.126
 8737SOL    HW127110   2.598   6.243   6.099
 8737SOL    HW227111   2.722   6.165   6.171
 8738SOL     OW27112   1.700   4.227   3.332
 8738SOL    HW127113   1.719   4.324   3.319
 8738SOL    HW227114   1.643   4.213   3.412
 8739SOL     OW27115   5.311   4.476   4.842
 8739SOL    HW127116   5.251   4.449   4.767
 8739SOL    HW227117   5.325   4.397   4.903
 8740SOL     OW27118   3.920   2.151   2.630
 8740SOL    HW127119   3.982   2.208   2.683
 8740SOL    HW227120   3.954   2.142   2.536
 8741SOL     OW27121   2.770   0.145   2.265
 8741SOL    HW127122   2.789   0.088   2.345
 8741SOL    HW227123   2.710   0.096   2.202
 8742SOL     OW27124   3.997   1.217   2.552
 8742SOL    HW127125   4.054   1.140   2.580
 8742SOL    HW227126   4.015   1.239   2.456
 8743SOL     OW27127   1.923   1.336   2.221
 8743SOL    HW127128   1.868   1.389   2.156
 8743SOL    HW227129   1.919   1.239   2.197
 8744SOL     OW27130   4.782   2.819   0.319
 8744SOL    HW127131   4.743   2.745   0.264
 8744SOL    HW227132   4.876   2.836   0.290
 8745SOL     OW27133   0.007   2.248   6.104
 8745SOL    HW127134   0.060   2.323   6.064
 8745SOL    HW227135   0.022   2.246   6.203
 8746SOL     OW27136   4.737   5.579   4.715
 8746SOL    HW127137   4.798   5.550   4.789
 8746SOL    HW227138   4.783   5.563   4.627
 8747SOL     OW27139   6.951   1.325   1.973
 8747SOL    HW127140   6.938   1.253   2.042
 8747SOL    HW227141   6.865   1.375   1.962
 8748SOL     OW27142   1.242   1.782   4.189
 8748SOL    HW127143   1.302   1.743   4.119
 8748SOL    HW227144   1.168   1.833   4.145
 8749SOL     OW27145   2.072   1.205   5.589
 8749SOL    HW127146   2.099   1.227   5.496
 8749SOL    HW227147   1.983   1.160   5.589
 8750SOL     OW27148   4.071   2.767   5.623
 8750SOL    HW127149   4.101   2.814   5.706
 8750SOL    HW227150   3.986   2.718   5.640
 8751SOL     OW27151   6.687   0.324   0.573
 8751SOL    HW127152   6.764   0.351   0.630
 8751SOL    HW227153   6.601   0.350   0.618
 8752SOL     OW27154   5.381   2.996   6.847
 8752SOL    HW127155   5.415   3.015   6.939
 8752SOL    HW227156   5.453   2.953   6.793
 8753SOL     OW27157   2.310   3.759   6.853
 8753SOL    HW127158   2.305   3.685   6.786
 8753SOL    HW227159   2.355   3.726   6.936
 8754SOL     OW27160   3.009   4.892   5.949
 8754SOL    HW127161   3.069   4.859   5.876
 8754SOL    HW227162   3.040   4.854   6.036
 8755SOL     OW27163   1.237   0.927   1.060
 8755SOL    HW127164   1.318   0.977   1.028
 8755SOL    HW227165   1.175   0.911   0.983
 8756SOL     OW27166   1.834   2.737   3.263
 8756SOL    HW127167   1.877   2.708   3.349
 8756SOL    HW227168   1.861   2.831   3.243
 8757SOL     OW27169   5.044   6.248   6.019
 8757SOL    HW127170   5.129   6.221   5.973
 8757SOL    HW227171   5.048   6.346   6.040
 8758SOL     OW27172   4.467   6.961   3.300
 8758SOL    HW127173   4.500   6.902   3.373
 8758SOL    HW227174   4.489   0.031   3.321
 8759SOL     OW27175   6.062   1.730   6.957
 8759SOL    HW127176   5.999   1.656   6.981
 8759SOL    HW227177   6.015   1.818   6.965
 8760SOL     OW27178   2.147   2.282   3.769
 8760SOL    HW127179   2.192   2.239   3.690
 8760SOL    HW227180   2.187   2.246   3.853
 8761SOL     OW27181   5.621   2.001   1.840
 8761SOL    HW127182   5.712   1.973   1.871
 8761SOL    HW227183   5.556   1.993   1.916
 8762SOL     OW27184   1.777   6.066   3.437
 8762SOL    HW127185   1.690   6.043   3.481
 8762SOL    HW227186   1.789   6.008   3.356
 8763SOL     OW27187   6.600   0.769   4.763
 8763SOL    HW127188   6.516   0.795   4.716
 8763SOL    HW227189   6.644   0.694   4.714
 8764SOL     OW27190   4.595   5.908   6.044
 8764SOL    HW127191   4.593   5.873   5.950
 8764SOL    HW227192   4.687   5.941   6.065
 8765SOL     OW27193   5.485   1.058   4.969
 8765SOL    HW127194   5.483   1.097   5.062
 8765SOL    HW227195   5.527   1.123   4.906
 8766SOL     OW27196   4.204   4.339   5.381
 8766SOL    HW127197   4.182   4.388   5.297
 8766SOL    HW227198   4.296   4.300   5.373
 8767SOL     OW27199   3.406   0.268   3.800
 8767SOL    HW127200   3.420   0.355   3.847
 8767SOL    HW227201   3.488   0.211   3.810
 8768SOL     OW27202   0.794   2.236   0.333
 8768SOL    HW127203   0.804   2.335   0.339
 8768SOL    HW227204   0.822   2.194   0.419
 8769SOL     OW27205   6.893   0.896   1.871
 8769SOL    HW127206   6.895   0.855   1.962
 8769SOL    HW227207   6.975   0.869   1.820
 8770SOL     OW27208   5.626   4.429   2.064
 8770SOL    HW127209   5.698   4.437   1.996
 8770SOL    HW227210   5.538   4.449   2.022
 8771SOL     OW27211   0.706   3.040   6.172
 8771SOL    HW127212   0.665   3.007   6.087
 8771SOL    HW227213   0.806   3.036   6.164
 8772SOL     OW27214   5.093   0.846   5.226
 8772SOL    HW127215   5.182   0.838   5.180
 8772SOL    HW227216   5.052   0.935   5.205
 8773SOL     OW27217   6.069   2.575   3.679
 8773SOL    HW127218   6.112   2.661   3.651
 8773SOL    HW227219   5.972   2.592   3.698
 8774SOL     OW27220   0.717   6.795   6.222
 8774SOL    HW127221   0.814   6.813   6.241
 8774SOL    HW227222   0.705   6.773   6.125
 8775SOL     OW27223   5.467   1.677   5.378
 8775SOL    HW127224   5.485   1.710   5.286
 8775SOL    HW227225   5.553   1.654   5.423
 8776SOL     OW27226   5.028   3.357   1.341
 8776SOL    HW127227   5.089   3.385   1.267
 8776SOL    HW227228   5.058   3.268   1.376
 8777SOL     OW27229   0.587   3.599   3.147
 8777SOL    HW127230   0.677   3.639   3.132
 8777SOL    HW227231   0.520   3.673   3.159
 8778SOL     OW27232   4.560   4.137   5.968
 8778SOL    HW127233   4.561   4.186   6.055
 8778SOL    HW227234   4.642   4.159   5.916
 8779SOL     OW27235   2.589   5.453   2.536
 8779SOL    HW127236   2.519   5.450   2.465
 8779SOL    HW227237   2.676   5.484   2.496
 8780SOL     OW27238   0.366   6.145   2.558
 8780SOL    HW127239   0.367   6.071   2.491
 8780SOL    HW227240   0.332   6.110   2.645
 8781SOL     OW27241   4.359   6.925   3.069
 8781SOL    HW127242   4.412   6.934   3.154
 8781SOL    HW227243   4.310   6.838   3.070
 8782SOL     OW27244   6.017   1.342   2.162
 8782SOL    HW127245   5.938   1.289   2.191
 8782SOL    HW227246   6.101   1.290   2.178
 8783SOL     OW27247   5.899   2.994   4.185
 8783SOL    HW127248   5.924   2.897   4.187
 8783SOL    HW227249   5.913   3.031   4.093
 8784SOL     OW27250   6.361   6.273   0.543
 8784SOL    HW127251   6.401   6.268   0.452
 8784SOL    HW227252   6.368   6.184   0.587
 8785SOL     OW27253   0.471   5.437   6.240
 8785SOL    HW127254   0.457   5.362   6.305
 8785SOL    HW227255   0.434   5.412   6.151
 8786SOL     OW27256   4.063   1.920   2.635
 8786SOL    HW127257   3.998   1.846   2.654
 8786SOL    HW227258   4.017   2.008   2.646
 8787SOL     OW27259   3.540   0.681   1.412
 8787SOL    HW127260   3.479   0.743   1.461
 8787SOL    HW227261   3.509   0.671   1.317
 8788SOL     OW27262   6.694   0.859   5.201
 8788SOL    HW127263   6.654   0.863   5.109
 8788SOL    HW227264   6.745   0.773   5.211
 8789SOL     OW27265   6.773   4.236   5.190
 8789SOL    HW127266   6.856   4.192   5.154
 8789SOL    HW227267   6.770   4.331   5.160
 8790SOL     OW27268   6.520   1.909   0.489
 8790SOL    HW127269   6.482   1.899   0.397
 8790SOL    HW227270   6.560   1.822   0.518
 8791SOL     OW27271   4.675   6.384   4.980
 8791SOL    HW127272   4.717   6.295   4.997
 8791SOL    HW227273   4.734   6.439   4.922
 8792SOL     OW27274   3.346   5.399   2.277
 8792SOL    HW127275   3.410   5.373   2.350
 8792SOL    HW227276   3.340   5.499   2.272
 8793SOL     OW27277   0.825   4.575   4.491
 8793SOL    HW127278   0.850   4.556   4.396
 8793SOL    HW227279   0.725   4.573   4.499
 8794SOL     OW27280   6.341   1.047   3.383
 8794SOL    HW127281   6.324   1.091   3.471
 8794SOL    HW227282   6.328   1.114   3.309
 8795SOL     OW27283   1.209   5.127   5.227
 8795SOL    HW127284   1.138   5.126   5.298
 8795SOL    HW227285   1.230   5.222   5.203
 8796SOL     OW27286   6.118   3.730   3.079
 8796SOL    HW127287   6.129   3.817   3.030
 8796SOL    HW227288   6.197   3.716   3.139
 8797SOL     OW27289   0.193   0.032   4.207
 8797SOL    HW127290   0.253   6.991   4.249
 8797SOL    HW227291   0.216   0.043   4.110
 8798SOL     OW27292   4.510   6.554   5.628
 8798SOL    HW127293   4.578   6.602   5.683
 8798SOL    HW227294   4.422   6.554   5.675
 8799SOL     OW27295   1.949   4.800   1.973
 8799SOL    HW127296   2.036   4.771   2.012
 8799SOL    HW227297   1.875   4.748   2.015
 8800SOL     OW27298   6.039   6.067   5.609
 8800SOL    HW127299   6.075   6.034   5.522
 8800SOL    HW227300   6.025   5.989   5.671
 8801SOL     OW27301   5.976   2.012   5.468
 8801SOL    HW127302   6.023   1.924   5.474
 8801SOL    HW227303   5.936   2.022   5.377
 8802SOL     OW27304   1.338   5.758   5.131
 8802SOL    HW127305   1.303   5.849   5.153
 8802SOL    HW227306   1.390   5.722   5.208
 8803SOL     OW27307   6.880   0.933   0.222
 8803SOL    HW127308   6.939   1.000   0.266
 8803SOL    HW227309   6.859   0.860   0.287
 8804SOL     OW27310   2.242   6.252   0.948
 8804SOL    HW127311   2.151   6.224   0.981
 8804SOL    HW227312   2.268   6.195   0.871
 8805SOL     OW27313   4.292   5.607   3.837
 8805SOL    HW127314   4.380   5.576   3.803
 8805SOL    HW227315   4.279   5.703   3.815
 8806SOL     OW27316   2.376   5.782   0.521
 8806SOL    HW127317   2.406   5.836   0.600
 8806SOL    HW227318   2.277   5.767   0.526
 8807SOL     OW27319   4.560   2.222   0.084
 8807SOL    HW127320   4.542   2.127   0.109
 8807SOL    HW227321   4.478   2.262   0.043
 8808SOL     OW27322   1.213   2.526   6.850
 8808SOL    HW127323   1.243   2.436   6.821
 8808SOL    HW227324   1.156   2.568   6.780
 8809SOL     OW27325   2.260   4.112   3.367
 8809SOL    HW127326   2.299   4.154   3.449
 8809SOL    HW227327   2.160   4.115   3.373
 8810SOL     OW27328   5.974   1.210   5.497
 8810SOL    HW127329   6.032   1.168   5.427
 8810SOL    HW227330   6.020   1.204   5.586
 8811SOL     OW27331   4.807   0.534   2.677
 8811SOL    HW127332   4.714   0.537   2.712
 8811SOL    HW227333   4.805   0.534   2.577
 8812SOL     OW27334   3.102   0.280   6.645
 8812SOL    HW127335   3.177   0.234   6.691
 8812SOL    HW227336   3.031   0.305   6.711
 8813SOL     OW27337   2.372   4.333   2.363
 8813SOL    HW127338   2.315   4.277   2.423
 8813SOL    HW227339   2.458   4.286   2.343
 8814SOL     OW27340   5.339   6.561   0.572
 8814SOL    HW127341   5.421   6.544   0.516
 8814SOL    HW227342   5.262   6.581   0.513
 8815SOL     OW27343   5.451   0.870   1.196
 8815SOL    HW127344   5.485   0.790   1.246
 8815SOL    HW227345   5.352   0.864   1.188
 8816SOL     OW27346   0.118   6.539   6.741
 8816SOL    HW127347   0.209   6.572   6.768
 8816SOL    HW227348   0.102   6.560   6.645
 8817SOL     OW27349   0.733   3.380   4.206
 8817SOL    HW127350   0.799   3.453   4.221
 8817SOL    HW227351   0.648   3.419   4.171
 8818SOL     OW27352   1.429   6.528   3.202
 8818SOL    HW127353   1.406   6.621   3.232
 8818SOL    HW227354   1.374   6.504   3.122
 8819SOL     OW27355   5.738   4.581   5.201
 8819SOL    HW127356   5.714   4.615   5.110
 8819SOL    HW227357   5.728   4.654   5.268
 8820SOL     OW27358   2.991   1.369   4.716
 8820SOL    HW127359   3.080   1.397   4.678
 8820SOL    HW227360   3.000   1.350   4.813
 8821SOL     OW27361   0.879   4.876   0.335
 8821SOL    HW127362   0.911   4.971   0.335
 8821SOL    HW227363   0.788   4.872   0.295
 8822SOL     OW27364   0.081   0.312   3.396
 8822SOL    HW127365   0.113   0.404   3.417
 8822SOL    HW227366   7.020   0.295   3.444
 8823SOL     OW27367   2.325   0.527   2.599
 8823SOL    HW127368   2.256   0.458   2.578
 8823SOL    HW227369   2.372   0.553   2.514
 8824SOL     OW27370   1.605   7.004   1.364
 8824SOL    HW127371   1.686   6.995   1.423
 8824SOL    HW227372   1.608   0.066   1.316
 8825SOL     OW27373   0.274   0.560   1.327
 8825SOL    HW127374   0.328   0.641   1.303
 8825SOL    HW227375   0.333   0.479   1.323
 8826SOL     OW27376   0.989   3.289   0.651
 8826SOL    HW127377   1.049   3.339   0.588
 8826SOL    HW227378   1.032   3.283   0.741
 8827SOL     OW27379   4.136   0.578   2.279
 8827SOL    HW127380   4.108   0.580   2.183
 8827SOL    HW227381   4.206   0.648   2.294
 8828SOL     OW27382   4.097   4.327   6.620
 8828SOL    HW127383   4.189   4.301   6.591
 8828SOL    HW227384   4.040   4.344   6.539
 8829SOL     OW27385   6.084   1.823   2.060
 8829SOL    HW127386   6.123   1.749   2.005
 8829SOL    HW227387   6.149   1.848   2.132
 8830SOL     OW27388   1.520   1.618   2.140
 8830SOL    HW127389   1.430   1.633   2.097
 8830SOL    HW227390   1.523   1.665   2.228
 8831SOL     OW27391   6.505   3.052   2.543
 8831SOL    HW127392   6.509   3.138   2.493
 8831SOL    HW227393   6.527   2.976   2.481
 8832SOL     OW27394   0.034   6.333   4.315
 8832SOL    HW127395   6.974   6.374   4.284
 8832SOL    HW227396   0.091   6.404   4.357
 8833SOL     OW27397   3.463   3.760   0.852
 8833SOL    HW127398   3.477   3.704   0.771
 8833SOL    HW227399   3.412   3.708   0.920
 8834SOL     OW27400   5.808   3.328   5.138
 8834SOL    HW127401   5.862   3.300   5.217
 8834SOL    HW227402   5.822   3.426   5.121
 8835SOL     OW27403   5.753   1.056   5.759
 8835SOL    HW127404   5.794   1.147   5.763
 8835SOL    HW227405   5.808   0.992   5.812
 8836SOL     OW27406   6.247   2.312   0.538
 8836SOL    HW127407   6.201   2.370   0.605
 8836SOL    HW227408   6.318   2.365   0.492
 8837SOL     OW27409   0.227   0.223   1.575
 8837SOL    HW127410   0.157   0.295   1.576
 8837SOL    HW227411   0.188   0.139   1.537
 8838SOL     OW27412   0.819   4.622   2.360
 8838SOL    HW127413   0.878   4.692   2.400
 8838SOL    HW227414   0.834   4.619   2.261
 8839SOL     OW27415   5.075   5.442   2.481
 8839SOL    HW127416   4.980   5.450   2.448
 8839SOL    HW227417   5.116   5.360   2.443
 8840SOL     OW27418   6.214   0.359   1.934
 8840SOL    HW127419   6.310   0.344   1.908
 8840SOL    HW227420   6.209   0.436   1.998
 8841SOL     OW27421   4.223   0.871   2.119
 8841SOL    HW127422   4.133   0.872   2.075
 8841SOL    HW227423   4.280   0.944   2.080
 8842SOL     OW27424   3.302   4.036   4.352
 8842SOL    HW127425   3.221   3.999   4.396
 8842SOL    HW227426   3.291   4.031   4.252
 8843SOL     OW27427   1.768   3.298   4.943
 8843SOL    HW127428   1.753   3.241   4.861
 8843SOL    HW227429   1.865   3.315   4.954
 8844SOL     OW27430   7.025   2.405   5.414
 8844SOL    HW127431   6.943   2.362   5.375
 8844SOL    HW227432   0.072   2.407   5.346
 8845SOL     OW27433   2.000   5.177   1.064
 8845SOL    HW127434   1.929   5.221   1.119
 8845SOL    HW227435   2.017   5.231   0.982
 8846SOL     OW27436   5.246   5.156   4.205
 8846SOL    HW127437   5.207   5.242   4.240
 8846SOL    HW227438   5.299   5.112   4.278
 8847SOL     OW27439   1.587   1.278   2.246
 8847SOL    HW127440   1.588   1.306   2.342
 8847SOL    HW227441   1.501   1.307   2.204
 8848SOL     OW27442   3.227   2.116   2.094
 8848SOL    HW127443   3.163   2.107   2.170
 8848SOL    HW227444   3.176   2.125   2.008
 8849SOL     OW27445   2.732   5.350   4.267
 8849SOL    HW127446   2.820   5.366   4.311
 8849SOL    HW227447   2.693   5.438   4.238
 8850SOL     OW27448   2.771   1.104   0.935
 8850SOL    HW127449   2.789   1.006   0.927
 8850SOL    HW227450   2.847   1.149   0.982
 8851SOL     OW27451   1.094   4.569   2.260
 8851SOL    HW127452   1.173   4.511   2.245
 8851SOL    HW227453   1.108   4.626   2.341
 8852SOL     OW27454   5.086   3.027   6.457
 8852SOL    HW127455   5.014   3.015   6.389
 8852SOL    HW227456   5.094   3.124   6.480
 8853SOL     OW27457   3.886   0.739   4.219
 8853SOL    HW127458   3.918   0.833   4.232
 8853SOL    HW227459   3.889   0.690   4.306
 8854SOL     OW27460   2.189   0.564   6.178
 8854SOL    HW127461   2.099   0.576   6.221
 8854SOL    HW227462   2.260   0.597   6.241
 8855SOL     OW27463   6.566   5.638   0.012
 8855SOL    HW127464   6.539   5.552   0.054
 8855SOL    HW227465   6.560   5.630   6.938
 8856SOL     OW27466   6.684   0.027   5.008
 8856SOL    HW127467   6.727   0.079   4.935
 8856SOL    HW227468   6.587   0.013   4.987
 8857SOL     OW27469   6.281   1.688   3.291
 8857SOL    HW127470   6.297   1.676   3.389
 8857SOL    HW227471   6.328   1.616   3.241
 8858SOL     OW27472   1.656   3.575   5.635
 8858SOL    HW127473   1.704   3.557   5.549
 8858SOL    HW227474   1.688   3.661   5.674
 8859SOL     OW27475   0.796   6.935   5.200
 8859SOL    HW127476   0.821   0.003   5.176
 8859SOL    HW227477   0.766   6.931   5.295
 8860SOL     OW27478   1.862   3.951   2.606
 8860SOL    HW127479   1.953   3.954   2.566
 8860SOL    HW227480   1.844   4.037   2.654
 8861SOL     OW27481   3.319   2.631   6.300
 8861SOL    HW127482   3.238   2.651   6.355
 8861SOL    HW227483   3.380   2.710   6.300
 8862SOL     OW27484   5.934   1.477   3.861
 8862SOL    HW127485   5.890   1.548   3.806
 8862SOL    HW227486   6.029   1.466   3.831
 8863SOL     OW27487   1.876   5.350   4.553
 8863SOL    HW127488   1.909   5.406   4.477
 8863SOL    HW227489   1.792   5.390   4.590
 8864SOL     OW27490   2.420   3.196   6.396
 8864SOL    HW127491   2.447   3.289   6.422
 8864SOL    HW227492   2.421   3.187   6.297
 8865SOL     OW27493   3.119   1.055   4.659
 8865SOL    HW127494   3.027   1.080   4.627
 8865SOL    HW227495   3.183   1.061   4.583
 8866SOL     OW27496   4.459   6.428   3.402
 8866SOL    HW127497   4.432   6.405   3.309
 8866SOL    HW227498   4.387   6.401   3.466
 8867SOL     OW27499   5.255   2.592   3.201
 8867SOL    HW127500   5.289   2.610   3.109
 8867SOL    HW227501   5.230   2.496   3.209
 8868SOL     OW27502   5.474   3.709   0.706
 8868SOL    HW127503   5.492   3.796   0.751
 8868SOL    HW227504   5.552   3.647   0.723
 8869SOL     OW27505   4.102   5.129   3.282
 8869SOL    HW127506   4.128   5.032   3.279
 8869SOL    HW227507   4.009   5.140   3.246
 8870SOL     OW27508   2.968   0.283   0.783
 8870SOL    HW127509   2.886   0.331   0.812
 8870SOL    HW227510   2.982   0.202   0.840
 8871SOL     OW27511   3.298   1.677   3.640
 8871SOL    HW127512   3.209   1.665   3.683
 8871SOL    HW227513   3.325   1.592   3.595
 8872SOL     OW27514   1.636   3.802   4.539
 8872SOL    HW127515   1.711   3.816   4.603
 8872SOL    HW227516   1.646   3.713   4.495
 8873SOL     OW27517   6.253   5.809   2.119
 8873SOL    HW127518   6.271   5.879   2.188
 8873SOL    HW227519   6.160   5.774   2.129
 8874SOL     OW27520   2.389   0.127   1.276
 8874SOL    HW127521   2.405   0.046   1.219
 8874SOL    HW227522   2.297   0.162   1.260
 8875SOL     OW27523   0.936   2.615   4.557
 8875SOL    HW127524   0.940   2.593   4.654
 8875SOL    HW227525   1.026   2.601   4.515
 8876SOL     OW27526   0.571   0.547   4.721
 8876SOL    HW127527   0.560   0.497   4.634
 8876SOL    HW227528   0.484   0.589   4.746
 8877SOL     OW27529   2.715   0.418   4.247
 8877SOL    HW127530   2.759   0.467   4.322
 8877SOL    HW227531   2.615   0.431   4.253
 8878SOL     OW27532   0.611   5.131   1.137
 8878SOL    HW127533   0.591   5.094   1.046
 8878SOL    HW227534   0.530   5.178   1.172
 8879SOL     OW27535   5.663   5.153   1.048
 8879SOL    HW127536   5.634   5.243   1.081
 8879SOL    HW227537   5.591   5.086   1.068
 8880SOL     OW27538   0.585   5.895   4.833
 8880SOL    HW127539   0.586   5.811   4.778
 8880SOL    HW227540   0.672   5.943   4.822
 8881SOL     OW27541   5.659   0.215   3.370
 8881SOL    HW127542   5.716   0.285   3.414
 8881SOL    HW227543   5.591   0.183   3.436
 8882SOL     OW27544   5.021   0.828   0.519
 8882SOL    HW127545   5.067   0.815   0.432
 8882SOL    HW227546   4.977   0.918   0.521
 8883SOL     OW27547   0.528   1.068   6.056
 8883SOL    HW127548   0.522   0.994   6.123
 8883SOL    HW227549   0.439   1.114   6.050
 8884SOL     OW27550   5.791   6.363   6.541
 8884SOL    HW127551   5.724   6.374   6.614
 8884SOL    HW227552   5.861   6.434   6.548
 8885SOL     OW27553   6.374   3.623   1.346
 8885SOL    HW127554   6.408   3.690   1.413
 8885SOL    HW227555   6.322   3.552   1.394
 8886SOL     OW27556   3.281   5.966   5.750
 8886SOL    HW127557   3.245   5.993   5.661
 8886SOL    HW227558   3.205   5.941   5.811
 8887SOL     OW27559   3.082   1.493   1.321
 8887SOL    HW127560   3.117   1.493   1.415
 8887SOL    HW227561   3.155   1.522   1.259
 8888SOL     OW27562   1.310   1.914   1.396
 8888SOL    HW127563   1.215   1.938   1.374
 8888SOL    HW227564   1.321   1.910   1.495
 8889SOL     OW27565   4.916   6.471   5.769
 8889SOL    HW127566   4.967   6.424   5.696
 8889SOL    HW227567   4.845   6.410   5.804
 8890SOL     OW27568   6.566   6.244   4.876
 8890SOL    HW127569   6.538   6.148   4.873
 8890SOL    HW227570   6.652   6.255   4.826
 8891SOL     OW27571   5.849   3.379   6.195
 8891SOL    HW127572   5.872   3.447   6.264
 8891SOL    HW227573   5.829   3.292   6.240
 8892SOL     OW27574   2.817   6.328   3.501
 8892SOL    HW127575   2.735   6.320   3.444
 8892SOL    HW227576   2.834   6.242   3.549
 8893SOL     OW27577   0.687   0.470   1.975
 8893SOL    HW127578   0.679   0.566   1.948
 8893SOL    HW227579   0.783   0.449   1.995
 8894SOL     OW27580   3.751   3.347   5.987
 8894SOL    HW127581   3.790   3.373   5.898
 8894SOL    HW227582   3.653   3.366   5.987
 8895SOL     OW27583   0.004   0.404   1.643
 8895SOL    HW127584   6.931   0.388   1.640
 8895SOL    HW227585   0.022   0.501   1.627
 8896SOL     OW27586   1.132   3.212   4.653
 8896SOL    HW127587   1.062   3.148   4.622
 8896SOL    HW227588   1.206   3.161   4.697
 8897SOL     OW27589   1.275   1.695   2.359
 8897SOL    HW127590   1.226   1.658   2.439
 8897SOL    HW227591   1.252   1.641   2.278
 8898SOL     OW27592   5.987   3.118   4.434
 8898SOL    HW127593   5.991   3.080   4.342
 8898SOL    HW227594   5.892   3.139   4.458
 8899SOL     OW27595   1.574   4.067   0.090
 8899SOL    HW127596   1.666   4.066   0.052
 8899SOL    HW227597   1.559   3.983   0.144
 8900SOL     OW27598   5.482   3.758   2.605
 8900SOL    HW127599   5.467   3.692   2.531
 8900SOL    HW227600   5.451   3.720   2.692
 8901SOL     OW27601   2.939   0.648   3.924
 8901SOL    HW127602   2.982   0.599   4.000
 8901SOL    HW227603   2.891   0.728   3.959
 8902SOL     OW27604   3.278   6.062   6.355
 8902SOL    HW127605   3.334   5.980   6.343
 8902SOL    HW227606   3.183   6.036   6.370
 8903SOL     OW27607   2.453   0.887   4.103
 8903SOL    HW127608   2.475   0.984   4.092
 8903SOL    HW227609   2.482   0.857   4.194
 8904SOL     OW27610   0.021   5.201   3.690
 8904SOL    HW127611   0.087   5.226   3.618
 8904SOL    HW227612   6.997   5.119   3.661
 8905SOL     OW27613   1.925   4.141   4.435
 8905SOL    HW127614   1.878   4.060   4.399
 8905SOL    HW227615   1.868   4.184   4.506
 8906SOL     OW27616   6.856   6.756   6.671
 8906SOL    HW127617   6.801   6.791   6.595
 8906SOL    HW227618   6.926   6.694   6.636
 8907SOL     OW27619   3.077   2.119   5.231
 8907SOL    HW127620   3.030   2.096   5.146
 8907SOL    HW227621   3.124   2.207   5.220
 8908SOL     OW27622   1.421   3.194   6.945
 8908SOL    HW127623   1.379   3.159   0.002
 8908SOL    HW227624   1.437   3.119   6.881
 8909SOL     OW27625   1.781   0.400   5.173
 8909SOL    HW127626   1.745   0.444   5.091
 8909SOL    HW227627   1.720   0.325   5.201
 8910SOL     OW27628   1.874   2.842   6.012
 8910SOL    HW127629   1.873   2.896   6.096
 8910SOL    HW227630   1.923   2.892   5.940
 8911SOL     OW27631   3.361   2.122   4.941
 8911SOL    HW127632   3.263   2.118   4.923
 8911SOL    HW227633   3.377   2.169   5.028
 8912SOL     OW27634   4.093   1.134   6.760
 8912SOL    HW127635   4.029   1.072   6.805
 8912SOL    HW227636   4.187   1.108   6.784
 8913SOL     OW27637   5.043   4.790   1.055
 8913SOL    HW127638   5.032   4.754   1.147
 8913SOL    HW227639   4.958   4.778   1.004
 8914SOL     OW27640   4.532   1.025   5.815
 8914SOL    HW127641   4.597   1.048   5.887
 8914SOL    HW227642   4.545   0.930   5.787
 8915SOL     OW27643   0.976   2.301   3.904
 8915SOL    HW127644   0.942   2.334   3.992
 8915SOL    HW227645   1.066   2.342   3.886
 8916SOL     OW27646   0.654   3.498   2.119
 8916SOL    HW127647   0.699   3.522   2.205
 8916SOL    HW227648   0.586   3.426   2.137
 8917SOL     OW27649   5.797   5.113   6.092
 8917SOL    HW127650   5.845   5.108   6.180
 8917SOL    HW227651   5.830   5.192   6.041
 8918SOL     OW27652   7.023   6.028   0.334
 8918SOL    HW127653   0.025   6.034   0.238
 8918SOL    HW227654   0.021   5.938   0.370
 8919SOL     OW27655   4.346   3.055   0.718
 8919SOL    HW127656   4.306   2.975   0.763
 8919SOL    HW227657   4.352   3.038   0.620
 8920SOL     OW27658   6.947   6.434   6.883
 8920SOL    HW127659   0.007   6.450   6.834
 8920SOL    HW227660   6.955   6.467   6.977
 8921SOL     OW27661   2.089   1.518   3.234
 8921SOL    HW127662   2.096   1.507   3.135
 8921SOL    HW227663   2.077   1.614   3.257
 8922SOL     OW27664   2.488   5.172   0.990
 8922SOL    HW127665   2.583   5.190   0.963
 8922SOL    HW227666   2.487   5.114   1.071
 8923SOL     OW27667   1.985   3.918   6.673
 8923SOL    HW127668   1.960   4.007   6.712
 8923SOL    HW227669   2.078   3.922   6.638
 8924SOL     OW27670   2.830   5.667   5.911
 8924SOL    HW127671   2.750   5.610   5.891
 8924SOL    HW227672   2.801   5.752   5.954
 8925SOL     OW27673   0.990   0.487   2.036
 8925SOL    HW127674   1.046   0.413   1.999
 8925SOL    HW227675   0.987   0.480   2.136
 8926SOL     OW27676   5.742   2.734   0.772
 8926SOL    HW127677   5.718   2.693   0.684
 8926SOL    HW227678   5.664   2.785   0.808
 8927SOL     OW27679   2.212   1.786   5.040
 8927SOL    HW127680   2.202   1.727   5.120
 8927SOL    HW227681   2.184   1.879   5.063
 8928SOL     OW27682   6.954   0.678   5.190
 8928SOL    HW127683   7.019   0.623   5.139
 8928SOL    HW227684   6.965   0.775   5.166
 8929SOL     OW27685   0.142   3.645   3.775
 8929SOL    HW127686   0.193   3.616   3.694
 8929SOL    HW227687   0.048   3.666   3.748
 8930SOL     OW27688   1.515   4.773   4.996
 8930SOL    HW127689   1.438   4.783   5.058
 8930SOL    HW227690   1.505   4.690   4.942
 8931SOL     OW27691   3.604   2.981   0.611
 8931SOL    HW127692   3.630   3.073   0.584
 8931SOL    HW227693   3.561   2.934   0.534
 8932SOL     OW27694   5.365   0.077   6.915
 8932SOL    HW127695   5.457   0.080   6.955
 8932SOL    HW227696   5.329   7.010   6.923
 8933SOL     OW27697   0.991   2.003   5.399
 8933SOL    HW127698   0.990   1.943   5.319
 8933SOL    HW227699   1.024   2.094   5.372
 8934SOL     OW27700   2.521   5.403   3.797
 8934SOL    HW127701   2.433   5.425   3.755
 8934SOL    HW227702   2.571   5.340   3.737
 8935SOL     OW27703   4.957   3.722   1.881
 8935SOL    HW127704   4.960   3.658   1.957
 8935SOL    HW227705   5.048   3.730   1.840
 8936SOL     OW27706   0.597   3.242   0.663
 8936SOL    HW127707   0.631   3.314   0.723
 8936SOL    HW227708   0.666   3.170   0.654
 8937SOL     OW27709   0.360   1.010   3.974
 8937SOL    HW127710   0.343   0.926   4.027
 8937SOL    HW227711   0.275   1.039   3.930
 8938SOL     OW27712   6.336   1.423   0.769
 8938SOL    HW127713   6.391   1.347   0.734
 8938SOL    HW227714   6.393   1.505   0.775
 8939SOL     OW27715   6.588   2.916   4.685
 8939SOL    HW127716   6.577   2.976   4.606
 8939SOL    HW227717   6.574   2.821   4.657
 8940SOL     OW27718   6.038   2.287   0.165
 8940SOL    HW127719   6.003   2.195   0.182
 8940SOL    HW227720   5.963   2.346   0.134
 8941SOL     OW27721   4.868   2.287   1.653
 8941SOL    HW127722   4.873   2.209   1.715
 8941SOL    HW227723   4.934   2.357   1.681
 8942SOL     OW27724   0.287   5.182   3.956
 8942SOL    HW127725   0.352   5.164   4.029
 8942SOL    HW227726   0.274   5.280   3.946
 8943SOL     OW27727   4.258   4.552   0.201
 8943SOL    HW127728   4.193   4.495   0.152
 8943SOL    HW227729   4.276   4.512   0.291
 8944SOL     OW27730   4.881   4.870   4.332
 8944SOL    HW127731   4.921   4.904   4.247
 8944SOL    HW227732   4.860   4.947   4.392
 8945SOL     OW27733   6.819   3.188   4.788
 8945SOL    HW127734   6.880   3.112   4.767
 8945SOL    HW227735   6.867   3.275   4.772
 8946SOL     OW27736   3.559   0.520   4.685
 8946SOL    HW127737   3.481   0.577   4.663
 8946SOL    HW227738   3.629   0.528   4.613
 8947SOL     OW27739   1.720   4.440   6.546
 8947SOL    HW127740   1.775   4.449   6.463
 8947SOL    HW227741   1.780   4.438   6.626
 8948SOL     OW27742   6.685   6.337   4.066
 8948SOL    HW127743   6.603   6.384   4.033
 8948SOL    HW227744   6.718   6.275   3.995
 8949SOL     OW27745   3.704   6.021   6.993
 8949SOL    HW127746   3.780   6.086   6.992
 8949SOL    HW227747   3.739   5.929   7.011
 8950SOL     OW27748   4.750   3.596   1.163
 8950SOL    HW127749   4.785   3.659   1.093
 8950SOL    HW227750   4.667   3.634   1.203
 8951SOL     OW27751   2.249   1.222   4.462
 8951SOL    HW127752   2.261   1.214   4.561
 8951SOL    HW227753   2.337   1.211   4.417
 8952SOL     OW27754   2.153   4.724   3.670
 8952SOL    HW127755   2.107   4.649   3.718
 8952SOL    HW227756   2.154   4.805   3.729
 8953SOL     OW27757   2.709   5.306   1.573
 8953SOL    HW127758   2.766   5.258   1.639
 8953SOL    HW227759   2.762   5.323   1.490
 8954SOL     OW27760   0.791   5.687   3.828
 8954SOL    HW127761   0.850   5.758   3.789
 8954SOL    HW227762   0.720   5.663   3.762
 8955SOL     OW27763   6.971   2.928   2.778
 8955SOL    HW127764   6.894   2.912   2.716
 8955SOL    HW227765   0.019   2.973   2.728
 8956SOL     OW27766   0.770   6.842   6.691
 8956SOL    HW127767   0.843   6.778   6.716
 8956SOL    HW227768   0.716   6.803   6.617
 8957SOL     OW27769   1.835   5.576   1.858
 8957SOL    HW127770   1.801   5.670   1.853
 8957SOL    HW227771   1.884   5.562   1.944
 8958SOL     OW27772   1.731   2.670   4.745
 8958SOL    HW127773   1.820   2.705   4.717
 8958SOL    HW227774   1.742   2.582   4.791
 8959SOL     OW27775   0.944   3.449   2.400
 8959SOL    HW127776   0.861   3.394   2.409
 8959SOL    HW227777   1.023   3.397   2.432
 8960SOL     OW27778   6.467   4.732   4.104
 8960SOL    HW127779   6.543   4.743   4.040
 8960SOL    HW227780   6.391   4.791   4.077
 8961SOL     OW27781   3.330   0.550   4.224
 8961SOL    HW127782   3.366   0.638   4.253
 8961SOL    HW227783   3.386   0.514   4.149
 8962SOL     OW27784   0.648   6.390   1.932
 8962SOL    HW127785   0.578   6.333   1.974
 8962SOL    HW227786   0.698   6.440   2.003
 8963SOL     OW27787   3.459   5.911   4.525
 8963SOL    HW127788   3.375   5.886   4.574
 8963SOL    HW227789   3.530   5.935   4.591
 8964SOL     OW27790   5.539   4.020   2.676
 8964SOL    HW127791   5.634   4.002   2.699
 8964SOL    HW227792   5.495   3.935   2.646
 8965SOL     OW27793   2.906   4.539   0.379
 8965SOL    HW127794   2.976   4.543   0.308
 8965SOL    HW227795   2.937   4.478   0.452
 8966SOL     OW27796   6.810   5.661   6.419
 8966SOL    HW127797   6.857   5.619   6.342
 8966SOL    HW227798   6.798   5.758   6.402
 8967SOL     OW27799   4.148   0.837   3.569
 8967SOL    HW127800   4.165   0.908   3.637
 8967SOL    HW227801   4.049   0.824   3.558
 8968SOL     OW27802   2.652   4.806   1.523
 8968SOL    HW127803   2.595   4.861   1.584
 8968SOL    HW227804   2.698   4.734   1.576
 8969SOL     OW27805   0.436   0.382   3.321
 8969SOL    HW127806   0.428   0.450   3.249
 8969SOL    HW227807   0.400   0.294   3.288
 8970SOL     OW27808   1.789   2.714   6.661
 8970SOL    HW127809   1.728   2.635   6.674
 8970SOL    HW227810   1.738   2.787   6.615
 8971SOL     OW27811   4.653   6.824   1.205
 8971SOL    HW127812   4.689   6.903   1.254
 8971SOL    HW227813   4.586   6.855   1.138
 8972SOL     OW27814   5.549   4.874   0.602
 8972SOL    HW127815   5.484   4.922   0.544
 8972SOL    HW227816   5.561   4.781   0.568
 8973SOL     OW27817   0.154   2.669   2.456
 8973SOL    HW127818   0.191   2.761   2.447
 8973SOL    HW227819   0.185   2.629   2.542
 8974SOL     OW27820   2.169   3.522   3.864
 8974SOL    HW127821   2.223   3.559   3.939
 8974SOL    HW227822   2.148   3.595   3.799
 8975SOL     OW27823   0.192   6.733   6.294
 8975SOL    HW127824   0.247   6.769   6.369
 8975SOL    HW227825   0.253   6.698   6.222
 8976SOL     OW27826   6.380   6.768   1.222
 8976SOL    HW127827   6.440   6.777   1.142
 8976SOL    HW227828   6.417   6.822   1.298
 8977SOL     OW27829   6.927   4.858   6.402
 8977SOL    HW127830   6.877   4.912   6.334
 8977SOL    HW227831   6.877   4.859   6.489
 8978SOL     OW27832   5.256   6.452   4.988
 8978SOL    HW127833   5.319   6.393   4.938
 8978SOL    HW227834   5.218   6.520   4.925
 8979SOL     OW27835   1.026   5.631   6.177
 8979SOL    HW127836   1.007   5.720   6.137
 8979SOL    HW227837   0.941   5.578   6.183
 8980SOL     OW27838   4.078   2.068   5.725
 8980SOL    HW127839   4.034   2.069   5.636
 8980SOL    HW227840   4.173   2.100   5.715
 8981SOL     OW27841   4.754   2.285   5.566
 8981SOL    HW127842   4.717   2.209   5.512
 8981SOL    HW227843   4.754   2.259   5.663
 8982SOL     OW27844   6.412   1.398   1.603
 8982SOL    HW127845   6.372   1.375   1.692
 8982SOL    HW227846   6.499   1.445   1.616
 8983SOL     OW27847   1.313   5.049   1.702
 8983SOL    HW127848   1.214   5.061   1.696
 8983SOL    HW227849   1.352   5.125   1.754
 8984SOL     OW27850   6.015   6.939   4.399
 8984SOL    HW127851   6.072   7.008   4.354
 8984SOL    HW227852   6.018   6.952   4.498
 8985SOL     OW27853   4.754   1.765   0.951
 8985SOL    HW127854   4.747   1.679   1.001
 8985SOL    HW227855   4.799   1.834   1.009
 8986SOL     OW27856   5.138   4.480   2.236
 8986SOL    HW127857   5.074   4.447   2.167
 8986SOL    HW227858   5.191   4.403   2.273
 8987SOL     OW27859   2.978   0.556   1.121
 8987SOL    HW127860   2.958   0.470   1.169
 8987SOL    HW227861   3.059   0.599   1.162
 8988SOL     OW27862   1.865   5.575   1.048
 8988SOL    HW127863   1.950   5.592   1.099
 8988SOL    HW227864   1.843   5.656   0.995
 8989SOL     OW27865   5.050   2.884   2.946
 8989SOL    HW127866   4.976   2.951   2.944
 8989SOL    HW227867   5.013   2.792   2.940
 8990SOL     OW27868   2.669   6.218   0.969
 8990SOL    HW127869   2.664   6.294   1.033
 8990SOL    HW227870   2.668   6.253   0.875
 8991SOL     OW27871   2.516   2.508   1.303
 8991SOL    HW127872   2.494   2.602   1.329
 8991SOL    HW227873   2.446   2.446   1.340
 8992SOL     OW27874   0.560   3.125   0.253
 8992SOL    HW127875   0.515   3.081   0.175
 8992SOL    HW227876   0.492   3.175   0.307
 8993SOL     OW27877   4.824   2.095   3.657
 8993SOL    HW127878   4.827   2.074   3.559
 8993SOL    HW227879   4.917   2.105   3.692
 8994SOL     OW27880   1.751   4.731   4.574
 8994SOL    HW127881   1.804   4.705   4.493
 8994SOL    HW227882   1.812   4.741   4.652
 8995SOL     OW27883   1.130   2.592   5.123
 8995SOL    HW127884   1.121   2.497   5.092
 8995SOL    HW227885   1.053   2.615   5.182
 8996SOL     OW27886   0.405   3.513   0.997
 8996SOL    HW127887   0.364   3.553   1.079
 8996SOL    HW227888   0.479   3.451   1.023
 8997SOL     OW27889   5.091   1.219   5.746
 8997SOL    HW127890   5.062   1.135   5.700
 8997SOL    HW227891   5.079   1.209   5.845
 8998SOL     OW27892   6.850   2.392   5.130
 8998SOL    HW127893   6.785   2.317   5.115
 8998SOL    HW227894   6.800   2.478   5.137
 8999SOL     OW27895   5.224   1.071   6.248
 8999SOL    HW127896   5.236   1.073   6.149
 8999SOL    HW227897   5.205   1.163   6.281
 9000SOL     OW27898   3.111   4.057   6.987
 9000SOL    HW127899   3.015   4.083   6.995
 9000SOL    HW227900   3.145   4.028   0.051
 9001SOL     OW27901   1.366   4.659   3.404
 9001SOL    HW127902   1.438   4.681   3.469
 9001SOL    HW227903   1.396   4.584   3.345
 9002SOL     OW27904   6.893   5.521   5.476
 9002SOL    HW127905   6.840   5.482   5.552
 9002SOL    HW227906   6.895   5.455   5.401
 9003SOL     OW27907   6.404   2.508   0.387
 9003SOL    HW127908   6.433   2.603   0.380
 9003SOL    HW227909   6.480   2.448   0.359
 9004SOL     OW27910   4.835   6.948   1.569
 9004SOL    HW127911   4.863   6.866   1.620
 9004SOL    HW227912   4.868   6.941   1.475
 9005SOL     OW27913   5.339   2.184   4.094
 9005SOL    HW127914   5.313   2.159   4.188
 9005SOL    HW227915   5.270   2.151   4.030
 9006SOL     OW27916   1.290   5.542   0.837
 9006SOL    HW127917   1.336   5.612   0.892
 9006SOL    HW227918   1.336   5.454   0.850
 9007SOL     OW27919   3.169   5.050   3.616
 9007SOL    HW127920   3.129   5.057   3.525
 9007SOL    HW227921   3.096   5.041   3.684
 9008SOL     OW27922   6.483   4.756   2.611
 9008SOL    HW127923   6.522   4.744   2.520
 9008SOL    HW227924   6.555   4.787   2.674
 9009SOL     OW27925   2.774   6.556   0.935
 9009SOL    HW127926   2.795   6.602   0.849
 9009SOL    HW227927   2.838   6.481   0.950
 9010SOL     OW27928   0.987   0.028   4.504
 9010SOL    HW127929   1.044   0.057   4.581
 9010SOL    HW227930   1.031   6.977   4.458
 9011SOL     OW27931   3.914   2.271   1.543
 9011SOL    HW127932   3.904   2.301   1.448
 9011SOL    HW227933   3.924   2.352   1.602
 9012SOL     OW27934   1.581   5.624   0.606
 9012SOL    HW127935   1.575   5.717   0.641
 9012SOL    HW227936   1.593   5.560   0.681
 9013SOL     OW27937   6.497   5.923   4.581
 9013SOL    HW127938   6.570   5.886   4.524
 9013SOL    HW227939   6.464   6.009   4.543
 9014SOL     OW27940   1.491   1.248   0.191
 9014SOL    HW127941   1.506   1.318   0.260
 9014SOL    HW227942   1.460   1.164   0.235
 9015SOL     OW27943   0.228   1.064   7.023
 9015SOL    HW127944   0.271   0.975   0.007
 9015SOL    HW227945   0.169   1.082   0.076
 9016SOL     OW27946   6.653   6.422   5.760
 9016SOL    HW127947   6.590   6.436   5.837
 9016SOL    HW227948   6.693   6.509   5.733
 9017SOL     OW27949   6.281   2.110   3.812
 9017SOL    HW127950   6.274   2.160   3.899
 9017SOL    HW227951   6.208   2.141   3.751
 9018SOL     OW27952   3.779   1.455   5.010
 9018SOL    HW127953   3.808   1.545   4.977
 9018SOL    HW227954   3.687   1.462   5.049
 9019SOL     OW27955   2.343   6.374   6.565
 9019SOL    HW127956   2.396   6.429   6.500
 9019SOL    HW227957   2.406   6.327   6.627
 9020SOL     OW27958   1.826   4.057   2.219
 9020SOL    HW127959   1.782   4.110   2.291
 9020SOL    HW227960   1.837   4.115   2.137
 9021SOL     OW27961   6.638   6.562   3.818
 9021SOL    HW127962   6.591   6.629   3.760
 9021SOL    HW227963   6.596   6.472   3.805
 9022SOL     OW27964   2.443   0.275   0.473
 9022SOL    HW127965   2.491   0.291   0.559
 9022SOL    HW227966   2.509   0.275   0.398
 9023SOL     OW27967   3.417   3.689   4.150
 9023SOL    HW127968   3.332   3.673   4.201
 9023SOL    HW227969   3.495   3.660   4.206
 9024SOL     OW27970   1.550   6.245   6.144
 9024SOL    HW127971   1.578   6.161   6.097
 9024SOL    HW227972   1.580   6.241   6.239
 9025SOL     OW27973   6.182   5.597   1.380
 9025SOL    HW127974   6.281   5.608   1.384
 9025SOL    HW227975   6.144   5.599   1.473
 9026SOL     OW27976   3.538   2.904   4.275
 9026SOL    HW127977   3.557   3.002   4.268
 9026SOL    HW227978   3.513   2.868   4.186
 9027SOL     OW27979   2.715   2.029   3.247
 9027SOL    HW127980   2.689   1.948   3.299
 9027SOL    HW227981   2.634   2.084   3.228
 9028SOL     OW27982   1.887   4.723   6.213
 9028SOL    HW127983   1.910   4.709   6.117
 9028SOL    HW227984   1.790   4.745   6.221
 9029SOL     OW27985   3.779   4.943   5.002
 9029SOL    HW127986   3.814   4.853   4.975
 9029SOL    HW227987   3.855   5.007   5.013
 9030SOL     OW27988   1.696   0.745   2.328
 9030SOL    HW127989   1.684   0.780   2.235
 9030SOL    HW227990   1.699   0.822   2.392
 9031SOL     OW27991   3.186   5.624   5.253
 9031SOL    HW127992   3.190   5.615   5.353
 9031SOL    HW227993   3.243   5.554   5.211
 9032SOL     OW27994   3.529   2.634   1.168
 9032SOL    HW127995   3.512   2.697   1.244
 9032SOL    HW227996   3.608   2.665   1.116
 9033SOL     OW27997   2.245   2.951   4.087
 9033SOL    HW127998   2.283   3.039   4.117
 9033SOL    HW227999   2.309   2.878   4.108
 9034SOL     OW28000   2.762   6.762   5.119
 9034SOL    HW128001   2.746   6.850   5.075
 9034SOL    HW228002   2.845   6.720   5.081
 9035SOL     OW28003   0.790   6.661   5.430
 9035SOL    HW128004   0.731   6.590   5.392
 9035SOL    HW228005   0.878   6.662   5.383
 9036SOL     OW28006   2.192   2.552   5.395
 9036SOL    HW128007   2.096   2.576   5.386
 9036SOL    HW228008   2.233   2.604   5.470
 9037SOL     OW28009   2.614   3.925   6.451
 9037SOL    HW128010   2.670   3.842   6.448
 9037SOL    HW228011   2.529   3.909   6.401
 9038SOL     OW28012   5.719   1.035   6.084
 9038SOL    HW128013   5.798   0.982   6.053
 9038SOL    HW228014   5.636   0.980   6.074
 9039SOL     OW28015   1.845   4.276   5.397
 9039SOL    HW128016   1.755   4.246   5.429
 9039SOL    HW228017   1.909   4.275   5.474
 9040SOL     OW28018   2.757   0.832   3.104
 9040SOL    HW128019   2.818   0.881   3.041
 9040SOL    HW228020   2.686   0.786   3.051
 9041SOL     OW28021   0.615   1.969   2.109
 9041SOL    HW128022   0.561   1.886   2.114
 9041SOL    HW228023   0.684   1.969   2.182
 9042SOL     OW28024   2.635   6.956   3.394
 9042SOL    HW128025   2.553   6.958   3.452
 9042SOL    HW228026   2.683   6.870   3.408
 9043SOL     OW28027   2.115   2.258   5.978
 9043SOL    HW128028   2.096   2.163   6.001
 9043SOL    HW228029   2.029   2.303   5.952
 9044SOL     OW28030   6.248   1.232   0.398
 9044SOL    HW128031   6.320   1.195   0.339
 9044SOL    HW228032   6.263   1.201   0.492
 9045SOL     OW28033   4.318   0.897   2.874
 9045SOL    HW128034   4.373   0.901   2.790
 9045SOL    HW228035   4.247   0.827   2.864
 9046SOL     OW28036   3.628   4.064   5.679
 9046SOL    HW128037   3.722   4.038   5.656
 9046SOL    HW228038   3.625   4.160   5.708
 9047SOL     OW28039   2.118   4.003   5.249
 9047SOL    HW128040   2.114   4.013   5.348
 9047SOL    HW228041   2.212   4.017   5.218
 9048SOL     OW28042   1.766   3.843   5.962
 9048SOL    HW128043   1.797   3.843   5.867
 9048SOL    HW228044   1.813   3.771   6.012
 9049SOL     OW28045   4.995   6.231   6.287
 9049SOL    HW128046   5.076   6.273   6.326
 9049SOL    HW228047   5.016   6.197   6.195
 9050SOL     OW28048   0.753   5.024   0.056
 9050SOL    HW128049   0.832   5.083   0.039
 9050SOL    HW228050   0.671   5.079   0.067
 9051SOL     OW28051   4.187   6.258   0.757
 9051SOL    HW128052   4.265   6.195   0.758
 9051SOL    HW228053   4.179   6.300   0.666
 9052SOL     OW28054   2.642   4.636   4.472
 9052SOL    HW128055   2.616   4.609   4.564
 9052SOL    HW228056   2.686   4.726   4.474
 9053SOL     OW28057   2.413   2.573   3.679
 9053SOL    HW128058   2.367   2.501   3.627
 9053SOL    HW228059   2.494   2.535   3.725
 9054SOL     OW28060   1.804   0.537   2.540
 9054SOL    HW128061   1.858   0.612   2.579
 9054SOL    HW228062   1.764   0.566   2.453
 9055SOL     OW28063   0.332   3.630   3.562
 9055SOL    HW128064   0.428   3.606   3.552
 9055SOL    HW228065   0.311   3.709   3.504
 9056SOL     OW28066   4.787   0.618   1.260
 9056SOL    HW128067   4.786   0.632   1.161
 9056SOL    HW228068   4.743   0.697   1.305
 9057SOL     OW28069   6.018   4.714   6.404
 9057SOL    HW128070   5.944   4.781   6.396
 9057SOL    HW228071   6.092   4.739   6.341
 9058SOL     OW28072   1.897   2.066   4.789
 9058SOL    HW128073   1.846   2.061   4.703
 9058SOL    HW228074   1.995   2.055   4.771
 9059SOL     OW28075   6.386   0.556   3.267
 9059SOL    HW128076   6.319   0.562   3.341
 9059SOL    HW228077   6.413   0.648   3.239
 9060SOL     OW28078   6.805   3.762   2.365
 9060SOL    HW128079   6.805   3.781   2.267
 9060SOL    HW228080   6.889   3.713   2.390
 9061SOL     OW28081   4.632   5.435   3.175
 9061SOL    HW128082   4.662   5.507   3.113
 9061SOL    HW228083   4.564   5.471   3.238
 9062SOL     OW28084   1.156   4.571   1.816
 9062SOL    HW128085   1.202   4.642   1.869
 9062SOL    HW228086   1.142   4.490   1.872
 9063SOL     OW28087   3.260   1.389   2.577
 9063SOL    HW128088   3.272   1.401   2.478
 9063SOL    HW228089   3.242   1.477   2.619
 9064SOL     OW28090   6.476   4.293   4.119
 9064SOL    HW128091   6.533   4.361   4.073
 9064SOL    HW228092   6.405   4.339   4.173
 9065SOL     OW28093   2.893   5.957   5.616
 9065SOL    HW128094   2.865   5.901   5.538
 9065SOL    HW228095   2.836   5.935   5.695
 9066SOL     OW28096   6.410   0.044   5.969
 9066SOL    HW128097   6.366   0.101   6.039
 9066SOL    HW228098   6.373   6.977   5.974
 9067SOL     OW28099   6.700   6.421   4.524
 9067SOL    HW128100   6.741   6.506   4.557
 9067SOL    HW228101   6.727   6.345   4.584
 9068SOL     OW28102   3.758   0.041   5.079
 9068SOL    HW128103   3.733   6.994   5.015
 9068SOL    HW228104   3.790   0.120   5.028
 9069SOL     OW28105   5.028   2.255   2.929
 9069SOL    HW128106   4.996   2.161   2.916
 9069SOL    HW228107   4.983   2.314   2.862
 9070SOL     OW28108   1.556   2.133   6.298
 9070SOL    HW128109   1.653   2.120   6.276
 9070SOL    HW228110   1.547   2.204   6.368
 9071SOL     OW28111   5.361   0.809   6.296
 9071SOL    HW128112   5.324   0.902   6.298
 9071SOL    HW228113   5.372   0.776   6.390
 9072SOL     OW28114   4.948   6.719   1.698
 9072SOL    HW128115   4.914   6.628   1.673
 9072SOL    HW228116   5.043   6.728   1.668
 9073SOL     OW28117   3.999   6.681   0.409
 9073SOL    HW128118   3.936   6.610   0.378
 9073SOL    HW228119   4.018   6.668   0.506
 9074SOL     OW28120   1.472   1.114   1.482
 9074SOL    HW128121   1.429   1.127   1.571
 9074SOL    HW228122   1.439   1.184   1.418
 9075SOL     OW28123   0.337   0.602   2.224
 9075SOL    HW128124   0.296   0.585   2.134
 9075SOL    HW228125   0.272   0.652   2.281
 9076SOL     OW28126   4.533   1.126   3.950
 9076SOL    HW128127   4.580   1.038   3.950
 9076SOL    HW228128   4.504   1.148   3.857
 9077SOL     OW28129   4.597   1.393   6.303
 9077SOL    HW128130   4.568   1.481   6.264
 9077SOL    HW228131   4.638   1.409   6.393
 9078SOL     OW28132   5.565   4.965   6.491
 9078SOL    HW128133   5.579   5.039   6.556
 9078SOL    HW228134   5.487   4.987   6.431
 9079SOL     OW28135   1.422   0.334   5.375
 9079SOL    HW128136   1.334   0.302   5.411
 9079SOL    HW228137   1.478   0.369   5.450
 9080SOL     OW28138   6.405   2.765   6.825
 9080SOL    HW128139   6.437   2.795   6.735
 9080SOL    HW228140   6.385   2.845   6.881
 9081SOL     OW28141   3.479   1.735   1.596
 9081SOL    HW128142   3.459   1.731   1.498
 9081SOL    HW228143   3.533   1.817   1.616
 9082SOL     OW28144   2.613   6.664   4.553
 9082SOL    HW128145   2.520   6.655   4.517
 9082SOL    HW228146   2.653   6.573   4.565
 9083SOL     OW28147   4.597   4.246   6.224
 9083SOL    HW128148   4.652   4.315   6.271
 9083SOL    HW228149   4.510   4.235   6.272
 9084SOL     OW28150   0.938   2.099   6.386
 9084SOL    HW128151   0.934   2.169   6.315
 9084SOL    HW228152   1.033   2.090   6.418
 9085SOL     OW28153   2.559   5.911   1.365
 9085SOL    HW128154   2.540   5.983   1.297
 9085SOL    HW228155   2.621   5.947   1.435
 9086SOL     OW28156   6.168   4.225   0.781
 9086SOL    HW128157   6.236   4.157   0.807
 9086SOL    HW228158   6.077   4.193   0.807
 9087SOL     OW28159   5.494   2.979   2.667
 9087SOL    HW128160   5.543   3.060   2.698
 9087SOL    HW228161   5.443   2.940   2.744
 9088SOL     OW28162   5.752   0.118   1.607
 9088SOL    HW128163   5.840   0.075   1.588
 9088SOL    HW228164   5.745   0.138   1.704
 9089SOL     OW28165   4.233   5.769   5.218
 9089SOL    HW128166   4.163   5.700   5.203
 9089SOL    HW228167   4.292   5.776   5.138
 9090SOL     OW28168   4.956   6.694   4.659
 9090SOL    HW128169   4.945   6.626   4.586
 9090SOL    HW228170   4.897   6.773   4.640
 9091SOL     OW28171   3.014   2.969   0.974
 9091SOL    HW128172   3.058   2.890   1.016
 9091SOL    HW228173   2.967   3.022   1.044
 9092SOL     OW28174   1.244   1.173   6.773
 9092SOL    HW128175   1.233   1.172   6.673
 9092SOL    HW228176   1.191   1.248   6.812
 9093SOL     OW28177   1.776   6.245   7.011
 9093SOL    HW128178   1.680   6.258   6.985
 9093SOL    HW228179   1.829   6.324   6.983
 9094SOL     OW28180   0.928   5.299   2.937
 9094SOL    HW128181   0.933   5.396   2.913
 9094SOL    HW228182   0.905   5.290   3.034
 9095SOL     OW28183   5.261   4.014   6.118
 9095SOL    HW128184   5.280   4.052   6.028
 9095SOL    HW228185   5.339   4.030   6.178
 9096SOL     OW28186   5.223   3.619   3.026
 9096SOL    HW128187   5.208   3.628   2.928
 9096SOL    HW228188   5.183   3.534   3.059
 9097SOL     OW28189   0.326   3.270   0.351
 9097SOL    HW128190   0.344   3.368   0.348
 9097SOL    HW228191   0.228   3.253   0.345
 9098SOL     OW28192   3.538   3.261   0.652
 9098SOL    HW128193   3.637   3.254   0.657
 9098SOL    HW228194   3.505   3.326   0.721
 9099SOL     OW28195   3.281   3.496   0.681
 9099SOL    HW128196   3.249   3.541   0.597
 9099SOL    HW228197   3.274   3.396   0.669
 9100SOL     OW28198   0.942   2.877   2.795
 9100SOL    HW128199   0.926   2.957   2.853
 9100SOL    HW228200   0.919   2.899   2.701
 9101SOL     OW28201   2.068   2.966   2.841
 9101SOL    HW128202   2.132   2.963   2.918
 9101SOL    HW228203   1.977   2.942   2.873
 9102SOL     OW28204   3.719   6.336   1.468
 9102SOL    HW128205   3.631   6.357   1.425
 9102SOL    HW228206   3.792   6.348   1.400
 9103SOL     OW28207   6.505   3.490   0.217
 9103SOL    HW128208   6.545   3.540   0.294
 9103SOL    HW228209   6.441   3.548   0.169
 9104SOL     OW28210   4.565   6.040   2.238
 9104SOL    HW128211   4.645   6.046   2.298
 9104SOL    HW228212   4.590   6.070   2.146
 9105SOL     OW28213   1.363   0.795   0.592
 9105SOL    HW128214   1.460   0.773   0.596
 9105SOL    HW228215   1.334   0.802   0.497
 9106SOL     OW28216   5.747   3.748   6.629
 9106SOL    HW128217   5.767   3.795   6.543
 9106SOL    HW228218   5.826   3.755   6.690
 9107SOL     OW28219   3.996   0.483   6.065
 9107SOL    HW128220   3.997   0.500   5.966
 9107SOL    HW228221   4.081   0.438   6.092
 9108SOL     OW28222   4.782   4.403   5.856
 9108SOL    HW128223   4.755   4.481   5.912
 9108SOL    HW228224   4.859   4.356   5.899
 9109SOL     OW28225   1.380   2.802   2.748
 9109SOL    HW128226   1.428   2.845   2.825
 9109SOL    HW228227   1.293   2.765   2.779
 9110SOL     OW28228   1.817   4.179   4.109
 9110SOL    HW128229   1.803   4.207   4.014
 9110SOL    HW228230   1.890   4.235   4.150
 9111SOL     OW28231   4.550   3.641   0.477
 9111SOL    HW128232   4.626   3.590   0.437
 9111SOL    HW228233   4.473   3.579   0.495
 9112SOL     OW28234   0.325   4.467   4.649
 9112SOL    HW128235   0.393   4.428   4.711
 9112SOL    HW228236   0.297   4.557   4.683
 9113SOL     OW28237   4.587   6.461   0.666
 9113SOL    HW128238   4.580   6.498   0.759
 9113SOL    HW228239   4.599   6.362   0.671
 9114SOL     OW28240   1.682   5.046   1.397
 9114SOL    HW128241   1.733   5.063   1.481
 9114SOL    HW228242   1.585   5.038   1.417
 9115SOL     OW28243   1.014   5.851   6.005
 9115SOL    HW128244   1.105   5.843   5.965
 9115SOL    HW228245   1.018   5.907   6.088
 9116SOL     OW28246   6.649   2.275   0.735
 9116SOL    HW128247   6.658   2.375   0.731
 9116SOL    HW228248   6.566   2.247   0.687
 9117SOL     OW28249   6.169   3.005   0.232
 9117SOL    HW128250   6.268   3.019   0.237
 9117SOL    HW228251   6.144   2.970   0.142
 9118SOL     OW28252   6.734   5.728   0.773
 9118SOL    HW128253   6.787   5.678   0.842
 9118SOL    HW228254   6.760   5.825   0.776
 9119SOL     OW28255   5.748   1.808   2.223
 9119SOL    HW128256   5.799   1.723   2.232
 9119SOL    HW228257   5.779   1.858   2.142
 9120SOL     OW28258   5.812   3.176   5.811
 9120SOL    HW128259   5.902   3.158   5.771
 9120SOL    HW228260   5.750   3.101   5.788
 9121SOL     OW28261   2.007   2.613   6.515
 9121SOL    HW128262   1.999   2.627   6.417
 9121SOL    HW228263   1.937   2.665   6.563
 9122SOL     OW28264   1.772   3.523   1.992
 9122SOL    HW128265   1.858   3.497   1.948
 9122SOL    HW228266   1.698   3.523   1.925
 9123SOL     OW28267   3.562   0.289   4.843
 9123SOL    HW128268   3.568   0.379   4.800
 9123SOL    HW228269   3.515   0.297   4.931
 9124SOL     OW28270   5.498   6.941   5.889
 9124SOL    HW128271   5.516   0.001   5.842
 9124SOL    HW228272   5.580   6.913   5.939
 9125SOL     OW28273   5.166   4.023   1.954
 9125SOL    HW128274   5.105   4.091   1.995
 9125SOL    HW228275   5.141   4.009   1.858
 9126SOL     OW28276   5.677   2.565   2.205
 9126SOL    HW128277   5.594   2.579   2.259
 9126SOL    HW228278   5.757   2.584   2.262
 9127SOL     OW28279   6.676   1.777   6.023
 9127SOL    HW128280   6.757   1.807   5.973
 9127SOL    HW228281   6.703   1.722   6.102
 9128SOL     OW28282   4.339   1.249   5.067
 9128SOL    HW128283   4.419   1.294   5.027
 9128SOL    HW228284   4.259   1.308   5.057
 9129SOL     OW28285   0.393   3.210   1.546
 9129SOL    HW128286   0.356   3.168   1.629
 9129SOL    HW228287   0.345   3.174   1.466
 9130SOL     OW28288   6.798   3.349   0.598
 9130SOL    HW128289   6.841   3.262   0.620
 9130SOL    HW228290   6.840   3.388   0.517
 9131SOL     OW28291   7.003   3.556   5.692
 9131SOL    HW128292   7.013   3.597   5.602
 9131SOL    HW228293   7.003   3.628   5.762
 9132SOL     OW28294   7.022   4.750   4.333
 9132SOL    HW128295   6.999   4.655   4.354
 9132SOL    HW228296   0.086   4.754   4.291
 9133SOL     OW28297   3.911   6.372   1.299
 9133SOL    HW128298   3.978   6.446   1.294
 9133SOL    HW228299   3.901   6.330   1.209
 9134SOL     OW28300   4.084   5.687   0.461
 9134SOL    HW128301   4.062   5.726   0.371
 9134SOL    HW228302   4.096   5.761   0.527
 9135SOL     OW28303   6.614   5.908   1.752
 9135SOL    HW128304   6.686   5.956   1.702
 9135SOL    HW228305   6.555   5.860   1.687
 9136SOL     OW28306   5.490   5.240   5.862
 9136SOL    HW128307   5.515   5.320   5.807
 9136SOL    HW228308   5.488   5.265   5.959
 9137SOL     OW28309   5.430   2.023   1.213
 9137SOL    HW128310   5.496   2.056   1.280
 9137SOL    HW228311   5.363   2.095   1.193
 9138SOL     OW28312   6.306   5.714   5.938
 9138SOL    HW128313   6.377   5.692   5.872
 9138SOL    HW228314   6.343   5.774   6.009
 9139SOL     OW28315   2.469   1.841   4.889
 9139SOL    HW128316   2.515   1.768   4.838
 9139SOL    HW228317   2.372   1.819   4.898
 9140SOL     OW28318   5.903   3.208   2.819
 9140SOL    HW128319   5.877   3.112   2.826
 9140SOL    HW228320   5.958   3.221   2.737
 9141SOL     OW28321   5.981   0.590   6.908
 9141SOL    HW128322   6.022   0.533   6.835
 9141SOL    HW228323   6.010   0.685   6.895
 9142SOL     OW28324   1.063   1.921   1.252
 9142SOL    HW128325   1.039   1.866   1.173
 9142SOL    HW228326   1.061   2.018   1.228
 9143SOL     OW28327   5.748   2.558   1.118
 9143SOL    HW128328   5.694   2.475   1.104
 9143SOL    HW228329   5.730   2.622   1.043
 9144SOL     OW28330   2.186   5.419   5.702
 9144SOL    HW128331   2.211   5.337   5.754
 9144SOL    HW228332   2.200   5.500   5.760
 9145SOL     OW28333   6.929   5.436   0.461
 9145SOL    HW128334   6.895   5.390   0.380
 9145SOL    HW228335   6.902   5.533   0.459
 9146SOL     OW28336   5.214   2.883   3.186
 9146SOL    HW128337   5.140   2.886   3.119
 9146SOL    HW228338   5.248   2.789   3.194
 9147SOL     OW28339   5.872   0.350   4.216
 9147SOL    HW128340   5.926   0.313   4.141
 9147SOL    HW228341   5.930   0.359   4.297
 9148SOL     OW28342   5.037   6.279   0.611
 9148SOL    HW128343   5.050   6.285   0.710
 9148SOL    HW228344   4.969   6.346   0.582
 9149SOL     OW28345   5.856   3.221   3.583
 9149SOL    HW128346   5.940   3.171   3.600
 9149SOL    HW228347   5.843   3.233   3.485
 9150SOL     OW28348   2.875   5.439   2.415
 9150SOL    HW128349   2.970   5.419   2.440
 9150SOL    HW228350   2.862   5.421   2.317
 9151SOL     OW28351   1.806   4.272   3.866
 9151SOL    HW128352   1.782   4.366   3.839
 9151SOL    HW228353   1.807   4.214   3.784
 9152SOL     OW28354   2.285   4.667   4.833
 9152SOL    HW128355   2.213   4.710   4.887
 9152SOL    HW228356   2.244   4.614   4.759
 9153SOL     OW28357   1.223   3.327   0.459
 9153SOL    HW128358   1.218   3.419   0.421
 9153SOL    HW228359   1.315   3.310   0.495
 9154SOL     OW28360   4.300   4.619   6.140
 9154SOL    HW128361   4.332   4.601   6.234
 9154SOL    HW228362   4.238   4.697   6.141
 9155SOL     OW28363   1.613   3.478   1.519
 9155SOL    HW128364   1.530   3.449   1.471
 9155SOL    HW228365   1.691   3.473   1.457
 9156SOL     OW28366   1.195   2.627   0.614
 9156SOL    HW128367   1.185   2.527   0.616
 9156SOL    HW228368   1.108   2.668   0.589
 9157SOL     OW28369   6.594   4.674   5.752
 9157SOL    HW128370   6.582   4.606   5.824
 9157SOL    HW228371   6.580   4.631   5.663
 9158SOL     OW28372   5.807   3.617   4.811
 9158SOL    HW128373   5.811   3.646   4.715
 9158SOL    HW228374   5.829   3.520   4.818
 9159SOL     OW28375   1.941   0.027   2.558
 9159SOL    HW128376   1.993   0.107   2.587
 9159SOL    HW228377   1.989   7.007   2.484
 9160SOL     OW28378   6.240   0.459   5.134
 9160SOL    HW128379   6.290   0.376   5.107
 9160SOL    HW228380   6.271   0.489   5.224
 9161SOL     OW28381   4.585   4.360   4.935
 9161SOL    HW128382   4.489   4.386   4.926
 9161SOL    HW228383   4.607   4.345   5.031
 9162SOL     OW28384   4.286   0.718   4.725
 9162SOL    HW128385   4.243   0.636   4.688
 9162SOL    HW228386   4.382   0.722   4.695
 9163SOL     OW28387   1.660   2.820   4.357
 9163SOL    HW128388   1.733   2.888   4.366
 9163SOL    HW228389   1.690   2.734   4.399
 9164SOL     OW28390   2.636   1.013   6.103
 9164SOL    HW128391   2.681   1.056   6.024
 9164SOL    HW228392   2.621   1.083   6.173
 9165SOL     OW28393   6.057   2.192   5.667
 9165SOL    HW128394   6.064   2.112   5.608
 9165SOL    HW228395   5.974   2.243   5.645
 9166SOL     OW28396   4.125   5.883   0.635
 9166SOL    HW128397   4.219   5.889   0.668
 9166SOL    HW228398   4.073   5.963   0.667
 9167SOL     OW28399   2.025   2.936   6.758
 9167SOL    HW128400   1.960   2.888   6.699
 9167SOL    HW228401   1.999   3.032   6.767
 9168SOL     OW28402   6.790   0.086   6.425
 9168SOL    HW128403   6.884   0.118   6.416
 9168SOL    HW228404   6.765   0.081   6.522
 9169SOL     OW28405   5.908   0.937   4.784
 9169SOL    HW128406   5.908   0.848   4.831
 9169SOL    HW228407   5.813   0.962   4.762
 9170SOL     OW28408   1.597   5.780   0.070
 9170SOL    HW128409   1.662   5.776   7.020
 9170SOL    HW228410   1.581   5.688   0.105
 9171SOL     OW28411   4.186   5.053   0.934
 9171SOL    HW128412   4.170   5.149   0.910
 9171SOL    HW228413   4.178   4.997   0.851
 9172SOL     OW28414   3.935   1.231   3.608
 9172SOL    HW128415   3.869   1.293   3.650
 9172SOL    HW228416   3.887   1.154   3.567
 9173SOL     OW28417   6.358   3.648   4.990
 9173SOL    HW128418   6.272   3.611   5.027
 9173SOL    HW228419   6.416   3.678   5.066
 9174SOL     OW28420   5.304   3.950   1.666
 9174SOL    HW128421   5.305   3.861   1.710
 9174SOL    HW228422   5.296   3.938   1.567
 9175SOL     OW28423   1.075   0.367   5.196
 9175SOL    HW128424   1.164   0.347   5.155
 9175SOL    HW228425   1.086   0.434   5.270
 9176SOL     OW28426   3.078   0.867   5.286
 9176SOL    HW128427   3.149   0.928   5.250
 9176SOL    HW228428   3.016   0.920   5.344
 9177SOL     OW28429   0.675   4.874   5.046
 9177SOL    HW128430   0.609   4.942   5.077
 9177SOL    HW228431   0.681   4.877   4.946
 9178SOL     OW28432   1.690   5.515   0.110
 9178SOL    HW128433   1.621   5.466   0.162
 9178SOL    HW228434   1.734   5.453   0.045
 9179SOL     OW28435   2.831   4.816   4.625
 9179SOL    HW128436   2.922   4.803   4.584
 9179SOL    HW228437   2.840   4.823   4.724
 9180SOL     OW28438   6.247   2.793   2.961
 9180SOL    HW128439   6.238   2.872   2.901
 9180SOL    HW228440   6.175   2.795   3.030
 9181SOL     OW28441   4.612   1.937   5.657
 9181SOL    HW128442   4.524   1.942   5.704
 9181SOL    HW228443   4.686   1.941   5.723
 9182SOL     OW28444   2.899   0.074   1.958
 9182SOL    HW128445   2.925   0.059   1.863
 9182SOL    HW228446   2.980   0.069   2.016
 9183SOL     OW28447   4.733   5.739   0.380
 9183SOL    HW128448   4.771   5.665   0.436
 9183SOL    HW228449   4.637   5.754   0.406
 9184SOL     OW28450   4.654   1.408   0.406
 9184SOL    HW128451   4.723   1.480   0.417
 9184SOL    HW228452   4.570   1.435   0.453
 9185SOL     OW28453   4.127   6.626   4.395
 9185SOL    HW128454   4.156   6.611   4.300
 9185SOL    HW228455   4.159   6.550   4.452
 9186SOL     OW28456   5.389   6.011   4.752
 9186SOL    HW128457   5.485   5.995   4.778
 9186SOL    HW228458   5.361   6.103   4.780
 9187SOL     OW28459   2.385   2.150   0.748
 9187SOL    HW128460   2.412   2.246   0.752
 9187SOL    HW228461   2.442   2.097   0.812
 9188SOL     OW28462   1.587   6.470   0.935
 9188SOL    HW128463   1.636   6.386   0.912
 9188SOL    HW228464   1.526   6.495   0.859
 9189SOL     OW28465   3.944   5.906   1.727
 9189SOL    HW128466   3.995   5.921   1.642
 9189SOL    HW228467   3.852   5.875   1.705
 9190SOL     OW28468   3.040   4.263   6.099
 9190SOL    HW128469   3.020   4.355   6.134
 9190SOL    HW228470   2.992   4.195   6.155
 9191SOL     OW28471   6.178   2.316   6.360
 9191SOL    HW128472   6.127   2.255   6.420
 9191SOL    HW228473   6.270   2.329   6.397
 9192SOL     OW28474   0.813   3.130   5.769
 9192SOL    HW128475   0.833   3.033   5.781
 9192SOL    HW228476   0.714   3.142   5.756
 9193SOL     OW28477   4.622   4.520   6.910
 9193SOL    HW128478   4.584   4.559   6.994
 9193SOL    HW228479   4.677   4.589   6.863
 9194SOL     OW28480   3.248   0.926   3.405
 9194SOL    HW128481   3.175   0.921   3.337
 9194SOL    HW228482   3.215   0.972   3.487
 9195SOL     OW28483   1.967   1.787   3.683
 9195SOL    HW128484   2.041   1.773   3.618
 9195SOL    HW228485   1.881   1.752   3.645
 9196SOL     OW28486   5.231   0.469   2.560
 9196SOL    HW128487   5.323   0.507   2.562
 9196SOL    HW228488   5.179   0.501   2.639
 9197SOL     OW28489   1.984   5.774   1.454
 9197SOL    HW128490   2.079   5.797   1.431
 9197SOL    HW228491   1.963   5.683   1.419
 9198SOL     OW28492   6.090   5.174   6.762
 9198SOL    HW128493   6.028   5.097   6.775
 9198SOL    HW228494   6.179   5.141   6.730
 9199SOL     OW28495   0.908   3.827   5.947
 9199SOL    HW128496   0.881   3.746   6.000
 9199SOL    HW228497   0.922   3.904   6.009
 9200SOL     OW28498   2.910   6.180   6.727
 9200SOL    HW128499   2.989   6.240   6.727
 9200SOL    HW228500   2.827   6.233   6.746
 9201SOL     OW28501   6.735   2.443   0.350
 9201SOL    HW128502   6.779   2.415   0.265
 9201SOL    HW228503   6.726   2.543   0.351
 9202SOL     OW28504   1.343   6.532   2.246
 9202SOL    HW128505   1.348   6.590   2.328
 9202SOL    HW228506   1.278   6.458   2.262
 9203SOL     OW28507   0.559   3.714   5.983
 9203SOL    HW128508   0.509   3.710   6.069
 9203SOL    HW228509   0.563   3.810   5.952
 9204SOL     OW28510   4.819   2.995   5.975
 9204SOL    HW128511   4.802   3.057   5.898
 9204SOL    HW228512   4.863   2.912   5.942
 9205SOL     OW28513   5.865   5.195   3.372
 9205SOL    HW128514   5.864   5.095   3.369
 9205SOL    HW228515   5.869   5.230   3.278
 9206SOL     OW28516   4.148   5.880   2.842
 9206SOL    HW128517   4.199   5.966   2.846
 9206SOL    HW228518   4.088   5.881   2.762
 9207SOL     OW28519   5.164   3.919   5.591
 9207SOL    HW128520   5.250   3.869   5.601
 9207SOL    HW228521   5.094   3.858   5.555
 9208SOL     OW28522   5.571   4.693   3.750
 9208SOL    HW128523   5.480   4.667   3.716
 9208SOL    HW228524   5.606   4.620   3.809
 9209SOL     OW28525   4.083   0.483   6.835
 9209SOL    HW128526   4.093   0.398   6.784
 9209SOL    HW228527   4.008   0.475   6.900
 9210SOL     OW28528   0.146   0.679   2.594
 9210SOL    HW128529   0.229   0.662   2.648
 9210SOL    HW228530   0.161   0.756   2.532
 9211SOL     OW28531   0.945   2.344   6.216
 9211SOL    HW128532   1.023   2.325   6.158
 9211SOL    HW228533   0.930   2.443   6.220
 9212SOL     OW28534   4.525   5.674   4.300
 9212SOL    HW128535   4.426   5.680   4.317
 9212SOL    HW228536   4.545   5.591   4.248
 9213SOL     OW28537   5.388   3.140   4.891
 9213SOL    HW128538   5.419   3.185   4.807
 9213SOL    HW228539   5.455   3.156   4.963
 9214SOL     OW28540   6.500   3.598   6.462
 9214SOL    HW128541   6.582   3.628   6.413
 9214SOL    HW228542   6.521   3.586   6.559
 9215SOL     OW28543   0.695   2.646   1.320
 9215SOL    HW128544   0.667   2.597   1.237
 9215SOL    HW228545   0.621   2.643   1.387
 9216SOL     OW28546   3.592   0.108   2.458
 9216SOL    HW128547   3.571   0.143   2.549
 9216SOL    HW228548   3.690   0.092   2.449
 9217SOL     OW28549   7.002   2.639   0.018
 9217SOL    HW128550   0.075   2.622   0.018
 9217SOL    HW228551   6.985   2.734   7.017
 9218SOL     OW28552   1.848   6.853   6.983
 9218SOL    HW128553   1.786   6.774   6.979
 9218SOL    HW228554   1.876   6.869   0.052
 9219SOL     OW28555   6.330   3.229   1.301
 9219SOL    HW128556   6.275   3.171   1.241
 9219SOL    HW228557   6.269   3.282   1.360
 9220SOL     OW28558   1.235   6.706   1.263
 9220SOL    HW128559   1.280   6.681   1.348
 9220SOL    HW228560   1.137   6.688   1.271
 9221SOL     OW28561   3.313   0.442   3.243
 9221SOL    HW128562   3.285   0.406   3.332
 9221SOL    HW228563   3.345   0.366   3.185
 9222SOL     OW28564   2.334   6.641   6.325
 9222SOL    HW128565   2.411   6.614   6.383
 9222SOL    HW228566   2.321   6.572   6.254
 9223SOL     OW28567   1.157   1.252   3.946
 9223SOL    HW128568   1.122   1.159   3.953
 9223SOL    HW228569   1.081   1.315   3.927
 9224SOL     OW28570   1.126   5.047   4.645
 9224SOL    HW128571   1.199   5.100   4.689
 9224SOL    HW228572   1.041   5.060   4.697
 9225SOL     OW28573   3.280   6.762   5.897
 9225SOL    HW128574   3.340   6.787   5.973
 9225SOL    HW228575   3.187   6.750   5.930
 9226SOL     OW28576   5.941   6.466   0.777
 9226SOL    HW128577   5.958   6.487   0.873
 9226SOL    HW228578   6.027   6.444   0.731
 9227SOL     OW28579   0.956   5.796   0.578
 9227SOL    HW128580   0.897   5.751   0.645
 9227SOL    HW228581   1.033   5.840   0.626
 9228SOL     OW28582   1.280   1.959   5.402
 9228SOL    HW128583   1.214   1.886   5.423
 9228SOL    HW228584   1.365   1.919   5.368
 9229SOL     OW28585   0.843   5.919   4.757
 9229SOL    HW128586   0.900   5.938   4.837
 9229SOL    HW228587   0.889   5.854   4.697
 9230SOL     OW28588   5.078   1.732   4.023
 9230SOL    HW128589   5.058   1.639   3.992
 9230SOL    HW228590   5.039   1.798   3.959
 9231SOL     OW28591   0.282   4.142   4.490
 9231SOL    HW128592   0.345   4.188   4.552
 9231SOL    HW228593   0.248   4.208   4.423
 9232SOL     OW28594   3.500   5.104   0.333
 9232SOL    HW128595   3.568   5.036   0.361
 9232SOL    HW228596   3.511   5.187   0.388
 9233SOL     OW28597   5.425   5.272   2.031
 9233SOL    HW128598   5.454   5.287   2.125
 9233SOL    HW228599   5.354   5.339   2.007
 9234SOL     OW28600   3.528   6.059   5.732
 9234SOL    HW128601   3.596   6.024   5.796
 9234SOL    HW228602   3.436   6.036   5.765
 9235SOL     OW28603   1.523   3.332   3.471
 9235SOL    HW128604   1.588   3.263   3.441
 9235SOL    HW228605   1.546   3.362   3.564
 9236SOL     OW28606   2.551   4.611   5.864
 9236SOL    HW128607   2.526   4.587   5.770
 9236SOL    HW228608   2.519   4.703   5.885
 9237SOL     OW28609   1.573   5.174   4.479
 9237SOL    HW128610   1.657   5.120   4.473
 9237SOL    HW228611   1.527   5.174   4.390
 9238SOL     OW28612   3.649   1.375   0.046
 9238SOL    HW128613   3.628   1.310   6.999
 9238SOL    HW228614   3.563   1.415   0.079
 9239SOL     OW28615   6.999   4.334   0.332
 9239SOL    HW128616   7.016   4.326   0.430
 9239SOL    HW228617   0.021   4.261   0.283
 9240SOL     OW28618   5.766   1.216   1.377
 9240SOL    HW128619   5.758   1.255   1.286
 9240SOL    HW228620   5.861   1.222   1.408
 9241SOL     OW28621   0.636   5.498   5.303
 9241SOL    HW128622   0.694   5.537   5.231
 9241SOL    HW228623   0.572   5.567   5.335
 9242SOL     OW28624   0.552   5.189   0.102
 9242SOL    HW128625   0.513   5.271   0.059
 9242SOL    HW228626   0.562   5.205   0.200
 9243SOL     OW28627   5.309   6.610   1.430
 9243SOL    HW128628   5.222   6.562   1.414
 9243SOL    HW228629   5.385   6.547   1.415
 9244SOL     OW28630   4.465   5.626   6.241
 9244SOL    HW128631   4.419   5.577   6.167
 9244SOL    HW228632   4.509   5.708   6.204
 9245SOL     OW28633   1.418   4.959   3.408
 9245SOL    HW128634   1.353   5.010   3.352
 9245SOL    HW228635   1.418   4.863   3.381
 9246SOL     OW28636   0.201   5.718   2.259
 9246SOL    HW128637   0.212   5.642   2.323
 9246SOL    HW228638   0.118   5.769   2.282
 9247SOL     OW28639   1.384   0.030   2.530
 9247SOL    HW128640   1.341   0.103   2.477
 9247SOL    HW228641   1.452   7.010   2.474
 9248SOL     OW28642   1.641   2.036   4.607
 9248SOL    HW128643   1.563   2.015   4.549
 9248SOL    HW228644   1.651   1.966   4.678
 9249SOL     OW28645   4.488   4.298   0.356
 9249SOL    HW128646   4.499   4.248   0.270
 9249SOL    HW228647   4.569   4.356   0.370
 9250SOL     OW28648   5.567   3.351   4.261
 9250SOL    HW128649   5.579   3.433   4.316
 9250SOL    HW228650   5.470   3.338   4.241
 9251SOL     OW28651   4.237   2.265   3.082
 9251SOL    HW128652   4.279   2.175   3.070
 9251SOL    HW228653   4.183   2.265   3.166
 9252SOL     OW28654   5.759   0.342   4.618
 9252SOL    HW128655   5.768   0.292   4.531
 9252SOL    HW228656   5.753   0.440   4.599
 9253SOL     OW28657   5.752   6.501   5.480
 9253SOL    HW128658   5.665   6.506   5.529
 9253SOL    HW228659   5.820   6.555   5.528
 9254SOL     OW28660   6.213   4.426   2.754
 9254SOL    HW128661   6.128   4.402   2.707
 9254SOL    HW228662   6.253   4.345   2.795
 9255SOL     OW28663   4.917   3.523   6.824
 9255SOL    HW128664   4.906   3.442   6.882
 9255SOL    HW228665   4.878   3.602   6.870
 9256SOL     OW28666   4.595   6.792   2.921
 9256SOL    HW128667   4.550   6.706   2.945
 9256SOL    HW228668   4.680   6.801   2.973
 9257SOL     OW28669   0.613   3.594   2.854
 9257SOL    HW128670   0.581   3.665   2.916
 9257SOL    HW228671   0.646   3.515   2.907
 9258SOL     OW28672   3.449   3.206   4.267
 9258SOL    HW128673   3.474   3.239   4.358
 9258SOL    HW228674   3.352   3.227   4.250
 9259SOL     OW28675   1.095   2.751   6.323
 9259SOL    HW128676   1.039   2.779   6.400
 9259SOL    HW228677   1.036   2.721   6.248
 9260SOL     OW28678   5.245   1.999   4.596
 9260SOL    HW128679   5.212   1.905   4.581
 9260SOL    HW228680   5.221   2.055   4.517
 9261SOL     OW28681   4.790   0.866   6.801
 9261SOL    HW128682   4.725   0.910   6.740
 9261SOL    HW228683   4.775   0.767   6.799
 9262SOL     OW28684   6.879   3.675   5.933
 9262SOL    HW128685   6.878   3.720   6.022
 9262SOL    HW228686   6.834   3.586   5.940
 9263SOL     OW28687   5.628   5.618   2.093
 9263SOL    HW128688   5.535   5.637   2.124
 9263SOL    HW228689   5.690   5.617   2.171
 9264SOL     OW28690   5.692   4.174   0.278
 9264SOL    HW128691   5.737   4.237   0.342
 9264SOL    HW228692   5.711   4.080   0.305
 9265SOL     OW28693   3.819   1.936   0.066
 9265SOL    HW128694   3.907   1.944   0.112
 9265SOL    HW228695   3.778   2.026   0.054
 9266SOL     OW28696   2.236   7.008   1.868
 9266SOL    HW128697   2.229   6.955   1.952
 9266SOL    HW228698   2.312   0.047   1.877
 9267SOL     OW28699   0.699   3.897   5.762
 9267SOL    HW128700   0.761   3.885   5.840
 9267SOL    HW228701   0.610   3.928   5.795
 9268SOL     OW28702   1.355   5.782   1.669
 9268SOL    HW128703   1.338   5.828   1.582
 9268SOL    HW228704   1.317   5.690   1.665
 9269SOL     OW28705   2.790   1.391   6.075
 9269SOL    HW128706   2.860   1.360   6.012
 9269SOL    HW228707   2.700   1.383   6.032
 9270SOL     OW28708   4.414   6.576   6.101
 9270SOL    HW128709   4.396   6.499   6.039
 9270SOL    HW228710   4.339   6.642   6.093
 9271SOL     OW28711   1.105   6.897   0.056
 9271SOL    HW128712   1.111   6.994   0.079
 9271SOL    HW228713   1.191   6.851   0.080
 9272SOL     OW28714   1.633   4.984   4.808
 9272SOL    HW128715   1.565   4.939   4.865
 9272SOL    HW228716   1.636   4.941   4.718
 9273SOL     OW28717   5.757   6.225   3.671
 9273SOL    HW128718   5.785   6.300   3.611
 9273SOL    HW228719   5.732   6.261   3.760
 9274SOL     OW28720   6.322   2.570   0.091
 9274SOL    HW128721   6.248   2.539   0.151
 9274SOL    HW228722   6.323   2.515   0.008
 9275SOL     OW28723   6.650   2.155   6.876
 9275SOL    HW128724   6.696   2.242   6.889
 9275SOL    HW228725   6.692   2.107   6.799
 9276SOL     OW28726   1.742   4.416   2.475
 9276SOL    HW128727   1.791   4.409   2.389
 9276SOL    HW228728   1.647   4.444   2.458
 9277SOL     OW28729   5.315   3.088   0.269
 9277SOL    HW128730   5.356   3.169   0.312
 9277SOL    HW228731   5.232   3.062   0.319
 9278SOL     OW28732   1.132   0.287   5.872
 9278SOL    HW128733   1.173   0.200   5.841
 9278SOL    HW228734   1.090   0.333   5.794
 9279SOL     OW28735   5.194   0.835   1.590
 9279SOL    HW128736   5.236   0.746   1.571
 9279SOL    HW228737   5.265   0.900   1.616
 9280SOL     OW28738   1.674   1.400   3.241
 9280SOL    HW128739   1.735   1.401   3.320
 9280SOL    HW228740   1.711   1.339   3.171
 9281SOL     OW28741   2.675   4.332   0.861
 9281SOL    HW128742   2.625   4.408   0.818
 9281SOL    HW228743   2.610   4.269   0.903
 9282SOL     OW28744   5.028   0.595   4.634
 9282SOL    HW128745   5.060   0.528   4.700
 9282SOL    HW228746   4.965   0.659   4.678
 9283SOL     OW28747   6.080   0.636   4.015
 9283SOL    HW128748   6.042   0.580   3.941
 9283SOL    HW228749   6.006   0.685   4.061
 9284SOL     OW28750   3.186   4.300   6.588
 9284SOL    HW128751   3.129   4.382   6.577
 9284SOL    HW228752   3.189   4.275   6.685
 9285SOL     OW28753   5.133   2.512   1.145
 9285SOL    HW128754   5.220   2.559   1.159
 9285SOL    HW228755   5.096   2.538   1.055
 9286SOL     OW28756   5.089   6.157   0.084
 9286SOL    HW128757   5.182   6.127   0.106
 9286SOL    HW228758   5.084   6.257   0.092
 9287SOL     OW28759   3.386   4.960   6.579
 9287SOL    HW128760   3.484   4.942   6.586
 9287SOL    HW228761   3.369   5.020   6.500
 9288SOL     OW28762   4.070   1.458   4.435
 9288SOL    HW128763   4.155   1.421   4.398
 9288SOL    HW228764   4.085   1.553   4.464
 9289SOL     OW28765   4.271   1.547   2.466
 9289SOL    HW128766   4.263   1.645   2.445
 9289SOL    HW228767   4.205   1.523   2.537
 9290SOL     OW28768   5.339   1.307   3.185
 9290SOL    HW128769   5.256   1.267   3.146
 9290SOL    HW228770   5.396   1.345   3.112
 9291SOL     OW28771   1.782   6.839   3.919
 9291SOL    HW128772   1.761   6.935   3.903
 9291SOL    HW228773   1.718   6.801   3.986
 9292SOL     OW28774   0.715   3.584   6.655
 9292SOL    HW128775   0.702   3.662   6.716
 9292SOL    HW228776   0.737   3.503   6.709
 9293SOL     OW28777   5.623   3.832   6.848
 9293SOL    HW128778   5.709   3.826   6.899
 9293SOL    HW228779   5.641   3.824   6.750
 9294SOL     OW28780   3.250   0.290   4.712
 9294SOL    HW128781   3.305   0.235   4.650
 9294SOL    HW228782   3.276   0.386   4.703
 9295SOL     OW28783   5.516   1.942   4.430
 9295SOL    HW128784   5.578   1.949   4.352
 9295SOL    HW228785   5.504   2.033   4.471
 9296SOL     OW28786   0.421   6.231   6.330
 9296SOL    HW128787   0.401   6.286   6.411
 9296SOL    HW228788   0.363   6.262   6.254
 9297SOL     OW28789   6.724   1.263   0.517
 9297SOL    HW128790   6.659   1.199   0.558
 9297SOL    HW228791   6.710   1.265   0.418
 9298SOL     OW28792   1.267   0.681   4.983
 9298SOL    HW128793   1.305   0.602   4.936
 9298SOL    HW228794   1.178   0.658   5.022
 9299SOL     OW28795   0.833   2.370   4.141
 9299SOL    HW128796   0.854   2.316   4.222
 9299SOL    HW228797   0.743   2.344   4.106
 9300SOL     OW28798   0.649   4.523   5.503
 9300SOL    HW128799   0.620   4.540   5.409
 9300SOL    HW228800   0.740   4.563   5.518
 9301SOL     OW28801   4.670   4.281   3.857
 9301SOL    HW128802   4.736   4.337   3.908
 9301SOL    HW228803   4.580   4.288   3.900
 9302SOL     OW28804   2.411   2.736   4.165
 9302SOL    HW128805   2.465   2.681   4.230
 9302SOL    HW228806   2.380   2.678   4.090
 9303SOL     OW28807   2.968   5.138   0.549
 9303SOL    HW128808   2.990   5.041   0.536
 9303SOL    HW228809   2.985   5.187   0.464
 9304SOL     OW28810   4.718   4.603   2.160
 9304SOL    HW128811   4.732   4.590   2.062
 9304SOL    HW228812   4.752   4.523   2.209
 9305SOL     OW28813   3.356   0.900   1.445
 9305SOL    HW128814   3.340   0.983   1.393
 9305SOL    HW228815   3.301   0.902   1.529
 9306SOL     OW28816   0.040   4.362   4.663
 9306SOL    HW128817   0.090   4.292   4.713
 9306SOL    HW228818   0.088   4.450   4.670
 9307SOL     OW28819   1.333   3.337   1.646
 9307SOL    HW128820   1.377   3.316   1.733
 9307SOL    HW228821   1.274   3.260   1.619
 9308SOL     OW28822   1.789   4.410   0.495
 9308SOL    HW128823   1.847   4.406   0.576
 9308SOL    HW228824   1.845   4.419   0.413
 9309SOL     OW28825   3.201   4.849   5.489
 9309SOL    HW128826   3.193   4.849   5.389
 9309SOL    HW228827   3.285   4.896   5.516
 9310SOL     OW28828   4.383   5.222   6.559
 9310SOL    HW128829   4.345   5.302   6.512
 9310SOL    HW228830   4.317   5.187   6.625
 9311SOL     OW28831   4.185   4.736   2.122
 9311SOL    HW128832   4.243   4.655   2.118
 9311SOL    HW228833   4.107   4.724   2.061
 9312SOL     OW28834   1.045   3.219   1.263
 9312SOL    HW128835   0.947   3.235   1.259
 9312SOL    HW228836   1.082   3.256   1.348
 9313SOL     OW28837   0.075   0.304   0.889
 9313SOL    HW128838   0.144   0.305   0.962
 9313SOL    HW228839   0.100   0.371   0.820
 9314SOL     OW28840   4.835   6.055   6.059
 9314SOL    HW128841   4.753   6.092   6.102
 9314SOL    HW228842   4.897   6.129   6.036
 9315SOL     OW28843   6.602   0.550   5.271
 9315SOL    HW128844   6.520   0.565   5.326
 9315SOL    HW228845   6.580   0.563   5.174
 9316SOL     OW28846   3.995   5.389   5.561
 9316SOL    HW128847   3.991   5.321   5.634
 9316SOL    HW228848   3.965   5.478   5.597
 9317SOL     OW28849   6.698   5.253   3.232
 9317SOL    HW128850   6.681   5.155   3.240
 9317SOL    HW228851   6.642   5.291   3.159
 9318SOL     OW28852   6.516   0.472   5.772
 9318SOL    HW128853   6.587   0.435   5.832
 9318SOL    HW228854   6.544   0.562   5.739
 9319SOL     OW28855   1.625   3.130   0.190
 9319SOL    HW128856   1.531   3.157   0.168
 9319SOL    HW228857   1.682   3.141   0.108
 9320SOL     OW28858   3.787   0.477   5.347
 9320SOL    HW128859   3.766   0.515   5.257
 9320SOL    HW228860   3.821   0.550   5.407
 9321SOL     OW28861   6.316   0.418   3.586
 9321SOL    HW128862   6.412   0.436   3.607
 9321SOL    HW228863   6.275   0.500   3.544
 9322SOL     OW28864   1.257   4.438   6.566
 9322SOL    HW128865   1.313   4.422   6.484
 9322SOL    HW228866   1.242   4.351   6.613
 9323SOL     OW28867   1.433   0.969   5.600
 9323SOL    HW128868   1.342   0.985   5.561
 9323SOL    HW228869   1.481   0.902   5.543
 9324SOL     OW28870   1.527   4.372   0.421
 9324SOL    HW128871   1.619   4.397   0.453
 9324SOL    HW228872   1.521   4.389   0.323
 9325SOL     OW28873   4.757   0.894   0.079
 9325SOL    HW128874   4.781   0.866   7.012
 9325SOL    HW228875   4.660   0.919   0.082
 9326SOL     OW28876   2.178   5.570   0.714
 9326SOL    HW128877   2.190   5.663   0.750
 9326SOL    HW228878   2.119   5.574   0.633
 9327SOL     OW28879   5.227   0.167   3.071
 9327SOL    HW128880   5.153   0.120   3.120
 9327SOL    HW228881   5.309   0.168   3.127
 9328SOL     OW28882   2.666   0.700   5.737
 9328SOL    HW128883   2.746   0.643   5.755
 9328SOL    HW228884   2.582   0.647   5.753
 9329SOL     OW28885   5.715   3.891   1.577
 9329SOL    HW128886   5.706   3.988   1.551
 9329SOL    HW228887   5.686   3.879   1.672
 9330SOL     OW28888   6.000   6.587   6.812
 9330SOL    HW128889   5.964   6.573   6.905
 9330SOL    HW228890   6.022   6.499   6.771
 9331SOL     OW28891   1.761   1.192   0.061
 9331SOL    HW128892   1.726   1.146   7.005
 9331SOL    HW228893   1.685   1.240   0.107
 9332SOL     OW28894   3.870   4.007   1.826
 9332SOL    HW128895   3.908   4.056   1.748
 9332SOL    HW228896   3.809   3.935   1.794
 9333SOL     OW28897   3.938   3.505   1.170
 9333SOL    HW128898   3.896   3.526   1.258
 9333SOL    HW228899   3.866   3.484   1.103
 9334SOL     OW28900   5.547   6.046   3.839
 9334SOL    HW128901   5.539   5.950   3.812
 9334SOL    HW228902   5.642   6.066   3.864
 9335SOL     OW28903   0.959   1.018   6.472
 9335SOL    HW128904   1.003   0.969   6.397
 9335SOL    HW228905   1.022   1.084   6.511
 9336SOL     OW28906   2.817   5.433   5.509
 9336SOL    HW128907   2.754   5.358   5.529
 9336SOL    HW228908   2.829   5.441   5.410
 9337SOL     OW28909   4.920   1.699   4.242
 9337SOL    HW128910   4.964   1.718   4.154
 9337SOL    HW228911   4.835   1.649   4.227
 9338SOL     OW28912   5.027   0.987   2.233
 9338SOL    HW128913   5.059   0.911   2.176
 9338SOL    HW228914   5.028   1.071   2.179
 9339SOL     OW28915   5.687   7.020   1.360
 9339SOL    HW128916   5.661   0.046   1.279
 9339SOL    HW228917   5.664   0.046   1.442
 9340SOL     OW28918   5.870   3.772   4.601
 9340SOL    HW128919   5.902   3.844   4.661
 9340SOL    HW228920   5.910   3.783   4.510
 9341SOL     OW28921   0.066   5.775   0.341
 9341SOL    HW128922   0.140   5.721   0.301
 9341SOL    HW228923   7.012   5.718   0.356
 9342SOL     OW28924   1.928   6.628   3.805
 9342SOL    HW128925   1.972   6.588   3.886
 9342SOL    HW228926   1.869   6.704   3.834
 9343SOL     OW28927   5.951   4.115   2.533
 9343SOL    HW128928   5.970   4.138   2.438
 9343SOL    HW228929   5.948   4.016   2.544
 9344SOL     OW28930   4.682   6.430   2.812
 9344SOL    HW128931   4.613   6.498   2.833
 9344SOL    HW228932   4.733   6.407   2.895
 9345SOL     OW28933   6.263   5.088   2.299
 9345SOL    HW128934   6.316   5.056   2.377
 9345SOL    HW228935   6.167   5.062   2.310
 9346SOL     OW28936   6.674   0.600   1.115
 9346SOL    HW128937   6.588   0.619   1.162
 9346SOL    HW228938   6.729   0.683   1.111
 9347SOL     OW28939   1.836   3.640   0.911
 9347SOL    HW128940   1.756   3.608   0.862
 9347SOL    HW228941   1.818   3.731   0.949
 9348SOL     OW28942   3.574   5.974   2.094
 9348SOL    HW128943   3.632   6.041   2.048
 9348SOL    HW228944   3.585   5.885   2.052
 9349SOL     OW28945   6.730   5.838   3.534
 9349SOL    HW128946   6.713   5.790   3.620
 9349SOL    HW228947   6.763   5.773   3.465
 9350SOL     OW28948   0.756   3.495   5.200
 9350SOL    HW128949   0.675   3.462   5.248
 9350SOL    HW228950   0.739   3.588   5.167
 9351SOL     OW28951   2.723   0.163   6.761
 9351SOL    HW128952   2.723   0.169   6.662
 9351SOL    HW228953   2.634   0.189   6.797
 9352SOL     OW28954   3.740   1.745   6.901
 9352SOL    HW128955   3.779   1.805   6.972
 9352SOL    HW228956   3.810   1.723   6.834
 9353SOL     OW28957   0.306   4.096   0.638
 9353SOL    HW128958   0.359   4.180   0.634
 9353SOL    HW228959   0.366   4.017   0.621
 9354SOL     OW28960   6.977   1.967   6.361
 9354SOL    HW128961   6.976   2.050   6.417
 9354SOL    HW228962   0.026   1.907   6.390
 9355SOL     OW28963   0.297   2.345   4.574
 9355SOL    HW128964   0.199   2.349   4.590
 9355SOL    HW228965   0.328   2.429   4.530
 9356SOL     OW28966   4.863   0.618   1.833
 9356SOL    HW128967   4.783   0.624   1.773
 9356SOL    HW228968   4.835   0.636   1.927
 9357SOL     OW28969   1.752   2.885   5.463
 9357SOL    HW128970   1.817   2.958   5.441
 9357SOL    HW228971   1.706   2.907   5.549
 9358SOL     OW28972   6.437   3.933   2.254
 9358SOL    HW128973   6.408   3.991   2.178
 9358SOL    HW228974   6.398   3.842   2.243
 9359SOL     OW28975   1.164   4.541   6.151
 9359SOL    HW128976   1.216   4.619   6.186
 9359SOL    HW228977   1.157   4.472   6.223
 9360SOL     OW28978   1.160   5.110   6.174
 9360SOL    HW128979   1.161   5.210   6.170
 9360SOL    HW228980   1.246   5.078   6.213
 9361SOL     OW28981   1.710   4.523   3.849
 9361SOL    HW128982   1.751   4.614   3.840
 9361SOL    HW228983   1.610   4.532   3.854
 9362SOL     OW28984   0.880   1.116   2.326
 9362SOL    HW128985   0.920   1.193   2.276
 9362SOL    HW228986   0.946   1.081   2.392
 9363SOL     OW28987   2.890   5.444   2.135
 9363SOL    HW128988   2.804   5.423   2.090
 9363SOL    HW228989   2.966   5.423   2.073
 9364SOL     OW28990   2.512   2.089   0.163
 9364SOL    HW128991   2.429   2.036   0.144
 9364SOL    HW228992   2.591   2.029   0.163
 9365SOL     OW28993   3.206   1.833   3.100
 9365SOL    HW128994   3.131   1.847   3.035
 9365SOL    HW228995   3.168   1.812   3.190
 9366SOL     OW28996   2.969   5.482   6.925
 9366SOL    HW128997   2.926   5.406   6.974
 9366SOL    HW228998   2.905   5.558   6.920
 9367SOL     OW28999   6.327   6.525   2.090
 9367SOL    HW129000   6.242   6.522   2.143
 9367SOL    HW229001   6.404   6.541   2.153
 9368SOL     OW29002   3.658   0.391   2.262
 9368SOL    HW129003   3.566   0.416   2.233
 9368SOL    HW229004   3.665   0.398   2.361
 9369SOL     OW29005   6.388   6.768   3.660
 9369SOL    HW129006   6.424   6.851   3.702
 9369SOL    HW229007   6.290   6.761   3.677
 9370SOL     OW29008   5.480   0.067   4.575
 9370SOL    HW129009   5.457   0.070   4.672
 9370SOL    HW229010   5.414   0.122   4.524
 9371SOL     OW29011   2.651   5.626   0.440
 9371SOL    HW129012   2.696   5.710   0.408
 9371SOL    HW229013   2.553   5.630   0.417
 9372SOL     OW29014   5.195   0.001   1.447
 9372SOL    HW129015   5.207   0.056   1.365
 9372SOL    HW229016   5.195   0.061   1.527
 9373SOL     OW29017   4.688   2.196   0.847
 9373SOL    HW129018   4.773   2.248   0.851
 9373SOL    HW229019   4.666   2.162   0.939
 9374SOL     OW29020   0.744   3.306   6.236
 9374SOL    HW129021   0.774   3.377   6.173
 9374SOL    HW229022   0.733   3.220   6.186
 9375SOL     OW29023   0.506   2.152   0.484
 9375SOL    HW129024   0.568   2.078   0.508
 9375SOL    HW229025   0.420   2.113   0.449
 9376SOL     OW29026   2.287   3.859   1.941
 9376SOL    HW129027   2.308   3.866   2.038
 9376SOL    HW229028   2.260   3.949   1.906
 9377SOL     OW29029   1.626   5.109   3.520
 9377SOL    HW129030   1.688   5.084   3.445
 9377SOL    HW229031   1.547   5.046   3.519
 9378SOL     OW29032   3.846   1.324   3.354
 9378SOL    HW129033   3.746   1.326   3.362
 9378SOL    HW229034   3.884   1.272   3.431
 9379SOL     OW29035   4.792   0.205   4.517
 9379SOL    HW129036   4.717   0.247   4.568
 9379SOL    HW229037   4.759   0.123   4.470
 9380SOL     OW29038   3.854   5.774   5.169
 9380SOL    HW129039   3.775   5.808   5.118
 9380SOL    HW229040   3.850   5.809   5.263
 9381SOL     OW29041   5.324   2.687   5.601
 9381SOL    HW129042   5.351   2.776   5.565
 9381SOL    HW229043   5.225   2.676   5.593
 9382SOL     OW29044   4.095   1.583   4.117
 9382SOL    HW129045   4.167   1.631   4.167
 9382SOL    HW229046   4.120   1.487   4.108
 9383SOL     OW29047   5.443   5.031   4.333
 9383SOL    HW129048   5.532   5.068   4.306
 9383SOL    HW229049   5.447   4.999   4.428
 9384SOL     OW29050   3.594   0.105   2.010
 9384SOL    HW129051   3.691   0.083   2.011
 9384SOL    HW229052   3.569   0.144   1.922
 9385SOL     OW29053   4.555   1.268   4.204
 9385SOL    HW129054   4.565   1.199   4.275
 9385SOL    HW229055   4.516   1.226   4.122
 9386SOL     OW29056   2.854   5.681   4.827
 9386SOL    HW129057   2.864   5.583   4.809
 9386SOL    HW229058   2.943   5.725   4.823
 9387SOL     OW29059   3.401   2.171   0.719
 9387SOL    HW129060   3.331   2.223   0.769
 9387SOL    HW229061   3.470   2.234   0.684
 9388SOL     OW29062   1.718   6.564   3.431
 9388SOL    HW129063   1.622   6.577   3.405
 9388SOL    HW229064   1.776   6.569   3.350
 9389SOL     OW29065   3.220   6.531   2.583
 9389SOL    HW129066   3.195   6.469   2.509
 9389SOL    HW229067   3.279   6.483   2.648
 9390SOL     OW29068   5.955   5.375   5.911
 9390SOL    HW129069   6.042   5.389   5.959
 9390SOL    HW229070   5.972   5.367   5.813
 9391SOL     OW29071   0.262   0.813   5.758
 9391SOL    HW129072   0.317   0.738   5.720
 9391SOL    HW229073   0.171   0.811   5.718
 9392SOL     OW29074   5.174   4.445   4.572
 9392SOL    HW129075   5.118   4.523   4.601
 9392SOL    HW229076   5.204   4.459   4.478
 9393SOL     OW29077   2.795   6.758   5.500
 9393SOL    HW129078   2.835   6.739   5.590
 9393SOL    HW229079   2.734   6.684   5.473
 9394SOL     OW29080   6.373   0.639   1.047
 9394SOL    HW129081   6.341   0.546   1.032
 9394SOL    HW229082   6.331   0.677   1.129
 9395SOL     OW29083   2.400   0.957   0.686
 9395SOL    HW129084   2.391   1.032   0.752
 9395SOL    HW229085   2.461   0.986   0.612
 9396SOL     OW29086   1.337   4.412   4.764
 9396SOL    HW129087   1.238   4.404   4.757
 9396SOL    HW229088   1.380   4.324   4.742
 9397SOL     OW29089   2.603   6.578   5.865
 9397SOL    HW129090   2.626   6.497   5.811
 9397SOL    HW229091   2.573   6.651   5.803
 9398SOL     OW29092   6.185   1.558   5.725
 9398SOL    HW129093   6.107   1.549   5.663
 9398SOL    HW229094   6.179   1.645   5.774
 9399SOL     OW29095   0.826   3.211   4.001
 9399SOL    HW129096   0.870   3.126   4.028
 9399SOL    HW229097   0.787   3.255   4.082
 9400SOL     OW29098   4.539   0.403   0.782
 9400SOL    HW129099   4.533   0.502   0.798
 9400SOL    HW229100   4.518   0.354   0.866
 9401SOL     OW29101   0.227   2.242   2.360
 9401SOL    HW129102   0.158   2.247   2.433
 9401SOL    HW229103   0.306   2.191   2.393
 9402SOL     OW29104   1.168   4.367   3.022
 9402SOL    HW129105   1.241   4.305   3.052
 9402SOL    HW229106   1.209   4.446   2.976
 9403SOL     OW29107   6.700   1.480   1.941
 9403SOL    HW129108   6.667   1.385   1.937
 9403SOL    HW229109   6.626   1.542   1.919
 9404SOL     OW29110   0.368   1.855   0.812
 9404SOL    HW129111   0.352   1.953   0.800
 9404SOL    HW229112   0.350   1.830   0.907
 9405SOL     OW29113   1.344   3.769   4.558
 9405SOL    HW129114   1.307   3.774   4.465
 9405SOL    HW229115   1.444   3.763   4.554
 9406SOL     OW29116   1.407   3.400   0.204
 9406SOL    HW129117   1.404   3.459   0.285
 9406SOL    HW229118   1.413   3.456   0.122
 9407SOL     OW29119   2.723   5.060   4.241
 9407SOL    HW129120   2.706   5.147   4.193
 9407SOL    HW229121   2.725   5.077   4.340
 9408SOL     OW29122   0.676   2.030   6.297
 9408SOL    HW129123   0.610   1.998   6.365
 9408SOL    HW229124   0.759   2.061   6.344
 9409SOL     OW29125   6.424   5.735   1.606
 9409SOL    HW129126   6.475   5.670   1.549
 9409SOL    HW229127   6.354   5.685   1.658
 9410SOL     OW29128   4.323   1.230   1.645
 9410SOL    HW129129   4.291   1.271   1.559
 9410SOL    HW229130   4.266   1.263   1.720
 9411SOL     OW29131   3.752   3.669   3.341
 9411SOL    HW129132   3.748   3.713   3.252
 9411SOL    HW229133   3.735   3.737   3.413
 9412SOL     OW29134   1.310   0.144   2.128
 9412SOL    HW129135   1.255   0.176   2.205
 9412SOL    HW229136   1.298   0.045   2.117
 9413SOL     OW29137   4.566   5.166   4.842
 9413SOL    HW129138   4.491   5.152   4.908
 9413SOL    HW229139   4.653   5.162   4.890
 9414SOL     OW29140   3.194   2.045   4.318
 9414SOL    HW129141   3.191   2.092   4.407
 9414SOL    HW229142   3.212   1.948   4.333
 9415SOL     OW29143   2.507   0.239   1.540
 9415SOL    HW129144   2.464   0.193   1.463
 9415SOL    HW229145   2.529   0.333   1.515
 9416SOL     OW29146   0.434   0.875   5.469
 9416SOL    HW129147   0.478   0.909   5.552
 9416SOL    HW229148   0.501   0.871   5.395
 9417SOL     OW29149   4.034   6.655   1.749
 9417SOL    HW129150   4.062   6.568   1.789
 9417SOL    HW229151   3.983   6.639   1.665
 9418SOL     OW29152   2.367   1.100   2.670
 9418SOL    HW129153   2.400   1.021   2.722
 9418SOL    HW229154   2.435   1.124   2.600
 9419SOL     OW29155   2.128   3.280   6.572
 9419SOL    HW129156   2.196   3.318   6.510
 9419SOL    HW229157   2.044   3.259   6.522
 9420SOL     OW29158   5.211   4.589   0.427
 9420SOL    HW129159   5.235   4.553   0.517
 9420SOL    HW229160   5.277   4.556   0.359
 9421SOL     OW29161   3.091   5.304   3.997
 9421SOL    HW129162   3.031   5.319   3.918
 9421SOL    HW229163   3.086   5.208   4.024
 9422SOL     OW29164   2.710   6.099   3.679
 9422SOL    HW129165   2.777   6.121   3.750
 9422SOL    HW229166   2.625   6.149   3.695
 9423SOL     OW29167   4.004   6.185   2.946
 9423SOL    HW129168   3.977   6.133   3.027
 9423SOL    HW229169   4.100   6.167   2.924
 9424SOL     OW29170   5.557   1.576   4.586
 9424SOL    HW129171   5.492   1.503   4.567
 9424SOL    HW229172   5.608   1.554   4.669
 9425SOL     OW29173   5.609   5.399   1.114
 9425SOL    HW129174   5.510   5.390   1.108
 9425SOL    HW229175   5.638   5.481   1.065
 9426SOL     OW29176   2.203   1.523   5.930
 9426SOL    HW129177   2.187   1.480   6.019
 9426SOL    HW229178   2.121   1.571   5.900
 9427SOL     OW29179   2.422   5.978   3.201
 9427SOL    HW129180   2.400   5.981   3.104
 9427SOL    HW229181   2.503   6.035   3.218
 9428SOL     OW29182   6.929   0.174   0.451
 9428SOL    HW129183   6.843   0.152   0.406
 9428SOL    HW229184   6.910   0.217   0.539
 9429SOL     OW29185   1.714   2.365   3.803
 9429SOL    HW129186   1.683   2.349   3.897
 9429SOL    HW229187   1.712   2.279   3.752
 9430SOL     OW29188   0.361   2.562   4.416
 9430SOL    HW129189   0.408   2.620   4.350
 9430SOL    HW229190   0.295   2.504   4.368
 9431SOL     OW29191   6.573   4.288   1.181
 9431SOL    HW129192   6.596   4.217   1.114
 9431SOL    HW229193   6.628   4.370   1.162
 9432SOL     OW29194   6.071   1.508   4.461
 9432SOL    HW129195   6.070   1.504   4.561
 9432SOL    HW229196   5.980   1.535   4.428
 9433SOL     OW29197   3.883   5.752   3.320
 9433SOL    HW129198   3.946   5.802   3.381
 9433SOL    HW229199   3.905   5.773   3.225
 9434SOL     OW29200   5.667   5.603   3.521
 9434SOL    HW129201   5.717   5.637   3.601
 9434SOL    HW229202   5.688   5.507   3.507
 9435SOL     OW29203   0.207   1.720   2.628
 9435SOL    HW129204   0.161   1.728   2.716
 9435SOL    HW229205   0.180   1.795   2.569
 9436SOL     OW29206   1.293   1.279   2.707
 9436SOL    HW129207   1.288   1.352   2.640
 9436SOL    HW229208   1.388   1.265   2.734
 9437SOL     OW29209   0.849   5.171   3.658
 9437SOL    HW129210   0.863   5.106   3.732
 9437SOL    HW229211   0.854   5.264   3.694
 9438SOL     OW29212   0.784   0.114   1.981
 9438SOL    HW129213   0.880   0.087   1.987
 9438SOL    HW229214   0.740   0.065   1.905
 9439SOL     OW29215   0.818   3.064   0.727
 9439SOL    HW129216   0.879   3.116   0.667
 9439SOL    HW229217   0.862   3.050   0.815
 9440SOL     OW29218   3.252   4.869   3.246
 9440SOL    HW129219   3.192   4.943   3.278
 9440SOL    HW229220   3.199   4.784   3.240
 9441SOL     OW29221   6.420   6.012   5.774
 9441SOL    HW129222   6.465   5.923   5.785
 9441SOL    HW229223   6.358   6.027   5.851
 9442SOL     OW29224   4.872   3.344   1.773
 9442SOL    HW129225   4.807   3.418   1.758
 9442SOL    HW229226   4.873   3.284   1.693
 9443SOL     OW29227   2.762   6.018   1.500
 9443SOL    HW129228   2.839   6.081   1.505
 9443SOL    HW229229   2.715   6.015   1.589
 9444SOL     OW29230   1.615   4.377   0.855
 9444SOL    HW129231   1.632   4.285   0.893
 9444SOL    HW229232   1.692   4.404   0.797
 9445SOL     OW29233   6.765   2.356   3.128
 9445SOL    HW129234   6.666   2.356   3.110
 9445SOL    HW229235   6.790   2.273   3.176
 9446SOL     OW29236   0.381   5.075   4.458
 9446SOL    HW129237   0.455   5.139   4.479
 9446SOL    HW229238   0.419   4.989   4.427
 9447SOL     OW29239   5.247   4.623   3.051
 9447SOL    HW129240   5.212   4.684   3.122
 9447SOL    HW229241   5.202   4.643   2.964
 9448SOL     OW29242   6.315   6.825   5.980
 9448SOL    HW129243   6.294   6.812   5.884
 9448SOL    HW229244   6.232   6.814   6.035
 9449SOL     OW29245   5.554   6.500   0.356
 9449SOL    HW129246   5.564   6.436   0.280
 9449SOL    HW229247   5.638   6.502   0.410
 9450SOL     OW29248   1.660   5.218   3.761
 9450SOL    HW129249   1.643   5.183   3.669
 9450SOL    HW229250   1.721   5.297   3.756
 9451SOL     OW29251   4.289   5.860   6.103
 9451SOL    HW129252   4.254   5.816   6.021
 9451SOL    HW229253   4.359   5.927   6.078
 9452SOL     OW29254   0.547   3.961   0.110
 9452SOL    HW129255   0.544   4.029   0.038
 9452SOL    HW229256   0.469   3.973   0.171
 9453SOL     OW29257   2.421   4.919   2.636
 9453SOL    HW129258   2.471   4.995   2.594
 9453SOL    HW229259   2.390   4.856   2.565
 9454SOL     OW29260   4.277   3.494   0.118
 9454SOL    HW129261   4.204   3.454   0.173
 9454SOL    HW229262   4.356   3.433   0.118
 9455SOL     OW29263   2.182   2.008   2.650
 9455SOL    HW129264   2.113   2.080   2.651
 9455SOL    HW229265   2.261   2.037   2.703
 9456SOL     OW29266   6.516   4.424   2.004
 9456SOL    HW129267   6.428   4.398   1.964
 9456SOL    HW229268   6.587   4.417   1.935
 9457SOL     OW29269   0.516   4.296   4.246
 9457SOL    HW129270   0.551   4.379   4.203
 9457SOL    HW229271   0.434   4.318   4.300
 9458SOL     OW29272   0.159   3.830   0.313
 9458SOL    HW129273   0.230   3.897   0.335
 9458SOL    HW229274   0.188   3.776   0.233
 9459SOL     OW29275   5.296   4.402   3.983
 9459SOL    HW129276   5.280   4.430   4.077
 9459SOL    HW229277   5.222   4.341   3.953
 9460SOL     OW29278   2.257   2.764   4.406
 9460SOL    HW129279   2.226   2.857   4.390
 9460SOL    HW229280   2.301   2.729   4.324
 9461SOL     OW29281   0.910   1.253   1.506
 9461SOL    HW129282   0.819   1.269   1.544
 9461SOL    HW229283   0.934   1.157   1.515
 9462SOL     OW29284   1.627   3.052   3.691
 9462SOL    HW129285   1.701   3.068   3.756
 9462SOL    HW229286   1.542   3.094   3.725
 9463SOL     OW29287   5.229   0.134   1.206
 9463SOL    HW129288   5.237   0.084   1.120
 9463SOL    HW229289   5.304   0.199   1.214
 9464SOL     OW29290   5.671   0.098   0.881
 9464SOL    HW129291   5.595   0.081   0.819
 9464SOL    HW229292   5.722   0.178   0.849
 9465SOL     OW29293   6.860   4.006   1.632
 9465SOL    HW129294   6.799   3.938   1.672
 9465SOL    HW229295   6.955   3.976   1.643
 9466SOL     OW29296   3.690   4.842   6.178
 9466SOL    HW129297   3.751   4.814   6.252
 9466SOL    HW229298   3.611   4.782   6.175
 9467SOL     OW29299   1.399   2.600   1.038
 9467SOL    HW129300   1.429   2.545   1.115
 9467SOL    HW229301   1.440   2.565   0.954
 9468SOL     OW29302   6.569   3.531   6.723
 9468SOL    HW129303   6.548   3.483   6.808
 9468SOL    HW229304   6.660   3.504   6.691
 9469SOL     OW29305   0.270   5.982   0.906
 9469SOL    HW129306   0.178   6.022   0.917
 9469SOL    HW229307   0.266   5.906   0.842
 9470SOL     OW29308   4.894   3.943   6.659
 9470SOL    HW129309   4.957   3.938   6.736
 9470SOL    HW229310   4.946   3.935   6.574
 9471SOL     OW29311   5.497   2.299   5.787
 9471SOL    HW129312   5.427   2.237   5.753
 9471SOL    HW229313   5.527   2.359   5.712
 9472SOL     OW29314   0.908   4.083   6.066
 9472SOL    HW129315   0.984   4.114   6.124
 9472SOL    HW229316   0.877   4.159   6.009
 9473SOL     OW29317   3.198   3.867   6.812
 9473SOL    HW129318   3.186   3.785   6.869
 9473SOL    HW229319   3.176   3.948   6.866
 9474SOL     OW29320   5.934   3.279   1.870
 9474SOL    HW129321   6.008   3.216   1.846
 9474SOL    HW229322   5.973   3.363   1.907
 9475SOL     OW29323   4.813   3.474   0.327
 9475SOL    HW129324   4.837   3.571   0.336
 9475SOL    HW229325   4.726   3.466   0.279
 9476SOL     OW29326   4.080   3.819   5.778
 9476SOL    HW129327   4.041   3.746   5.722
 9476SOL    HW229328   4.059   3.801   5.874
 9477SOL     OW29329   1.645   3.191   0.728
 9477SOL    HW129330   1.568   3.135   0.698
 9477SOL    HW229331   1.626   3.287   0.708
 9478SOL     OW29332   4.615   2.934   0.922
 9478SOL    HW129333   4.573   2.996   0.855
 9478SOL    HW229334   4.634   2.985   1.006
 9479SOL     OW29335   4.012   0.025   0.881
 9479SOL    HW129336   4.051   0.117   0.871
 9479SOL    HW229337   4.057   7.003   0.956
 9480SOL     OW29338   6.107   5.225   0.421
 9480SOL    HW129339   6.097   5.305   0.481
 9480SOL    HW229340   6.198   5.186   0.433
 9481SOL     OW29341   5.115   2.357   3.177
 9481SOL    HW129342   5.039   2.400   3.227
 9481SOL    HW229343   5.080   2.315   3.094
 9482SOL     OW29344   6.001   0.370   2.632
 9482SOL    HW129345   5.983   0.466   2.609
 9482SOL    HW229346   6.059   0.366   2.713
 9483SOL     OW29347   1.457   1.032   0.371
 9483SOL    HW129348   1.425   0.938   0.356
 9483SOL    HW229349   1.550   1.029   0.409
 9484SOL     OW29350   2.713   0.349   4.616
 9484SOL    HW129351   2.778   0.423   4.633
 9484SOL    HW229352   2.760   0.273   4.570
 9485SOL     OW29353   6.902   1.598   0.955
 9485SOL    HW129354   6.949   1.612   0.868
 9485SOL    HW229355   6.894   1.500   0.973
 9486SOL     OW29356   4.959   6.294   1.276
 9486SOL    HW129357   5.018   6.229   1.324
 9486SOL    HW229358   4.864   6.274   1.298
 9487SOL     OW29359   3.483   3.898   4.529
 9487SOL    HW129360   3.405   3.925   4.474
 9487SOL    HW229361   3.512   3.974   4.587
 9488SOL     OW29362   2.228   0.061   0.924
 9488SOL    HW129363   2.158   0.012   0.872
 9488SOL    HW229364   2.210   0.160   0.919
 9489SOL     OW29365   5.134   4.270   1.063
 9489SOL    HW129366   5.085   4.286   0.977
 9489SOL    HW229367   5.070   4.237   1.132
 9490SOL     OW29368   6.705   6.387   3.547
 9490SOL    HW129369   6.731   6.483   3.545
 9490SOL    HW229370   6.773   6.334   3.598
 9491SOL     OW29371   6.031   5.707   4.530
 9491SOL    HW129372   5.994   5.625   4.574
 9491SOL    HW229373   6.114   5.736   4.578
 9492SOL     OW29374   4.023   3.166   5.728
 9492SOL    HW129375   3.944   3.127   5.775
 9492SOL    HW229376   4.093   3.189   5.795
 9493SOL     OW29377   3.732   5.546   4.034
 9493SOL    HW129378   3.704   5.620   3.973
 9493SOL    HW229379   3.681   5.463   4.011
 9494SOL     OW29380   5.772   2.903   2.319
 9494SOL    HW129381   5.864   2.937   2.335
 9494SOL    HW229382   5.766   2.863   2.227
 9495SOL     OW29383   6.877   1.234   2.464
 9495SOL    HW129384   6.925   1.316   2.495
 9495SOL    HW229385   6.778   1.248   2.473
 9496SOL     OW29386   4.846   2.426   2.139
 9496SOL    HW129387   4.899   2.408   2.222
 9496SOL    HW229388   4.906   2.427   2.060
 9497SOL     OW29389   5.205   6.350   5.676
 9497SOL    HW129390   5.148   6.364   5.595
 9497SOL    HW229391   5.201   6.254   5.703
 9498SOL     OW29392   6.540   4.529   5.319
 9498SOL    HW129393   6.551   4.435   5.288
 9498SOL    HW229394   6.490   4.582   5.251
 9499SOL     OW29395   0.346   6.039   4.947
 9499SOL    HW129396   0.426   5.993   4.909
 9499SOL    HW229397   0.321   5.996   5.034
 9500SOL     OW29398   3.733   6.338   0.708
 9500SOL    HW129399   3.767   6.410   0.769
 9500SOL    HW229400   3.633   6.338   0.709
 9501SOL     OW29401   1.768   1.325   4.402
 9501SOL    HW129402   1.779   1.313   4.304
 9501SOL    HW229403   1.704   1.400   4.420
 9502SOL     OW29404   6.184   4.206   4.171
 9502SOL    HW129405   6.106   4.166   4.219
 9502SOL    HW229406   6.188   4.304   4.189
 9503SOL     OW29407   0.030   2.657   0.721
 9503SOL    HW129408   0.072   2.651   0.812
 9503SOL    HW229409   0.060   2.741   0.676
 9504SOL     OW29410   6.598   3.884   1.467
 9504SOL    HW129411   6.673   3.818   1.472
 9504SOL    HW229412   6.591   3.920   1.374
 9505SOL     OW29413   5.373   4.425   5.348
 9505SOL    HW129414   5.325   4.345   5.312
 9505SOL    HW229415   5.470   4.403   5.361
 9506SOL     OW29416   2.082   2.477   0.622
 9506SOL    HW129417   2.088   2.416   0.543
 9506SOL    HW229418   2.104   2.570   0.594
 9507SOL     OW29419   6.740   0.592   1.415
 9507SOL    HW129420   6.755   0.515   1.353
 9507SOL    HW229421   6.652   0.634   1.395
 9508SOL     OW29422   5.935   2.098   2.948
 9508SOL    HW129423   5.975   2.190   2.956
 9508SOL    HW229424   5.835   2.106   2.951
 9509SOL     OW29425   6.809   0.210   3.575
 9509SOL    HW129426   6.740   0.280   3.588
 9509SOL    HW229427   6.765   0.122   3.556
 9510SOL     OW29428   1.170   3.504   3.184
 9510SOL    HW129429   1.267   3.486   3.168
 9510SOL    HW229430   1.159   3.556   3.269
 9511SOL     OW29431   1.441   0.777   1.672
 9511SOL    HW129432   1.472   0.726   1.751
 9511SOL    HW229433   1.499   0.858   1.659
 9512SOL     OW29434   6.450   2.258   1.528
 9512SOL    HW129435   6.428   2.207   1.611
 9512SOL    HW229436   6.435   2.356   1.544
 9513SOL     OW29437   2.923   4.530   6.051
 9513SOL    HW129438   2.825   4.516   6.065
 9513SOL    HW229439   2.941   4.542   5.954
 9514SOL     OW29440   2.820   4.183   6.968
 9514SOL    HW129441   2.809   4.099   6.914
 9514SOL    HW229442   2.746   4.189   0.010
 9515SOL     OW29443   2.094   6.053   2.730
 9515SOL    HW129444   2.125   6.106   2.652
 9515SOL    HW229445   2.103   5.955   2.710
 9516SOL     OW29446   5.837   4.353   0.447
 9516SOL    HW129447   5.808   4.440   0.406
 9516SOL    HW229448   5.927   4.365   0.490
 9517SOL     OW29449   1.351   3.447   1.395
 9517SOL    HW129450   1.320   3.393   1.474
 9517SOL    HW229451   1.352   3.544   1.418
 9518SOL     OW29452   2.428   1.485   0.816
 9518SOL    HW129453   2.476   1.564   0.778
 9518SOL    HW229454   2.494   1.426   0.863
 9519SOL     OW29455   2.863   2.863   5.371
 9519SOL    HW129456   2.856   2.775   5.418
 9519SOL    HW229457   2.948   2.865   5.318
 9520SOL     OW29458   2.775   0.492   2.830
 9520SOL    HW129459   2.850   0.531   2.777
 9520SOL    HW229460   2.802   0.487   2.926
 9521SOL     OW29461   5.625   5.222   2.636
 9521SOL    HW129462   5.670   5.154   2.578
 9521SOL    HW229463   5.540   5.251   2.592
 9522SOL     OW29464   3.014   5.143   0.831
 9522SOL    HW129465   3.026   5.141   0.732
 9522SOL    HW229466   3.052   5.229   0.867
 9523SOL     OW29467   3.293   5.278   4.675
 9523SOL    HW129468   3.255   5.324   4.595
 9523SOL    HW229469   3.364   5.335   4.717
 9524SOL     OW29470   3.927   2.812   1.733
 9524SOL    HW129471   3.839   2.791   1.689
 9524SOL    HW229472   3.990   2.851   1.667
 9525SOL     OW29473   2.370   2.616   6.265
 9525SOL    HW129474   2.437   2.690   6.273
 9525SOL    HW229475   2.415   2.528   6.280
 9526SOL     OW29476   5.669   5.602   2.583
 9526SOL    HW129477   5.588   5.560   2.624
 9526SOL    HW229478   5.723   5.647   2.655
 9527SOL     OW29479   1.250   0.894   1.524
 9527SOL    HW129480   1.306   0.845   1.590
 9527SOL    HW229481   1.251   0.992   1.545
 9528SOL     OW29482   0.107   0.643   0.009
 9528SOL    HW129483   0.031   0.705   7.014
 9528SOL    HW229484   0.086   0.591   0.092
 9529SOL     OW29485   0.100   3.381   5.282
 9529SOL    HW129486   0.055   3.470   5.283
 9529SOL    HW229487   0.178   3.384   5.220
 9530SOL     OW29488   1.552   2.755   3.343
 9530SOL    HW129489   1.505   2.704   3.272
 9530SOL    HW229490   1.651   2.744   3.333
 9531SOL     OW29491   4.176   5.658   3.229
 9531SOL    HW129492   4.149   5.713   3.307
 9531SOL    HW229493   4.272   5.631   3.239
 9532SOL     OW29494   1.150   5.782   1.905
 9532SOL    HW129495   1.236   5.736   1.928
 9532SOL    HW229496   1.091   5.718   1.856
 9533SOL     OW29497   0.168   0.958   5.447
 9533SOL    HW129498   0.100   0.914   5.506
 9533SOL    HW229499   0.260   0.933   5.477
 9534SOL     OW29500   5.673   3.118   5.478
 9534SOL    HW129501   5.662   3.099   5.576
 9534SOL    HW229502   5.696   3.215   5.466
 9535SOL     OW29503   2.551   1.409   5.963
 9535SOL    HW129504   2.539   1.486   5.901
 9535SOL    HW229505   2.494   1.332   5.932
 9536SOL     OW29506   2.067   5.306   5.143
 9536SOL    HW129507   2.075   5.399   5.179
 9536SOL    HW229508   2.115   5.243   5.204
 9537SOL     OW29509   3.137   0.787   2.318
 9537SOL    HW129510   3.148   0.698   2.274
 9537SOL    HW229511   3.227   0.826   2.338
 9538SOL     OW29512   6.653   1.465   4.344
 9538SOL    HW129513   6.750   1.447   4.355
 9538SOL    HW229514   6.635   1.492   4.249
 9539SOL     OW29515   2.045   4.659   6.648
 9539SOL    HW129516   2.112   4.612   6.591
 9539SOL    HW229517   2.002   4.732   6.595
 9540SOL     OW29518   4.576   4.303   5.205
 9540SOL    HW129519   4.634   4.302   5.286
 9540SOL    HW229520   4.485   4.268   5.227
 9541SOL     OW29521   1.937   2.045   5.466
 9541SOL    HW129522   2.031   2.010   5.458
 9541SOL    HW229523   1.918   2.066   5.562
 9542SOL     OW29524   4.943   3.643   5.286
 9542SOL    HW129525   4.915   3.604   5.198
 9542SOL    HW229526   4.879   3.715   5.313
 9543SOL     OW29527   4.588   0.330   4.618
 9543SOL    HW129528   4.515   0.300   4.557
 9543SOL    HW229529   4.559   0.318   4.713
 9544SOL     OW29530   5.374   0.608   1.539
 9544SOL    HW129531   5.430   0.646   1.465
 9544SOL    HW229532   5.432   0.551   1.598
 9545SOL     OW29533   6.551   5.642   2.863
 9545SOL    HW129534   6.552   5.571   2.792
 9545SOL    HW229535   6.615   5.616   2.935
 9546SOL     OW29536   2.781   3.930   6.853
 9546SOL    HW129537   2.795   3.833   6.835
 9546SOL    HW229538   2.686   3.955   6.832
 9547SOL     OW29539   2.313   6.281   4.300
 9547SOL    HW129540   2.276   6.252   4.211
 9547SOL    HW229541   2.259   6.358   4.334
 9548SOL     OW29542   6.585   5.223   4.813
 9548SOL    HW129543   6.527   5.253   4.737
 9548SOL    HW229544   6.598   5.299   4.877
 9549SOL     OW29545   2.967   4.919   0.969
 9549SOL    HW129546   2.961   4.950   1.063
 9549SOL    HW229547   2.994   4.995   0.910
 9550SOL     OW29548   6.598   1.151   6.413
 9550SOL    HW129549   6.637   1.216   6.478
 9550SOL    HW229550   6.598   1.060   6.454
 9551SOL     OW29551   0.481   6.658   4.453
 9551SOL    HW129552   0.477   6.733   4.520
 9551SOL    HW229553   0.497   6.572   4.501
 9552SOL     OW29554   2.013   6.459   2.952
 9552SOL    HW129555   2.017   6.365   2.985
 9552SOL    HW229556   2.083   6.472   2.881
 9553SOL     OW29557   5.996   4.967   6.522
 9553SOL    HW129558   6.086   4.998   6.491
 9553SOL    HW229559   6.007   4.906   6.600
 9554SOL     OW29560   3.166   1.205   1.694
 9554SOL    HW129561   3.153   1.179   1.790
 9554SOL    HW229562   3.257   1.245   1.682
 9555SOL     OW29563   6.411   2.538   1.573
 9555SOL    HW129564   6.350   2.616   1.564
 9555SOL    HW229565   6.504   2.570   1.588
 9556SOL     OW29566   2.421   1.662   1.908
 9556SOL    HW129567   2.394   1.703   1.820
 9556SOL    HW229568   2.513   1.625   1.900
 9557SOL     OW29569   5.711   0.632   2.492
 9557SOL    HW129570   5.708   0.719   2.443
 9557SOL    HW229571   5.778   0.638   2.567
 9558SOL     OW29572   6.984   5.226   3.106
 9558SOL    HW129573   6.980   5.156   3.035
 9558SOL    HW229574   6.894   5.266   3.119
 9559SOL     OW29575   0.295   4.204   2.485
 9559SOL    HW129576   0.363   4.220   2.413
 9559SOL    HW229577   0.310   4.115   2.527
 9560SOL     OW29578   2.141   1.275   2.380
 9560SOL    HW129579   2.107   1.208   2.446
 9560SOL    HW229580   2.065   1.309   2.325
 9561SOL     OW29581   2.465   6.790   0.651
 9561SOL    HW129582   2.453   6.812   0.748
 9561SOL    HW229583   2.549   6.738   0.639
 9562SOL     OW29584   3.520   5.400   4.448
 9562SOL    HW129585   3.461   5.474   4.482
 9562SOL    HW229586   3.528   5.330   4.518
 9563SOL     OW29587   6.375   6.311   6.843
 9563SOL    HW129588   6.418   6.341   6.758
 9563SOL    HW229589   6.397   6.375   6.916
 9564SOL     OW29590   2.771   6.942   6.522
 9564SOL    HW129591   2.722   7.011   6.470
 9564SOL    HW229592   2.860   6.978   6.550
 9565SOL     OW29593   4.452   6.050   5.469
 9565SOL    HW129594   4.396   5.967   5.471
 9565SOL    HW229595   4.548   6.026   5.479
 9566SOL     OW29596   3.710   4.218   6.730
 9566SOL    HW129597   3.796   4.179   6.764
 9566SOL    HW229598   3.706   4.207   6.631
 9567SOL     OW29599   6.326   5.711   6.543
 9567SOL    HW129600   6.263   5.634   6.546
 9567SOL    HW229601   6.388   5.700   6.466
 9568SOL     OW29602   5.298   3.547   6.432
 9568SOL    HW129603   5.375   3.587   6.480
 9568SOL    HW229604   5.237   3.620   6.400
 9569SOL     OW29605   6.334   1.005   0.052
 9569SOL    HW129606   6.266   1.034   7.011
 9569SOL    HW229607   6.379   0.921   0.019
 9570SOL     OW29608   0.746   1.362   1.295
 9570SOL    HW129609   0.675   1.397   1.356
 9570SOL    HW229610   0.832   1.355   1.345
 9571SOL     OW29611   2.697   3.736   0.107
 9571SOL    HW129612   2.721   3.815   0.164
 9571SOL    HW229613   2.741   3.654   0.143
 9572SOL     OW29614   1.397   4.464   1.305
 9572SOL    HW129615   1.416   4.426   1.215
 9572SOL    HW229616   1.312   4.516   1.303
 9573SOL     OW29617   0.942   0.544   6.671
 9573SOL    HW129618   0.880   0.492   6.730
 9573SOL    HW229619   0.965   0.630   6.716
 9574SOL     OW29620   3.221   3.576   5.825
 9574SOL    HW129621   3.132   3.562   5.781
 9574SOL    HW229622   3.281   3.499   5.803
 9575SOL     OW29623   6.212   0.686   1.245
 9575SOL    HW129624   6.173   0.630   1.172
 9575SOL    HW229625   6.147   0.692   1.320
 9576SOL     OW29626   3.909   1.546   3.889
 9576SOL    HW129627   3.949   1.532   3.980
 9576SOL    HW229628   3.981   1.572   3.825
 9577SOL     OW29629   0.983   0.367   2.315
 9577SOL    HW129630   0.976   0.455   2.361
 9577SOL    HW229631   0.914   0.304   2.352
 9578SOL     OW29632   6.259   2.632   2.460
 9578SOL    HW129633   6.304   2.719   2.443
 9578SOL    HW229634   6.160   2.642   2.450
 9579SOL     OW29635   1.013   7.016   1.932
 9579SOL    HW129636   1.110   0.010   1.942
 9579SOL    HW229637   0.994   6.923   1.963
 9580SOL     OW29638   5.202   3.654   7.014
 9580SOL    HW129639   5.220   3.595   6.935
 9580SOL    HW229640   5.147   3.604   0.054
 9581SOL     OW29641   1.773   5.389   5.936
 9581SOL    HW129642   1.711   5.464   5.912
 9581SOL    HW229643   1.761   5.314   5.871
 9582SOL     OW29644   4.300   4.620   4.151
 9582SOL    HW129645   4.229   4.586   4.212
 9582SOL    HW229646   4.387   4.624   4.200
 9583SOL     OW29647   2.001   3.454   1.832
 9583SOL    HW129648   1.993   3.374   1.773
 9583SOL    HW229649   2.087   3.449   1.883
 9584SOL     OW29650   6.365   5.107   0.193
 9584SOL    HW129651   6.366   5.051   0.110
 9584SOL    HW229652   6.318   5.193   0.175
 9585SOL     OW29653   5.608   0.005   2.681
 9585SOL    HW129654   5.661   0.089   2.669
 9585SOL    HW229655   5.514   0.028   2.706
 9586SOL     OW29656   5.144   3.529   3.839
 9586SOL    HW129657   5.181   3.539   3.746
 9586SOL    HW229658   5.204   3.472   3.894
 9587SOL     OW29659   5.992   0.306   1.239
 9587SOL    HW129660   6.046   0.299   1.323
 9587SOL    HW229661   5.997   0.221   1.188
 9588SOL     OW29662   0.152   0.602   0.984
 9588SOL    HW129663   0.237   0.576   0.938
 9588SOL    HW229664   0.129   0.533   1.052
 9589SOL     OW29665   2.280   6.794   6.094
 9589SOL    HW129666   2.202   6.797   6.032
 9589SOL    HW229667   2.250   6.762   6.184
 9590SOL     OW29668   0.422   3.739   2.467
 9590SOL    HW129669   0.514   3.703   2.479
 9590SOL    HW229670   0.409   3.767   2.372
 9591SOL     OW29671   2.263   6.477   0.537
 9591SOL    HW129672   2.208   6.405   0.494
 9591SOL    HW229673   2.358   6.469   0.504
 9592SOL     OW29674   3.986   5.380   2.841
 9592SOL    HW129675   4.025   5.428   2.919
 9592SOL    HW229676   4.048   5.307   2.812
 9593SOL     OW29677   5.533   2.237   4.521
 9593SOL    HW129678   5.625   2.209   4.494
 9593SOL    HW229679   5.538   2.318   4.579
 9594SOL     OW29680   6.627   6.069   2.992
 9594SOL    HW129681   6.608   6.093   2.897
 9594SOL    HW229682   6.614   6.149   3.051
 9595SOL     OW29683   1.488   5.791   4.211
 9595SOL    HW129684   1.416   5.829   4.269
 9595SOL    HW229685   1.523   5.707   4.252
 9596SOL     OW29686   0.081   5.665   5.347
 9596SOL    HW129687   0.061   5.611   5.429
 9596SOL    HW229688   0.007   5.729   5.330
 9597SOL     OW29689   0.377   4.105   1.924
 9597SOL    HW129690   0.396   4.017   1.881
 9597SOL    HW229691   0.395   4.178   1.858
 9598SOL     OW29692   0.519   4.525   5.756
 9598SOL    HW129693   0.586   4.552   5.825
 9598SOL    HW229694   0.563   4.527   5.666
 9599SOL     OW29695   3.375   0.091   5.393
 9599SOL    HW129696   3.346   0.163   5.455
 9599SOL    HW229697   3.441   0.032   5.439
 9600SOL     OW29698   1.424   0.579   5.802
 9600SOL    HW129699   1.472   0.492   5.807
 9600SOL    HW229700   1.483   0.652   5.838
 9601SOL     OW29701   0.024   4.636   6.098
 9601SOL    HW129702   6.954   4.651   6.118
 9601SOL    HW229703   0.046   4.671   6.007
 9602SOL     OW29704   6.756   4.732   6.119
 9602SOL    HW129705   6.728   4.763   6.210
 9602SOL    HW229706   6.677   4.692   6.072
 9603SOL     OW29707   2.337   6.001   4.325
 9603SOL    HW129708   2.326   6.101   4.323
 9603SOL    HW229709   2.428   5.979   4.361
 9604SOL     OW29710   5.182   1.002   0.062
 9604SOL    HW129711   5.092   1.046   0.064
 9604SOL    HW229712   5.253   1.070   0.081
 9605SOL     OW29713   1.747   5.510   5.256
 9605SOL    HW129714   1.710   5.494   5.165
 9605SOL    HW229715   1.749   5.609   5.274
 9606SOL     OW29716   0.444   6.459   3.206
 9606SOL    HW129717   0.431   6.364   3.233
 9606SOL    HW229718   0.527   6.467   3.151
 9607SOL     OW29719   0.735   0.733   1.977
 9607SOL    HW129720   0.776   0.786   2.051
 9607SOL    HW229721   0.802   0.720   1.904
 9608SOL     OW29722   6.849   0.018   2.020
 9608SOL    HW129723   6.922   0.074   1.982
 9608SOL    HW229724   6.818   0.058   2.106
 9609SOL     OW29725   2.053   4.428   4.822
 9609SOL    HW129726   2.104   4.454   4.739
 9609SOL    HW229727   2.111   4.371   4.880
 9610SOL     OW29728   1.624   2.291   5.894
 9610SOL    HW129729   1.558   2.270   5.967
 9610SOL    HW229730   1.579   2.346   5.824
 9611SOL     OW29731   6.671   0.175   0.968
 9611SOL    HW129732   6.648   0.270   0.947
 9611SOL    HW229733   6.754   0.171   1.023
 9612SOL     OW29734   6.634   3.114   0.581
 9612SOL    HW129735   6.537   3.121   0.603
 9612SOL    HW229736   6.674   3.205   0.578
 9613SOL     OW29737   5.409   6.840   4.687
 9613SOL    HW129738   5.436   6.856   4.782
 9613SOL    HW229739   5.461   6.900   4.627
 9614SOL     OW29740   3.766   4.028   2.479
 9614SOL    HW129741   3.778   4.111   2.425
 9614SOL    HW229742   3.669   4.016   2.501
 9615SOL     OW29743   1.758   5.903   2.590
 9615SOL    HW129744   1.782   5.977   2.653
 9615SOL    HW229745   1.694   5.936   2.521
 9616SOL     OW29746   3.753   2.679   1.000
 9616SOL    HW129747   3.689   2.726   0.939
 9616SOL    HW229748   3.834   2.651   0.948
 9617SOL     OW29749   0.980   3.252   3.490
 9617SOL    HW129750   1.036   3.174   3.461
 9617SOL    HW229751   0.979   3.256   3.590
 9618SOL     OW29752   3.828   6.705   6.973
 9618SOL    HW129753   3.919   6.679   7.006
 9618SOL    HW229754   3.837   6.757   6.888
 9619SOL     OW29755   2.211   6.036   0.346
 9619SOL    HW129756   2.180   6.131   0.354
 9619SOL    HW229757   2.311   6.033   0.352
 9620SOL     OW29758   3.256   0.509   6.590
 9620SOL    HW129759   3.221   0.418   6.565
 9620SOL    HW229760   3.202   0.579   6.544
 9621SOL     OW29761   0.455   0.181   2.758
 9621SOL    HW129762   0.509   0.149   2.836
 9621SOL    HW229763   0.380   0.238   2.790
 9622SOL     OW29764   6.672   0.655   6.988
 9622SOL    HW129765   6.583   0.702   6.988
 9622SOL    HW229766   6.673   0.583   0.030
 9623SOL     OW29767   5.077   5.730   6.675
 9623SOL    HW129768   5.129   5.652   6.640
 9623SOL    HW229769   5.097   5.811   6.620
 9624SOL     OW29770   5.116   5.226   5.337
 9624SOL    HW129771   5.071   5.142   5.309
 9624SOL    HW229772   5.182   5.206   5.410
 9625SOL     OW29773   5.524   4.690   6.513
 9625SOL    HW129774   5.519   4.789   6.499
 9625SOL    HW229775   5.450   4.661   6.574
 9626SOL     OW29776   1.709   4.663   5.189
 9626SOL    HW129777   1.639   4.669   5.118
 9626SOL    HW229778   1.761   4.578   5.177
 9627SOL     OW29779   1.668   4.815   5.779
 9627SOL    HW129780   1.740   4.879   5.805
 9627SOL    HW229781   1.671   4.800   5.681
 9628SOL     OW29782   6.028   4.035   6.906
 9628SOL    HW129783   5.934   4.027   6.940
 9628SOL    HW229784   6.057   4.130   6.910
 9629SOL     OW29785   6.702   5.881   2.682
 9629SOL    HW129786   6.616   5.893   2.730
 9629SOL    HW229787   6.777   5.873   2.748
 9630SOL     OW29788   6.078   6.624   5.833
 9630SOL    HW129789   6.012   6.623   5.758
 9630SOL    HW229790   6.165   6.662   5.801
 9631SOL     OW29791   4.418   1.130   1.036
 9631SOL    HW129792   4.346   1.178   0.986
 9631SOL    HW229793   4.506   1.174   1.017
 9632SOL     OW29794   2.448   5.285   1.666
 9632SOL    HW129795   2.544   5.299   1.643
 9632SOL    HW229796   2.424   5.341   1.745
 9633SOL     OW29797   3.687   3.198   2.121
 9633SOL    HW129798   3.675   3.158   2.030
 9633SOL    HW229799   3.740   3.135   2.178
 9634SOL     OW29800   4.934   4.589   2.498
 9634SOL    HW129801   5.015   4.620   2.448
 9634SOL    HW229802   4.868   4.663   2.504
 9635SOL     OW29803   0.314   3.383   4.288
 9635SOL    HW129804   0.367   3.447   4.232
 9635SOL    HW229805   0.254   3.433   4.350
 9636SOL     OW29806   4.156   1.792   5.806
 9636SOL    HW129807   4.117   1.884   5.810
 9636SOL    HW229808   4.139   1.753   5.715
 9637SOL     OW29809   2.269   3.165   1.408
 9637SOL    HW129810   2.336   3.118   1.350
 9637SOL    HW229811   2.204   3.098   1.443
 9638SOL     OW29812   0.077   4.379   6.022
 9638SOL    HW129813   0.136   4.384   5.941
 9638SOL    HW229814   0.051   4.471   6.050
 9639SOL     OW29815   4.468   2.413   1.942
 9639SOL    HW129816   4.458   2.314   1.940
 9639SOL    HW229817   4.403   2.456   1.879
 9640SOL     OW29818   4.265   1.448   2.208
 9640SOL    HW129819   4.255   1.530   2.151
 9640SOL    HW229820   4.273   1.475   2.304
 9641SOL     OW29821   5.732   4.713   2.655
 9641SOL    HW129822   5.756   4.712   2.752
 9641SOL    HW229823   5.783   4.785   2.609
 9642SOL     OW29824   1.579   0.008   4.280
 9642SOL    HW129825   1.650   0.076   4.296
 9642SOL    HW229826   1.505   0.020   4.346
 9643SOL     OW29827   4.837   4.138   4.192
 9643SOL    HW129828   4.762   4.202   4.171
 9643SOL    HW229829   4.892   4.174   4.266
 9644SOL     OW29830   2.146   6.514   5.046
 9644SOL    HW129831   2.225   6.568   5.076
 9644SOL    HW229832   2.067   6.538   5.102
 9645SOL     OW29833   0.929   4.873   5.202
 9645SOL    HW129834   0.831   4.873   5.182
 9645SOL    HW229835   0.948   4.805   5.273
 9646SOL     OW29836   2.989   6.906   4.608
 9646SOL    HW129837   3.031   6.991   4.576
 9646SOL    HW229838   2.904   6.890   4.558
 9647SOL     OW29839   6.346   6.379   2.800
 9647SOL    HW129840   6.337   6.405   2.896
 9647SOL    HW229841   6.336   6.279   2.792
 9648SOL     OW29842   5.263   2.645   1.577
 9648SOL    HW129843   5.307   2.646   1.487
 9648SOL    HW229844   5.174   2.600   1.569
 9649SOL     OW29845   2.096   3.601   6.581
 9649SOL    HW129846   2.158   3.527   6.609
 9649SOL    HW229847   2.145   3.688   6.582
 9650SOL     OW29848   6.266   4.878   4.013
 9650SOL    HW129849   6.297   4.925   3.930
 9650SOL    HW229850   6.181   4.829   3.995
 9651SOL     OW29851   3.174   1.290   0.145
 9651SOL    HW129852   3.133   1.229   0.076
 9651SOL    HW229853   3.166   1.385   0.114
 9652SOL     OW29854   0.825   4.170   1.278
 9652SOL    HW129855   0.742   4.161   1.223
 9652SOL    HW229856   0.889   4.098   1.254
 9653SOL     OW29857   4.583   4.357   5.599
 9653SOL    HW129858   4.659   4.399   5.550
 9653SOL    HW229859   4.601   4.359   5.697
 9654SOL     OW29860   3.766   3.213   3.115
 9654SOL    HW129861   3.730   3.247   3.028
 9654SOL    HW229862   3.750   3.281   3.186
 9655SOL     OW29863   6.791   1.100   1.107
 9655SOL    HW129864   6.808   1.126   1.203
 9655SOL    HW229865   6.802   1.002   1.097
 9656SOL     OW29866   5.143   2.815   0.489
 9656SOL    HW129867   5.080   2.881   0.448
 9656SOL    HW229868   5.237   2.845   0.475
 9657SOL     OW29869   5.175   3.972   3.930
 9657SOL    HW129870   5.174   3.939   3.835
 9657SOL    HW229871   5.150   4.069   3.932
 9658SOL     OW29872   5.024   1.988   2.316
 9658SOL    HW129873   4.927   1.989   2.291
 9658SOL    HW229874   5.034   1.956   2.410
 9659SOL     OW29875   2.927   1.767   0.474
 9659SOL    HW129876   3.019   1.748   0.439
 9659SOL    HW229877   2.869   1.686   0.460
 9660SOL     OW29878   0.665   6.359   0.886
 9660SOL    HW129879   0.578   6.319   0.914
 9660SOL    HW229880   0.736   6.336   0.953
 9661SOL     OW29881   4.422   5.880   1.189
 9661SOL    HW129882   4.338   5.899   1.138
 9661SOL    HW229883   4.491   5.949   1.167
 9662SOL     OW29884   5.745   4.249   6.825
 9662SOL    HW129885   5.706   4.330   6.869
 9662SOL    HW229886   5.730   4.169   6.882
 9663SOL     OW29887   0.584   4.932   2.756
 9663SOL    HW129888   0.526   4.924   2.675
 9663SOL    HW229889   0.561   4.860   2.821
 9664SOL     OW29890   5.374   3.951   3.679
 9664SOL    HW129891   5.364   3.880   3.610
 9664SOL    HW229892   5.356   4.040   3.637
 9665SOL     OW29893   6.474   6.539   5.390
 9665SOL    HW129894   6.493   6.617   5.450
 9665SOL    HW229895   6.397   6.486   5.427
 9666SOL     OW29896   6.362   4.413   1.704
 9666SOL    HW129897   6.455   4.375   1.702
 9666SOL    HW229898   6.362   4.502   1.658
 9667SOL     OW29899   4.588   4.551   1.048
 9667SOL    HW129900   4.646   4.550   0.967
 9667SOL    HW229901   4.537   4.637   1.052
 9668SOL     OW29902   1.319   0.327   6.077
 9668SOL    HW129903   1.244   0.327   6.011
 9668SOL    HW229904   1.334   0.420   6.111
 9669SOL     OW29905   2.770   6.998   0.721
 9669SOL    HW129906   2.847   0.012   0.770
 9669SOL    HW229907   2.685   7.015   0.772
 9670SOL     OW29908   0.408   0.003   5.423
 9670SOL    HW129909   0.311   0.005   5.448
 9670SOL    HW229910   0.419   0.032   5.328
 9671SOL     OW29911   0.437   4.596   0.528
 9671SOL    HW129912   0.466   4.654   0.604
 9671SOL    HW229913   0.499   4.609   0.451
 9672SOL     OW29914   1.420   5.096   2.530
 9672SOL    HW129915   1.472   5.061   2.452
 9672SOL    HW229916   1.473   5.083   2.613
 9673SOL     OW29917   3.344   4.278   1.748
 9673SOL    HW129918   3.357   4.185   1.783
 9673SOL    HW229919   3.263   4.319   1.790
 9674SOL     OW29920   4.206   6.642   3.039
 9674SOL    HW129921   4.133   6.710   3.037
 9674SOL    HW229922   4.190   6.573   2.969
 9675SOL     OW29923   5.066   3.839   0.543
 9675SOL    HW129924   4.976   3.878   0.565
 9675SOL    HW229925   5.127   3.852   0.621
 9676SOL     OW29926   1.613   3.234   6.524
 9676SOL    HW129927   1.625   3.309   6.590
 9676SOL    HW229928   1.536   3.177   6.551
 9677SOL     OW29929   6.273   4.997   6.443
 9677SOL    HW129930   6.325   5.035   6.519
 9677SOL    HW229931   6.303   4.903   6.425
 9678SOL     OW29932   3.286   3.914   5.174
 9678SOL    HW129933   3.320   3.993   5.225
 9678SOL    HW229934   3.297   3.931   5.076
 9679SOL     OW29935   2.497   2.103   4.736
 9679SOL    HW129936   2.520   2.109   4.639
 9679SOL    HW229937   2.465   2.011   4.757
 9680SOL     OW29938   4.660   6.432   4.585
 9680SOL    HW129939   4.638   6.479   4.670
 9680SOL    HW229940   4.719   6.354   4.604
 9681SOL     OW29941   3.180   1.130   1.972
 9681SOL    HW129942   3.124   1.062   2.020
 9681SOL    HW229943   3.142   1.221   1.988
 9682SOL     OW29944   5.287   5.113   3.736
 9682SOL    HW129945   5.213   5.164   3.692
 9682SOL    HW229946   5.334   5.058   3.667
 9683SOL     OW29947   2.059   6.270   0.311
 9683SOL    HW129948   2.056   6.358   0.264
 9683SOL    HW229949   1.976   6.260   0.367
 9684SOL     OW29950   1.182   3.151   4.996
 9684SOL    HW129951   1.090   3.189   4.991
 9684SOL    HW229952   1.206   3.110   4.908
 9685SOL     OW29953   4.608   3.699   0.729
 9685SOL    HW129954   4.533   3.653   0.776
 9685SOL    HW229955   4.589   3.702   0.631
 9686SOL     OW29956   0.503   2.395   6.510
 9686SOL    HW129957   0.478   2.337   6.587
 9686SOL    HW229958   0.592   2.366   6.474
 9687SOL     OW29959   6.319   6.723   1.880
 9687SOL    HW129960   6.377   6.800   1.906
 9687SOL    HW229961   6.325   6.652   1.950
 9688SOL     OW29962   0.909   3.933   1.125
 9688SOL    HW129963   0.830   3.935   1.064
 9688SOL    HW229964   0.992   3.951   1.073
 9689SOL     OW29965   0.915   5.263   5.968
 9689SOL    HW129966   0.893   5.236   5.874
 9689SOL    HW229967   0.987   5.203   6.003
 9690SOL     OW29968   4.838   5.234   5.807
 9690SOL    HW129969   4.750   5.248   5.761
 9690SOL    HW229970   4.866   5.319   5.852
 9691SOL     OW29971   3.367   3.820   2.825
 9691SOL    HW129972   3.270   3.811   2.804
 9691SOL    HW229973   3.382   3.803   2.922
 9692SOL     OW29974   5.067   5.255   0.288
 9692SOL    HW129975   5.079   5.222   0.382
 9692SOL    HW229976   5.155   5.284   0.251
 9693SOL     OW29977   5.788   4.467   4.278
 9693SOL    HW129978   5.831   4.557   4.276
 9693SOL    HW229979   5.732   4.459   4.361
 9694SOL     OW29980   3.293   0.544   1.169
 9694SOL    HW129981   3.305   0.639   1.199
 9694SOL    HW229982   3.269   0.487   1.247
 9695SOL     OW29983   7.019   3.976   2.620
 9695SOL    HW129984   0.029   4.058   2.666
 9695SOL    HW229985   0.050   3.955   2.541
 9696SOL     OW29986   5.896   1.702   2.675
 9696SOL    HW129987   5.893   1.604   2.658
 9696SOL    HW229988   5.901   1.751   2.588
 9697SOL     OW29989   0.068   6.348   0.179
 9697SOL    HW129990   0.017   6.430   0.154
 9697SOL    HW229991   0.023   6.267   0.142
 9698SOL     OW29992   5.603   3.002   6.060
 9698SOL    HW129993   5.603   3.100   6.039
 9698SOL    HW229994   5.521   2.960   6.021
 9699SOL     OW29995   0.708   5.814   0.051
 9699SOL    HW129996   0.703   5.715   0.067
 9699SOL    HW229997   0.650   5.862   0.117
 9700SOL     OW29998   6.965   6.089   3.974
 9700SOL    HW129999   0.011   6.136   3.923
 9700SOL    HW230000   6.879   6.140   3.965
 9701SOL     OW30001   4.841   3.190   6.427
 9701SOL    HW130002   4.743   3.185   6.445
 9701SOL    HW230003   4.876   3.280   6.455
 9702SOL     OW30004   3.990   2.693   0.638
 9702SOL    HW130005   3.979   2.640   0.723
 9702SOL    HW230006   3.912   2.676   0.578
 9703SOL     OW30007   5.853   3.862   4.356
 9703SOL    HW130008   5.810   3.825   4.274
 9703SOL    HW230009   5.867   3.961   4.344
 9704SOL     OW30010   3.152   4.868   2.695
 9704SOL    HW130011   3.237   4.902   2.734
 9704SOL    HW230012   3.159   4.769   2.679
 9705SOL     OW30013   6.046   3.913   5.895
 9705SOL    HW130014   6.107   3.992   5.901
 9705SOL    HW230015   6.100   3.831   5.876
 9706SOL     OW30016   2.263   1.484   1.049
 9706SOL    HW130017   2.301   1.446   1.133
 9706SOL    HW230018   2.336   1.493   0.981
 9707SOL     OW30019   5.672   5.014   2.062
 9707SOL    HW130020   5.629   4.927   2.085
 9707SOL    HW230021   5.626   5.088   2.111
 9708SOL     OW30022   1.176   1.579   2.118
 9708SOL    HW130023   1.121   1.648   2.071
 9708SOL    HW230024   1.205   1.509   2.053
 9709SOL     OW30025   5.099   4.346   1.718
 9709SOL    HW130026   5.121   4.253   1.746
 9709SOL    HW230027   5.177   4.385   1.669
 9710SOL     OW30028   6.335   0.221   7.002
 9710SOL    HW130029   6.381   0.144   6.958
 9710SOL    HW230030   6.248   0.190   0.014
 9711SOL     OW30031   3.871   6.174   5.928
 9711SOL    HW130032   3.915   6.090   5.961
 9711SOL    HW230033   3.905   6.195   5.837
 9712SOL     OW30034   6.259   3.354   0.605
 9712SOL    HW130035   6.196   3.278   0.587
 9712SOL    HW230036   6.353   3.319   0.608
 9713SOL     OW30037   2.450   6.626   2.947
 9713SOL    HW130038   2.399   6.582   3.021
 9713SOL    HW230039   2.458   6.564   2.869
 9714SOL     OW30040   4.080   5.993   5.576
 9714SOL    HW130041   4.157   5.933   5.555
 9714SOL    HW230042   4.114   6.083   5.604
 9715SOL     OW30043   6.248   4.718   0.453
 9715SOL    HW130044   6.200   4.791   0.405
 9715SOL    HW230045   6.299   4.756   0.530
 9716SOL     OW30046   4.309   3.765   0.014
 9716SOL    HW130047   4.285   3.672   0.042
 9716SOL    HW230048   4.408   3.778   0.023
 9717SOL     OW30049   4.467   6.434   6.820
 9717SOL    HW130050   4.502   6.399   6.732
 9717SOL    HW230051   4.384   6.487   6.803
 9718SOL     OW30052   4.446   2.454   0.275
 9718SOL    HW130053   4.388   2.472   0.354
 9718SOL    HW230054   4.390   2.435   0.195
 9719SOL     OW30055   5.238   6.984   5.742
 9719SOL    HW130056   5.152   7.000   5.693
 9719SOL    HW230057   5.289   6.911   5.697
 9720SOL     OW30058   1.381   3.753   2.880
 9720SOL    HW130059   1.414   3.666   2.916
 9720SOL    HW230060   1.283   3.761   2.898
 9721SOL     OW30061   0.361   1.824   6.973
 9721SOL    HW130062   0.274   1.825   6.922
 9721SOL    HW230063   0.353   1.885   0.026
 9722SOL     OW30064   3.606   1.939   4.942
 9722SOL    HW130065   3.554   1.857   4.917
 9722SOL    HW230066   3.543   2.017   4.948
 9723SOL     OW30067   6.029   5.182   4.328
 9723SOL    HW130068   6.068   5.152   4.241
 9723SOL    HW230069   6.073   5.267   4.356
 9724SOL     OW30070   2.178   4.881   6.481
 9724SOL    HW130071   2.163   4.929   6.395
 9724SOL    HW230072   2.192   4.784   6.463
 9725SOL     OW30073   4.380   6.300   5.421
 9725SOL    HW130074   4.428   6.333   5.340
 9725SOL    HW230075   4.406   6.205   5.438
 9726SOL     OW30076   5.196   1.167   4.290
 9726SOL    HW130077   5.155   1.089   4.243
 9726SOL    HW230078   5.277   1.197   4.241
 9727SOL     OW30079   0.258   2.590   0.017
 9727SOL    HW130080   0.229   2.575   6.948
 9727SOL    HW230081   0.301   2.506   0.052
 9728SOL     OW30082   6.952   1.837   5.922
 9728SOL    HW130083   6.995   1.749   5.903
 9728SOL    HW230084   7.012   1.892   5.981
 9729SOL     OW30085   1.574   3.303   4.077
 9729SOL    HW130086   1.574   3.403   4.088
 9729SOL    HW230087   1.654   3.265   4.125
 9730SOL     OW30088   1.149   4.758   3.286
 9730SOL    HW130089   1.232   4.736   3.336
 9730SOL    HW230090   1.101   4.833   3.331
 9731SOL     OW30091   5.225   5.077   1.781
 9731SOL    HW130092   5.160   5.055   1.708
 9731SOL    HW230093   5.220   5.007   1.852
 9732SOL     OW30094   6.923   2.815   1.811
 9732SOL    HW130095   6.924   2.869   1.726
 9732SOL    HW230096   7.008   2.832   1.862
 9733SOL     OW30097   5.825   5.368   1.297
 9733SOL    HW130098   5.753   5.351   1.231
 9733SOL    HW230099   5.891   5.432   1.258
 9734SOL     OW30100   6.635   6.806   0.667
 9734SOL    HW130101   6.649   6.903   0.686
 9734SOL    HW230102   6.708   6.773   0.608
 9735SOL     OW30103   1.327   2.563   3.303
 9735SOL    HW130104   1.315   2.655   3.341
 9735SOL    HW230105   1.353   2.500   3.376
 9736SOL     OW30106   4.664   1.940   6.117
 9736SOL    HW130107   4.601   2.004   6.072
 9736SOL    HW230108   4.711   1.988   6.191
 9737SOL     OW30109   5.774   2.023   3.214
 9737SOL    HW130110   5.805   2.110   3.252
 9737SOL    HW230111   5.845   1.954   3.228
 9738SOL     OW30112   1.812   6.721   0.527
 9738SOL    HW130113   1.747   6.685   0.461
 9738SOL    HW230114   1.764   6.747   0.611
 9739SOL     OW30115   4.806   6.230   6.988
 9739SOL    HW130116   4.801   6.191   6.896
 9739SOL    HW230117   4.841   6.324   6.983
 9740SOL     OW30118   5.795   1.188   2.818
 9740SOL    HW130119   5.699   1.171   2.842
 9740SOL    HW230120   5.849   1.194   2.902
 9741SOL     OW30121   2.364   0.865   3.826
 9741SOL    HW130122   2.345   0.768   3.812
 9741SOL    HW230123   2.376   0.883   3.923
 9742SOL     OW30124   4.382   1.108   0.377
 9742SOL    HW130125   4.433   1.098   0.463
 9742SOL    HW230126   4.376   1.205   0.353
 9743SOL     OW30127   0.211   4.097   3.524
 9743SOL    HW130128   0.275   4.027   3.493
 9743SOL    HW230129   0.182   4.153   3.446
 9744SOL     OW30130   2.397   6.885   3.032
 9744SOL    HW130131   2.405   6.790   3.004
 9744SOL    HW230132   2.481   6.913   3.080
 9745SOL     OW30133   5.395   2.811   6.003
 9745SOL    HW130134   5.296   2.820   6.012
 9745SOL    HW230135   5.433   2.768   6.085
 9746SOL     OW30136   5.619   6.433   6.293
 9746SOL    HW130137   5.538   6.488   6.312
 9746SOL    HW230138   5.664   6.409   6.379
 9747SOL     OW30139   2.713   2.225   1.617
 9747SOL    HW130140   2.618   2.225   1.586
 9747SOL    HW230141   2.771   2.184   1.547
 9748SOL     OW30142   0.143   6.778   2.614
 9748SOL    HW130143   0.076   6.721   2.566
 9748SOL    HW230144   0.101   6.815   2.698
 9749SOL     OW30145   0.649   1.107   2.522
 9749SOL    HW130146   0.714   1.130   2.451
 9749SOL    HW230147   0.558   1.142   2.498
 9750SOL     OW30148   6.552   5.230   3.912
 9750SOL    HW130149   6.529   5.137   3.883
 9750SOL    HW230150   6.626   5.226   3.979
 9751SOL     OW30151   1.508   0.044   0.600
 9751SOL    HW130152   1.450   0.122   0.581
 9751SOL    HW230153   1.565   0.063   0.680
 9752SOL     OW30154   3.657   1.996   6.212
 9752SOL    HW130155   3.700   1.908   6.233
 9752SOL    HW230156   3.718   2.049   6.153
 9753SOL     OW30157   1.250   5.587   6.325
 9753SOL    HW130158   1.312   5.664   6.338
 9753SOL    HW230159   1.166   5.619   6.282
 9754SOL     OW30160   3.599   6.717   0.618
 9754SOL    HW130161   3.671   6.721   0.686
 9754SOL    HW230162   3.556   6.807   0.610
 9755SOL     OW30163   3.445   3.905   5.577
 9755SOL    HW130164   3.381   3.872   5.646
 9755SOL    HW230165   3.514   3.963   5.620
 9756SOL     OW30166   5.899   1.887   6.407
 9756SOL    HW130167   5.990   1.878   6.366
 9756SOL    HW230168   5.870   1.799   6.445
 9757SOL     OW30169   5.573   4.705   4.406
 9757SOL    HW130170   5.533   4.691   4.316
 9757SOL    HW230171   5.572   4.619   4.457
 9758SOL     OW30172   1.559   1.316   6.825
 9758SOL    HW130173   1.542   1.392   6.763
 9758SOL    HW230174   1.571   1.350   6.918
 9759SOL     OW30175   0.963   2.084   0.509
 9759SOL    HW130176   1.030   2.048   0.573
 9759SOL    HW230177   1.002   2.085   0.417
 9760SOL     OW30178   5.107   2.999   6.920
 9760SOL    HW130179   5.044   2.959   6.854
 9760SOL    HW230180   5.200   2.994   6.884
 9761SOL     OW30181   1.215   1.993   2.392
 9761SOL    HW130182   1.293   2.053   2.411
 9761SOL    HW230183   1.237   1.900   2.421
 9762SOL     OW30184   3.166   1.646   4.864
 9762SOL    HW130185   3.219   1.706   4.804
 9762SOL    HW230186   3.120   1.701   4.934
 9763SOL     OW30187   5.755   1.158   3.214
 9763SOL    HW130188   5.725   1.152   3.309
 9763SOL    HW230189   5.743   1.252   3.181
 9764SOL     OW30190   6.556   2.119   2.604
 9764SOL    HW130191   6.602   2.051   2.548
 9764SOL    HW230192   6.459   2.096   2.614
 9765SOL     OW30193   6.829   0.587   2.916
 9765SOL    HW130194   6.877   0.527   2.981
 9765SOL    HW230195   6.732   0.590   2.939
 9766SOL     OW30196   2.371   0.122   2.509
 9766SOL    HW130197   2.384   0.130   2.410
 9766SOL    HW230198   2.447   0.168   2.556
 9767SOL     OW30199   2.096   2.526   4.978
 9767SOL    HW130200   2.014   2.583   4.984
 9767SOL    HW230201   2.177   2.585   4.984
 9768SOL     OW30202   4.595   2.125   1.106
 9768SOL    HW130203   4.656   2.056   1.144
 9768SOL    HW230204   4.620   2.215   1.142
 9769SOL     OW30205   3.518   0.826   4.798
 9769SOL    HW130206   3.508   0.788   4.890
 9769SOL    HW230207   3.600   0.787   4.755
 9770SOL     OW30208   4.170   1.657   5.297
 9770SOL    HW130209   4.107   1.711   5.354
 9770SOL    HW230210   4.209   1.716   5.226
 9771SOL     OW30211   2.527   6.076   1.164
 9771SOL    HW130212   2.580   6.109   1.086
 9771SOL    HW230213   2.473   6.152   1.201
 9772SOL     OW30214   2.343   6.127   1.434
 9772SOL    HW130215   2.410   6.166   1.497
 9772SOL    HW230216   2.314   6.197   1.368
 9773SOL     OW30217   5.387   5.342   3.311
 9773SOL    HW130218   5.316   5.272   3.316
 9773SOL    HW230219   5.425   5.345   3.218
 9774SOL     OW30220   0.778   4.564   3.441
 9774SOL    HW130221   0.750   4.616   3.360
 9774SOL    HW230222   0.859   4.509   3.419
 9775SOL     OW30223   2.633   0.402   3.239
 9775SOL    HW130224   2.670   0.317   3.277
 9775SOL    HW230225   2.609   0.465   3.313
 9776SOL     OW30226   1.289   4.866   6.003
 9776SOL    HW130227   1.280   4.854   6.102
 9776SOL    HW230228   1.199   4.881   5.962
 9777SOL     OW30229   5.397   5.830   0.423
 9777SOL    HW130230   5.308   5.786   0.412
 9777SOL    HW230231   5.413   5.850   0.520
 9778SOL     OW30232   0.142   2.049   4.763
 9778SOL    HW130233   0.083   2.078   4.688
 9778SOL    HW230234   0.087   2.031   4.845
 9779SOL     OW30235   0.121   2.421   3.547
 9779SOL    HW130236   0.050   2.378   3.603
 9779SOL    HW230237   0.136   2.366   3.465
 9780SOL     OW30238   2.124   1.527   0.751
 9780SOL    HW130239   2.154   1.548   0.844
 9780SOL    HW230240   2.193   1.469   0.706
 9781SOL     OW30241   2.079   3.153   4.557
 9781SOL    HW130242   2.164   3.109   4.587
 9781SOL    HW230243   2.093   3.252   4.552
 9782SOL     OW30244   0.551   1.706   0.151
 9782SOL    HW130245   0.583   1.614   0.128
 9782SOL    HW230246   0.517   1.751   0.069
 9783SOL     OW30247   4.428   2.148   3.580
 9783SOL    HW130248   4.479   2.196   3.651
 9783SOL    HW230249   4.436   2.198   3.493
 9784SOL     OW30250   3.638   0.671   6.016
 9784SOL    HW130251   3.557   0.615   5.997
 9784SOL    HW230252   3.618   0.767   5.995
 9785SOL     OW30253   6.082   2.832   5.512
 9785SOL    HW130254   6.032   2.902   5.461
 9785SOL    HW230255   6.023   2.794   5.583
 9786SOL     OW30256   2.322   3.870   0.505
 9786SOL    HW130257   2.357   3.934   0.574
 9786SOL    HW230258   2.271   3.920   0.435
 9787SOL     OW30259   2.947   3.303   3.974
 9787SOL    HW130260   2.930   3.308   3.876
 9787SOL    HW230261   2.903   3.381   4.020
 9788SOL     OW30262   0.426   6.877   2.050
 9788SOL    HW130263   0.383   6.934   1.980
 9788SOL    HW230264   0.363   6.867   2.127
 9789SOL     OW30265   2.619   6.549   6.765
 9789SOL    HW130266   2.528   6.569   6.803
 9789SOL    HW230267   2.615   6.554   6.665
 9790SOL     OW30268   6.190   4.749   6.206
 9790SOL    HW130269   6.131   4.810   6.153
 9790SOL    HW230270   6.225   4.677   6.146
 9791SOL     OW30271   0.879   0.179   0.253
 9791SOL    HW130272   0.855   0.276   0.248
 9791SOL    HW230273   0.799   0.126   0.280
 9792SOL     OW30274   3.262   4.906   0.613
 9792SOL    HW130275   3.182   4.892   0.555
 9792SOL    HW230276   3.311   4.819   0.624
 9793SOL     OW30277   4.402   0.234   2.665
 9793SOL    HW130278   4.380   0.140   2.692
 9793SOL    HW230279   4.498   0.239   2.638
 9794SOL     OW30280   5.654   4.373   5.356
 9794SOL    HW130281   5.640   4.404   5.450
 9794SOL    HW230282   5.692   4.448   5.302
 9795SOL     OW30283   0.955   2.997   4.607
 9795SOL    HW130284   1.008   2.959   4.532
 9795SOL    HW230285   0.858   2.994   4.585
 9796SOL     OW30286   3.854   3.770   3.847
 9796SOL    HW130287   3.833   3.847   3.908
 9796SOL    HW230288   3.950   3.745   3.857
 9797SOL     OW30289   2.293   5.512   6.813
 9797SOL    HW130290   2.222   5.443   6.795
 9797SOL    HW230291   2.383   5.474   6.792
 9798SOL     OW30292   2.298   1.011   1.840
 9798SOL    HW130293   2.338   1.058   1.761
 9798SOL    HW230294   2.271   1.079   1.908
 9799SOL     OW30295   3.302   3.843   6.082
 9799SOL    HW130296   3.286   3.750   6.114
 9799SOL    HW230297   3.219   3.897   6.092
 9800SOL     OW30298   5.681   4.629   3.997
 9800SOL    HW130299   5.741   4.637   4.076
 9800SOL    HW230300   5.628   4.713   3.987
 9801SOL     OW30301   5.276   4.978   0.207
 9801SOL    HW130302   5.362   5.028   0.200
 9801SOL    HW230303   5.258   4.954   0.302
 9802SOL     OW30304   4.927   4.918   0.595
 9802SOL    HW130305   4.836   4.955   0.575
 9802SOL    HW230306   4.924   4.868   0.681
 9803SOL     OW30307   2.479   3.475   6.285
 9803SOL    HW130308   2.483   3.415   6.205
 9803SOL    HW230309   2.386   3.473   6.323
 9804SOL     OW30310   0.184   6.132   3.113
 9804SOL    HW130311   0.106   6.130   3.176
 9804SOL    HW230312   0.190   6.044   3.066
 9805SOL     OW30313   0.215   6.765   3.019
 9805SOL    HW130314   0.269   6.770   3.103
 9805SOL    HW230315   0.269   6.719   2.948
 9806SOL     OW30316   1.972   1.518   6.714
 9806SOL    HW130317   2.052   1.576   6.726
 9806SOL    HW230318   1.961   1.459   6.794
 9807SOL     OW30319   3.322   3.380   2.050
 9807SOL    HW130320   3.342   3.283   2.037
 9807SOL    HW230321   3.345   3.430   1.967
 9808SOL     OW30322   3.450   5.775   4.084
 9808SOL    HW130323   3.490   5.736   4.002
 9808SOL    HW230324   3.487   5.729   4.165
 9809SOL     OW30325   0.546   3.468   0.490
 9809SOL    HW130326   0.543   3.393   0.555
 9809SOL    HW230327   0.463   3.467   0.433
 9810SOL     OW30328   2.880   2.262   4.857
 9810SOL    HW130329   2.815   2.203   4.904
 9810SOL    HW230330   2.948   2.296   4.923
 9811SOL     OW30331   5.755   4.691   3.501
 9811SOL    HW130332   5.846   4.658   3.529
 9811SOL    HW230333   5.700   4.708   3.582
 9812SOL     OW30334   2.547   1.149   4.726
 9812SOL    HW130335   2.510   1.056   4.720
 9812SOL    HW230336   2.636   1.153   4.680
 9813SOL     OW30337   5.223   1.893   1.074
 9813SOL    HW130338   5.142   1.854   1.117
 9813SOL    HW230339   5.291   1.915   1.145
 9814SOL     OW30340   6.053   1.245   0.219
 9814SOL    HW130341   6.123   1.254   0.290
 9814SOL    HW230342   5.974   1.197   0.257
 9815SOL     OW30343   4.536   2.497   4.409
 9815SOL    HW130344   4.586   2.419   4.373
 9815SOL    HW230345   4.442   2.471   4.429
 9816SOL     OW30346   0.936   0.679   6.350
 9816SOL    HW130347   1.031   0.709   6.350
 9816SOL    HW230348   0.927   0.597   6.408
 9817SOL     OW30349   1.172   0.188   3.342
 9817SOL    HW130350   1.163   0.112   3.405
 9817SOL    HW230351   1.258   0.179   3.291
 9818SOL     OW30352   6.465   2.066   4.758
 9818SOL    HW130353   6.424   2.082   4.668
 9818SOL    HW230354   6.564   2.078   4.753
 9819SOL     OW30355   4.902   3.088   3.474
 9819SOL    HW130356   4.895   3.137   3.560
 9819SOL    HW230357   4.848   3.004   3.479
 9820SOL     OW30358   3.718   3.000   6.532
 9820SOL    HW130359   3.635   2.999   6.588
 9820SOL    HW230360   3.734   3.093   6.500
 9821SOL     OW30361   5.773   0.976   0.002
 9821SOL    HW130362   5.730   0.923   6.956
 9821SOL    HW230363   5.721   0.966   0.087
 9822SOL     OW30364   1.496   6.765   3.359
 9822SOL    HW130365   1.514   6.837   3.426
 9822SOL    HW230366   1.560   6.774   3.282
 9823SOL     OW30367   3.769   0.077   1.034
 9823SOL    HW130368   3.841   0.050   0.971
 9823SOL    HW230369   3.785   0.035   1.123
 9824SOL     OW30370   1.793   4.474   5.735
 9824SOL    HW130371   1.804   4.375   5.744
 9824SOL    HW230372   1.883   4.516   5.719
 9825SOL     OW30373   3.181   5.338   5.364
 9825SOL    HW130374   3.120   5.274   5.318
 9825SOL    HW230375   3.259   5.359   5.305
 9826SOL     OW30376   5.334   5.119   6.438
 9826SOL    HW130377   5.250   5.128   6.385
 9826SOL    HW230378   5.343   5.198   6.499
 9827SOL     OW30379   2.141   3.285   3.766
 9827SOL    HW130380   2.046   3.283   3.736
 9827SOL    HW230381   2.164   3.376   3.799
 9828SOL     OW30382   2.661   2.900   6.507
 9828SOL    HW130383   2.588   2.923   6.572
 9828SOL    HW230384   2.737   2.858   6.556
 9829SOL     OW30385   3.289   6.173   0.306
 9829SOL    HW130386   3.326   6.085   0.337
 9829SOL    HW230387   3.350   6.213   0.238
 9830SOL     OW30388   5.478   2.620   1.355
 9830SOL    HW130389   5.537   2.696   1.329
 9830SOL    HW230390   5.530   2.534   1.351
 9831SOL     OW30391   1.781   6.313   1.137
 9831SOL    HW130392   1.689   6.325   1.101
 9831SOL    HW230393   1.797   6.382   1.208
 9832SOL     OW30394   5.015   5.123   2.733
 9832SOL    HW130395   5.038   5.219   2.749
 9832SOL    HW230396   4.972   5.114   2.643
 9833SOL     OW30397   3.617   2.972   4.942
 9833SOL    HW130398   3.689   2.939   5.004
 9833SOL    HW230399   3.528   2.966   4.987
 9834SOL     OW30400   3.611   4.542   5.486
 9834SOL    HW130401   3.678   4.481   5.443
 9834SOL    HW230402   3.594   4.620   5.426
 9835SOL     OW30403   3.289   2.742   5.616
 9835SOL    HW130404   3.272   2.804   5.693
 9835SOL    HW230405   3.386   2.718   5.613
 9836SOL     OW30406   6.152   4.574   3.390
 9836SOL    HW130407   6.139   4.669   3.364
 9836SOL    HW230408   6.135   4.564   3.488
 9837SOL     OW30409   3.503   0.185   2.731
 9837SOL    HW130410   3.588   0.236   2.728
 9837SOL    HW230411   3.433   0.238   2.778
 9838SOL     OW30412   0.412   6.874   5.836
 9838SOL    HW130413   0.454   6.963   5.818
 9838SOL    HW230414   0.338   6.885   5.903
 9839SOL     OW30415   5.649   1.414   3.156
 9839SOL    HW130416   5.567   1.412   3.100
 9839SOL    HW230417   5.624   1.428   3.252
 9840SOL     OW30418   0.829   0.992   1.492
 9840SOL    HW130419   0.863   0.901   1.471
 9840SOL    HW230420   0.779   1.029   1.414
 9841SOL     OW30421   1.363   3.996   4.970
 9841SOL    HW130422   1.292   3.928   4.952
 9841SOL    HW230423   1.433   3.956   5.028
 9842SOL     OW30424   4.019   3.800   3.163
 9842SOL    HW130425   3.920   3.790   3.148
 9842SOL    HW230426   4.035   3.867   3.235
 9843SOL     OW30427   6.259   1.274   1.804
 9843SOL    HW130428   6.271   1.255   1.706
 9843SOL    HW230429   6.165   1.303   1.820
 9844SOL     OW30430   5.456   0.613   2.538
 9844SOL    HW130431   5.447   0.685   2.607
 9844SOL    HW230432   5.553   0.601   2.515
 9845SOL     OW30433   2.926   1.191   3.524
 9845SOL    HW130434   2.853   1.127   3.499
 9845SOL    HW230435   2.887   1.268   3.574
 9846SOL     OW30436   3.904   3.437   1.663
 9846SOL    HW130437   3.949   3.501   1.724
 9846SOL    HW230438   3.933   3.344   1.685
 9847SOL     OW30439   3.360   2.907   5.052
 9847SOL    HW130440   3.301   2.987   5.067
 9847SOL    HW230441   3.352   2.844   5.129
 9848SOL     OW30442   3.530   2.940   6.126
 9848SOL    HW130443   3.601   3.011   6.124
 9848SOL    HW230444   3.571   2.852   6.103
 9849SOL     OW30445   6.335   0.379   0.396
 9849SOL    HW130446   6.320   0.366   0.494
 9849SOL    HW230447   6.405   0.449   0.382
 9850SOL     OW30448   6.353   6.134   3.166
 9850SOL    HW130449   6.413   6.061   3.134
 9850SOL    HW230450   6.257   6.107   3.154
 9851SOL     OW30451   4.468   2.027   5.904
 9851SOL    HW130452   4.432   1.935   5.919
 9851SOL    HW230453   4.394   2.094   5.915
 9852SOL     OW30454   4.280   2.121   2.520
 9852SOL    HW130455   4.205   2.059   2.541
 9852SOL    HW230456   4.259   2.172   2.437
 9853SOL     OW30457   4.964   4.111   3.663
 9853SOL    HW130458   5.028   4.109   3.585
 9853SOL    HW230459   4.931   4.019   3.681
 9854SOL     OW30460   0.220   5.189   4.854
 9854SOL    HW130461   0.206   5.154   4.761
 9854SOL    HW230462   0.204   5.116   4.919
 9855SOL     OW30463   2.383   3.935   1.288
 9855SOL    HW130464   2.346   4.020   1.249
 9855SOL    HW230465   2.352   3.926   1.383
 9856SOL     OW30466   5.042   3.926   6.423
 9856SOL    HW130467   5.088   3.865   6.358
 9856SOL    HW230468   5.077   4.019   6.411
 9857SOL     OW30469   4.253   1.942   4.506
 9857SOL    HW130470   4.316   2.008   4.546
 9857SOL    HW230471   4.173   1.990   4.470
 9858SOL     OW30472   0.283   0.300   1.053
 9858SOL    HW130473   0.347   0.263   0.986
 9858SOL    HW230474   0.330   0.311   1.141
 9859SOL     OW30475   5.837   6.869   1.902
 9859SOL    HW130476   5.832   6.774   1.870
 9859SOL    HW230477   5.933   6.895   1.915
 9860SOL     OW30478   0.114   1.488   3.063
 9860SOL    HW130479   0.014   1.482   3.064
 9860SOL    HW230480   0.153   1.397   3.074
 9861SOL     OW30481   3.780   0.220   2.709
 9861SOL    HW130482   3.828   0.165   2.641
 9861SOL    HW230483   3.825   0.210   2.798
 9862SOL     OW30484   2.573   4.552   0.733
 9862SOL    HW130485   2.546   4.642   0.767
 9862SOL    HW230486   2.529   4.535   0.644
 9863SOL     OW30487   3.521   0.604   3.572
 9863SOL    HW130488   3.596   0.582   3.509
 9863SOL    HW230489   3.434   0.597   3.523
 9864SOL     OW30490   3.525   6.201   3.902
 9864SOL    HW130491   3.476   6.200   3.989
 9864SOL    HW230492   3.490   6.277   3.846
 9865SOL     OW30493   1.980   0.897   4.238
 9865SOL    HW130494   1.964   0.996   4.244
 9865SOL    HW230495   2.039   0.878   4.159
 9866SOL     OW30496   5.752   4.837   5.337
 9866SOL    HW130497   5.741   4.915   5.398
 9866SOL    HW230498   5.804   4.766   5.383
 9867SOL     OW30499   6.042   0.424   0.630
 9867SOL    HW130500   5.976   0.403   0.703
 9867SOL    HW230501   6.047   0.347   0.566
 9868SOL     OW30502   0.687   3.895   5.435
 9868SOL    HW130503   0.683   3.993   5.418
 9868SOL    HW230504   0.690   3.878   5.534
 9869SOL     OW30505   1.547   3.409   2.279
 9869SOL    HW130506   1.520   3.390   2.185
 9869SOL    HW230507   1.558   3.508   2.291
 9870SOL     OW30508   4.408   5.799   2.239
 9870SOL    HW130509   4.455   5.887   2.238
 9870SOL    HW230510   4.382   5.776   2.333
 9871SOL     OW30511   0.758   6.208   6.304
 9871SOL    HW130512   0.659   6.212   6.320
 9871SOL    HW230513   0.792   6.300   6.285
 9872SOL     OW30514   2.673   4.617   4.185
 9872SOL    HW130515   2.745   4.686   4.180
 9872SOL    HW230516   2.655   4.594   4.280
 9873SOL     OW30517   3.109   2.487   1.230
 9873SOL    HW130518   3.033   2.456   1.174
 9873SOL    HW230519   3.092   2.463   1.326
 9874SOL     OW30520   1.472   3.152   4.313
 9874SOL    HW130521   1.515   3.230   4.267
 9874SOL    HW230522   1.488   3.070   4.259
 9875SOL     OW30523   6.861   6.675   1.826
 9875SOL    HW130524   6.821   6.606   1.767
 9875SOL    HW230525   6.877   6.636   1.917
 9876SOL     OW30526   6.388   0.909   2.974
 9876SOL    HW130527   6.424   1.000   2.953
 9876SOL    HW230528   6.290   0.915   2.989
 9877SOL     OW30529   0.269   6.308   3.477
 9877SOL    HW130530   0.341   6.292   3.410
 9877SOL    HW230531   0.221   6.393   3.455
 9878SOL     OW30532   2.610   5.055   5.120
 9878SOL    HW130533   2.620   5.073   5.022
 9878SOL    HW230534   2.652   4.967   5.142
 9879SOL     OW30535   5.637   5.502   4.098
 9879SOL    HW130536   5.585   5.585   4.118
 9879SOL    HW230537   5.668   5.504   4.003
 9880SOL     OW30538   3.211   1.204   5.470
 9880SOL    HW130539   3.141   1.253   5.523
 9880SOL    HW230540   3.302   1.230   5.503
 9881SOL     OW30541   1.007   1.316   5.137
 9881SOL    HW130542   1.048   1.394   5.184
 9881SOL    HW230543   0.938   1.349   5.073
 9882SOL     OW30544   0.757   2.730   3.799
 9882SOL    HW130545   0.765   2.829   3.803
 9882SOL    HW230546   0.696   2.704   3.724
 9883SOL     OW30547   1.157   5.663   0.131
 9883SOL    HW130548   1.106   5.715   0.199
 9883SOL    HW230549   1.255   5.667   0.152
 9884SOL     OW30550   4.534   1.984   2.624
 9884SOL    HW130551   4.536   2.021   2.531
 9884SOL    HW230552   4.628   1.969   2.655
 9885SOL     OW30553   6.790   2.702   5.238
 9885SOL    HW130554   6.784   2.650   5.323
 9885SOL    HW230555   6.728   2.663   5.169
 9886SOL     OW30556   1.277   3.999   2.309
 9886SOL    HW130557   1.232   3.922   2.263
 9886SOL    HW230558   1.376   3.987   2.302
 9887SOL     OW30559   3.744   0.350   5.804
 9887SOL    HW130560   3.744   0.267   5.860
 9887SOL    HW230561   3.771   0.327   5.710
 9888SOL     OW30562   5.738   4.503   2.473
 9888SOL    HW130563   5.703   4.568   2.540
 9888SOL    HW230564   5.723   4.409   2.506
 9889SOL     OW30565   0.095   5.334   1.595
 9889SOL    HW130566   0.034   5.277   1.539
 9889SOL    HW230567   0.132   5.279   1.670
 9890SOL     OW30568   1.732   1.905   0.540
 9890SOL    HW130569   1.636   1.876   0.533
 9890SOL    HW230570   1.736   1.998   0.575
 9891SOL     OW30571   5.678   3.323   2.013
 9891SOL    HW130572   5.674   3.285   2.106
 9891SOL    HW230573   5.766   3.299   1.972
 9892SOL     OW30574   6.880   4.740   0.854
 9892SOL    HW130575   6.824   4.662   0.828
 9892SOL    HW230576   6.875   4.754   0.953
 9893SOL     OW30577   0.816   0.527   0.905
 9893SOL    HW130578   0.811   0.557   0.809
 9893SOL    HW230579   0.869   0.442   0.910
 9894SOL     OW30580   2.794   2.367   1.289
 9894SOL    HW130581   2.707   2.385   1.335
 9894SOL    HW230582   2.831   2.280   1.321
 9895SOL     OW30583   5.973   4.734   4.827
 9895SOL    HW130584   5.881   4.727   4.787
 9895SOL    HW230585   6.034   4.780   4.762
 9896SOL     OW30586   6.698   0.900   6.509
 9896SOL    HW130587   6.741   0.918   6.598
 9896SOL    HW230588   6.714   0.805   6.483
 9897SOL     OW30589   5.747   6.131   2.741
 9897SOL    HW130590   5.805   6.092   2.670
 9897SOL    HW230591   5.803   6.182   2.806
 9898SOL     OW30592   1.420   6.120   4.093
 9898SOL    HW130593   1.360   6.052   4.135
 9898SOL    HW230594   1.497   6.139   4.155
 9899SOL     OW30595   0.848   6.044   0.828
 9899SOL    HW130596   0.833   6.064   0.731
 9899SOL    HW230597   0.774   5.988   0.863
 9900SOL     OW30598   2.102   3.674   3.040
 9900SOL    HW130599   2.016   3.712   3.006
 9900SOL    HW230600   2.140   3.735   3.110
 9901SOL     OW30601   2.825   0.497   7.024
 9901SOL    HW130602   2.791   0.451   0.079
 9901SOL    HW230603   2.869   0.583   0.025
 9902SOL     OW30604   2.737   4.761   0.571
 9902SOL    HW130605   2.703   4.703   0.646
 9902SOL    HW230606   2.741   4.707   0.487
 9903SOL     OW30607   5.225   2.147   2.184
 9903SOL    HW130608   5.207   2.236   2.226
 9903SOL    HW230609   5.175   2.076   2.234
 9904SOL     OW30610   1.061   3.663   6.833
 9904SOL    HW130611   0.961   3.654   6.842
 9904SOL    HW230612   1.084   3.678   6.737
 9905SOL     OW30613   1.858   7.016   6.033
 9905SOL    HW130614   1.852   0.057   6.107
 9905SOL    HW230615   1.798   6.939   6.053
 9906SOL     OW30616   2.450   3.523   1.656
 9906SOL    HW130617   2.395   3.477   1.726
 9906SOL    HW230618   2.408   3.512   1.567
 9907SOL     OW30619   6.809   0.383   1.241
 9907SOL    HW130620   6.774   0.432   1.161
 9907SOL    HW230621   6.895   0.424   1.270
 9908SOL     OW30622   5.981   1.826   5.141
 9908SOL    HW130623   6.052   1.833   5.211
 9908SOL    HW230624   6.003   1.752   5.078
 9909SOL     OW30625   4.708   0.759   3.315
 9909SOL    HW130626   4.728   0.710   3.230
 9909SOL    HW230627   4.709   0.694   3.392
 9910SOL     OW30628   1.536   4.506   2.285
 9910SOL    HW130629   1.463   4.542   2.226
 9910SOL    HW230630   1.513   4.413   2.312
 9911SOL     OW30631   2.621   5.899   2.253
 9911SOL    HW130632   2.702   5.905   2.311
 9911SOL    HW230633   2.648   5.875   2.160
 9912SOL     OW30634   3.356   0.452   1.619
 9912SOL    HW130635   3.447   0.495   1.616
 9912SOL    HW230636   3.321   0.456   1.712
 9913SOL     OW30637   6.049   3.673   1.308
 9913SOL    HW130638   6.143   3.705   1.321
 9913SOL    HW230639   6.002   3.669   1.396
 9914SOL     OW30640   5.757   1.255   5.096
 9914SOL    HW130641   5.723   1.238   5.188
 9914SOL    HW230642   5.755   1.354   5.078
 9915SOL     OW30643   5.301   0.370   3.409
 9915SOL    HW130644   5.312   0.466   3.436
 9915SOL    HW230645   5.216   0.359   3.358
 9916SOL     OW30646   2.054   2.250   2.569
 9916SOL    HW130647   2.124   2.313   2.601
 9916SOL    HW230648   1.964   2.292   2.580
 9917SOL     OW30649   5.088   4.325   6.877
 9917SOL    HW130650   5.013   4.358   6.819
 9917SOL    HW230651   5.109   4.394   6.947
 9918SOL     OW30652   3.607   1.402   2.684
 9918SOL    HW130653   3.628   1.306   2.666
 9918SOL    HW230654   3.664   1.460   2.625
 9919SOL     OW30655   0.833   5.257   1.212
 9919SOL    HW130656   0.838   5.328   1.141
 9919SOL    HW230657   0.757   5.196   1.191
 9920SOL     OW30658   5.153   1.491   2.495
 9920SOL    HW130659   5.181   1.577   2.537
 9920SOL    HW230660   5.116   1.430   2.565
 9921SOL     OW30661   3.852   0.217   4.848
 9921SOL    HW130662   3.916   0.278   4.801
 9921SOL    HW230663   3.759   0.252   4.838
 9922SOL     OW30664   2.502   4.168   0.997
 9922SOL    HW130665   2.486   4.077   0.961
 9922SOL    HW230666   2.422   4.198   1.050
 9923SOL     OW30667   5.292   4.703   6.960
 9923SOL    HW130668   5.260   4.689   0.028
 9923SOL    HW230669   5.312   4.800   6.946
 9924SOL     OW30670   6.415   1.307   4.092
 9924SOL    HW130671   6.355   1.339   4.165
 9924SOL    HW230672   6.482   1.378   4.071
 9925SOL     OW30673   0.583   3.768   4.233
 9925SOL    HW130674   0.565   3.688   4.176
 9925SOL    HW230675   0.620   3.842   4.176
 9926SOL     OW30676   4.317   2.825   1.385
 9926SOL    HW130677   4.377   2.883   1.440
 9926SOL    HW230678   4.353   2.732   1.385
 9927SOL     OW30679   0.112   6.974   0.833
 9927SOL    HW130680   0.121   0.047   0.823
 9927SOL    HW230681   0.202   6.931   0.831
 9928SOL     OW30682   4.732   4.084   2.783
 9928SOL    HW130683   4.715   4.128   2.871
 9928SOL    HW230684   4.787   4.002   2.796
 9929SOL     OW30685   3.625   4.322   5.841
 9929SOL    HW130686   3.609   4.408   5.792
 9929SOL    HW230687   3.542   4.266   5.839
 9930SOL     OW30688   6.399   6.474   4.907
 9930SOL    HW130689   6.313   6.464   4.956
 9930SOL    HW230690   6.455   6.392   4.920
 9931SOL     OW30691   0.635   5.521   4.068
 9931SOL    HW130692   0.656   5.518   4.166
 9931SOL    HW230693   0.689   5.593   4.025
 9932SOL     OW30694   3.840   3.014   0.019
 9932SOL    HW130695   3.913   2.972   6.990
 9932SOL    HW230696   3.857   2.998   0.116
 9933SOL     OW30697   0.332   5.814   3.157
 9933SOL    HW130698   0.268   5.849   3.088
 9933SOL    HW230699   0.339   5.714   3.147
 9934SOL     OW30700   6.429   2.560   5.579
 9934SOL    HW130701   6.525   2.533   5.592
 9934SOL    HW230702   6.371   2.479   5.580
 9935SOL     OW30703   2.828   6.039   6.479
 9935SOL    HW130704   2.871   6.085   6.557
 9935SOL    HW230705   2.842   6.094   6.397
 9936SOL     OW30706   6.830   4.980   6.997
 9936SOL    HW130707   6.804   4.910   0.037
 9936SOL    HW230708   6.774   5.062   7.011
 9937SOL     OW30709   0.016   1.709   1.274
 9937SOL    HW130710   6.979   1.648   1.226
 9937SOL    HW230711   7.018   1.804   1.255
 9938SOL     OW30712   6.610   4.979   3.169
 9938SOL    HW130713   6.601   4.967   3.070
 9938SOL    HW230714   6.649   4.896   3.210
 9939SOL     OW30715   4.218   2.185   1.311
 9939SOL    HW130716   4.143   2.241   1.344
 9939SOL    HW230717   4.195   2.147   1.221
 9940SOL     OW30718   1.245   0.379   1.157
 9940SOL    HW130719   1.186   0.459   1.146
 9940SOL    HW230720   1.340   0.404   1.137
 9941SOL     OW30721   3.452   3.528   5.508
 9941SOL    HW130722   3.534   3.484   5.473
 9941SOL    HW230723   3.477   3.589   5.584
 9942SOL     OW30724   2.230   5.520   2.732
 9942SOL    HW130725   2.327   5.542   2.740
 9942SOL    HW230726   2.211   5.436   2.782
 9943SOL     OW30727   0.139   4.756   5.860
 9943SOL    HW130728   0.209   4.693   5.825
 9943SOL    HW230729   0.182   4.828   5.913
 9944SOL     OW30730   0.664   4.371   6.656
 9944SOL    HW130731   0.639   4.443   6.593
 9944SOL    HW230732   0.746   4.324   6.623
 9945SOL     OW30733   5.012   5.295   6.954
 9945SOL    HW130734   4.990   5.387   6.987
 9945SOL    HW230735   4.928   5.242   6.945
 9946SOL     OW30736   5.977   0.559   3.764
 9946SOL    HW130737   5.894   0.532   3.715
 9946SOL    HW230738   5.994   0.657   3.747
 9947SOL     OW30739   2.300   2.055   5.077
 9947SOL    HW130740   2.232   2.128   5.084
 9947SOL    HW230741   2.392   2.093   5.081
 9948SOL     OW30742   5.815   3.814   5.344
 9948SOL    HW130743   5.854   3.895   5.387
 9948SOL    HW230744   5.851   3.804   5.251
 9949SOL     OW30745   6.157   5.379   4.458
 9949SOL    HW130746   6.096   5.428   4.520
 9949SOL    HW230747   6.252   5.392   4.487
 9950SOL     OW30748   5.783   6.066   5.329
 9950SOL    HW130749   5.686   6.074   5.349
 9950SOL    HW230750   5.830   6.150   5.354
 9951SOL     OW30751   0.215   1.279   3.806
 9951SOL    HW130752   0.166   1.337   3.870
 9951SOL    HW230753   0.312   1.305   3.804
 9952SOL     OW30754   1.396   4.514   0.618
 9952SOL    HW130755   1.405   4.455   0.538
 9952SOL    HW230756   1.480   4.511   0.672
 9953SOL     OW30757   5.265   2.741   4.485
 9953SOL    HW130758   5.289   2.703   4.574
 9953SOL    HW230759   5.299   2.835   4.480
 9954SOL     OW30760   6.816   0.904   6.259
 9954SOL    HW130761   6.783   0.929   6.350
 9954SOL    HW230762   6.883   0.831   6.266
 9955SOL     OW30763   6.087   3.400   5.696
 9955SOL    HW130764   6.108   3.378   5.791
 9955SOL    HW230765   6.087   3.499   5.683
 9956SOL     OW30766   1.424   6.919   1.601
 9956SOL    HW130767   1.452   6.938   1.507
 9956SOL    HW230768   1.468   6.983   1.663
 9957SOL     OW30769   5.036   5.875   2.496
 9957SOL    HW130770   5.071   5.968   2.485
 9957SOL    HW230771   5.113   5.812   2.507
 9958SOL     OW30772   3.056   5.200   0.052
 9958SOL    HW130773   2.985   5.262   0.085
 9958SOL    HW230774   3.147   5.239   0.070
 9959SOL     OW30775   4.097   3.630   4.948
 9959SOL    HW130776   4.195   3.617   4.933
 9959SOL    HW230777   4.083   3.692   5.025
 9960SOL     OW30778   0.010   0.460   2.187
 9960SOL    HW130779   0.047   0.447   2.278
 9960SOL    HW230780   7.025   0.558   2.170
 9961SOL     OW30781   1.312   4.648   4.627
 9961SOL    HW130782   1.217   4.677   4.641
 9961SOL    HW230783   1.330   4.567   4.683
 9962SOL     OW30784   5.875   5.730   1.939
 9962SOL    HW130785   5.789   5.779   1.925
 9962SOL    HW230786   5.924   5.770   2.016
 9963SOL     OW30787   3.135   3.270   6.815
 9963SOL    HW130788   3.235   3.258   6.815
 9963SOL    HW230789   3.092   3.185   6.785
 9964SOL     OW30790   5.659   4.475   5.602
 9964SOL    HW130791   5.602   4.556   5.615
 9964SOL    HW230792   5.681   4.435   5.691
 9965SOL     OW30793   3.715   6.708   6.208
 9965SOL    HW130794   3.776   6.781   6.238
 9965SOL    HW230795   3.724   6.630   6.269
 9966SOL     OW30796   1.753   6.132   2.209
 9966SOL    HW130797   1.708   6.049   2.242
 9966SOL    HW230798   1.724   6.210   2.265
 9967SOL     OW30799   6.745   0.057   2.285
 9967SOL    HW130800   6.748   6.991   2.325
 9967SOL    HW230801   6.666   0.106   2.320
 9968SOL     OW30802   3.222   3.687   0.490
 9968SOL    HW130803   3.209   3.717   0.396
 9968SOL    HW230804   3.205   3.764   0.552
 9969SOL     OW30805   1.801   2.950   2.923
 9969SOL    HW130806   1.749   3.033   2.899
 9969SOL    HW230807   1.751   2.869   2.893
 9970SOL     OW30808   5.191   3.609   2.756
 9970SOL    HW130809   5.219   3.519   2.723
 9970SOL    HW230810   5.098   3.628   2.725
 9971SOL     OW30811   2.154   5.539   1.186
 9971SOL    HW130812   2.211   5.611   1.226
 9971SOL    HW230813   2.212   5.475   1.135
 9972SOL     OW30814   4.114   4.758   1.410
 9972SOL    HW130815   4.098   4.841   1.463
 9972SOL    HW230816   4.027   4.719   1.381
 9973SOL     OW30817   4.683   2.003   4.007
 9973SOL    HW130818   4.744   2.034   4.080
 9973SOL    HW230819   4.616   2.073   3.987
 9974SOL     OW30820   0.008   2.885   3.335
 9974SOL    HW130821   6.971   2.877   3.258
 9974SOL    HW230822   0.010   2.979   3.367
 9975SOL     OW30823   6.065   4.312   6.967
 9975SOL    HW130824   6.034   4.319   0.035
 9975SOL    HW230825   6.157   4.351   6.959
 9976SOL     OW30826   0.215   6.569   5.520
 9976SOL    HW130827   0.201   6.647   5.580
 9976SOL    HW230828   0.130   6.515   5.515
 9977SOL     OW30829   6.856   5.348   5.274
 9977SOL    HW130830   6.846   5.261   5.227
 9977SOL    HW230831   6.943   5.390   5.248
 9978SOL     OW30832   6.397   2.808   3.419
 9978SOL    HW130833   6.445   2.744   3.358
 9978SOL    HW230834   6.462   2.872   3.458
 9979SOL     OW30835   6.131   5.083   5.295
 9979SOL    HW130836   6.055   5.113   5.352
 9979SOL    HW230837   6.184   5.013   5.343
 9980SOL     OW30838   1.944   1.598   5.918
 9980SOL    HW130839   1.889   1.654   5.981
 9980SOL    HW230840   1.917   1.502   5.927
 9981SOL     OW30841   2.099   1.799   1.814
 9981SOL    HW130842   2.040   1.730   1.856
 9981SOL    HW230843   2.125   1.867   1.883
 9982SOL     OW30844   6.789   6.946   3.938
 9982SOL    HW130845   6.824   6.855   3.918
 9982SOL    HW230846   6.692   6.951   3.912
 9983SOL     OW30847   0.125   2.522   3.001
 9983SOL    HW130848   0.146   2.541   3.097
 9983SOL    HW230849   0.113   2.424   2.989
 9984SOL     OW30850   1.993   1.084   0.145
 9984SOL    HW130851   1.903   1.120   0.119
 9984SOL    HW230852   2.056   1.091   0.068
 9985SOL     OW30853   1.727   1.245   1.619
 9985SOL    HW130854   1.692   1.311   1.685
 9985SOL    HW230855   1.813   1.207   1.652
 9986SOL     OW30856   5.647   4.295   5.825
 9986SOL    HW130857   5.711   4.276   5.899
 9986SOL    HW230858   5.606   4.209   5.794
 9987SOL     OW30859   6.600   3.074   4.001
 9987SOL    HW130860   6.552   2.997   4.045
 9987SOL    HW230861   6.695   3.074   4.031
 9988SOL     OW30862   0.053   5.940   5.092
 9988SOL    HW130863   7.001   5.927   5.152
 9988SOL    HW230864   0.116   5.863   5.101
 9989SOL     OW30865   6.325   3.809   3.540
 9989SOL    HW130866   6.391   3.882   3.522
 9989SOL    HW230867   6.316   3.752   3.458
 9990SOL     OW30868   2.769   5.671   1.698
 9990SOL    HW130869   2.741   5.592   1.752
 9990SOL    HW230870   2.732   5.663   1.605
 9991SOL     OW30871   1.819   2.541   3.499
 9991SOL    HW130872   1.822   2.442   3.513
 9991SOL    HW230873   1.741   2.579   3.548
 9992SOL     OW30874   5.595   4.771   0.246
 9992SOL    HW130875   5.597   4.869   0.268
 9992SOL    HW230876   5.504   4.746   0.215
 9993SOL     OW30877   3.088   0.288   0.546
 9993SOL    HW130878   3.039   0.280   0.633
 9993SOL    HW230879   3.102   0.197   0.508
 9994SOL     OW30880   6.795   4.802   3.444
 9994SOL    HW130881   6.847   4.743   3.506
 9994SOL    HW230882   6.800   4.896   3.476
 9995SOL     OW30883   4.615   0.974   3.526
 9995SOL    HW130884   4.682   0.905   3.498
 9995SOL    HW230885   4.533   0.965   3.469
 9996SOL     OW30886   2.824   2.890   1.367
 9996SOL    HW130887   2.760   2.947   1.418
 9996SOL    HW230888   2.813   2.795   1.394
 9997SOL     OW30889   3.361   1.552   0.333
 9997SOL    HW130890   3.383   1.456   0.313
 9997SOL    HW230891   3.434   1.611   0.300
 9998SOL     OW30892   5.136   4.507   6.458
 9998SOL    HW130893   5.064   4.446   6.422
 9998SOL    HW230894   5.207   4.453   6.502
 9999SOL     OW30895   6.889   3.122   5.231
 9999SOL    HW130896   6.900   3.049   5.163
 9999SOL    HW230897   6.945   3.200   5.205
10000SOL     OW30898   0.240   4.181   6.862
10000SOL    HW130899   0.287   4.243   6.799
10000SOL    HW230900   0.165   4.229   6.907
10001SOL     OW30901   4.665   6.963   2.219
10001SOL    HW130902   4.752   6.915   2.216
10001SOL    HW230903   4.661   7.022   2.300
10002SOL     OW30904   2.189   6.756   2.840
10002SOL    HW130905   2.277   6.710   2.831
10002SOL    HW230906   2.160   6.753   2.936
10003SOL     OW30907   3.807   1.343   3.052
10003SOL    HW130908   3.728   1.386   3.097
10003SOL    HW230909   3.874   1.318   3.122
10004SOL     OW30910   6.116   2.223   4.544
10004SOL    HW130911   6.145   2.230   4.639
10004SOL    HW230912   6.150   2.301   4.492
10005SOL     OW30913   4.367   0.256   4.473
10005SOL    HW130914   4.401   0.243   4.380
10005SOL    HW230915   4.336   0.168   4.510
10006SOL     OW30916   5.143   6.126   4.058
10006SOL    HW130917   5.236   6.157   4.038
10006SOL    HW230918   5.123   6.045   4.003
10007SOL     OW30919   6.754   5.417   5.696
10007SOL    HW130920   6.743   5.487   5.767
10007SOL    HW230921   6.710   5.332   5.726
10008SOL     OW30922   4.314   1.315   4.349
10008SOL    HW130923   4.406   1.325   4.312
10008SOL    HW230924   4.273   1.231   4.314
10009SOL     OW30925   1.954   3.672   1.669
10009SOL    HW130926   1.924   3.633   1.582
10009SOL    HW230927   1.980   3.599   1.732
10010SOL     OW30928   2.008   0.730   5.919
10010SOL    HW130929   1.958   0.742   5.833
10010SOL    HW230930   2.105   0.716   5.899
10011SOL     OW30931   5.255   1.320   5.546
10011SOL    HW130932   5.200   1.308   5.629
10011SOL    HW230933   5.296   1.233   5.521
10012SOL     OW30934   5.828   1.656   3.218
10012SOL    HW130935   5.763   1.580   3.209
10012SOL    HW230936   5.846   1.695   3.128
10013SOL     OW30937   0.181   0.920   3.307
10013SOL    HW130938   0.194   0.875   3.395
10013SOL    HW230939   0.247   0.995   3.297
10014SOL     OW30940   0.193   3.793   0.840
10014SOL    HW130941   0.115   3.827   0.893
10014SOL    HW230942   0.160   3.738   0.763
10015SOL     OW30943   2.172   4.623   0.689
10015SOL    HW130944   2.189   4.655   0.782
10015SOL    HW230945   2.114   4.541   0.692
10016SOL     OW30946   1.371   0.936   6.711
10016SOL    HW130947   1.463   0.927   6.674
10016SOL    HW230948   1.353   1.033   6.733
10017SOL     OW30949   2.956   1.658   3.086
10017SOL    HW130950   2.860   1.671   3.059
10017SOL    HW230951   3.010   1.629   3.007
10018SOL     OW30952   4.314   0.386   6.116
10018SOL    HW130953   4.313   0.444   6.034
10018SOL    HW230954   4.407   0.352   6.131
10019SOL     OW30955   0.438   1.740   2.969
10019SOL    HW130956   0.389   1.693   2.895
10019SOL    HW230957   0.371   1.781   3.031
10020SOL     OW30958   1.410   2.471   0.795
10020SOL    HW130959   1.338   2.503   0.733
10020SOL    HW230960   1.442   2.382   0.765
10021SOL     OW30961   6.904   2.136   1.443
10021SOL    HW130962   6.975   2.066   1.437
10021SOL    HW230963   6.839   2.125   1.368
10022SOL     OW30964   2.755   1.128   5.883
10022SOL    HW130965   2.696   1.208   5.889
10022SOL    HW230966   2.726   1.071   5.806
10023SOL     OW30967   0.721   4.836   0.965
10023SOL    HW130968   0.647   4.901   0.947
10023SOL    HW230969   0.807   4.875   0.932
10024SOL     OW30970   2.735   6.130   2.564
10024SOL    HW130971   2.739   6.036   2.529
10024SOL    HW230972   2.731   6.194   2.487
10025SOL     OW30973   1.417   1.930   0.943
10025SOL    HW130974   1.474   1.978   0.877
10025SOL    HW230975   1.351   1.872   0.895
10026SOL     OW30976   5.415   6.529   3.757
10026SOL    HW130977   5.506   6.570   3.759
10026SOL    HW230978   5.421   6.435   3.724
10027SOL     OW30979   6.490   4.600   4.548
10027SOL    HW130980   6.463   4.505   4.536
10027SOL    HW230981   6.539   4.631   4.466
10028SOL     OW30982   1.062   1.002   2.486
10028SOL    HW130983   1.099   0.921   2.441
10028SOL    HW230984   1.060   0.988   2.585
10029SOL     OW30985   4.877   1.618   4.767
10029SOL    HW130986   4.940   1.635   4.843
10029SOL    HW230987   4.785   1.602   4.804
10030SOL     OW30988   2.044   0.547   3.870
10030SOL    HW130989   2.060   0.454   3.904
10030SOL    HW230990   1.962   0.547   3.812
10031SOL     OW30991   5.127   4.792   5.009
10031SOL    HW130992   5.030   4.772   5.025
10031SOL    HW230993   5.183   4.721   5.050
10032SOL     OW30994   2.742   1.326   4.966
10032SOL    HW130995   2.836   1.335   5.000
10032SOL    HW230996   2.723   1.230   4.945
10033SOL     OW30997   6.837   2.990   4.444
10033SOL    HW130998   6.866   2.952   4.532
10033SOL    HW230999   6.869   3.084   4.435
10034SOL     OW31000   3.829   0.471   4.148
10034SOL    HW131001   3.928   0.475   4.163
10034SOL    HW231002   3.801   0.552   4.096
10035SOL     OW31003   6.961   5.176   1.466
10035SOL    HW131004   6.925   5.175   1.373
10035SOL    HW231005   6.983   5.082   1.494
10036SOL     OW31006   6.223   2.145   1.228
10036SOL    HW131007   6.264   2.099   1.307
10036SOL    HW231008   6.195   2.078   1.160
10037SOL     OW31009   0.385   1.348   0.125
10037SOL    HW131010   0.315   1.302   0.180
10037SOL    HW231011   0.341   1.397   0.050
10038SOL     OW31012   5.636   0.488   6.907
10038SOL    HW131013   5.587   0.409   6.943
10038SOL    HW231014   5.717   0.505   6.963
10039SOL     OW31015   3.694   0.698   4.032
10039SOL    HW131016   3.657   0.778   3.985
10039SOL    HW231017   3.757   0.728   4.103
10040SOL     OW31018   5.587   5.249   6.673
10040SOL    HW131019   5.545   5.325   6.623
10040SOL    HW231020   5.682   5.273   6.695
10041SOL     OW31021   4.305   5.503   6.910
10041SOL    HW131022   4.337   5.430   6.971
10041SOL    HW231023   4.215   5.535   6.940
10042SOL     OW31024   0.611   1.628   3.668
10042SOL    HW131025   0.556   1.707   3.697
10042SOL    HW231026   0.678   1.607   3.739
10043SOL     OW31027   5.954   1.433   5.339
10043SOL    HW131028   5.878   1.451   5.276
10043SOL    HW231029   5.950   1.338   5.370
10044SOL     OW31030   2.466   2.512   5.117
10044SOL    HW131031   2.378   2.469   5.135
10044SOL    HW231032   2.457   2.577   5.042
10045SOL     OW31033   3.820   0.898   1.758
10045SOL    HW131034   3.869   0.986   1.759
10045SOL    HW231035   3.773   0.887   1.671
10046SOL     OW31036   1.976   3.390   0.915
10046SOL    HW131037   1.912   3.466   0.919
10046SOL    HW231038   1.930   3.306   0.941
10047SOL     OW31039   0.925   3.078   5.376
10047SOL    HW131040   0.940   3.134   5.457
10047SOL    HW231041   1.008   3.026   5.355
10048SOL     OW31042   6.825   6.748   2.653
10048SOL    HW131043   6.846   6.656   2.684
10048SOL    HW231044   6.823   6.811   2.731
10049SOL     OW31045   1.598   1.361   5.563
10049SOL    HW131046   1.551   1.445   5.538
10049SOL    HW231047   1.660   1.333   5.490
10050SOL     OW31048   5.405   3.434   4.529
10050SOL    HW131049   5.414   3.509   4.464
10050SOL    HW231050   5.444   3.462   4.617
10051SOL     OW31051   1.055   4.404   4.909
10051SOL    HW131052   1.001   4.485   4.886
10051SOL    HW231053   1.001   4.322   4.891
10052SOL     OW31054   1.912   0.628   3.428
10052SOL    HW131055   1.957   0.717   3.417
10052SOL    HW231056   1.981   0.556   3.430
10053SOL     OW31057   4.331   5.910   4.144
10053SOL    HW131058   4.248   5.960   4.170
10053SOL    HW231059   4.322   5.815   4.171
10054SOL     OW31060   5.577   4.109   5.483
10054SOL    HW131061   5.504   4.064   5.431
10054SOL    HW231062   5.601   4.196   5.439
10055SOL     OW31063   6.634   2.853   6.356
10055SOL    HW131064   6.709   2.918   6.342
10055SOL    HW231065   6.559   2.875   6.293
10056SOL     OW31066   5.170   4.031   3.179
10056SOL    HW131067   5.244   3.964   3.188
10056SOL    HW231068   5.196   4.101   3.112
10057SOL     OW31069   5.652   3.651   5.501
10057SOL    HW131070   5.675   3.589   5.575
10057SOL    HW231071   5.735   3.694   5.465
10058SOL     OW31072   6.885   3.674   4.084
10058SOL    HW131073   6.826   3.740   4.131
10058SOL    HW231074   6.834   3.631   4.009
10059SOL     OW31075   6.475   1.676   0.765
10059SOL    HW131076   6.387   1.698   0.724
10059SOL    HW231077   6.487   1.728   0.849
10060SOL     OW31078   2.476   1.826   2.471
10060SOL    HW131079   2.382   1.858   2.482
10060SOL    HW231080   2.505   1.842   2.376
10061SOL     OW31081   4.815   1.463   3.556
10061SOL    HW131082   4.895   1.408   3.534
10061SOL    HW231083   4.732   1.411   3.533
10062SOL     OW31084   6.557   6.636   4.172
10062SOL    HW131085   6.586   6.696   4.246
10062SOL    HW231086   6.634   6.621   4.110
10063SOL     OW31087   2.294   1.878   4.602
10063SOL    HW131088   2.259   1.801   4.655
10063SOL    HW231089   2.381   1.852   4.559
10064SOL     OW31090   4.379   5.824   6.523
10064SOL    HW131091   4.362   5.760   6.597
10064SOL    HW231092   4.296   5.836   6.468
10065SOL     OW31093   1.576   1.007   1.819
10065SOL    HW131094   1.605   1.051   1.904
10065SOL    HW231095   1.651   1.009   1.753
10066SOL     OW31096   0.386   3.286   5.177
10066SOL    HW131097   0.346   3.211   5.230
10066SOL    HW231098   0.459   3.329   5.230
10067SOL     OW31099   0.963   2.956   6.102
10067SOL    HW131100   0.939   2.862   6.128
10067SOL    HW231101   1.026   2.954   6.025
10068SOL     OW31102   1.751   3.459   2.698
10068SOL    HW131103   1.672   3.421   2.649
10068SOL    HW231104   1.802   3.519   2.636
10069SOL     OW31105   3.587   5.021   1.740
10069SOL    HW131106   3.664   5.066   1.784
10069SOL    HW231107   3.501   5.056   1.777
10070SOL     OW31108   1.525   5.485   4.342
10070SOL    HW131109   1.499   5.392   4.316
10070SOL    HW231110   1.446   5.531   4.383
10071SOL     OW31111   0.512   6.585   3.799
10071SOL    HW131112   0.495   6.677   3.833
10071SOL    HW231113   0.587   6.544   3.851
10072SOL     OW31114   0.385   1.209   2.429
10072SOL    HW131115   0.352   1.293   2.472
10072SOL    HW231116   0.336   1.131   2.468
10073SOL     OW31117   5.973   2.978   3.914
10073SOL    HW131118   6.007   2.900   3.965
10073SOL    HW231119   6.036   3.055   3.924
10074SOL     OW31120   1.078   5.445   0.311
10074SOL    HW131121   1.115   5.511   0.245
10074SOL    HW231122   1.152   5.408   0.366
10075SOL     OW31123   2.661   0.758   2.586
10075SOL    HW131124   2.752   0.734   2.552
10075SOL    HW231125   2.630   0.687   2.651
10076SOL     OW31126   5.124   5.553   3.459
10076SOL    HW131127   5.075   5.612   3.395
10076SOL    HW231128   5.062   5.525   3.533
10077SOL     OW31129   5.902   3.287   0.339
10077SOL    HW131130   5.965   3.222   0.382
10077SOL    HW231131   5.831   3.313   0.405
10078SOL     OW31132   0.043   6.455   4.974
10078SOL    HW131133   0.029   6.554   4.968
10078SOL    HW231134   0.029   6.413   4.884
10079SOL     OW31135   5.784   2.566   3.722
10079SOL    HW131136   5.692   2.559   3.683
10079SOL    HW231137   5.778   2.567   3.822
10080SOL     OW31138   5.505   1.162   5.879
10080SOL    HW131139   5.580   1.113   5.833
10080SOL    HW231140   5.516   1.260   5.865
10081SOL     OW31141   1.173   1.544   6.775
10081SOL    HW131142   1.231   1.570   6.852
10081SOL    HW231143   1.215   1.574   6.690
10082SOL     OW31144   1.290   5.366   3.094
10082SOL    HW131145   1.250   5.284   3.135
10082SOL    HW231146   1.388   5.369   3.114
10083SOL     OW31147   3.599   5.763   3.328
10083SOL    HW131148   3.689   5.733   3.296
10083SOL    HW231149   3.582   5.856   3.297
10084SOL     OW31150   0.683   6.912   5.453
10084SOL    HW131151   0.585   6.927   5.443
10084SOL    HW231152   0.705   6.816   5.434
10085SOL     OW31153   3.834   6.479   0.242
10085SOL    HW131154   3.791   6.390   0.259
10085SOL    HW231155   3.771   6.552   0.266
10086SOL     OW31156   5.792   6.574   2.362
10086SOL    HW131157   5.725   6.648   2.369
10086SOL    HW231158   5.754   6.499   2.308
10087SOL     OW31159   0.492   6.840   4.660
10087SOL    HW131160   0.477   6.797   4.749
10087SOL    HW231161   0.588   6.868   4.652
10088SOL     OW31162   6.979   2.161   6.850
10088SOL    HW131163   0.008   2.119   6.922
10088SOL    HW231164   6.959   2.256   6.873
10089SOL     OW31165   3.891   1.522   2.368
10089SOL    HW131166   3.796   1.518   2.399
10089SOL    HW231167   3.928   1.612   2.390
10090SOL     OW31168   0.824   5.473   1.796
10090SOL    HW131169   0.862   5.419   1.721
10090SOL    HW231170   0.872   5.451   1.881
10091SOL     OW31171   6.575   5.647   6.738
10091SOL    HW131172   6.495   5.641   6.678
10091SOL    HW231173   6.609   5.556   6.758
10092SOL     OW31174   1.238   3.301   5.228
10092SOL    HW131175   1.225   3.222   5.168
10092SOL    HW231176   1.150   3.327   5.268
10093SOL     OW31177   5.027   3.658   5.569
10093SOL    HW131178   4.981   3.694   5.650
10093SOL    HW231179   4.960   3.643   5.496
10094SOL     OW31180   3.088   6.539   0.603
10094SOL    HW131181   3.148   6.615   0.628
10094SOL    HW231182   3.119   6.500   0.516
10095SOL     OW31183   5.124   2.383   4.614
10095SOL    HW131184   5.035   2.428   4.610
10095SOL    HW231185   5.168   2.404   4.702
10096SOL     OW31186   4.897   0.754   2.339
10096SOL    HW131187   4.925   0.748   2.434
10096SOL    HW231188   4.934   0.838   2.299
10097SOL     OW31189   2.003   2.295   6.348
10097SOL    HW131190   1.958   2.297   6.437
10097SOL    HW231191   1.936   2.276   6.277
10098SOL     OW31192   3.331   5.600   4.457
10098SOL    HW131193   3.312   5.685   4.506
10098SOL    HW231194   3.244   5.555   4.434
10099SOL     OW31195   6.547   4.303   1.511
10099SOL    HW131196   6.593   4.366   1.448
10099SOL    HW231197   6.470   4.260   1.466
10100SOL     OW31198   5.513   5.422   5.668
10100SOL    HW131199   5.525   5.497   5.734
10100SOL    HW231200   5.435   5.442   5.609
10101SOL     OW31201   6.544   2.836   2.018
10101SOL    HW131202   6.532   2.929   2.053
10101SOL    HW231203   6.585   2.840   1.927
10102SOL     OW31204   5.373   0.131   0.300
10102SOL    HW131205   5.337   0.161   0.388
10102SOL    HW231206   5.405   0.037   0.307
10103SOL     OW31207   0.652   0.521   6.192
10103SOL    HW131208   0.701   0.588   6.137
10103SOL    HW231209   0.665   0.541   6.289
10104SOL     OW31210   2.043   0.702   6.398
10104SOL    HW131211   2.106   0.776   6.419
10104SOL    HW231212   1.960   0.711   6.454
10105SOL     OW31213   2.664   1.451   5.590
10105SOL    HW131214   2.618   1.511   5.656
10105SOL    HW231215   2.623   1.360   5.594
10106SOL     OW31216   5.029   6.156   1.955
10106SOL    HW131217   4.939   6.118   1.974
10106SOL    HW231218   5.021   6.252   1.929
10107SOL     OW31219   4.854   4.399   6.748
10107SOL    HW131220   4.818   4.353   6.666
10107SOL    HW231221   4.850   4.498   6.735
10108SOL     OW31222   1.951   2.954   0.228
10108SOL    HW131223   1.887   3.013   0.277
10108SOL    HW231224   1.912   2.863   0.219
10109SOL     OW31225   0.541   1.115   6.883
10109SOL    HW131226   0.461   1.065   6.849
10109SOL    HW231227   0.557   1.195   6.825
10110SOL     OW31228   4.843   5.107   2.492
10110SOL    HW131229   4.805   5.015   2.489
10110SOL    HW231230   4.845   5.146   2.400
10111SOL     OW31231   0.691   2.725   1.947
10111SOL    HW131232   0.722   2.724   1.852
10111SOL    HW231233   0.730   2.646   1.996
10112SOL     OW31234   6.603   2.990   3.397
10112SOL    HW131235   6.668   2.962   3.326
10112SOL    HW231236   6.525   3.037   3.355
10113SOL     OW31237   5.337   1.267   6.753
10113SOL    HW131238   5.329   1.254   6.851
10113SOL    HW231239   5.246   1.279   6.713
10114SOL     OW31240   4.071   2.244   3.285
10114SOL    HW131241   3.995   2.263   3.223
10114SOL    HW231242   4.042   2.177   3.353
10115SOL     OW31243   3.156   1.256   4.404
10115SOL    HW131244   3.186   1.250   4.500
10115SOL    HW231245   3.217   1.318   4.354
10116SOL     OW31246   5.969   0.267   5.483
10116SOL    HW131247   5.987   0.299   5.576
10116SOL    HW231248   5.979   0.343   5.419
10117SOL     OW31249   6.397   5.193   5.379
10117SOL    HW131250   6.309   5.213   5.423
10117SOL    HW231251   6.455   5.274   5.381
10118SOL     OW31252   2.772   5.074   4.542
10118SOL    HW131253   2.807   4.985   4.571
10118SOL    HW231254   2.692   5.098   4.596
10119SOL     OW31255   0.516   5.059   4.049
10119SOL    HW131256   0.602   5.103   4.075
10119SOL    HW231257   0.518   4.962   4.075
10120SOL     OW31258   1.102   3.021   2.489
10120SOL    HW131259   1.010   2.982   2.479
10120SOL    HW231260   1.132   3.012   2.584
10121SOL     OW31261   6.713   4.465   0.816
10121SOL    HW131262   6.718   4.442   0.719
10121SOL    HW231263   6.618   4.474   0.844
10122SOL     OW31264   0.123   1.727   4.010
10122SOL    HW131265   0.205   1.782   3.996
10122SOL    HW231266   0.044   1.787   4.022
10123SOL     OW31267   5.733   6.168   1.306
10123SOL    HW131268   5.791   6.128   1.378
10123SOL    HW231269   5.758   6.128   1.218
10124SOL     OW31270   1.404   5.343   2.166
10124SOL    HW131271   1.423   5.251   2.202
10124SOL    HW231272   1.466   5.409   2.209
10125SOL     OW31273   1.755   1.631   0.992
10125SOL    HW131274   1.786   1.538   1.015
10125SOL    HW231275   1.762   1.645   0.894
10126SOL     OW31276   6.034   0.893   6.937
10126SOL    HW131277   5.963   0.924   6.999
10126SOL    HW231278   6.080   0.971   6.896
10127SOL     OW31279   1.485   4.681   5.915
10127SOL    HW131280   1.555   4.732   5.865
10127SOL    HW231281   1.411   4.743   5.941
10128SOL     OW31282   3.270   0.879   0.310
10128SOL    HW131283   3.272   0.947   0.383
10128SOL    HW231284   3.299   0.790   0.346
10129SOL     OW31285   5.943   1.508   3.516
10129SOL    HW131286   5.910   1.531   3.424
10129SOL    HW231287   5.875   1.535   3.584
10130SOL     OW31288   0.776   2.236   2.333
10130SOL    HW131289   0.775   2.205   2.238
10130SOL    HW231290   0.798   2.159   2.393
10131SOL     OW31291   2.195   0.782   4.621
10131SOL    HW131292   2.207   0.796   4.522
10131SOL    HW231293   2.109   0.826   4.649
10132SOL     OW31294   6.561   0.568   2.686
10132SOL    HW131295   6.655   0.533   2.688
10132SOL    HW231296   6.560   0.656   2.639
10133SOL     OW31297   4.678   5.451   0.859
10133SOL    HW131298   4.720   5.400   0.934
10133SOL    HW231299   4.631   5.388   0.797
10134SOL     OW31300   5.808   0.802   1.938
10134SOL    HW131301   5.882   0.869   1.949
10134SOL    HW231302   5.843   0.710   1.958
10135SOL     OW31303   5.598   0.267   4.035
10135SOL    HW131304   5.641   0.353   4.010
10135SOL    HW231305   5.668   0.195   4.038
10136SOL     OW31306   4.836   2.086   2.678
10136SOL    HW131307   4.819   2.040   2.766
10136SOL    HW231308   4.853   2.183   2.694
10137SOL     OW31309   0.045   5.955   5.634
10137SOL    HW131310   6.972   5.956   5.645
10137SOL    HW231311   0.074   6.042   5.594
10138SOL     OW31312   5.814   1.505   0.187
10138SOL    HW131313   5.874   1.448   0.130
10138SOL    HW231314   5.732   1.529   0.136
10139SOL     OW31315   3.117   3.378   6.265
10139SOL    HW131316   3.102   3.355   6.168
10139SOL    HW231317   3.156   3.299   6.312
10140SOL     OW31318   6.707   5.920   6.325
10140SOL    HW131319   6.675   5.891   6.234
10140SOL    HW231320   6.629   5.951   6.379
10141SOL     OW31321   3.121   1.427   3.878
10141SOL    HW131322   3.181   1.460   3.952
10141SOL    HW231323   3.161   1.344   3.839
10142SOL     OW31324   5.527   6.511   4.469
10142SOL    HW131325   5.430   6.497   4.489
10142SOL    HW231326   5.575   6.536   4.553
10143SOL     OW31327   5.926   3.511   0.582
10143SOL    HW131328   5.946   3.546   0.490
10143SOL    HW231329   5.832   3.477   0.584
10144SOL     OW31330   4.118   6.310   5.337
10144SOL    HW131331   4.185   6.309   5.411
10144SOL    HW231332   4.165   6.303   5.249
10145SOL     OW31333   5.022   5.947   1.739
10145SOL    HW131334   5.040   5.969   1.835
10145SOL    HW231335   5.016   6.031   1.686
10146SOL     OW31336   0.527   3.548   4.091
10146SOL    HW131337   0.618   3.565   4.053
10146SOL    HW231338   0.463   3.525   4.018
10147SOL     OW31339   4.347   5.487   6.459
10147SOL    HW131340   4.400   5.515   6.378
10147SOL    HW231341   4.377   5.541   6.538
10148SOL     OW31342   0.651   4.769   0.105
10148SOL    HW131343   0.693   4.856   0.081
10148SOL    HW231344   0.693   4.696   0.051
10149SOL     OW31345   4.680   4.738   1.423
10149SOL    HW131346   4.690   4.719   1.521
10149SOL    HW231347   4.712   4.659   1.371
10150SOL     OW31348   4.827   3.845   0.771
10150SOL    HW131349   4.873   3.821   0.856
10150SOL    HW231350   4.735   3.805   0.769
10151SOL     OW31351   6.750   0.333   5.878
10151SOL    HW131352   6.806   0.252   5.894
10151SOL    HW231353   6.765   0.365   5.784
10152SOL     OW31354   5.995   6.323   2.660
10152SOL    HW131355   5.997   6.422   2.644
10152SOL    HW231356   5.981   6.306   2.758
10153SOL     OW31357   4.740   5.278   3.878
10153SOL    HW131358   4.805   5.348   3.907
10153SOL    HW231359   4.660   5.322   3.836
10154SOL     OW31360   3.909   4.598   5.678
10154SOL    HW131361   3.840   4.588   5.606
10154SOL    HW231362   3.864   4.599   5.767
10155SOL     OW31363   4.696   2.192   5.829
10155SOL    HW131364   4.730   2.236   5.912
10155SOL    HW231365   4.613   2.140   5.850
10156SOL     OW31366   4.769   0.701   0.912
10156SOL    HW131367   4.711   0.775   0.947
10156SOL    HW231368   4.743   0.680   0.818
10157SOL     OW31369   0.049   2.718   1.404
10157SOL    HW131370   6.990   2.698   1.356
10157SOL    HW231371   0.091   2.633   1.436
10158SOL     OW31372   5.289   6.634   2.190
10158SOL    HW131373   5.295   6.734   2.183
10158SOL    HW231374   5.362   6.601   2.250
10159SOL     OW31375   3.687   3.410   3.295
10159SOL    HW131376   3.730   3.498   3.312
10159SOL    HW231377   3.589   3.423   3.279
10160SOL     OW31378   1.947   4.306   2.874
10160SOL    HW131379   2.037   4.347   2.860
10160SOL    HW231380   1.883   4.376   2.907
10161SOL     OW31381   3.615   4.824   6.578
10161SOL    HW131382   3.660   4.819   6.488
10161SOL    HW231383   3.676   4.787   6.647
10162SOL     OW31384   1.951   4.469   1.679
10162SOL    HW131385   1.932   4.560   1.641
10162SOL    HW231386   1.889   4.402   1.638
10163SOL     OW31387   1.454   6.205   5.485
10163SOL    HW131388   1.404   6.180   5.568
10163SOL    HW231389   1.489   6.123   5.441
10164SOL     OW31390   6.619   3.053   3.667
10164SOL    HW131391   6.680   3.003   3.728
10164SOL    HW231392   6.650   3.043   3.573
10165SOL     OW31393   6.264   2.965   4.057
10165SOL    HW131394   6.222   3.056   4.060
10165SOL    HW231395   6.325   2.959   3.978
10166SOL     OW31396   0.900   2.432   0.660
10166SOL    HW131397   0.950   2.393   0.584
10166SOL    HW231398   0.811   2.465   0.629
10167SOL     OW31399   0.491   5.825   6.111
10167SOL    HW131400   0.581   5.861   6.136
10167SOL    HW231401   0.503   5.751   6.044
10168SOL     OW31402   5.961   1.402   7.014
10168SOL    HW131403   6.027   1.364   0.053
10168SOL    HW231404   5.895   1.332   6.988
10169SOL     OW31405   6.874   3.781   3.269
10169SOL    HW131406   6.927   3.703   3.304
10169SOL    HW231407   6.830   3.755   3.183
10170SOL     OW31408   6.583   5.983   0.257
10170SOL    HW131409   6.628   5.895   0.240
10170SOL    HW231410   6.488   5.967   0.281
10171SOL     OW31411   1.911   2.822   5.041
10171SOL    HW131412   2.003   2.833   5.078
10171SOL    HW231413   1.892   2.894   4.975
10172SOL     OW31414   6.557   0.360   3.041
10172SOL    HW131415   6.543   0.313   3.128
10172SOL    HW231416   6.554   0.459   3.055
10173SOL     OW31417   3.462   4.670   6.915
10173SOL    HW131418   3.402   4.739   6.875
10173SOL    HW231419   3.461   4.588   6.859
10174SOL     OW31420   5.059   6.934   2.966
10174SOL    HW131421   5.067   6.901   2.872
10174SOL    HW231422   5.148   6.929   3.011
10175SOL     OW31423   6.822   2.173   3.853
10175SOL    HW131424   6.743   2.235   3.846
10175SOL    HW231425   6.829   2.121   3.768
10176SOL     OW31426   6.487   3.442   5.770
10176SOL    HW131427   6.581   3.442   5.802
10176SOL    HW231428   6.432   3.504   5.826
10177SOL     OW31429   2.462   0.481   1.758
10177SOL    HW131430   2.414   0.478   1.671
10177SOL    HW231431   2.560   0.493   1.742
10178SOL     OW31432   1.883   1.741   0.358
10178SOL    HW131433   1.838   1.794   0.430
10178SOL    HW231434   1.834   1.655   0.343
10179SOL     OW31435   0.030   4.320   0.616
10179SOL    HW131436   0.046   4.223   0.598
10179SOL    HW231437   0.116   4.370   0.608
10180SOL     OW31438   4.538   6.964   5.959
10180SOL    HW131439   4.618   7.007   6.001
10180SOL    HW231440   4.508   7.018   5.880
10181SOL     OW31441   6.654   3.981   1.181
10181SOL    HW131442   6.724   3.969   1.251
10181SOL    HW231443   6.692   4.035   1.105
10182SOL     OW31444   5.386   1.653   6.994
10182SOL    HW131445   5.308   1.617   0.018
10182SOL    HW231446   5.461   1.587   6.994
10183SOL     OW31447   6.762   2.163   6.019
10183SOL    HW131448   6.859   2.186   6.022
10183SOL    HW231449   6.741   2.098   6.092
10184SOL     OW31450   6.042   3.825   6.413
10184SOL    HW131451   5.954   3.872   6.414
10184SOL    HW231452   6.028   3.727   6.395
10185SOL     OW31453   4.082   6.028   2.236
10185SOL    HW131454   4.043   5.937   2.228
10185SOL    HW231455   4.148   6.043   2.163
10186SOL     OW31456   4.982   3.979   5.301
10186SOL    HW131457   4.993   4.064   5.249
10186SOL    HW231458   5.048   3.976   5.376
10187SOL     OW31459   2.412   4.361   5.723
10187SOL    HW131460   2.462   4.294   5.668
10187SOL    HW231461   2.416   4.450   5.679
10188SOL     OW31462   2.814   6.623   6.931
10188SOL    HW131463   2.751   6.586   6.863
10188SOL    HW231464   2.865   6.548   6.974
10189SOL     OW31465   1.375   1.336   6.190
10189SOL    HW131466   1.340   1.251   6.151
10189SOL    HW231467   1.467   1.322   6.225
10190SOL     OW31468   2.619   4.246   1.394
10190SOL    HW131469   2.632   4.194   1.309
10190SOL    HW231470   2.541   4.308   1.383
10191SOL     OW31471   5.885   5.655   0.003
10191SOL    HW131472   5.911   5.571   0.050
10191SOL    HW231473   5.929   5.733   0.048
10192SOL     OW31474   2.224   1.982   5.549
10192SOL    HW131475   2.243   2.057   5.612
10192SOL    HW231476   2.209   1.898   5.601
10193SOL     OW31477   4.096   3.216   2.726
10193SOL    HW131478   4.140   3.227   2.815
10193SOL    HW231479   4.109   3.299   2.672
10194SOL     OW31480   3.744   0.465   4.419
10194SOL    HW131481   3.816   0.417   4.469
10194SOL    HW231482   3.769   0.471   4.322
10195SOL     OW31483   5.583   0.126   2.062
10195SOL    HW131484   5.656   0.122   1.994
10195SOL    HW231485   5.624   0.138   2.153
10196SOL     OW31486   5.605   1.817   3.067
10196SOL    HW131487   5.592   1.858   2.977
10196SOL    HW231488   5.684   1.859   3.112
10197SOL     OW31489   5.798   0.119   3.013
10197SOL    HW131490   5.884   0.132   2.963
10197SOL    HW231491   5.729   0.182   2.977
10198SOL     OW31492   3.166   6.341   1.623
10198SOL    HW131493   3.142   6.433   1.592
10198SOL    HW231494   3.258   6.318   1.590
10199SOL     OW31495   1.044   1.837   6.837
10199SOL    HW131496   1.025   1.889   6.920
10199SOL    HW231497   1.132   1.790   6.847
10200SOL     OW31498   5.837   3.911   5.719
10200SOL    HW131499   5.754   3.891   5.772
10200SOL    HW231500   5.916   3.907   5.779
10201SOL     OW31501   0.826   5.209   2.384
10201SOL    HW131502   0.912   5.259   2.381
10201SOL    HW231503   0.780   5.217   2.295
10202SOL     OW31504   0.096   3.931   1.605
10202SOL    HW131505   0.048   3.883   1.532
10202SOL    HW231506   0.166   3.990   1.565
10203SOL     OW31507   1.876   3.017   2.351
10203SOL    HW131508   1.905   2.933   2.397
10203SOL    HW231509   1.951   3.084   2.356
10204SOL     OW31510   3.082   4.594   5.520
10204SOL    HW131511   3.131   4.520   5.474
10204SOL    HW231512   3.112   4.682   5.482
10205SOL     OW31513   5.305   1.545   3.607
10205SOL    HW131514   5.312   1.464   3.666
10205SOL    HW231515   5.336   1.626   3.657
10206SOL     OW31516   5.460   6.626   6.069
10206SOL    HW131517   5.553   6.615   6.035
10206SOL    HW231518   5.397   6.579   6.007
10207SOL     OW31519   2.194   0.834   2.509
10207SOL    HW131520   2.107   0.857   2.465
10207SOL    HW231521   2.270   0.866   2.452
10208SOL     OW31522   5.909   5.666   5.129
10208SOL    HW131523   5.979   5.600   5.159
10208SOL    HW231524   5.950   5.731   5.065
10209SOL     OW31525   6.988   1.208   6.281
10209SOL    HW131526   6.956   1.296   6.246
10209SOL    HW231527   0.032   1.171   6.220
10210SOL     OW31528   5.805   0.108   1.867
10210SOL    HW131529   5.874   0.156   1.922
10210SOL    HW231530   5.820   0.009   1.876
10211SOL     OW31531   4.043   6.607   5.313
10211SOL    HW131532   4.034   6.507   5.312
10211SOL    HW231533   4.122   6.634   5.258
10212SOL     OW31534   0.359   1.252   4.124
10212SOL    HW131535   0.419   1.230   4.202
10212SOL    HW231536   0.350   1.171   4.066
10213SOL     OW31537   5.895   1.793   2.955
10213SOL    HW131538   5.900   1.736   2.873
10213SOL    HW231539   5.895   1.890   2.929
10214SOL     OW31540   6.235   0.582   2.103
10214SOL    HW131541   6.290   0.620   2.029
10214SOL    HW231542   6.292   0.564   2.183
10215SOL     OW31543   3.313   3.453   6.492
10215SOL    HW131544   3.270   3.538   6.524
10215SOL    HW231545   3.385   3.475   6.426
10216SOL     OW31546   6.533   6.896   0.986
10216SOL    HW131547   6.612   6.863   0.935
10216SOL    HW231548   6.552   6.987   1.023
10217SOL     OW31549   2.602   1.756   4.320
10217SOL    HW131550   2.527   1.813   4.288
10217SOL    HW231551   2.567   1.682   4.377
10218SOL     OW31552   1.128   1.424   1.490
10218SOL    HW131553   1.115   1.478   1.407
10218SOL    HW231554   1.044   1.375   1.512
10219SOL     OW31555   0.729   2.148   1.911
10219SOL    HW131556   0.660   2.090   1.955
10219SOL    HW231557   0.754   2.107   1.823
10220SOL     OW31558   4.157   1.854   1.248
10220SOL    HW131559   4.141   1.839   1.345
10220SOL    HW231560   4.256   1.851   1.230
10221SOL     OW31561   2.697   0.965   5.239
10221SOL    HW131562   2.652   0.875   5.239
10221SOL    HW231563   2.627   1.037   5.241
10222SOL     OW31564   0.978   3.804   5.446
10222SOL    HW131565   0.881   3.830   5.450
10222SOL    HW231566   1.007   3.799   5.350
10223SOL     OW31567   1.222   4.863   6.985
10223SOL    HW131568   1.296   4.872   6.918
10223SOL    HW231569   1.146   4.923   6.959
10224SOL     OW31570   1.694   0.662   4.633
10224SOL    HW131571   1.645   0.736   4.587
10224SOL    HW231572   1.714   0.689   4.727
10225SOL     OW31573   0.753   6.103   4.586
10225SOL    HW131574   0.763   6.089   4.487
10225SOL    HW231575   0.756   6.014   4.632
10226SOL     OW31576   2.952   1.123   6.695
10226SOL    HW131577   2.942   1.024   6.709
10226SOL    HW231578   3.011   1.139   6.616
10227SOL     OW31579   4.631   4.557   0.345
10227SOL    HW131580   4.655   4.650   0.372
10227SOL    HW231581   4.707   4.496   0.367
10228SOL     OW31582   0.399   5.484   2.078
10228SOL    HW131583   0.393   5.572   2.124
10228SOL    HW231584   0.460   5.491   1.999
10229SOL     OW31585   0.912   0.915   3.430
10229SOL    HW131586   0.926   0.994   3.489
10229SOL    HW231587   1.000   0.870   3.413
10230SOL     OW31588   6.653   7.024   3.524
10230SOL    HW131589   6.699   6.938   3.500
10230SOL    HW231590   6.556   7.016   3.502
10231SOL     OW31591   6.481   6.706   4.796
10231SOL    HW131592   6.458   6.619   4.840
10231SOL    HW231593   6.420   6.721   4.718
10232SOL     OW31594   4.010   0.984   4.322
10232SOL    HW131595   4.001   1.050   4.397
10232SOL    HW231596   4.107   0.968   4.304
10233SOL     OW31597   4.210   3.091   6.048
10233SOL    HW131598   4.113   3.069   6.043
10233SOL    HW231599   4.239   3.092   6.144
10234SOL     OW31600   5.037   0.591   0.638
10234SOL    HW131601   4.937   0.586   0.647
10234SOL    HW231602   5.062   0.674   0.588
10235SOL     OW31603   4.461   0.828   0.452
10235SOL    HW131604   4.556   0.852   0.431
10235SOL    HW231605   4.400   0.900   0.420
10236SOL     OW31606   2.143   6.431   1.682
10236SOL    HW131607   2.132   6.401   1.587
10236SOL    HW231608   2.124   6.528   1.689
10237SOL     OW31609   6.669   4.387   1.776
10237SOL    HW131610   6.742   4.345   1.830
10237SOL    HW231611   6.668   4.348   1.684
10238SOL     OW31612   3.884   3.972   5.643
10238SOL    HW131613   3.962   3.933   5.692
10238SOL    HW231614   3.913   4.058   5.599
10239SOL     OW31615   0.682   4.167   5.527
10239SOL    HW131616   0.742   4.189   5.604
10239SOL    HW231617   0.717   4.211   5.444
10240SOL     OW31618   1.240   4.412   2.430
10240SOL    HW131619   1.317   4.443   2.486
10240SOL    HW231620   1.206   4.325   2.466
10241SOL     OW31621   0.143   0.985   1.761
10241SOL    HW131622   0.208   0.956   1.692
10241SOL    HW231623   0.165   0.940   1.848
10242SOL     OW31624   0.482   1.592   6.009
10242SOL    HW131625   0.467   1.680   6.054
10242SOL    HW231626   0.579   1.567   6.017
10243SOL     OW31627   0.180   5.455   1.342
10243SOL    HW131628   0.168   5.404   1.427
10243SOL    HW231629   0.275   5.447   1.311
10244SOL     OW31630   1.910   5.048   0.098
10244SOL    HW131631   1.996   5.003   0.076
10244SOL    HW231632   1.927   5.145   0.116
10245SOL     OW31633   2.343   3.448   0.052
10245SOL    HW131634   2.424   3.390   0.040
10245SOL    HW231635   2.275   3.399   0.106
10246SOL     OW31636   2.911   3.896   4.923
10246SOL    HW131637   2.834   3.959   4.917
10246SOL    HW231638   2.948   3.896   5.015
10247SOL     OW31639   0.540   5.236   5.293
10247SOL    HW131640   0.461   5.227   5.233
10247SOL    HW231641   0.583   5.325   5.278
10248SOL     OW31642   3.456   0.504   2.549
10248SOL    HW131643   3.425   0.468   2.461
10248SOL    HW231644   3.551   0.478   2.564
10249SOL     OW31645   3.314   0.621   5.267
10249SOL    HW131646   3.281   0.619   5.173
10249SOL    HW231647   3.272   0.547   5.319
10250SOL     OW31648   6.809   1.571   1.206
10250SOL    HW131649   6.818   1.583   1.107
10250SOL    HW231650   6.713   1.582   1.233
10251SOL     OW31651   2.531   2.810   5.723
10251SOL    HW131652   2.485   2.821   5.811
10251SOL    HW231653   2.604   2.879   5.716
10252SOL     OW31654   5.984   6.925   0.649
10252SOL    HW131655   5.997   6.905   0.746
10252SOL    HW231656   5.887   6.937   0.630
10253SOL     OW31657   4.814   5.331   0.271
10253SOL    HW131658   4.776   5.416   0.236
10253SOL    HW231659   4.914   5.336   0.269
10254SOL     OW31660   3.418   2.116   4.676
10254SOL    HW131661   3.490   2.182   4.650
10254SOL    HW231662   3.416   2.107   4.775
10255SOL     OW31663   1.927   6.466   2.155
10255SOL    HW131664   1.848   6.527   2.145
10255SOL    HW231665   1.930   6.402   2.079
10256SOL     OW31666   5.293   0.068   0.935
10256SOL    HW131667   5.346   0.078   0.851
10256SOL    HW231668   5.214   0.130   0.933
10257SOL     OW31669   1.004   4.723   5.412
10257SOL    HW131670   1.081   4.735   5.474
10257SOL    HW231671   1.001   4.628   5.381
10258SOL     OW31672   5.230   6.753   3.546
10258SOL    HW131673   5.318   6.730   3.505
10258SOL    HW231674   5.176   6.670   3.559
10259SOL     OW31675   0.876   5.460   3.691
10259SOL    HW131676   0.833   5.470   3.781
10259SOL    HW231677   0.867   5.546   3.640
10260SOL     OW31678   6.956   6.656   3.060
10260SOL    HW131679   0.026   6.669   3.035
10260SOL    HW231680   6.903   6.632   2.978
10261SOL     OW31681   0.089   6.205   1.959
10261SOL    HW131682   0.076   6.244   2.050
10261SOL    HW231683   0.024   6.247   1.896
10262SOL     OW31684   3.357   5.019   4.699
10262SOL    HW131685   3.383   5.015   4.795
10262SOL    HW231686   3.333   5.112   4.675
10263SOL     OW31687   4.792   1.865   6.885
10263SOL    HW131688   4.853   1.797   6.843
10263SOL    HW231689   4.733   1.819   6.951
10264SOL     OW31690   6.003   1.422   6.350
10264SOL    HW131691   6.038   1.496   6.407
10264SOL    HW231692   5.941   1.460   6.281
10265SOL     OW31693   3.285   1.634   2.690
10265SOL    HW131694   3.358   1.649   2.757
10265SOL    HW231695   3.228   1.716   2.685
10266SOL     OW31696   3.813   4.155   6.229
10266SOL    HW131697   3.815   4.201   6.141
10266SOL    HW231698   3.776   4.062   6.218
10267SOL     OW31699   6.532   1.922   7.014
10267SOL    HW131700   6.602   1.867   0.035
10267SOL    HW231701   6.563   2.017   7.008
10268SOL     OW31702   5.337   6.286   1.426
10268SOL    HW131703   5.395   6.323   1.352
10268SOL    HW231704   5.381   6.303   1.514
10269SOL     OW31705   2.379   1.605   5.487
10269SOL    HW131706   2.455   1.602   5.422
10269SOL    HW231707   2.379   1.523   5.544
10270SOL     OW31708   2.375   5.859   1.031
10270SOL    HW131709   2.425   5.787   1.078
10270SOL    HW231710   2.401   5.948   1.069
10271SOL     OW31711   3.115   3.770   0.256
10271SOL    HW131712   3.148   3.700   0.192
10271SOL    HW231713   3.149   3.860   0.229
10272SOL     OW31714   1.207   1.157   4.229
10272SOL    HW131715   1.131   1.189   4.286
10272SOL    HW231716   1.190   1.183   4.134
10273SOL     OW31717   4.065   5.535   4.461
10273SOL    HW131718   4.084   5.491   4.549
10273SOL    HW231719   3.992   5.485   4.414
10274SOL     OW31720   1.215   4.767   5.552
10274SOL    HW131721   1.229   4.866   5.556
10274SOL    HW231722   1.297   4.723   5.517
10275SOL     OW31723   0.880   6.984   2.762
10275SOL    HW131724   0.789   6.962   2.796
10275SOL    HW231725   0.925   0.022   2.823
10276SOL     OW31726   0.032   5.618   6.004
10276SOL    HW131727   0.117   5.623   5.952
10276SOL    HW231728   7.012   5.706   6.003
10277SOL     OW31729   3.068   6.362   3.975
10277SOL    HW131730   3.099   6.396   4.063
10277SOL    HW231731   3.135   6.296   3.939
10278SOL     OW31732   6.840   1.335   5.940
10278SOL    HW131733   6.872   1.269   5.872
10278SOL    HW231734   6.792   1.409   5.894
10279SOL     OW31735   3.533   0.452   4.001
10279SOL    HW131736   3.536   0.372   4.061
10279SOL    HW231737   3.601   0.519   4.032
10280SOL     OW31738   2.321   4.896   1.193
10280SOL    HW131739   2.414   4.915   1.223
10280SOL    HW231740   2.257   4.953   1.244
10281SOL     OW31741   5.085   1.949   2.586
10281SOL    HW131742   4.996   1.978   2.621
10281SOL    HW231743   5.155   2.015   2.613
10282SOL     OW31744   6.956   3.139   3.463
10282SOL    HW131745   6.906   3.167   3.382
10282SOL    HW231746   7.010   3.216   3.497
10283SOL     OW31747   1.153   3.050   0.505
10283SOL    HW131748   1.164   3.040   0.604
10283SOL    HW231749   1.172   3.145   0.479
10284SOL     OW31750   5.713   4.194   5.152
10284SOL    HW131751   5.679   4.239   5.069
10284SOL    HW231752   5.697   4.253   5.231
10285SOL     OW31753   4.456   0.338   1.376
10285SOL    HW131754   4.410   0.426   1.368
10285SOL    HW231755   4.507   0.335   1.462
10286SOL     OW31756   3.846   1.763   2.718
10286SOL    HW131757   3.845   1.678   2.770
10286SOL    HW231758   3.761   1.770   2.665
10287SOL     OW31759   1.995   6.894   1.873
10287SOL    HW131760   2.016   6.809   1.824
10287SOL    HW231761   2.070   6.959   1.863
10288SOL     OW31762   5.485   5.996   2.551
10288SOL    HW131763   5.524   5.940   2.477
10288SOL    HW231764   5.554   6.009   2.622
10289SOL     OW31765   3.531   1.241   1.442
10289SOL    HW131766   3.490   1.279   1.525
10289SOL    HW231767   3.458   1.219   1.377
10290SOL     OW31768   3.475   4.051   3.115
10290SOL    HW131769   3.422   3.966   3.120
10290SOL    HW231770   3.480   4.081   3.019
10291SOL     OW31771   3.984   0.685   3.873
10291SOL    HW131772   3.885   0.698   3.874
10291SOL    HW231773   4.006   0.599   3.827
10292SOL     OW31774   0.446   2.105   4.531
10292SOL    HW131775   0.425   2.042   4.607
10292SOL    HW231776   0.391   2.188   4.541
10293SOL     OW31777   1.278   6.552   2.970
10293SOL    HW131778   1.225   6.476   2.932
10293SOL    HW231779   1.248   6.638   2.928
10294SOL     OW31780   4.886   3.171   2.992
10294SOL    HW131781   4.876   3.096   3.058
10294SOL    HW231782   4.885   3.258   3.042
10295SOL     OW31783   5.915   4.636   5.453
10295SOL    HW131784   6.012   4.613   5.450
10295SOL    HW231785   5.863   4.560   5.492
10296SOL     OW31786   5.778   4.228   6.055
10296SOL    HW131787   5.840   4.181   6.117
10296SOL    HW231788   5.765   4.322   6.085
10297SOL     OW31789   2.799   0.148   4.429
10297SOL    HW131790   2.783   0.160   4.331
10297SOL    HW231791   2.897   0.153   4.447
10298SOL     OW31792   4.774   4.455   3.198
10298SOL    HW131793   4.795   4.544   3.237
10298SOL    HW231794   4.715   4.404   3.260
10299SOL     OW31795   4.445   4.472   3.451
10299SOL    HW131796   4.511   4.408   3.412
10299SOL    HW231797   4.450   4.469   3.551
10300SOL     OW31798   1.867   3.839   2.065
10300SOL    HW131799   1.937   3.772   2.091
10300SOL    HW231800   1.869   3.915   2.130
10301SOL     OW31801   5.626   1.678   3.455
10301SOL    HW131802   5.685   1.691   3.375
10301SOL    HW231803   5.546   1.625   3.428
10302SOL     OW31804   1.213   6.311   2.282
10302SOL    HW131805   1.129   6.318   2.228
10302SOL    HW231806   1.194   6.259   2.365
10303SOL     OW31807   3.812   3.491   1.405
10303SOL    HW131808   3.859   3.450   1.483
10303SOL    HW231809   3.753   3.566   1.437
10304SOL     OW31810   5.846   0.084   4.037
10304SOL    HW131811   5.935   0.129   4.044
10304SOL    HW231812   5.841   0.010   4.104
10305SOL     OW31813   1.488   6.223   0.219
10305SOL    HW131814   1.533   6.134   0.224
10305SOL    HW231815   1.495   6.259   0.126
10306SOL     OW31816   4.457   5.320   0.025
10306SOL    HW131817   4.529   5.296   6.986
10306SOL    HW231818   4.496   5.322   0.118
10307SOL     OW31819   1.829   0.851   5.416
10307SOL    HW131820   1.739   0.827   5.453
10307SOL    HW231821   1.859   0.938   5.454
10308SOL     OW31822   3.364   5.203   3.723
10308SOL    HW131823   3.367   5.300   3.698
10308SOL    HW231824   3.294   5.157   3.668
10309SOL     OW31825   6.073   6.555   3.430
10309SOL    HW131826   6.060   6.638   3.375
10309SOL    HW231827   6.171   6.539   3.444
10310SOL     OW31828   3.043   3.737   2.143
10310SOL    HW131829   2.985   3.815   2.165
10310SOL    HW231830   3.007   3.655   2.187
10311SOL     OW31831   0.731   5.667   0.692
10311SOL    HW131832   0.680   5.693   0.774
10311SOL    HW231833   0.676   5.605   0.637
10312SOL     OW31834   3.300   4.650   0.371
10312SOL    HW131835   3.328   4.743   0.348
10312SOL    HW231836   3.318   4.590   0.294
10313SOL     OW31837   4.393   0.189   2.276
10313SOL    HW131838   4.471   0.251   2.277
10313SOL    HW231839   4.310   0.239   2.302
10314SOL     OW31840   6.233   0.165   0.758
10314SOL    HW131841   6.301   0.238   0.747
10314SOL    HW231842   6.163   0.173   0.687
10315SOL     OW31843   5.998   6.092   5.152
10315SOL    HW131844   5.973   6.168   5.092
10315SOL    HW231845   5.928   6.021   5.146
10316SOL     OW31846   0.195   3.366   4.733
10316SOL    HW131847   0.241   3.398   4.651
10316SOL    HW231848   0.262   3.355   4.807
10317SOL     OW31849   3.858   5.083   6.447
10317SOL    HW131850   3.777   5.088   6.388
10317SOL    HW231851   3.889   4.988   6.453
10318SOL     OW31852   6.263   5.205   1.257
10318SOL    HW131853   6.218   5.119   1.233
10318SOL    HW231854   6.276   5.210   1.356
10319SOL     OW31855   0.221   4.891   4.081
10319SOL    HW131856   0.269   4.805   4.060
10319SOL    HW231857   0.253   4.962   4.019
10320SOL     OW31858   0.955   0.294   0.958
10320SOL    HW131859   0.952   0.221   1.025
10320SOL    HW231860   1.027   0.274   0.890
10321SOL     OW31861   3.794   6.182   5.019
10321SOL    HW131862   3.744   6.181   4.932
10321SOL    HW231863   3.781   6.095   5.066
10322SOL     OW31864   6.336   5.942   0.357
10322SOL    HW131865   6.350   5.971   0.452
10322SOL    HW231866   6.299   5.849   0.356
10323SOL     OW31867   6.771   3.190   6.422
10323SOL    HW131868   6.816   3.136   6.492
10323SOL    HW231869   6.778   3.142   6.334
10324SOL     OW31870   3.701   3.196   3.475
10324SOL    HW131871   3.695   3.277   3.416
10324SOL    HW231872   3.611   3.154   3.482
10325SOL     OW31873   6.715   4.399   3.628
10325SOL    HW131874   6.697   4.328   3.559
10325SOL    HW231875   6.631   4.417   3.680
10326SOL     OW31876   5.176   2.272   0.728
10326SOL    HW131877   5.242   2.198   0.720
10326SOL    HW231878   5.224   2.360   0.731
10327SOL     OW31879   1.707   1.248   3.016
10327SOL    HW131880   1.639   1.253   2.942
10327SOL    HW231881   1.790   1.203   2.982
10328SOL     OW31882   5.771   3.515   2.508
10328SOL    HW131883   5.691   3.529   2.567
10328SOL    HW231884   5.850   3.492   2.564
10329SOL     OW31885   3.061   0.484   3.366
10329SOL    HW131886   3.146   0.534   3.348
10329SOL    HW231887   2.987   0.521   3.310
10330SOL     OW31888   3.676   5.231   2.998
10330SOL    HW131889   3.674   5.131   2.993
10330SOL    HW231890   3.632   5.262   3.082
10331SOL     OW31891   5.346   0.615   3.507
10331SOL    HW131892   5.363   0.647   3.600
10331SOL    HW231893   5.433   0.608   3.458
10332SOL     OW31894   6.880   2.070   0.704
10332SOL    HW131895   6.819   2.147   0.724
10332SOL    HW231896   6.835   1.984   0.727
10333SOL     OW31897   5.749   5.054   3.900
10333SOL    HW131898   5.720   5.150   3.897
10333SOL    HW231899   5.848   5.050   3.914
10334SOL     OW31900   2.064   4.910   3.869
10334SOL    HW131901   2.027   5.000   3.893
10334SOL    HW231902   2.111   4.871   3.947
10335SOL     OW31903   2.315   5.358   6.506
10335SOL    HW131904   2.240   5.327   6.564
10335SOL    HW231905   2.280   5.423   6.439
10336SOL     OW31906   4.261   6.986   2.157
10336SOL    HW131907   4.308   0.044   2.185
10336SOL    HW231908   4.328   6.920   2.122
10337SOL     OW31909   0.142   5.110   4.600
10337SOL    HW131910   0.069   5.076   4.541
10337SOL    HW231911   0.226   5.122   4.546
10338SOL     OW31912   3.689   6.785   1.348
10338SOL    HW131913   3.756   6.721   1.385
10338SOL    HW231914   3.736   6.862   1.305
10339SOL     OW31915   3.350   5.636   0.793
10339SOL    HW131916   3.263   5.678   0.765
10339SOL    HW231917   3.399   5.698   0.853
10340SOL     OW31918   2.480   5.570   6.514
10340SOL    HW131919   2.563   5.572   6.570
10340SOL    HW231920   2.430   5.486   6.533
10341SOL     OW31921   2.458   2.217   2.393
10341SOL    HW131922   2.465   2.229   2.492
10341SOL    HW231923   2.545   2.242   2.350
10342SOL     OW31924   2.548   6.788   5.682
10342SOL    HW131925   2.613   6.863   5.664
10342SOL    HW231926   2.541   6.731   5.601
10343SOL     OW31927   2.382   4.117   5.894
10343SOL    HW131928   2.478   4.116   5.922
10343SOL    HW231929   2.358   4.208   5.860
10344SOL     OW31930   4.034   3.622   4.664
10344SOL    HW131931   4.056   3.702   4.609
10344SOL    HW231932   4.062   3.638   4.759
10345SOL     OW31933   2.819   1.428   0.291
10345SOL    HW131934   2.828   1.490   0.213
10345SOL    HW231935   2.839   1.335   0.262
10346SOL     OW31936   5.479   6.665   6.587
10346SOL    HW131937   5.539   6.744   6.593
10346SOL    HW231938   5.467   6.639   6.491
10347SOL     OW31939   5.394   1.653   1.171
10347SOL    HW131940   5.452   1.720   1.124
10347SOL    HW231941   5.452   1.595   1.230
10348SOL     OW31942   6.136   1.609   6.117
10348SOL    HW131943   6.224   1.607   6.164
10348SOL    HW231944   6.111   1.517   6.088
10349SOL     OW31945   6.135   0.824   0.965
10349SOL    HW131946   6.174   0.739   0.929
10349SOL    HW231947   6.076   0.803   1.043
10350SOL     OW31948   3.752   5.862   4.341
10350SOL    HW131949   3.786   5.907   4.258
10350SOL    HW231950   3.665   5.817   4.322
10351SOL     OW31951   6.086   5.464   5.176
10351SOL    HW131952   6.062   5.388   5.238
10351SOL    HW231953   6.177   5.497   5.198
10352SOL     OW31954   5.662   1.773   6.612
10352SOL    HW131955   5.584   1.711   6.607
10352SOL    HW231956   5.641   1.858   6.564
10353SOL     OW31957   0.327   3.180   3.456
10353SOL    HW131958   0.409   3.148   3.504
10353SOL    HW231959   0.251   3.186   3.520
10354SOL     OW31960   0.467   3.882   0.559
10354SOL    HW131961   0.440   3.788   0.577
10354SOL    HW231962   0.565   3.893   0.574
10355SOL     OW31963   0.993   1.487   0.948
10355SOL    HW131964   0.963   1.392   0.942
10355SOL    HW231965   1.076   1.492   1.004
10356SOL     OW31966   0.227   3.147   6.615
10356SOL    HW131967   0.320   3.123   6.588
10356SOL    HW231968   0.170   3.159   6.534
10357SOL     OW31969   1.472   2.078   6.744
10357SOL    HW131970   1.443   2.026   6.664
10357SOL    HW231971   1.566   2.051   6.768
10358SOL     OW31972   1.513   2.813   2.477
10358SOL    HW131973   1.440   2.797   2.411
10358SOL    HW231974   1.474   2.826   2.568
10359SOL     OW31975   5.289   2.364   2.846
10359SOL    HW131976   5.302   2.460   2.871
10359SOL    HW231977   5.199   2.334   2.876
10360SOL     OW31978   5.253   5.096   3.268
10360SOL    HW131979   5.327   5.041   3.307
10360SOL    HW231980   5.167   5.045   3.276
10361SOL     OW31981   2.132   1.367   1.458
10361SOL    HW131982   2.070   1.349   1.535
10361SOL    HW231983   2.126   1.463   1.433
10362SOL     OW31984   0.336   5.437   1.740
10362SOL    HW131985   0.261   5.395   1.791
10362SOL    HW231986   0.302   5.518   1.692
10363SOL     OW31987   4.416   3.476   0.904
10363SOL    HW131988   4.333   3.426   0.930
10363SOL    HW231989   4.438   3.542   0.976
10364SOL     OW31990   5.214   5.158   0.982
10364SOL    HW131991   5.280   5.102   1.032
10364SOL    HW231992   5.123   5.117   0.990
10365SOL     OW31993   5.970   5.012   0.184
10365SOL    HW131994   5.959   5.000   0.282
10365SOL    HW231995   6.038   4.948   0.149
10366SOL     OW31996   4.493   6.553   3.010
10366SOL    HW131997   4.467   6.457   3.014
10366SOL    HW231998   4.415   6.609   3.038
10367SOL     OW31999   6.670   1.925   1.612
10367SOL    HW132000   6.714   1.867   1.543
10367SOL    HW232001   6.736   1.991   1.647
10368SOL     OW32002   2.966   0.636   2.683
10368SOL    HW132003   2.963   0.652   2.584
10368SOL    HW232004   3.053   0.591   2.706
10369SOL     OW32005   2.876   6.216   5.646
10369SOL    HW132006   2.894   6.117   5.646
10369SOL    HW232007   2.898   6.254   5.556
10370SOL     OW32008   6.457   1.301   4.452
10370SOL    HW132009   6.528   1.369   4.434
10370SOL    HW232010   6.376   1.321   4.396
10371SOL     OW32011   3.840   6.602   3.159
10371SOL    HW132012   3.869   6.689   3.119
10371SOL    HW232013   3.839   6.609   3.258
10372SOL     OW32014   3.168   0.462   1.399
10372SOL    HW132015   3.229   0.473   1.477
10372SOL    HW232016   3.080   0.425   1.430
10373SOL     OW32017   0.472   0.357   5.143
10373SOL    HW132018   0.383   0.322   5.114
10373SOL    HW232019   0.527   0.281   5.178
10374SOL     OW32020   2.967   6.656   4.325
10374SOL    HW132021   2.932   6.577   4.375
10374SOL    HW232022   2.916   6.738   4.353
10375SOL     OW32023   2.998   2.737   6.381
10375SOL    HW132024   3.076   2.771   6.434
10375SOL    HW232025   2.942   2.677   6.437
10376SOL     OW32026   1.004   6.293   3.523
10376SOL    HW132027   1.014   6.392   3.515
10376SOL    HW232028   1.043   6.249   3.441
10377SOL     OW32029   0.099   1.775   1.679
10377SOL    HW132030   0.027   1.764   1.748
10377SOL    HW232031   0.184   1.802   1.725
10378SOL     OW32032   0.373   5.574   5.028
10378SOL    HW132033   0.323   5.638   5.085
10378SOL    HW232034   0.359   5.597   4.931
10379SOL     OW32035   2.684   6.619   4.199
10379SOL    HW132036   2.653   6.714   4.202
10379SOL    HW232037   2.784   6.616   4.191
10380SOL     OW32038   1.334   2.404   4.496
10380SOL    HW132039   1.261   2.398   4.564
10380SOL    HW232040   1.419   2.371   4.536
10381SOL     OW32041   3.981   4.131   1.617
10381SOL    HW132042   3.964   4.132   1.518
10381SOL    HW232043   4.062   4.187   1.637
10382SOL     OW32044   2.483   5.709   2.380
10382SOL    HW132045   2.527   5.792   2.347
10382SOL    HW232046   2.390   5.704   2.342
10383SOL     OW32047   1.933   4.611   0.065
10383SOL    HW132048   2.008   4.633   0.128
10383SOL    HW232049   1.917   4.688   0.004
10384SOL     OW32050   6.403   6.235   1.516
10384SOL    HW132051   6.475   6.166   1.519
10384SOL    HW232052   6.417   6.295   1.438
10385SOL     OW32053   3.501   5.088   5.962
10385SOL    HW132054   3.520   5.161   6.028
10385SOL    HW232055   3.586   5.045   5.933
10386SOL     OW32056   6.915   1.443   6.179
10386SOL    HW132057   6.869   1.416   6.095
10386SOL    HW232058   6.867   1.521   6.220
10387SOL     OW32059   5.624   2.766   3.500
10387SOL    HW132060   5.592   2.805   3.413
10387SOL    HW232061   5.582   2.676   3.513
10388SOL     OW32062   2.710   0.138   6.386
10388SOL    HW132063   2.735   0.226   6.425
10388SOL    HW232064   2.654   0.152   6.304
10389SOL     OW32065   6.669   3.938   0.462
10389SOL    HW132066   6.657   3.909   0.367
10389SOL    HW232067   6.762   3.974   0.474
10390SOL     OW32068   1.829   2.488   0.791
10390SOL    HW132069   1.924   2.510   0.768
10390SOL    HW232070   1.814   2.504   0.889
10391SOL     OW32071   1.191   6.303   3.296
10391SOL    HW132072   1.230   6.249   3.222
10391SOL    HW232073   1.259   6.315   3.368
10392SOL     OW32074   5.887   5.307   5.391
10392SOL    HW132075   5.859   5.229   5.335
10392SOL    HW232076   5.824   5.383   5.376
10393SOL     OW32077   1.876   3.647   3.724
10393SOL    HW132078   1.865   3.547   3.727
10393SOL    HW232079   1.967   3.669   3.691
10394SOL     OW32080   2.663   5.636   3.951
10394SOL    HW132081   2.742   5.653   3.893
10394SOL    HW232082   2.603   5.569   3.906
10395SOL     OW32083   0.470   6.276   1.439
10395SOL    HW132084   0.495   6.257   1.344
10395SOL    HW232085   0.530   6.346   1.476
10396SOL     OW32086   4.270   1.731   4.271
10396SOL    HW132087   4.334   1.729   4.194
10396SOL    HW232088   4.303   1.794   4.341
10397SOL     OW32089   3.388   1.954   2.752
10397SOL    HW132090   3.391   1.889   2.829
10397SOL    HW232091   3.476   1.999   2.743
10398SOL     OW32092   6.373   2.630   0.943
10398SOL    HW132093   6.306   2.696   0.910
10398SOL    HW232094   6.397   2.567   0.869
10399SOL     OW32095   5.298   2.174   3.644
10399SOL    HW132096   5.336   2.085   3.620
10399SOL    HW232097   5.369   2.230   3.687
10400SOL     OW32098   4.288   6.805   0.419
10400SOL    HW132099   4.192   6.779   0.432
10400SOL    HW232100   4.316   6.865   0.494
10401SOL     OW32101   6.590   0.372   3.653
10401SOL    HW132102   6.589   0.472   3.651
10401SOL    HW232103   6.553   0.340   3.740
10402SOL     OW32104   6.413   3.890   5.487
10402SOL    HW132105   6.455   3.981   5.489
10402SOL    HW232106   6.353   3.884   5.407
10403SOL     OW32107   4.778   1.262   3.859
10403SOL    HW132108   4.771   1.176   3.910
10403SOL    HW232109   4.785   1.242   3.761
10404SOL     OW32110   6.340   6.733   5.190
10404SOL    HW132111   6.311   6.673   5.264
10404SOL    HW232112   6.429   6.704   5.155
10405SOL     OW32113   0.332   1.545   5.257
10405SOL    HW132114   0.297   1.591   5.175
10405SOL    HW232115   0.328   1.608   5.335
10406SOL     OW32116   2.877   5.202   3.140
10406SOL    HW132117   2.879   5.301   3.128
10406SOL    HW232118   2.810   5.162   3.076
10407SOL     OW32119   3.017   6.805   5.984
10407SOL    HW132120   2.957   6.804   6.064
10407SOL    HW232121   2.991   6.881   5.925
10408SOL     OW32122   4.344   0.103   1.219
10408SOL    HW132123   4.418   0.054   1.173
10408SOL    HW232124   4.365   0.200   1.222
10409SOL     OW32125   0.267   4.382   1.196
10409SOL    HW132126   0.257   4.289   1.162
10409SOL    HW232127   0.234   4.387   1.290
10410SOL     OW32128   5.669   1.735   0.747
10410SOL    HW132129   5.617   1.753   0.664
10410SOL    HW232130   5.694   1.821   0.790
10411SOL     OW32131   3.662   6.704   3.463
10411SOL    HW132132   3.625   6.787   3.422
10411SOL    HW232133   3.685   6.721   3.558
10412SOL     OW32134   0.264   0.822   0.178
10412SOL    HW132135   0.187   0.759   0.181
10412SOL    HW232136   0.342   0.778   0.133
10413SOL     OW32137   6.574   2.967   0.965
10413SOL    HW132138   6.483   3.006   0.973
10413SOL    HW232139   6.578   2.879   1.012
10414SOL     OW32140   4.251   4.408   5.841
10414SOL    HW132141   4.224   4.453   5.756
10414SOL    HW232142   4.241   4.309   5.832
10415SOL     OW32143   1.128   3.687   4.720
10415SOL    HW132144   1.208   3.692   4.660
10415SOL    HW232145   1.143   3.617   4.789
10416SOL     OW32146   6.036   0.251   4.959
10416SOL    HW132147   5.960   0.200   4.919
10416SOL    HW232148   6.064   0.209   5.045
10417SOL     OW32149   3.096   5.404   4.446
10417SOL    HW132150   3.041   5.485   4.468
10417SOL    HW232151   3.054   5.323   4.489
10418SOL     OW32152   0.093   4.479   6.336
10418SOL    HW132153   0.083   4.525   6.248
10418SOL    HW232154   0.101   4.547   6.409
10419SOL     OW32155   1.574   6.789   6.288
10419SOL    HW132156   1.494   6.827   6.333
10419SOL    HW232157   1.657   6.824   6.331
10420SOL     OW32158   6.723   4.092   2.934
10420SOL    HW132159   6.740   4.028   2.860
10420SOL    HW232160   6.698   4.181   2.896
10421SOL     OW32161   0.248   1.699   3.353
10421SOL    HW132162   0.330   1.648   3.380
10421SOL    HW232163   0.187   1.639   3.300
10422SOL     OW32164   6.382   3.389   5.229
10422SOL    HW132165   6.453   3.320   5.219
10422SOL    HW232166   6.297   3.357   5.187
10423SOL     OW32167   5.985   5.456   4.669
10423SOL    HW132168   5.916   5.393   4.632
10423SOL    HW232169   5.998   5.437   4.766
10424SOL     OW32170   5.407   2.384   0.625
10424SOL    HW132171   5.496   2.340   0.632
10424SOL    HW232172   5.411   2.460   0.560
10425SOL     OW32173   0.859   0.148   1.534
10425SOL    HW132174   0.847   0.093   1.452
10425SOL    HW232175   0.836   0.094   1.615
10426SOL     OW32176   6.776   4.977   0.467
10426SOL    HW132177   6.791   4.958   0.564
10426SOL    HW232178   6.696   5.036   0.457
10427SOL     OW32179   3.442   0.760   6.793
10427SOL    HW132180   3.480   0.678   6.751
10427SOL    HW232181   3.495   0.783   6.875
10428SOL     OW32182   2.919   1.146   4.385
10428SOL    HW132183   2.915   1.101   4.296
10428SOL    HW232184   3.006   1.195   4.394
10429SOL     OW32185   0.011   4.971   0.776
10429SOL    HW132186   6.997   4.879   0.785
10429SOL    HW232187   7.020   5.022   0.860
10430SOL     OW32188   4.785   6.228   3.924
10430SOL    HW132189   4.805   6.130   3.932
10430SOL    HW232190   4.869   6.278   3.904
10431SOL     OW32191   3.358   5.938   3.835
10431SOL    HW132192   3.426   6.007   3.812
10431SOL    HW232193   3.387   5.890   3.918
10432SOL     OW32194   6.058   6.973   4.679
10432SOL    HW132195   6.118   0.018   4.641
10432SOL    HW232196   5.968   7.011   4.698
10433SOL     OW32197   2.067   6.401   1.406
10433SOL    HW132198   1.979   6.355   1.415
10433SOL    HW232199   2.098   6.397   1.311
10434SOL     OW32200   4.204   0.023   3.477
10434SOL    HW132201   4.292   7.003   3.476
10434SOL    HW232202   4.205   0.095   3.547
10435SOL     OW32203   0.277   0.203   4.730
10435SOL    HW132204   0.190   0.160   4.756
10435SOL    HW232205   0.295   0.280   4.791
10436SOL     OW32206   0.785   5.469   6.104
10436SOL    HW132207   0.794   5.376   6.069
10436SOL    HW232208   0.689   5.495   6.107
10437SOL     OW32209   6.412   5.279   6.113
10437SOL    HW132210   6.481   5.314   6.176
10437SOL    HW232211   6.349   5.219   6.163
10438SOL     OW32212   5.811   6.419   0.529
10438SOL    HW132213   5.773   6.329   0.508
10438SOL    HW232214   5.863   6.414   0.614
10439SOL     OW32215   3.765   1.142   6.389
10439SOL    HW132216   3.714   1.066   6.347
10439SOL    HW232217   3.792   1.116   6.481
10440SOL     OW32218   1.272   6.346   0.364
10440SOL    HW132219   1.346   6.302   0.312
10440SOL    HW232220   1.304   6.434   0.399
10441SOL     OW32221   3.987   0.741   0.131
10441SOL    HW132222   4.065   0.741   0.069
10441SOL    HW232223   3.904   0.719   0.079
10442SOL     OW32224   3.740   6.370   6.030
10442SOL    HW132225   3.743   6.444   5.962
10442SOL    HW232226   3.777   6.286   5.989
10443SOL     OW32227   5.004   3.827   5.002
10443SOL    HW132228   4.942   3.753   5.027
10443SOL    HW232229   4.969   3.914   5.038
10444SOL     OW32230   3.694   6.815   4.473
10444SOL    HW132231   3.663   6.719   4.477
10444SOL    HW232232   3.769   6.823   4.408
10445SOL     OW32233   1.117   5.593   4.284
10445SOL    HW132234   1.078   5.582   4.376
10445SOL    HW232235   1.043   5.592   4.216
10446SOL     OW32236   0.766   2.841   5.736
10446SOL    HW132237   0.724   2.750   5.735
10446SOL    HW232238   0.837   2.846   5.666
10447SOL     OW32239   0.551   1.085   2.093
10447SOL    HW132240   0.465   1.135   2.093
10447SOL    HW232241   0.540   1.000   2.146
10448SOL     OW32242   3.794   1.996   1.470
10448SOL    HW132243   3.749   1.987   1.558
10448SOL    HW232244   3.847   2.081   1.468
10449SOL     OW32245   2.457   5.081   4.595
10449SOL    HW132246   2.464   5.122   4.686
10449SOL    HW232247   2.459   4.981   4.603
10450SOL     OW32248   0.906   2.533   0.279
10450SOL    HW132249   0.875   2.627   0.289
10450SOL    HW232250   0.980   2.515   0.345
10451SOL     OW32251   2.021   5.018   3.009
10451SOL    HW132252   2.036   5.018   2.910
10451SOL    HW232253   1.922   5.021   3.028
10452SOL     OW32254   5.877   3.770   3.261
10452SOL    HW132255   5.950   3.757   3.194
10452SOL    HW232256   5.904   3.837   3.329
10453SOL     OW32257   4.936   5.706   1.608
10453SOL    HW132258   4.966   5.779   1.668
10453SOL    HW232259   4.844   5.727   1.574
10454SOL     OW32260   4.308   2.951   1.089
10454SOL    HW132261   4.297   3.050   1.096
10454SOL    HW232262   4.389   2.923   1.141
10455SOL     OW32263   6.607   5.673   2.487
10455SOL    HW132264   6.618   5.723   2.400
10455SOL    HW232265   6.652   5.724   2.560
10456SOL     OW32266   3.224   6.242   1.208
10456SOL    HW132267   3.238   6.303   1.129
10456SOL    HW232268   3.134   6.199   1.201
10457SOL     OW32269   3.428   2.942   3.215
10457SOL    HW132270   3.383   2.856   3.190
10457SOL    HW232271   3.433   3.002   3.136
10458SOL     OW32272   0.138   0.840   6.475
10458SOL    HW132273   0.095   0.803   6.393
10458SOL    HW232274   0.161   0.766   6.538
10459SOL     OW32275   5.448   4.883   2.645
10459SOL    HW132276   5.349   4.892   2.643
10459SOL    HW232277   5.481   4.851   2.556
10460SOL     OW32278   1.714   5.482   1.317
10460SOL    HW132279   1.690   5.549   1.246
10460SOL    HW232280   1.812   5.484   1.333
10461SOL     OW32281   1.549   6.232   4.838
10461SOL    HW132282   1.498   6.293   4.777
10461SOL    HW232283   1.646   6.234   4.814
10462SOL     OW32284   5.289   2.000   2.792
10462SOL    HW132285   5.326   2.067   2.857
10462SOL    HW232286   5.360   1.933   2.769
10463SOL     OW32287   3.823   2.643   5.639
10463SOL    HW132288   3.741   2.701   5.634
10463SOL    HW232289   3.848   2.613   5.547
10464SOL     OW32290   5.498   6.798   0.708
10464SOL    HW132291   5.576   6.745   0.742
10464SOL    HW232292   5.425   6.796   0.776
10465SOL     OW32293   6.016   6.905   0.916
10465SOL    HW132294   5.917   6.911   0.934
10465SOL    HW232295   6.056   6.832   0.972
10466SOL     OW32296   4.321   4.949   5.214
10466SOL    HW132297   4.310   4.914   5.120
10466SOL    HW232298   4.234   4.989   5.244
10467SOL     OW32299   0.734   1.994   5.000
10467SOL    HW132300   0.701   2.044   5.081
10467SOL    HW232301   0.773   1.907   5.028
10468SOL     OW32302   3.677   4.958   3.142
10468SOL    HW132303   3.587   4.917   3.127
10468SOL    HW232304   3.707   4.940   3.235
10469SOL     OW32305   3.435   2.561   6.780
10469SOL    HW132306   3.524   2.567   6.736
10469SOL    HW232307   3.365   2.599   6.719
10470SOL     OW32308   2.629   1.600   3.129
10470SOL    HW132309   2.546   1.554   3.160
10470SOL    HW232310   2.644   1.682   3.185
10471SOL     OW32311   2.276   3.276   0.895
10471SOL    HW132312   2.307   3.311   0.984
10471SOL    HW232313   2.181   3.303   0.880
10472SOL     OW32314   3.451   6.049   0.834
10472SOL    HW132315   3.420   5.970   0.888
10472SOL    HW232316   3.542   6.076   0.866
10473SOL     OW32317   5.723   6.920   0.567
10473SOL    HW132318   5.650   6.854   0.584
10473SOL    HW232319   5.685   7.001   0.521
10474SOL     OW32320   4.842   0.789   4.710
10474SOL    HW132321   4.800   0.818   4.796
10474SOL    HW232322   4.927   0.840   4.695
10475SOL     OW32323   4.621   6.095   1.982
10475SOL    HW132324   4.625   6.009   1.930
10475SOL    HW232325   4.660   6.169   1.928
10476SOL     OW32326   0.022   5.242   6.393
10476SOL    HW132327   7.025   5.323   6.339
10476SOL    HW232328   0.094   5.190   6.346
10477SOL     OW32329   5.885   2.286   4.844
10477SOL    HW132330   5.972   2.242   4.866
10477SOL    HW232331   5.819   2.270   4.918
10478SOL     OW32332   0.345   0.155   0.653
10478SOL    HW132333   0.418   0.099   0.614
10478SOL    HW232334   0.282   0.183   0.581
10479SOL     OW32335   0.378   2.744   1.985
10479SOL    HW132336   0.477   2.757   1.980
10479SOL    HW232337   0.353   2.653   1.953
10480SOL     OW32338   6.073   0.502   1.055
10480SOL    HW132339   6.058   0.468   0.962
10480SOL    HW232340   6.031   0.439   1.120
10481SOL     OW32341   2.322   1.075   5.669
10481SOL    HW132342   2.239   1.131   5.670
10481SOL    HW232343   2.298   0.981   5.645
10482SOL     OW32344   0.400   5.921   4.565
10482SOL    HW132345   0.439   5.993   4.622
10482SOL    HW232346   0.301   5.932   4.561
10483SOL     OW32347   6.833   5.320   0.245
10483SOL    HW132348   6.840   5.357   0.153
10483SOL    HW232349   6.902   5.249   0.259
10484SOL     OW32350   6.934   0.640   0.718
10484SOL    HW132351   6.838   0.668   0.710
10484SOL    HW232352   6.971   0.673   0.804
10485SOL     OW32353   3.692   3.174   2.839
10485SOL    HW132354   3.627   3.182   2.763
10485SOL    HW232355   3.738   3.261   2.853
10486SOL     OW32356   6.174   1.041   6.066
10486SOL    HW132357   6.203   1.047   5.971
10486SOL    HW232358   6.249   1.003   6.121
10487SOL     OW32359   4.514   2.283   1.361
10487SOL    HW132360   4.450   2.251   1.292
10487SOL    HW232361   4.603   2.300   1.319
10488SOL     OW32362   1.862   2.391   5.938
10488SOL    HW132363   1.785   2.336   5.906
10488SOL    HW232364   1.840   2.488   5.928
10489SOL     OW32365   5.404   6.126   4.056
10489SOL    HW132366   5.451   6.108   3.969
10489SOL    HW232367   5.461   6.186   4.112
10490SOL     OW32368   5.922   0.848   0.679
10490SOL    HW132369   5.868   0.932   0.686
10490SOL    HW232370   6.014   0.866   0.716
10491SOL     OW32371   2.151   2.871   6.204
10491SOL    HW132372   2.124   2.781   6.169
10491SOL    HW232373   2.187   2.861   6.296
10492SOL     OW32374   3.840   5.869   0.564
10492SOL    HW132375   3.919   5.897   0.509
10492SOL    HW232376   3.855   5.776   0.599
10493SOL     OW32377   3.115   5.456   1.462
10493SOL    HW132378   3.084   5.481   1.553
10493SOL    HW232379   3.059   5.382   1.426
10494SOL     OW32380   6.892   4.150   5.485
10494SOL    HW132381   6.799   4.114   5.479
10494SOL    HW232382   6.920   4.185   5.395
10495SOL     OW32383   6.507   6.260   0.310
10495SOL    HW132384   6.459   6.287   0.226
10495SOL    HW232385   6.560   6.177   0.293
10496SOL     OW32386   6.231   4.439   4.938
10496SOL    HW132387   6.231   4.498   5.019
10496SOL    HW232388   6.136   4.424   4.908
10497SOL     OW32389   1.117   0.234   1.594
10497SOL    HW132390   1.161   0.153   1.556
10497SOL    HW232391   1.018   0.229   1.580
10498SOL     OW32392   5.226   5.964   1.209
10498SOL    HW132393   5.183   6.054   1.198
10498SOL    HW232394   5.263   5.956   1.302
10499SOL     OW32395   4.895   6.458   1.059
10499SOL    HW132396   4.949   6.415   1.132
10499SOL    HW232397   4.906   6.557   1.063
10500SOL     OW32398   5.400   2.903   5.452
10500SOL    HW132399   5.335   2.899   5.376
10500SOL    HW232400   5.491   2.879   5.419
10501SOL     OW32401   2.471   6.188   2.672
10501SOL    HW132402   2.570   6.192   2.664
10501SOL    HW232403   2.436   6.110   2.620
10502SOL     OW32404   2.433   3.378   1.120
10502SOL    HW132405   2.499   3.447   1.091
10502SOL    HW232406   2.425   3.380   1.220
10503SOL     OW32407   6.444   3.964   6.988
10503SOL    HW132408   6.428   4.039   0.026
10503SOL    HW232409   6.391   3.979   6.905
10504SOL     OW32410   0.694   2.602   5.815
10504SOL    HW132411   0.659   2.545   5.740
10504SOL    HW232412   0.634   2.595   5.894
10505SOL     OW32413   5.534   6.265   1.959
10505SOL    HW132414   5.627   6.270   1.997
10505SOL    HW232415   5.505   6.169   1.956
10506SOL     OW32416   0.575   3.516   0.127
10506SOL    HW132417   0.645   3.444   0.119
10506SOL    HW232418   0.595   3.572   0.207
10507SOL     OW32419   1.867   5.486   6.839
10507SOL    HW132420   1.876   5.585   6.836
10507SOL    HW232421   1.930   5.449   6.907
10508SOL     OW32422   1.315   5.962   3.522
10508SOL    HW132423   1.382   6.032   3.547
10508SOL    HW232424   1.363   5.881   3.487
10509SOL     OW32425   5.718   4.082   4.638
10509SOL    HW132426   5.716   4.067   4.539
10509SOL    HW232427   5.809   4.059   4.673
10510SOL     OW32428   4.700   6.736   6.604
10510SOL    HW132429   4.615   6.786   6.624
10510SOL    HW232430   4.770   6.801   6.574
10511SOL     OW32431   2.786   1.522   2.261
10511SOL    HW132432   2.784   1.602   2.201
10511SOL    HW232433   2.776   1.439   2.205
10512SOL     OW32434   3.997   6.920   5.708
10512SOL    HW132435   3.995   6.941   5.806
10512SOL    HW232436   4.091   6.928   5.674
10513SOL     OW32437   6.642   2.710   2.968
10513SOL    HW132438   6.676   2.766   2.892
10513SOL    HW232439   6.720   2.674   3.019
10514SOL     OW32440   1.813   1.660   1.530
10514SOL    HW132441   1.738   1.673   1.464
10514SOL    HW232442   1.899   1.650   1.481
10515SOL     OW32443   2.712   2.188   3.601
10515SOL    HW132444   2.737   2.113   3.662
10515SOL    HW232445   2.630   2.162   3.549
10516SOL     OW32446   2.741   1.886   0.085
10516SOL    HW132447   2.744   1.956   0.013
10516SOL    HW232448   2.833   1.869   0.119
10517SOL     OW32449   1.612   4.523   1.468
10517SOL    HW132450   1.644   4.612   1.437
10517SOL    HW232451   1.532   4.495   1.415
10518SOL     OW32452   0.119   5.530   1.945
10518SOL    HW132453   0.192   5.482   1.993
10518SOL    HW232454   0.050   5.464   1.915
10519SOL     OW32455   2.963   4.596   1.206
10519SOL    HW132456   2.914   4.526   1.258
10519SOL    HW232457   2.897   4.652   1.156
10520SOL     OW32458   0.054   1.976   6.108
10520SOL    HW132459   0.002   1.969   6.194
10520SOL    HW232460   0.043   2.068   6.071
10521SOL     OW32461   6.347   4.643   1.581
10521SOL    HW132462   6.279   4.655   1.508
10521SOL    HW232463   6.389   4.732   1.602
10522SOL     OW32464   0.304   2.169   3.083
10522SOL    HW132465   0.393   2.147   3.123
10522SOL    HW232466   0.316   2.229   3.005
10523SOL     OW32467   6.977   4.427   3.400
10523SOL    HW132468   6.937   4.364   3.466
10523SOL    HW232469   0.032   4.470   3.439
10524SOL     OW32470   0.227   5.918   4.179
10524SOL    HW132471   0.197   5.844   4.118
10524SOL    HW232472   0.147   5.966   4.214
10525SOL     OW32473   4.049   0.165   5.029
10525SOL    HW132474   3.997   0.155   4.944
10525SOL    HW232475   4.000   0.225   5.092
10526SOL     OW32476   0.653   6.373   1.215
10526SOL    HW132477   0.617   6.289   1.175
10526SOL    HW232478   0.751   6.378   1.199
10527SOL     OW32479   0.527   0.383   5.963
10527SOL    HW132480   0.561   0.428   5.880
10527SOL    HW232481   0.583   0.411   6.041
10528SOL     OW32482   0.660   4.060   6.808
10528SOL    HW132483   0.633   4.123   6.736
10528SOL    HW232484   0.707   4.110   6.881
10529SOL     OW32485   1.521   6.011   4.653
10529SOL    HW132486   1.433   5.971   4.628
10529SOL    HW232487   1.509   6.075   4.728
10530SOL     OW32488   0.806   6.419   5.952
10530SOL    HW132489   0.830   6.383   5.863
10530SOL    HW232490   0.854   6.506   5.967
10531SOL     OW32491   2.647   2.348   4.260
10531SOL    HW132492   2.608   2.328   4.170
10531SOL    HW232493   2.604   2.431   4.297
10532SOL     OW32494   5.739   6.753   6.845
10532SOL    HW132495   5.706   6.815   6.774
10532SOL    HW232496   5.809   6.692   6.806
10533SOL     OW32497   3.300   5.897   4.283
10533SOL    HW132498   3.354   5.858   4.357
10533SOL    HW232499   3.308   5.840   4.201
10534SOL     OW32500   6.992   5.892   2.243
10534SOL    HW132501   6.966   5.850   2.156
10534SOL    HW232502   6.942   5.848   2.317
10535SOL     OW32503   2.362   1.374   1.592
10535SOL    HW132504   2.368   1.459   1.644
10535SOL    HW232505   2.285   1.379   1.529
10536SOL     OW32506   4.209   6.872   3.954
10536SOL    HW132507   4.193   6.845   3.859
10536SOL    HW232508   4.306   6.864   3.976
10537SOL     OW32509   4.991   6.627   3.612
10537SOL    HW132510   4.974   6.719   3.577
10537SOL    HW232511   4.943   6.615   3.699
10538SOL     OW32512   5.552   4.127   2.319
10538SOL    HW132513   5.582   4.180   2.398
10538SOL    HW232514   5.593   4.036   2.323
10539SOL     OW32515   6.012   5.297   1.539
10539SOL    HW132516   5.928   5.346   1.516
10539SOL    HW232517   6.091   5.346   1.504
10540SOL     OW32518   2.487   4.268   6.269
10540SOL    HW132519   2.545   4.220   6.204
10540SOL    HW232520   2.477   4.213   6.353
10541SOL     OW32521   3.170   2.989   4.146
10541SOL    HW132522   3.243   2.921   4.158
10541SOL    HW232523   3.138   3.020   4.235
10542SOL     OW32524   6.958   0.233   4.601
10542SOL    HW132525   7.021   0.310   4.611
10542SOL    HW232526   6.984   0.180   4.520
10543SOL     OW32527   0.489   2.479   5.319
10543SOL    HW132528   0.447   2.390   5.338
10543SOL    HW232529   0.417   2.547   5.304
10544SOL     OW32530   1.980   6.745   3.565
10544SOL    HW132531   1.977   6.697   3.653
10544SOL    HW232532   1.895   6.797   3.552
10545SOL     OW32533   1.017   2.932   2.020
10545SOL    HW132534   1.004   2.967   1.927
10545SOL    HW232535   0.963   2.987   2.084
10546SOL     OW32536   3.434   6.078   1.279
10546SOL    HW132537   3.398   5.985   1.269
10546SOL    HW232538   3.366   6.144   1.245
10547SOL     OW32539   5.016   0.818   4.287
10547SOL    HW132540   5.094   0.825   4.349
10547SOL    HW232541   5.027   0.882   4.211
10548SOL     OW32542   0.733   4.362   4.664
10548SOL    HW132543   0.808   4.344   4.601
10548SOL    HW232544   0.668   4.425   4.621
10549SOL     OW32545   0.586   1.540   0.618
10549SOL    HW132546   0.632   1.526   0.530
10549SOL    HW232547   0.647   1.512   0.692
10550SOL     OW32548   4.043   6.426   3.232
10550SOL    HW132549   3.970   6.456   3.293
10550SOL    HW232550   4.058   6.496   3.162
10551SOL     OW32551   2.437   1.788   6.084
10551SOL    HW132552   2.409   1.701   6.124
10551SOL    HW232553   2.536   1.790   6.074
10552SOL     OW32554   2.430   0.547   4.990
10552SOL    HW132555   2.454   0.474   4.925
10552SOL    HW232556   2.369   0.510   5.060
10553SOL     OW32557   6.982   4.368   0.892
10553SOL    HW132558   7.007   4.378   0.795
10553SOL    HW232559   0.002   4.439   0.945
10554SOL     OW32560   5.962   5.288   2.478
10554SOL    HW132561   5.886   5.317   2.421
10554SOL    HW232562   5.953   5.190   2.500
10555SOL     OW32563   3.218   2.271   0.915
10555SOL    HW132564   3.261   2.337   0.978
10555SOL    HW232565   3.143   2.224   0.962
10556SOL     OW32566   2.774   1.659   3.722
10556SOL    HW132567   2.704   1.719   3.682
10556SOL    HW232568   2.807   1.595   3.653
10557SOL     OW32569   1.861   3.335   4.465
10557SOL    HW132570   1.772   3.331   4.509
10557SOL    HW232571   1.927   3.378   4.527
10558SOL     OW32572   3.035   5.237   5.850
10558SOL    HW132573   2.979   5.155   5.865
10558SOL    HW232574   3.011   5.278   5.762
10559SOL     OW32575   3.426   1.135   0.759
10559SOL    HW132576   3.486   1.060   0.733
10559SOL    HW232577   3.479   1.219   0.767
10560SOL     OW32578   4.393   6.271   1.726
10560SOL    HW132579   4.407   6.198   1.794
10560SOL    HW232580   4.369   6.230   1.638
10561SOL     OW32581   3.826   4.838   1.585
10561SOL    HW132582   3.917   4.855   1.623
10561SOL    HW232583   3.834   4.819   1.487
10562SOL     OW32584   3.340   5.919   0.389
10562SOL    HW132585   3.288   5.853   0.335
10562SOL    HW232586   3.287   5.944   0.470
10563SOL     OW32587   1.120   0.614   1.134
10563SOL    HW132588   1.180   0.668   1.193
10563SOL    HW232589   1.133   0.641   1.039
10564SOL     OW32590   6.317   5.759   3.817
10564SOL    HW132591   6.390   5.748   3.885
10564SOL    HW232592   6.349   5.820   3.744
10565SOL     OW32593   6.496   6.754   5.578
10565SOL    HW132594   6.586   6.732   5.614
10565SOL    HW232595   6.489   6.853   5.562
10566SOL     OW32596   3.071   2.576   0.537
10566SOL    HW132597   3.020   2.661   0.523
10566SOL    HW232598   3.048   2.536   0.625
10567SOL     OW32599   2.026   2.334   5.637
10567SOL    HW132600   2.043   2.333   5.538
10567SOL    HW232601   1.941   2.284   5.656
10568SOL     OW32602   5.993   2.598   6.912
10568SOL    HW132603   5.960   2.535   6.982
10568SOL    HW232604   5.925   2.607   6.839
10569SOL     OW32605   5.401   1.012   1.640
10569SOL    HW132606   5.473   0.966   1.691
10569SOL    HW232607   5.438   1.094   1.595
10570SOL     OW32608   1.850   4.771   3.774
10570SOL    HW132609   1.842   4.802   3.679
10570SOL    HW232610   1.937   4.802   3.812
10571SOL     OW32611   0.472   3.988   5.927
10571SOL    HW132612   0.421   4.034   5.855
10571SOL    HW232613   0.528   4.055   5.977
10572SOL     OW32614   6.889   5.154   2.186
10572SOL    HW132615   6.921   5.248   2.196
10572SOL    HW232616   6.962   5.091   2.212
10573SOL     OW32617   4.836   0.706   5.060
10573SOL    HW132618   4.932   0.721   5.081
10573SOL    HW232619   4.825   0.615   5.018
10574SOL     OW32620   6.649   1.401   3.845
10574SOL    HW132621   6.632   1.310   3.883
10574SOL    HW232622   6.743   1.407   3.811
10575SOL     OW32623   6.145   0.351   3.809
10575SOL    HW132624   6.092   0.435   3.793
10575SOL    HW232625   6.239   0.364   3.777
10576SOL     OW32626   1.372   5.269   2.812
10576SOL    HW132627   1.349   5.292   2.718
10576SOL    HW232628   1.302   5.305   2.874
10577SOL     OW32629   2.338   5.353   0.529
10577SOL    HW132630   2.251   5.363   0.481
10577SOL    HW232631   2.354   5.432   0.588
10578SOL     OW32632   5.134   1.212   3.003
10578SOL    HW132633   5.078   1.290   2.975
10578SOL    HW232634   5.076   1.131   3.012
10579SOL     OW32635   3.034   3.656   1.557
10579SOL    HW132636   3.059   3.752   1.545
10579SOL    HW232637   3.063   3.625   1.648
10580SOL     OW32638   6.327   6.584   6.182
10580SOL    HW132639   6.297   6.651   6.250
10580SOL    HW232640   6.339   6.495   6.226
10581SOL     OW32641   4.922   6.974   2.678
10581SOL    HW132642   4.962   0.002   2.604
10581SOL    HW232643   4.979   6.894   2.695
10582SOL     OW32644   5.660   4.752   6.760
10582SOL    HW132645   5.665   4.852   6.767
10582SOL    HW232646   5.617   4.727   6.674
10583SOL     OW32647   3.776   0.214   4.024
10583SOL    HW132648   3.765   0.145   4.096
10583SOL    HW232649   3.773   0.306   4.065
10584SOL     OW32650   6.342   0.241   6.624
10584SOL    HW132651   6.355   0.143   6.607
10584SOL    HW232652   6.401   0.293   6.563
10585SOL     OW32653   1.742   1.937   5.839
10585SOL    HW132654   1.676   1.978   5.777
10585SOL    HW232655   1.787   1.860   5.794
10586SOL     OW32656   5.002   4.435   5.411
10586SOL    HW132657   5.021   4.524   5.369
10586SOL    HW232658   4.968   4.449   5.504
10587SOL     OW32659   0.180   5.629   6.357
10587SOL    HW132660   0.232   5.701   6.402
10587SOL    HW232661   0.243   5.565   6.312
10588SOL     OW32662   2.309   2.189   5.391
10588SOL    HW132663   2.408   2.201   5.400
10588SOL    HW232664   2.280   2.112   5.448
10589SOL     OW32665   5.053   6.307   4.273
10589SOL    HW132666   5.066   6.244   4.196
10589SOL    HW232667   5.053   6.401   4.239
10590SOL     OW32668   0.355   5.888   1.581
10590SOL    HW132669   0.299   5.877   1.499
10590SOL    HW232670   0.431   5.824   1.579
10591SOL     OW32671   2.391   1.946   1.473
10591SOL    HW132672   2.479   1.899   1.458
10591SOL    HW232673   2.322   1.907   1.413
10592SOL     OW32674   5.818   2.536   4.215
10592SOL    HW132675   5.733   2.588   4.226
10592SOL    HW232676   5.847   2.500   4.304
10593SOL     OW32677   1.404   6.482   0.717
10593SOL    HW132678   1.321   6.430   0.695
10593SOL    HW232679   1.432   6.536   0.638
10594SOL     OW32680   4.065   1.348   3.196
10594SOL    HW132681   3.999   1.339   3.270
10594SOL    HW232682   4.079   1.445   3.175
10595SOL     OW32683   6.067   0.393   0.281
10595SOL    HW132684   6.166   0.405   0.292
10595SOL    HW232685   6.029   0.470   0.230
10596SOL     OW32686   4.938   1.513   6.963
10596SOL    HW132687   4.873   1.541   0.008
10596SOL    HW232688   4.951   1.588   6.898
10597SOL     OW32689   2.266   0.725   5.854
10597SOL    HW132690   2.351   0.770   5.880
10597SOL    HW232691   2.282   0.628   5.842
10598SOL     OW32692   2.818   2.420   6.893
10598SOL    HW132693   2.745   2.363   6.930
10598SOL    HW232694   2.851   2.483   6.964
10599SOL     OW32695   6.458   4.389   6.349
10599SOL    HW132696   6.379   4.364   6.405
10599SOL    HW232697   6.523   4.313   6.347
10600SOL     OW32698   4.070   1.395   1.581
10600SOL    HW132699   3.996   1.432   1.637
10600SOL    HW232700   4.135   1.468   1.560
10601SOL     OW32701   0.836   5.737   5.270
10601SOL    HW132702   0.849   5.678   5.350
10601SOL    HW232703   0.823   5.679   5.189
10602SOL     OW32704   0.849   1.151   0.921
10602SOL    HW132705   0.755   1.174   0.946
10602SOL    HW232706   0.907   1.155   1.002
10603SOL     OW32707   4.876   6.747   3.044
10603SOL    HW132708   4.936   6.675   3.079
10603SOL    HW232709   4.931   6.824   3.013
10604SOL     OW32710   0.140   5.971   4.538
10604SOL    HW132711   0.087   6.001   4.617
10604SOL    HW232712   0.092   5.998   4.454
10605SOL     OW32713   1.806   6.911   6.408
10605SOL    HW132714   1.852   6.853   6.340
10605SOL    HW232715   1.826   6.876   6.500
10606SOL     OW32716   6.895   0.674   2.086
10606SOL    HW132717   6.812   0.730   2.088
10606SOL    HW232718   6.873   0.584   2.048
10607SOL     OW32719   4.290   4.436   0.461
10607SOL    HW132720   4.362   4.380   0.421
10607SOL    HW232721   4.331   4.507   0.518
10608SOL     OW32722   6.629   3.541   3.224
10608SOL    HW132723   6.659   3.530   3.129
10608SOL    HW232724   6.540   3.497   3.236
10609SOL     OW32725   2.842   6.390   0.366
10609SOL    HW132726   2.862   6.458   0.296
10609SOL    HW232727   2.778   6.429   0.432
10610SOL     OW32728   6.748   2.368   4.710
10610SOL    HW132729   6.672   2.428   4.737
10610SOL    HW232730   6.818   2.369   4.782
10611SOL     OW32731   2.590   5.374   5.878
10611SOL    HW132732   2.574   5.470   5.856
10611SOL    HW232733   2.623   5.326   5.797
10612SOL     OW32734   5.335   1.404   4.531
10612SOL    HW132735   5.271   1.372   4.461
10612SOL    HW232736   5.284   1.445   4.606
10613SOL     OW32737   5.592   5.884   4.560
10613SOL    HW132738   5.658   5.837   4.618
10613SOL    HW232739   5.499   5.857   4.586
10614SOL     OW32740   5.255   1.070   4.800
10614SOL    HW132741   5.326   1.041   4.864
10614SOL    HW232742   5.217   1.158   4.829
10615SOL     OW32743   3.883   1.125   5.542
10615SOL    HW132744   3.792   1.085   5.541
10615SOL    HW232745   3.938   1.085   5.468
10616SOL     OW32746   2.860   6.193   6.273
10616SOL    HW132747   2.860   6.290   6.299
10616SOL    HW232748   2.927   6.178   6.200
10617SOL     OW32749   2.256   4.586   1.597
10617SOL    HW132750   2.205   4.660   1.553
10617SOL    HW232751   2.293   4.617   1.684
10618SOL     OW32752   0.697   5.409   4.815
10618SOL    HW132753   0.782   5.377   4.856
10618SOL    HW232754   0.644   5.331   4.782
10619SOL     OW32755   0.428   2.476   3.143
10619SOL    HW132756   0.494   2.436   3.207
10619SOL    HW232757   0.346   2.502   3.193
10620SOL     OW32758   1.237   0.158   4.997
10620SOL    HW132759   1.147   0.115   4.989
10620SOL    HW232760   1.295   0.104   5.058
10621SOL     OW32761   0.671   4.534   1.961
10621SOL    HW132762   0.669   4.547   1.862
10621SOL    HW232763   0.759   4.566   1.997
10622SOL     OW32764   4.530   2.716   1.139
10622SOL    HW132765   4.565   2.678   1.224
10622SOL    HW232766   4.564   2.809   1.127
10623SOL     OW32767   5.944   6.278   4.950
10623SOL    HW132768   5.917   6.371   4.925
10623SOL    HW232769   6.008   6.243   4.881
10624SOL     OW32770   0.211   3.102   4.691
10624SOL    HW132771   0.270   3.098   4.610
10624SOL    HW232772   0.203   3.196   4.721
10625SOL     OW32773   0.666   3.949   1.581
10625SOL    HW132774   0.687   3.931   1.677
10625SOL    HW232775   0.740   3.915   1.523
10626SOL     OW32776   3.244   2.985   1.514
10626SOL    HW132777   3.181   3.059   1.538
10626SOL    HW232778   3.192   2.900   1.504
10627SOL     OW32779   6.005   1.168   6.630
10627SOL    HW132780   6.026   1.134   6.539
10627SOL    HW232781   5.906   1.174   6.642
10628SOL     OW32782   4.649   0.036   0.814
10628SOL    HW132783   4.733   0.084   0.841
10628SOL    HW232784   4.668   7.002   0.737
10629SOL     OW32785   3.405   5.008   4.967
10629SOL    HW132786   3.455   4.945   5.027
10629SOL    HW232787   3.417   5.102   5.000
10630SOL     OW32788   5.785   1.215   2.207
10630SOL    HW132789   5.755   1.125   2.174
10630SOL    HW232790   5.736   1.287   2.158
10631SOL     OW32791   4.158   4.505   5.595
10631SOL    HW132792   4.171   4.446   5.515
10631SOL    HW232793   4.060   4.516   5.612
10632SOL     OW32794   4.789   5.790   3.136
10632SOL    HW132795   4.760   5.884   3.154
10632SOL    HW232796   4.847   5.759   3.211
10633SOL     OW32797   2.636   2.457   1.891
10633SOL    HW132798   2.734   2.450   1.906
10633SOL    HW232799   2.614   2.548   1.854
10634SOL     OW32800   1.593   5.473   0.377
10634SOL    HW132801   1.533   5.401   0.414
10634SOL    HW232802   1.612   5.540   0.448
10635SOL     OW32803   2.219   2.988   0.217
10635SOL    HW132804   2.137   2.939   0.245
10635SOL    HW232805   2.208   3.086   0.237
10636SOL     OW32806   0.063   1.819   0.924
10636SOL    HW132807   7.002   1.795   0.968
10636SOL    HW232808   0.064   1.916   0.903
10637SOL     OW32809   1.510   5.877   6.024
10637SOL    HW132810   1.600   5.919   6.020
10637SOL    HW232811   1.489   5.851   6.119
10638SOL     OW32812   5.671   6.354   2.611
10638SOL    HW132813   5.673   6.264   2.655
10638SOL    HW232814   5.704   6.423   2.676
10639SOL     OW32815   1.859   3.579   2.251
10639SOL    HW132816   1.838   3.565   2.154
10639SOL    HW232817   1.954   3.553   2.269
10640SOL     OW32818   5.038   0.699   3.054
10640SOL    HW132819   4.941   0.687   3.033
10640SOL    HW232820   5.048   0.720   3.151
10641SOL     OW32821   2.273   1.565   3.886
10641SOL    HW132822   2.187   1.526   3.919
10641SOL    HW232823   2.328   1.493   3.844
10642SOL     OW32824   6.030   1.862   0.350
10642SOL    HW132825   5.944   1.812   0.335
10642SOL    HW232826   6.102   1.822   0.294
10643SOL     OW32827   2.215   6.257   4.770
10643SOL    HW132828   2.262   6.342   4.744
10643SOL    HW232829   2.228   6.241   4.868
10644SOL     OW32830   5.856   3.380   1.372
10644SOL    HW132831   5.875   3.472   1.338
10644SOL    HW232832   5.759   3.373   1.396
10645SOL     OW32833   2.086   2.531   3.469
10645SOL    HW132834   2.127   2.612   3.510
10645SOL    HW232835   1.992   2.520   3.503
10646SOL     OW32836   6.000   0.765   5.526
10646SOL    HW132837   5.909   0.725   5.510
10646SOL    HW232838   6.019   0.765   5.625
10647SOL     OW32839   3.245   5.266   4.972
10647SOL    HW132840   3.255   5.260   4.873
10647SOL    HW232841   3.165   5.213   5.000
10648SOL     OW32842   5.767   5.482   6.820
10648SOL    HW132843   5.698   5.425   6.864
10648SOL    HW232844   5.797   5.553   6.882
10649SOL     OW32845   0.849   3.926   3.313
10649SOL    HW132846   0.939   3.966   3.292
10649SOL    HW232847   0.791   3.996   3.355
10650SOL     OW32848   0.719   0.210   4.241
10650SOL    HW132849   0.814   0.189   4.265
10650SOL    HW232850   0.674   0.255   4.319
10651SOL     OW32851   6.141   5.797   6.278
10651SOL    HW132852   6.077   5.867   6.247
10651SOL    HW232853   6.091   5.712   6.296
10652SOL     OW32854   2.074   6.969   5.738
10652SOL    HW132855   2.015   6.897   5.776
10652SOL    HW232856   2.169   6.941   5.746
10653SOL     OW32857   3.723   6.068   5.267
10653SOL    HW132858   3.699   5.987   5.322
10653SOL    HW232859   3.743   6.144   5.328
10654SOL     OW32860   4.967   1.038   5.597
10654SOL    HW132861   4.950   0.954   5.546
10654SOL    HW232862   4.881   1.075   5.630
10655SOL     OW32863   1.846   4.413   0.203
10655SOL    HW132864   1.935   4.369   0.201
10655SOL    HW232865   1.850   4.500   0.153
10656SOL     OW32866   6.613   1.263   2.474
10656SOL    HW132867   6.530   1.219   2.509
10656SOL    HW232868   6.590   1.317   2.393
10657SOL     OW32869   6.049   0.509   4.777
10657SOL    HW132870   6.065   0.573   4.853
10657SOL    HW232871   6.128   0.450   4.765
10658SOL     OW32872   5.918   4.467   4.661
10658SOL    HW132873   5.947   4.430   4.749
10658SOL    HW232874   5.956   4.560   4.651
10659SOL     OW32875   1.057   4.619   0.717
10659SOL    HW132876   0.966   4.660   0.723
10659SOL    HW232877   1.109   4.665   0.644
10660SOL     OW32878   5.893   4.033   5.489
10660SOL    HW132879   5.865   3.988   5.574
10660SOL    HW232880   5.838   4.115   5.475
10661SOL     OW32881   1.903   6.025   0.799
10661SOL    HW132882   1.961   6.093   0.844
10661SOL    HW232883   1.922   6.026   0.700
10662SOL     OW32884   4.392   0.786   2.319
10662SOL    HW132885   4.480   0.834   2.315
10662SOL    HW232886   4.323   0.837   2.268
10663SOL     OW32887   0.757   1.029   2.769
10663SOL    HW132888   0.715   0.948   2.807
10663SOL    HW232889   0.718   1.048   2.679
10664SOL     OW32890   6.751   4.716   5.349
10664SOL    HW132891   6.682   4.654   5.311
10664SOL    HW232892   6.707   4.801   5.377
10665SOL     OW32893   1.952   2.586   6.884
10665SOL    HW132894   1.998   2.662   6.928
10665SOL    HW232895   1.896   2.619   6.808
10666SOL     OW32896   3.164   3.828   2.650
10666SOL    HW132897   3.164   3.914   2.599
10666SOL    HW232898   3.119   3.758   2.595
10667SOL     OW32899   4.920   1.939   3.891
10667SOL    HW132900   4.836   1.970   3.936
10667SOL    HW232901   4.904   1.930   3.793
10668SOL     OW32902   3.144   1.130   4.933
10668SOL    HW132903   3.141   1.104   4.837
10668SOL    HW232904   3.071   1.083   4.983
10669SOL     OW32905   6.610   0.426   0.900
10669SOL    HW132906   6.589   0.505   0.957
10669SOL    HW232907   6.688   0.447   0.841
10670SOL     OW32908   5.688   4.802   4.759
10670SOL    HW132909   5.684   4.742   4.679
10670SOL    HW232910   5.658   4.894   4.734
10671SOL     OW32911   1.682   1.887   4.262
10671SOL    HW132912   1.677   1.791   4.290
10671SOL    HW232913   1.620   1.942   4.319
10672SOL     OW32914   6.592   4.318   2.265
10672SOL    HW132915   6.542   4.336   2.181
10672SOL    HW232916   6.665   4.386   2.275
10673SOL     OW32917   0.734   0.376   0.558
10673SOL    HW132918   0.720   0.473   0.541
10673SOL    HW232919   0.816   0.345   0.509
10674SOL     OW32920   4.107   3.803   4.451
10674SOL    HW132921   4.194   3.838   4.415
10674SOL    HW232922   4.056   3.759   4.378
10675SOL     OW32923   2.372   0.465   6.777
10675SOL    HW132924   2.351   0.464   6.679
10675SOL    HW232925   2.366   0.559   6.811
10676SOL     OW32926   0.484   6.264   4.983
10676SOL    HW132927   0.425   6.338   5.014
10676SOL    HW232928   0.430   6.180   4.972
10677SOL     OW32929   1.670   0.892   1.452
10677SOL    HW132930   1.604   0.963   1.477
10677SOL    HW232931   1.640   0.844   1.369
10678SOL     OW32932   4.162   5.089   4.280
10678SOL    HW132933   4.259   5.069   4.268
10678SOL    HW232934   4.108   5.013   4.245
10679SOL     OW32935   3.781   5.718   6.118
10679SOL    HW132936   3.693   5.683   6.147
10679SOL    HW232937   3.853   5.682   6.178
10680SOL     OW32938   3.557   2.090   3.863
10680SOL    HW132939   3.497   2.039   3.924
10680SOL    HW232940   3.512   2.102   3.775
10681SOL     OW32941   6.926   3.731   0.365
10681SOL    HW132942   7.024   3.750   0.350
10681SOL    HW232943   6.872   3.796   0.312
10682SOL     OW32944   0.049   2.753   5.316
10682SOL    HW132945   0.089   2.817   5.250
10682SOL    HW232946   6.975   2.762   5.313
10683SOL     OW32947   4.728   0.770   3.776
10683SOL    HW132948   4.768   0.723   3.698
10683SOL    HW232949   4.628   0.770   3.768
10684SOL     OW32950   4.123   4.832   2.517
10684SOL    HW132951   4.222   4.819   2.516
10684SOL    HW232952   4.097   4.898   2.446
10685SOL     OW32953   0.276   5.859   1.147
10685SOL    HW132954   0.283   5.911   1.062
10685SOL    HW232955   0.367   5.833   1.178
10686SOL     OW32956   1.199   4.128   5.839
10686SOL    HW132957   1.189   4.188   5.760
10686SOL    HW232958   1.160   4.038   5.817
10687SOL     OW32959   6.337   5.361   4.116
10687SOL    HW132960   6.437   5.355   4.112
10687SOL    HW232961   6.310   5.445   4.161
10688SOL     OW32962   5.810   3.424   2.955
10688SOL    HW132963   5.852   3.356   2.895
10688SOL    HW232964   5.827   3.516   2.919
10689SOL     OW32965   6.357   0.377   2.613
10689SOL    HW132966   6.315   0.329   2.690
10689SOL    HW232967   6.405   0.458   2.647
10690SOL     OW32968   0.223   5.664   3.439
10690SOL    HW132969   0.192   5.587   3.384
10690SOL    HW232970   0.306   5.703   3.399
10691SOL     OW32971   1.541   1.892   2.078
10691SOL    HW132972   1.566   1.845   2.163
10691SOL    HW232973   1.516   1.825   2.009
10692SOL     OW32974   2.493   0.383   3.757
10692SOL    HW132975   2.538   0.324   3.690
10692SOL    HW232976   2.557   0.403   3.831
10693SOL     OW32977   1.800   6.189   1.518
10693SOL    HW132978   1.823   6.232   1.604
10693SOL    HW232979   1.706   6.213   1.492
10694SOL     OW32980   5.236   5.833   6.878
10694SOL    HW132981   5.329   5.812   6.852
10694SOL    HW232982   5.172   5.789   6.816
10695SOL     OW32983   1.425   2.386   2.539
10695SOL    HW132984   1.458   2.411   2.631
10695SOL    HW232985   1.332   2.420   2.527
10696SOL     OW32986   6.268   4.405   3.727
10696SOL    HW132987   6.190   4.397   3.789
10696SOL    HW232988   6.345   4.352   3.763
10697SOL     OW32989   0.665   0.263   5.354
10697SOL    HW132990   0.643   0.359   5.372
10697SOL    HW232991   0.637   0.207   5.432
10698SOL     OW32992   4.999   4.669   6.953
10698SOL    HW132993   5.094   4.657   6.924
10698SOL    HW232994   4.996   4.730   0.007
10699SOL     OW32995   3.958   4.511   1.721
10699SOL    HW132996   4.022   4.462   1.662
10699SOL    HW232997   3.872   4.460   1.727
10700SOL     OW32998   5.337   6.147   0.555
10700SOL    HW132999   5.394   6.071   0.586
10700SOL    HW233000   5.267   6.167   0.624
10701SOL     OW33001   2.309   6.850   5.819
10701SOL    HW133002   2.329   6.801   5.904
10701SOL    HW233003   2.382   6.833   5.753
10702SOL     OW33004   5.901   3.208   2.360
10702SOL    HW133005   5.925   3.303   2.337
10702SOL    HW233006   5.920   3.191   2.456
10703SOL     OW33007   2.671   3.079   5.359
10703SOL    HW133008   2.583   3.068   5.312
10703SOL    HW233009   2.718   2.991   5.362
10704SOL     OW33010   5.959   5.231   2.077
10704SOL    HW133011   5.943   5.135   2.100
10704SOL    HW233012   6.020   5.237   1.998
10705SOL     OW33013   6.446   5.032   1.590
10705SOL    HW133014   6.482   4.954   1.640
10705SOL    HW233015   6.520   5.098   1.572
10706SOL     OW33016   4.756   0.633   3.055
10706SOL    HW133017   4.690   0.675   2.993
10706SOL    HW233018   4.713   0.554   3.101
10707SOL     OW33019   0.212   6.806   4.658
10707SOL    HW133020   0.303   6.841   4.635
10707SOL    HW233021   0.146   6.881   4.660
10708SOL     OW33022   3.798   1.504   1.062
10708SOL    HW133023   3.726   1.566   1.092
10708SOL    HW233024   3.881   1.521   1.116
10709SOL     OW33025   5.701   5.892   5.595
10709SOL    HW133026   5.706   5.862   5.500
10709SOL    HW233027   5.775   5.851   5.647
10710SOL     OW33028   6.458   0.845   4.354
10710SOL    HW133029   6.454   0.937   4.315
10710SOL    HW233030   6.429   0.849   4.449
10711SOL     OW33031   2.161   6.231   3.863
10711SOL    HW133032   2.085   6.190   3.813
10711SOL    HW233033   2.190   6.170   3.937
10712SOL     OW33034   2.974   0.618   1.897
10712SOL    HW133035   2.930   0.690   1.844
10712SOL    HW233036   2.914   0.591   1.972
10713SOL     OW33037   0.772   3.286   1.401
10713SOL    HW133038   0.776   3.385   1.390
10713SOL    HW233039   0.703   3.248   1.339
10714SOL     OW33040   5.588   3.612   5.197
10714SOL    HW133041   5.600   3.686   5.263
10714SOL    HW233042   5.589   3.524   5.245
10715SOL     OW33043   4.596   0.433   2.193
10715SOL    HW133044   4.634   0.341   2.182
10715SOL    HW233045   4.528   0.450   2.122
10716SOL     OW33046   5.784   1.880   3.869
10716SOL    HW133047   5.736   1.810   3.923
10716SOL    HW233048   5.754   1.971   3.899
10717SOL     OW33049   0.957   2.439   1.126
10717SOL    HW133050   0.919   2.491   1.049
10717SOL    HW233051   1.052   2.416   1.107
10718SOL     OW33052   0.743   3.390   6.889
10718SOL    HW133053   0.842   3.382   6.879
10718SOL    HW233054   0.718   3.383   6.986
10719SOL     OW33055   6.865   5.407   2.598
10719SOL    HW133056   6.801   5.358   2.539
10719SOL    HW233057   6.916   5.474   2.543
10720SOL     OW33058   0.350   4.650   5.238
10720SOL    HW133059   0.329   4.621   5.331
10720SOL    HW233060   0.271   4.699   5.200
10721SOL     OW33061   5.328   4.201   4.925
10721SOL    HW133062   5.293   4.206   5.019
10721SOL    HW233063   5.389   4.122   4.917
10722SOL     OW33064   1.158   4.901   6.577
10722SOL    HW133065   1.110   4.957   6.510
10722SOL    HW233066   1.164   4.806   6.544
10723SOL     OW33067   0.607   2.936   5.961
10723SOL    HW133068   0.507   2.929   5.961
10723SOL    HW233069   0.642   2.906   5.872
10724SOL     OW33070   6.524   1.574   0.010
10724SOL    HW133071   6.589   1.571   6.960
10724SOL    HW233072   6.566   1.617   0.090
10725SOL     OW33073   1.430   5.190   4.195
10725SOL    HW133074   1.394   5.102   4.227
10725SOL    HW233075   1.489   5.175   4.115
10726SOL     OW33076   5.349   0.198   5.154
10726SOL    HW133077   5.271   0.180   5.093
10726SOL    HW233078   5.388   0.287   5.131
10727SOL     OW33079   0.433   4.958   5.525
10727SOL    HW133080   0.363   5.000   5.468
10727SOL    HW233081   0.513   5.018   5.530
10728SOL     OW33082   0.378   5.751   6.540
10728SOL    HW133083   0.470   5.713   6.529
10728SOL    HW233084   0.366   5.827   6.477
10729SOL     OW33085   5.417   2.045   2.007
10729SOL    HW133086   5.342   2.018   1.947
10729SOL    HW233087   5.381   2.084   2.091
10730SOL     OW33088   2.152   1.030   1.072
10730SOL    HW133089   2.101   0.949   1.098
10730SOL    HW233090   2.185   1.076   1.155
10731SOL     OW33091   3.377   6.596   0.766
10731SOL    HW133092   3.469   6.588   0.728
10731SOL    HW233093   3.377   6.658   0.844
10732SOL     OW33094   5.989   4.987   4.638
10732SOL    HW133095   6.068   4.961   4.583
10732SOL    HW233096   5.906   4.948   4.598
10733SOL     OW33097   6.425   1.808   1.119
10733SOL    HW133098   6.326   1.820   1.129
10733SOL    HW233099   6.451   1.830   1.026
10734SOL     OW33100   0.728   0.424   0.226
10734SOL    HW133101   0.747   0.458   0.134
10734SOL    HW233102   0.656   0.356   0.222
10735SOL     OW33103   0.442   2.856   3.452
10735SOL    HW133104   0.523   2.847   3.394
10735SOL    HW233105   0.460   2.924   3.523
10736SOL     OW33106   1.412   0.229   3.589
10736SOL    HW133107   1.331   0.280   3.557
10736SOL    HW233108   1.487   0.293   3.605
10737SOL     OW33109   1.720   1.800   1.199
10737SOL    HW133110   1.621   1.806   1.213
10737SOL    HW233111   1.740   1.739   1.123
10738SOL     OW33112   2.511   0.613   3.382
10738SOL    HW133113   2.414   0.622   3.361
10738SOL    HW233114   2.535   0.672   3.459
10739SOL     OW33115   1.248   1.536   1.047
10739SOL    HW133116   1.321   1.599   1.071
10739SOL    HW233117   1.277   1.442   1.070
10740SOL     OW33118   6.982   4.846   4.805
10740SOL    HW133119   7.022   4.938   4.813
10740SOL    HW233120   6.889   4.853   4.769
10741SOL     OW33121   5.642   0.439   1.047
10741SOL    HW133122   5.666   0.444   1.144
10741SOL    HW233123   5.570   0.505   1.027
10742SOL     OW33124   5.620   0.455   0.531
10742SOL    HW133125   5.556   0.531   0.542
10742SOL    HW233126   5.714   0.489   0.536
10743SOL     OW33127   2.571   1.203   5.612
10743SOL    HW133128   2.613   1.114   5.590
10743SOL    HW233129   2.481   1.187   5.653
10744SOL     OW33130   3.790   1.741   1.361
10744SOL    HW133131   3.809   1.822   1.417
10744SOL    HW233132   3.726   1.766   1.288
10745SOL     OW33133   0.457   5.952   6.748
10745SOL    HW133134   0.381   6.002   6.707
10745SOL    HW233135   0.519   5.920   6.676
10746SOL     OW33136   2.092   4.802   1.505
10746SOL    HW133137   2.163   4.868   1.528
10746SOL    HW233138   2.014   4.849   1.465
10747SOL     OW33139   3.715   1.324   4.317
10747SOL    HW133140   3.652   1.316   4.395
10747SOL    HW233141   3.769   1.407   4.326
10748SOL     OW33142   5.024   0.813   0.915
10748SOL    HW133143   5.029   0.886   0.846
10748SOL    HW233144   4.948   0.752   0.893
10749SOL     OW33145   0.710   5.464   2.837
10749SOL    HW133146   0.711   5.364   2.833
10749SOL    HW233147   0.779   5.500   2.774
10750SOL     OW33148   4.061   6.263   4.929
10750SOL    HW133149   4.113   6.197   4.984
10750SOL    HW233150   3.963   6.250   4.945
10751SOL     OW33151   1.922   4.091   4.871
10751SOL    HW133152   1.856   4.125   4.804
10751SOL    HW233153   1.886   4.104   4.963
10752SOL     OW33154   6.197   4.095   6.518
10752SOL    HW133155   6.102   4.124   6.529
10752SOL    HW233156   6.201   4.025   6.446
10753SOL     OW33157   4.700   5.813   4.467
10753SOL    HW133158   4.639   5.760   4.408
10753SOL    HW233159   4.785   5.762   4.482
10754SOL     OW33160   0.790   1.275   2.859
10754SOL    HW133161   0.882   1.313   2.848
10754SOL    HW233162   0.785   1.187   2.812
10755SOL     OW33163   6.394   1.022   6.248
10755SOL    HW133164   6.460   1.081   6.295
10755SOL    HW233165   6.317   1.004   6.308
10756SOL     OW33166   6.781   4.761   0.167
10756SOL    HW133167   6.685   4.733   0.158
10756SOL    HW233168   6.840   4.689   0.130
10757SOL     OW33169   2.430   2.924   0.599
10757SOL    HW133170   2.438   3.023   0.584
10757SOL    HW233171   2.519   2.888   0.628
10758SOL     OW33172   0.338   6.360   4.115
10758SOL    HW133173   0.347   6.422   4.038
10758SOL    HW233174   0.424   6.357   4.166
10759SOL     OW33175   1.818   3.172   1.313
10759SOL    HW133176   1.807   3.262   1.270
10759SOL    HW233177   1.772   3.103   1.258
10760SOL     OW33178   5.897   1.578   2.211
10760SOL    HW133179   5.955   1.499   2.190
10760SOL    HW233180   5.852   1.563   2.299
10761SOL     OW33181   1.041   6.722   6.319
10761SOL    HW133182   1.013   6.816   6.302
10761SOL    HW233183   0.965   6.671   6.359
10762SOL     OW33184   3.751   2.098   4.218
10762SOL    HW133185   3.788   2.131   4.131
10762SOL    HW233186   3.661   2.138   4.233
10763SOL     OW33187   5.180   6.423   2.452
10763SOL    HW133188   5.135   6.512   2.443
10763SOL    HW233189   5.279   6.435   2.442
10764SOL     OW33190   4.785   2.488   5.971
10764SOL    HW133191   4.810   2.524   5.881
10764SOL    HW233192   4.866   2.488   6.031
10765SOL     OW33193   5.178   2.246   0.264
10765SOL    HW133194   5.115   2.169   0.273
10765SOL    HW233195   5.259   2.231   0.320
10766SOL     OW33196   4.919   3.722   0.322
10766SOL    HW133197   4.976   3.777   0.383
10766SOL    HW233198   4.972   3.697   0.240
10767SOL     OW33199   1.291   0.811   0.319
10767SOL    HW133200   1.225   0.876   0.282
10767SOL    HW233201   1.281   0.722   0.273
10768SOL     OW33202   4.763   4.209   1.861
10768SOL    HW133203   4.790   4.116   1.889
10768SOL    HW233204   4.673   4.230   1.900
10769SOL     OW33205   2.674   4.089   5.321
10769SOL    HW133206   2.598   4.060   5.263
10769SOL    HW233207   2.693   4.186   5.304
10770SOL     OW33208   5.554   0.539   4.974
10770SOL    HW133209   5.617   0.616   4.982
10770SOL    HW233210   5.548   0.492   5.062
10771SOL     OW33211   5.898   0.306   3.629
10771SOL    HW133212   5.991   0.339   3.648
10771SOL    HW233213   5.874   0.234   3.694
10772SOL     OW33214   5.651   6.743   4.351
10772SOL    HW133215   5.621   6.648   4.359
10772SOL    HW233216   5.720   6.763   4.421
10773SOL     OW33217   6.459   5.953   6.954
10773SOL    HW133218   6.447   6.003   0.013
10773SOL    HW233219   6.556   5.949   6.930
10774SOL     OW33220   2.917   1.619   6.872
10774SOL    HW133221   2.900   1.530   6.829
10774SOL    HW233222   2.898   1.692   6.807
10775SOL     OW33223   0.374   4.688   1.613
10775SOL    HW133224   0.345   4.781   1.633
10775SOL    HW233225   0.362   4.630   1.694
10776SOL     OW33226   7.015   0.638   6.674
10776SOL    HW133227   6.979   0.729   6.656
10776SOL    HW233228   6.940   0.578   6.702
10777SOL     OW33229   3.729   5.517   2.871
10777SOL    HW133230   3.727   5.514   2.971
10777SOL    HW233231   3.814   5.475   2.838
10778SOL     OW33232   5.851   6.879   4.197
10778SOL    HW133233   5.907   6.891   4.279
10778SOL    HW233234   5.802   6.792   4.203
10779SOL     OW33235   6.397   3.370   3.685
10779SOL    HW133236   6.452   3.451   3.665
10779SOL    HW233237   6.354   3.337   3.601
10780SOL     OW33238   2.247   0.953   3.562
10780SOL    HW133239   2.330   1.008   3.554
10780SOL    HW233240   2.248   0.903   3.649
10781SOL     OW33241   4.564   1.042   4.372
10781SOL    HW133242   4.628   1.035   4.448
10781SOL    HW233243   4.470   1.033   4.406
10782SOL     OW33244   6.427   2.014   1.689
10782SOL    HW133245   6.508   1.957   1.675
10782SOL    HW233246   6.397   2.006   1.784
10783SOL     OW33247   0.343   2.919   3.027
10783SOL    HW133248   0.313   2.994   3.087
10783SOL    HW233249   0.263   2.868   2.995
10784SOL     OW33250   3.531   6.644   4.037
10784SOL    HW133251   3.534   6.571   3.969
10784SOL    HW233252   3.479   6.721   4.001
10785SOL     OW33253   0.126   4.611   1.039
10785SOL    HW133254   0.130   4.698   1.087
10785SOL    HW233255   0.172   4.541   1.094
10786SOL     OW33256   5.795   4.545   3.278
10786SOL    HW133257   5.801   4.615   3.348
10786SOL    HW233258   5.718   4.484   3.297
10787SOL     OW33259   2.133   1.359   5.156
10787SOL    HW133260   2.210   1.300   5.134
10787SOL    HW233261   2.048   1.307   5.150
10788SOL     OW33262   2.024   4.393   5.962
10788SOL    HW133263   2.064   4.355   6.045
10788SOL    HW233264   1.966   4.471   5.985
10789SOL     OW33265   6.890   3.114   6.658
10789SOL    HW133266   6.938   3.136   6.743
10789SOL    HW233267   6.904   3.017   6.636
10790SOL     OW33268   1.205   0.258   1.865
10790SOL    HW133269   1.132   0.230   1.927
10790SOL    HW233270   1.170   0.261   1.771
10791SOL     OW33271   6.576   6.996   1.658
10791SOL    HW133272   6.670   6.977   1.686
10791SOL    HW233273   6.516   6.992   1.738
10792SOL     OW33274   3.090   3.686   4.719
10792SOL    HW133275   3.077   3.784   4.735
10792SOL    HW233276   3.092   3.638   4.807
10793SOL     OW33277   5.451   3.176   4.515
10793SOL    HW133278   5.369   3.148   4.464
10793SOL    HW233279   5.458   3.276   4.513
10794SOL     OW33280   3.143   3.329   4.193
10794SOL    HW133281   3.135   3.236   4.228
10794SOL    HW233282   3.111   3.332   4.099
10795SOL     OW33283   6.741   5.128   1.898
10795SOL    HW133284   6.731   5.039   1.943
10795SOL    HW233285   6.720   5.201   1.963
10796SOL     OW33286   5.585   0.505   6.154
10796SOL    HW133287   5.618   0.468   6.241
10796SOL    HW233288   5.584   0.433   6.085
10797SOL     OW33289   3.167   2.201   1.550
10797SOL    HW133290   3.237   2.141   1.510
10797SOL    HW233291   3.201   2.238   1.637
10798SOL     OW33292   2.613   0.211   0.154
10798SOL    HW133293   2.538   0.153   0.123
10798SOL    HW233294   2.700   0.164   0.140
10799SOL     OW33295   3.853   1.256   1.958
10799SOL    HW133296   3.897   1.195   1.892
10799SOL    HW233297   3.808   1.331   1.909
10800SOL     OW33298   6.739   6.496   6.096
10800SOL    HW133299   6.780   6.566   6.155
10800SOL    HW233300   6.766   6.406   6.129
10801SOL     OW33301   0.709   6.141   6.045
10801SOL    HW133302   0.765   6.213   6.004
10801SOL    HW233303   0.743   6.122   6.138
10802SOL     OW33304   0.935   0.489   2.701
10802SOL    HW133305   0.932   0.546   2.618
10802SOL    HW233306   0.861   0.422   2.699
10803SOL     OW33307   2.161   4.950   6.167
10803SOL    HW133308   2.176   4.853   6.145
10803SOL    HW233309   2.246   5.001   6.149
10804SOL     OW33310   5.904   3.497   2.280
10804SOL    HW133311   5.849   3.500   2.363
10804SOL    HW233312   5.848   3.521   2.201
10805SOL     OW33313   4.637   6.195   6.199
10805SOL    HW133314   4.660   6.290   6.177
10805SOL    HW233315   4.644   6.180   6.297
10806SOL     OW33316   4.503   4.083   6.633
10806SOL    HW133317   4.453   4.137   6.566
10806SOL    HW233318   4.453   3.998   6.652
10807SOL     OW33319   1.561   6.923   2.355
10807SOL    HW133320   1.592   6.978   2.277
10807SOL    HW233321   1.625   6.848   2.370
10808SOL     OW33322   0.000   3.018   5.947
10808SOL    HW133323   6.947   2.975   5.905
10808SOL    HW233324   0.068   3.039   5.877
10809SOL     OW33325   2.880   4.957   3.543
10809SOL    HW133326   2.808   5.012   3.499
10809SOL    HW233327   2.886   4.982   3.640
10810SOL     OW33328   1.291   0.271   4.069
10810SOL    HW133329   1.287   0.250   3.972
10810SOL    HW233330   1.352   0.348   4.085
10811SOL     OW33331   4.497   4.732   5.971
10811SOL    HW133332   4.414   4.706   6.020
10811SOL    HW233333   4.577   4.694   6.017
10812SOL     OW33334   0.831   3.914   0.809
10812SOL    HW133335   0.888   3.994   0.829
10812SOL    HW233336   0.791   3.924   0.718
10813SOL     OW33337   1.640   4.118   6.469
10813SOL    HW133338   1.737   4.106   6.447
10813SOL    HW233339   1.586   4.121   6.385
10814SOL     OW33340   1.549   6.512   6.328
10814SOL    HW133341   1.475   6.486   6.267
10814SOL    HW233342   1.563   6.611   6.323
10815SOL     OW33343   5.328   3.836   3.191
10815SOL    HW133344   5.297   3.747   3.156
10815SOL    HW233345   5.363   3.824   3.284
10816SOL     OW33346   3.444   3.748   3.113
10816SOL    HW133347   3.544   3.750   3.114
10816SOL    HW233348   3.409   3.754   3.207
10817SOL     OW33349   4.430   0.412   3.347
10817SOL    HW133350   4.410   0.317   3.368
10817SOL    HW233351   4.459   0.459   3.431
10818SOL     OW33352   4.767   4.547   5.189
10818SOL    HW133353   4.799   4.570   5.281
10818SOL    HW233354   4.836   4.494   5.141
10819SOL     OW33355   6.607   5.326   6.335
10819SOL    HW133356   6.701   5.339   6.304
10819SOL    HW233357   6.599   5.237   6.380
10820SOL     OW33358   0.167   5.085   4.264
10820SOL    HW133359   0.194   5.009   4.204
10820SOL    HW233360   0.246   5.113   4.319
10821SOL     OW33361   4.835   0.417   3.886
10821SOL    HW133362   4.926   0.384   3.861
10821SOL    HW233363   4.841   0.511   3.919
10822SOL     OW33364   6.304   2.122   3.098
10822SOL    HW133365   6.387   2.164   3.063
10822SOL    HW233366   6.226   2.180   3.078
10823SOL     OW33367   1.204   0.669   1.985
10823SOL    HW133368   1.244   0.738   2.046
10823SOL    HW233369   1.109   0.653   2.011
10824SOL     OW33370   6.900   1.368   2.846
10824SOL    HW133371   6.912   1.451   2.792
10824SOL    HW233372   6.987   1.318   2.851
10825SOL     OW33373   2.053   2.001   6.318
10825SOL    HW133374   2.017   2.094   6.324
10825SOL    HW233375   2.082   1.982   6.225
10826SOL     OW33376   0.610   2.378   3.312
10826SOL    HW133377   0.656   2.457   3.353
10826SOL    HW233378   0.674   2.301   3.307
10827SOL     OW33379   6.954   3.406   4.710
10827SOL    HW133380   6.949   3.395   4.611
10827SOL    HW233381   0.023   3.391   4.741
10828SOL     OW33382   1.336   4.699   0.836
10828SOL    HW133383   1.243   4.664   0.848
10828SOL    HW233384   1.364   4.685   0.741
10829SOL     OW33385   4.471   2.961   0.270
10829SOL    HW133386   4.420   2.951   0.355
10829SOL    HW233387   4.568   2.940   0.287
10830SOL     OW33388   4.502   1.834   3.152
10830SOL    HW133389   4.474   1.741   3.127
10830SOL    HW233390   4.464   1.858   3.241
10831SOL     OW33391   3.140   6.700   2.788
10831SOL    HW133392   3.181   6.644   2.715
10831SOL    HW233393   3.211   6.727   2.853
10832SOL     OW33394   0.654   3.357   5.944
10832SOL    HW133395   0.639   3.278   5.885
10832SOL    HW233396   0.752   3.365   5.964
10833SOL     OW33397   0.824   1.036   2.019
10833SOL    HW133398   0.733   1.064   2.050
10833SOL    HW233399   0.833   1.053   1.921
10834SOL     OW33400   0.028   1.636   0.679
10834SOL    HW133401   0.091   1.602   0.610
10834SOL    HW233402   0.077   1.695   0.743
10835SOL     OW33403   5.871   2.403   0.520
10835SOL    HW133404   5.917   2.451   0.595
10835SOL    HW233405   5.934   2.395   0.443
10836SOL     OW33406   6.409   1.432   4.872
10836SOL    HW133407   6.431   1.477   4.786
10836SOL    HW233408   6.488   1.436   4.933
10837SOL     OW33409   6.415   5.393   1.112
10837SOL    HW133410   6.373   5.336   1.182
10837SOL    HW233411   6.463   5.335   1.046
10838SOL     OW33412   6.825   6.172   3.664
10838SOL    HW133413   6.764   6.132   3.596
10838SOL    HW233414   6.919   6.167   3.632
10839SOL     OW33415   4.463   3.092   1.694
10839SOL    HW133416   4.456   3.166   1.761
10839SOL    HW233417   4.538   3.031   1.718
10840SOL     OW33418   3.392   6.330   2.666
10840SOL    HW133419   3.452   6.255   2.694
10840SOL    HW233420   3.388   6.333   2.566
10841SOL     OW33421   6.359   4.915   5.686
10841SOL    HW133422   6.438   4.857   5.705
10841SOL    HW233423   6.351   4.930   5.588
10842SOL     OW33424   5.178   2.231   1.202
10842SOL    HW133425   5.160   2.322   1.164
10842SOL    HW233426   5.105   2.208   1.267
10843SOL     OW33427   1.147   1.625   1.321
10843SOL    HW133428   1.072   1.686   1.346
10843SOL    HW233429   1.166   1.633   1.223
10844SOL     OW33430   0.641   6.154   2.900
10844SOL    HW133431   0.580   6.233   2.897
10844SOL    HW233432   0.693   6.156   2.986
10845SOL     OW33433   3.633   6.583   5.448
10845SOL    HW133434   3.573   6.560   5.525
10845SOL    HW233435   3.723   6.609   5.482
10846SOL     OW33436   5.677   0.927   0.247
10846SOL    HW133437   5.594   0.917   0.302
10846SOL    HW233438   5.749   0.970   0.302
10847SOL     OW33439   3.412   3.014   0.369
10847SOL    HW133440   3.383   3.071   0.445
10847SOL    HW233441   3.491   3.056   0.324
10848SOL     OW33442   2.422   3.889   0.948
10848SOL    HW133443   2.481   3.839   0.884
10848SOL    HW233444   2.409   3.834   1.030
10849SOL     OW33445   2.559   4.584   3.769
10849SOL    HW133446   2.532   4.490   3.746
10849SOL    HW233447   2.634   4.612   3.709
10850SOL     OW33448   2.604   6.433   6.109
10850SOL    HW133449   2.600   6.495   6.031
10850SOL    HW233450   2.688   6.449   6.161
10851SOL     OW33451   2.449   3.476   0.742
10851SOL    HW133452   2.408   3.507   0.656
10851SOL    HW233453   2.395   3.402   0.780
10852SOL     OW33454   1.410   0.423   0.023
10852SOL    HW133455   1.366   0.349   6.998
10852SOL    HW233456   1.402   0.508   6.998
10853SOL     OW33457   1.765   2.587   5.151
10853SOL    HW133458   1.806   2.678   5.141
10853SOL    HW233459   1.746   2.549   5.060
10854SOL     OW33460   4.697   4.904   5.418
10854SOL    HW133461   4.676   4.897   5.320
10854SOL    HW233462   4.744   4.821   5.448
10855SOL     OW33463   3.750   1.268   0.919
10855SOL    HW133464   3.838   1.249   0.876
10855SOL    HW233465   3.756   1.352   0.972
10856SOL     OW33466   5.269   1.219   0.321
10856SOL    HW133467   5.207   1.240   0.397
10856SOL    HW233468   5.219   1.228   0.235
10857SOL     OW33469   0.704   1.884   2.965
10857SOL    HW133470   0.628   1.841   2.917
10857SOL    HW233471   0.670   1.960   3.020
10858SOL     OW33472   0.796   1.400   6.938
10858SOL    HW133473   0.786   1.370   6.843
10858SOL    HW233474   0.809   1.499   6.940
10859SOL     OW33475   1.047   4.178   4.612
10859SOL    HW133476   1.126   4.117   4.615
10859SOL    HW233477   1.075   4.269   4.583
10860SOL     OW33478   0.315   2.928   4.902
10860SOL    HW133479   0.310   2.835   4.865
10860SOL    HW233480   0.308   2.994   4.827
10861SOL     OW33481   3.308   3.959   4.075
10861SOL    HW133482   3.345   3.867   4.092
10861SOL    HW233483   3.241   3.954   4.002
10862SOL     OW33484   2.121   1.356   6.469
10862SOL    HW133485   2.124   1.453   6.492
10862SOL    HW233486   2.049   1.312   6.523
10863SOL     OW33487   3.369   0.815   3.916
10863SOL    HW133488   3.322   0.787   3.832
10863SOL    HW233489   3.302   0.843   3.985
10864SOL     OW33490   2.189   6.524   0.217
10864SOL    HW133491   2.168   6.462   0.141
10864SOL    HW233492   2.284   6.510   0.246
10865SOL     OW33493   0.230   1.558   1.332
10865SOL    HW133494   0.186   1.470   1.350
10865SOL    HW233495   0.161   1.631   1.334
10866SOL     OW33496   5.527   4.180   0.728
10866SOL    HW133497   5.528   4.127   0.643
10866SOL    HW233498   5.433   4.185   0.763
10867SOL     OW33499   3.694   3.498   6.862
10867SOL    HW133500   3.721   3.580   6.913
10867SOL    HW233501   3.720   3.417   6.915
10868SOL     OW33502   5.101   1.197   3.905
10868SOL    HW133503   5.171   1.269   3.910
10868SOL    HW233504   5.011   1.238   3.921
10869NA      NA33505   6.437   2.961   5.361
10870NA      NA33506   4.535   4.576   5.122
10871NA      NA33507   1.733   3.007   2.142
10872NA      NA33508   5.172   3.730   4.860
10873NA      NA33509   4.215   2.297   5.251
10874NA      NA33510   3.602   4.798   1.694
10875NA      NA33511   6.973   4.915   0.357
10876NA      NA33512   3.696   3.429   4.492
10877NA      NA33513   4.857   6.143   0.218
10878NA      NA33514   3.529   6.583   5.240
10879NA      NA33515   5.868   5.308   1.776
10880NA      NA33516   2.123   0.229   4.212
10881NA      NA33517   3.712   5.399   2.467
10882NA      NA33518   3.835   3.827   2.364
   7.02591   7.02591   7.02591
